<LesHouchesEvents version="3.0">
<header>
<!--
#*********************************************************************
#                                                                    *
#                        MadGraph5_aMC@NLO                           *
#                                                                    *
#                           Going Beyond                             *
#                                                                    *
#                   http://madgraph.hep.uiuc.edu                     *
#                   http://madgraph.phys.ucl.ac.be                   *
#                   http://amcatnlo.cern.ch                          *
#                                                                    *
#                     The MadGraph5_aMC@NLO team                     *
#                                                                    *
#....................................................................*
#                                                                    *
# This file contains all the information necessary to reproduce      *
# the events generated:                                              *
#                                                                    *
# 1. software version                                                *
# 2. proc_card          : code generation info including model       *
# 3. param_card         : model primary parameters in the LH format  *
# 4. run_card           : running parameters (collider and cuts)     *
# 5. pythia_card        : present only if pythia has been run        *
# 6. pgs_card           : present only if pgs has been run           *
# 7. delphes_cards      : present only if delphes has been run       *
#                                                                    *
#                                                                    *
#*********************************************************************
-->
<MGVersion>
#5.2.2.3
</MGVersion>
<MG5ProcCard>
#************************************************************
#*                     MadGraph5_aMC@NLO                    *
#*                                                          *
#*                *                       *                 *
#*                  *        * *        *                   *
#*                    * * * * 5 * * * *                     *
#*                  *        * *        *                   *
#*                *                       *                 *
#*                                                          *
#*                                                          *
#*         VERSION 2.2.3                 2015-02-10         *
#*                                                          *
#*    The MadGraph5_aMC@NLO Development Team - Find us at   *
#*    https://server06.fynu.ucl.ac.be/projects/madgraph     *
#*                                                          *
#************************************************************
#*                                                          *
#*               Command File for MadGraph5_aMC@NLO         *
#*                                                          *
#*     run as ./bin/mg5_aMC  filename                       *
#*                                                          *
#************************************************************
set group_subprocesses Auto
set ignore_six_quark_processes False
set loop_optimized_output True
set gauge unitary
set complex_mass_scheme False
import model sm
define p = g u c d s u~ c~ d~ s~
define j = g u c d s u~ c~ d~ s~
define l+ = e+ mu+
define l- = e- mu-
define vl = ve vm vt
define vl~ = ve~ vm~ vt~
import model Zprime_UFO
generate p p > zph, zph > j j
add process p p > zph, zph > b b~
output Dijet_signal
</MG5ProcCard>
<MGProcCard>
#*********************************************************************
#                        MadGraph/MadEvent                           *
#                   http://madgraph.hep.uiuc.edu                     *
#                                                                    *
#                          proc_card.dat                             *
#*********************************************************************
#                                                                    *
#            This Files is generated by MADGRAPH 5                   *
#                                                                    *
# WARNING: This Files is generated for MADEVENT (compatibility issue)*
#          This files is NOT a valid MG4 proc_card.dat               *
#          Running this in MG4 will NEVER reproduce the result of MG5*
#                                                                    *
#*********************************************************************
#*********************************************************************
# Process(es) requested : mg2 input                                  *
#*********************************************************************
# Begin PROCESS # This is TAG. Do not modify this line
p p > zph , zph > j j           #Process
# Be carefull the coupling are here in MG5 convention
          
end_coup           # End the couplings input

done               # this tells MG there are no more procs
# End PROCESS  # This is TAG. Do not modify this line
#*********************************************************************
# Model information                                                  *
#*********************************************************************
# Begin MODEL  # This is TAG. Do not modify this line
Zprime_UFO
# End   MODEL  # This is TAG. Do not modify this line
#*********************************************************************
# Start multiparticle definitions                                    *
#*********************************************************************
# Begin MULTIPARTICLES # This is TAG. Do not modify this line

# End  MULTIPARTICLES # This is TAG. Do not modify this line
</MGProcCard>
<MGRunCard>
#*********************************************************************
#                       MadGraph5_aMC@NLO                            *
#                                                                    *
#                     run_card.dat MadEvent                          *
#                                                                    *
#  This file is used to set the parameters of the run.               *
#                                                                    *
#  Some notation/conventions:                                        *
#                                                                    *
#   Lines starting with a '# ' are info or comments                  *
#                                                                    *
#   mind the format:   value    = variable     ! comment             *
#*********************************************************************
#
#*******************                                                 
# Running parameters
#*******************                                                 
#                                                                    
#*********************************************************************
# Tag name for the run (one word)                                    *
#*********************************************************************
  tag_1     = run_tag ! name of the run 
#*********************************************************************
# Run to generate the grid pack                                      *
#*********************************************************************
  .false.     = gridpack  !True = setting up the grid pack
#*********************************************************************
# Number of events and rnd seed                                      *
# Warning: Do not generate more than 1M events in a single run       *
# If you want to run Pythia, avoid more than 50k events in a run.    *
#*********************************************************************
  2000 = nevents ! Number of unweighted events requested 
 2613 = iseed   ! rnd seed (0=assigned automatically=default))
#*********************************************************************
# Collider type and energy                                           *
# lpp: 0=No PDF, 1=proton, -1=antiproton, 2=photon from proton,      *
#                                         3=photon from electron     *
#*********************************************************************
        1     = lpp1    ! beam 1 type 
        1     = lpp2    ! beam 2 type
     4000     = ebeam1  ! beam 1 total energy in GeV
     4000     = ebeam2  ! beam 2 total energy in GeV
#*********************************************************************
# Beam polarization from -100 (left-handed) to 100 (right-handed)    *
#*********************************************************************
        0     = polbeam1 ! beam polarization for beam 1
        0     = polbeam2 ! beam polarization for beam 2
#*********************************************************************
# PDF CHOICE: this automatically fixes also alpha_s and its evol.    *
#*********************************************************************
 'nn23lo1'    = pdlabel     ! PDF set                                     
 230000    = lhaid     ! if pdlabel=lhapdf, this is the lhapdf number
#*********************************************************************
# Renormalization and factorization scales                           *
#*********************************************************************
 F        = fixed_ren_scale  ! if .true. use fixed ren scale
 F        = fixed_fac_scale  ! if .true. use fixed fac scale
 91.1880  = scale            ! fixed ren scale
 91.1880  = dsqrt_q2fact1    ! fixed fact scale for pdf1
 91.1880  = dsqrt_q2fact2    ! fixed fact scale for pdf2
 1        = scalefact        ! scale factor for event-by-event scales
#*********************************************************************
# Matching - Warning! ickkw > 1 is still beta
#*********************************************************************
 0        = ickkw            ! 0 no matching, 1 MLM, 2 CKKW matching
 1        = highestmult      ! for ickkw=2, highest mult group
 1        = ktscheme         ! for ickkw=1, 1 Durham kT, 2 Pythia pTE
 1        = alpsfact         ! scale factor for QCD emission vx
 F        = chcluster        ! cluster only according to channel diag
 T        = pdfwgt           ! for ickkw=1, perform pdf reweighting
 5        = asrwgtflavor     ! highest quark flavor for a_s reweight
 T        = clusinfo         ! include clustering tag in output
 3.0      = lhe_version       ! Change the way clustering information pass to shower.        
#*********************************************************************
#**********************************************************
#
#**********************************************************
# Automatic ptj and mjj cuts if xqcut > 0
# (turn off for VBF and single top processes)
#**********************************************************
   T  = auto_ptj_mjj  ! Automatic setting of ptj and mjj
#**********************************************************
#                                                                    
#**********************************
# BW cutoff (M+/-bwcutoff*Gamma)
#**********************************
  15  = bwcutoff      ! (M+/-bwcutoff*Gamma)
#**********************************************************
# Apply pt/E/eta/dr/mij cuts on decay products or not
# (note that etmiss/ptll/ptheavy/ht/sorted cuts always apply)
#**********************************************************
   T  = cut_decays    ! Cut decay products 
#*************************************************************
# Number of helicities to sum per event (0 = all helicities)
# 0 gives more stable result, but longer run time (needed for
# long decay chains e.g.).
# Use >=2 if most helicities contribute, e.g. pure QCD.
#*************************************************************
   0  = nhel          ! Number of helicities used per event
#*******************                                                 
# Standard Cuts
#*******************                                                 
#                                                                    
#*********************************************************************
# Minimum and maximum pt's (for max, -1 means no cut)                *
#*********************************************************************
 20  = ptj       ! minimum pt for the jets 
  0  = ptb       ! minimum pt for the b 
 10  = pta       ! minimum pt for the photons 
 10  = ptl       ! minimum pt for the charged leptons 
  0  = misset    ! minimum missing Et (sum of neutrino's momenta)
  0  = ptheavy   ! minimum pt for one heavy final state
 1.0 = ptonium   ! minimum pt for the quarkonium states
 -1  = ptjmax    ! maximum pt for the jets
 -1  = ptbmax    ! maximum pt for the b
 -1  = ptamax    ! maximum pt for the photons
 -1  = ptlmax    ! maximum pt for the charged leptons
 -1  = missetmax ! maximum missing Et (sum of neutrino's momenta)
#*********************************************************************
# Minimum and maximum E's (in the center of mass frame)              *
#*********************************************************************
  0  = ej     ! minimum E for the jets 
  0  = eb     ! minimum E for the b 
  0  = ea     ! minimum E for the photons 
  0  = el     ! minimum E for the charged leptons 
 -1   = ejmax ! maximum E for the jets
 -1   = ebmax ! maximum E for the b
 -1   = eamax ! maximum E for the photons
 -1   = elmax ! maximum E for the charged leptons
#*********************************************************************
# Maximum and minimum absolute rapidity (for max, -1 means no cut)   *
#*********************************************************************
   5  = etaj    ! max rap for the jets 
  -1  = etab    ! max rap for the b
 2.5  = etaa    ! max rap for the photons 
 2.5  = etal    ! max rap for the charged leptons 
 0.6  = etaonium ! max rap for the quarkonium states
   0  = etajmin ! min rap for the jets
   0  = etabmin ! min rap for the b
   0  = etaamin ! min rap for the photons
   0  = etalmin ! main rap for the charged leptons
#*********************************************************************
# Minimum and maximum DeltaR distance                                *
#*********************************************************************
 0.4 = drjj    ! min distance between jets 
 0   = drbb    ! min distance between b's 
 0.4 = drll    ! min distance between leptons 
 0.4 = draa    ! min distance between gammas 
 0   = drbj    ! min distance between b and jet 
 0.4 = draj    ! min distance between gamma and jet 
 0.4 = drjl    ! min distance between jet and lepton 
 0   = drab    ! min distance between gamma and b 
 0   = drbl    ! min distance between b and lepton 
 0.4 = dral    ! min distance between gamma and lepton 
 -1  = drjjmax ! max distance between jets
 -1  = drbbmax ! max distance between b's
 -1  = drllmax ! max distance between leptons
 -1  = draamax ! max distance between gammas
 -1  = drbjmax ! max distance between b and jet
 -1  = drajmax ! max distance between gamma and jet
 -1  = drjlmax ! max distance between jet and lepton
 -1  = drabmax ! max distance between gamma and b
 -1  = drblmax ! max distance between b and lepton
 -1  = dralmax ! maxdistance between gamma and lepton
#*********************************************************************
# Minimum and maximum invariant mass for pairs                       *
# WARNING: for four lepton final state mmll cut require to have      *
#          different lepton masses for each flavor!                  *           
#*********************************************************************
 0   = mmjj    ! min invariant mass of a jet pair 
 0   = mmbb    ! min invariant mass of a b pair 
 0   = mmaa    ! min invariant mass of gamma gamma pair
 0   = mmll    ! min invariant mass of l+l- (same flavour) lepton pair
 -1  = mmjjmax ! max invariant mass of a jet pair
 -1  = mmbbmax ! max invariant mass of a b pair
 -1  = mmaamax ! max invariant mass of gamma gamma pair
 -1  = mmllmax ! max invariant mass of l+l- (same flavour) lepton pair
#*********************************************************************
# Minimum and maximum invariant mass for all letpons                 *
#*********************************************************************
 0   = mmnl    ! min invariant mass for all letpons (l+- and vl) 
 -1  = mmnlmax ! max invariant mass for all letpons (l+- and vl) 
#*********************************************************************
# Minimum and maximum pt for 4-momenta sum of leptons                *
#*********************************************************************
 0   = ptllmin  ! Minimum pt for 4-momenta sum of leptons(l and vl)
 -1  = ptllmax  ! Maximum pt for 4-momenta sum of leptons(l and vl)
#*********************************************************************
# Inclusive cuts                                                     *
#*********************************************************************
 0  = xptj ! minimum pt for at least one jet  
 0  = xptb ! minimum pt for at least one b 
 0  = xpta ! minimum pt for at least one photon 
 0  = xptl ! minimum pt for at least one charged lepton 
#*********************************************************************
# Control the pt's of the jets sorted by pt                          *
#*********************************************************************
 0   = ptj1min ! minimum pt for the leading jet in pt
 0   = ptj2min ! minimum pt for the second jet in pt
 0   = ptj3min ! minimum pt for the third jet in pt
 0   = ptj4min ! minimum pt for the fourth jet in pt
 -1  = ptj1max ! maximum pt for the leading jet in pt 
 -1  = ptj2max ! maximum pt for the second jet in pt
 -1  = ptj3max ! maximum pt for the third jet in pt
 -1  = ptj4max ! maximum pt for the fourth jet in pt
 0   = cutuse  ! reject event if fails any (0) / all (1) jet pt cuts
#*********************************************************************
# Control the pt's of leptons sorted by pt                           *
#*********************************************************************
 0   = ptl1min ! minimum pt for the leading lepton in pt
 0   = ptl2min ! minimum pt for the second lepton in pt
 0   = ptl3min ! minimum pt for the third lepton in pt
 0   = ptl4min ! minimum pt for the fourth lepton in pt
 -1  = ptl1max ! maximum pt for the leading lepton in pt 
 -1  = ptl2max ! maximum pt for the second lepton in pt
 -1  = ptl3max ! maximum pt for the third lepton in pt
 -1  = ptl4max ! maximum pt for the fourth lepton in pt
#*********************************************************************
# Control the Ht(k)=Sum of k leading jets                            *
#*********************************************************************
 0   = htjmin ! minimum jet HT=Sum(jet pt)
 -1  = htjmax ! maximum jet HT=Sum(jet pt)
 0   = ihtmin  !inclusive Ht for all partons (including b)
 -1  = ihtmax  !inclusive Ht for all partons (including b)
 0   = ht2min ! minimum Ht for the two leading jets
 0   = ht3min ! minimum Ht for the three leading jets
 0   = ht4min ! minimum Ht for the four leading jets
 -1  = ht2max ! maximum Ht for the two leading jets
 -1  = ht3max ! maximum Ht for the three leading jets
 -1  = ht4max ! maximum Ht for the four leading jets
#***********************************************************************
# Photon-isolation cuts, according to hep-ph/9801442                   *
# When ptgmin=0, all the other parameters are ignored                  *
# When ptgmin>0, pta and draj are not going to be used                 *
#***********************************************************************
   0 = ptgmin ! Min photon transverse momentum
 0.4 = R0gamma ! Radius of isolation code
 1.0 = xn ! n parameter of eq.(3.4) in hep-ph/9801442
 1.0 = epsgamma ! epsilon_gamma parameter of eq.(3.4) in hep-ph/9801442
 .true. = isoEM ! isolate photons from EM energy (photons and leptons)
#*********************************************************************
# WBF cuts                                                           *
#*********************************************************************
 0   = xetamin ! minimum rapidity for two jets in the WBF case  
 0   = deltaeta ! minimum rapidity for two jets in the WBF case 
#*********************************************************************
# KT DURHAM CUT                                                      *
#*********************************************************************
 -1    =  ktdurham        
 0.4  =  dparameter 
#*********************************************************************
# maximal pdg code for quark to be considered as a light jet         *
# (otherwise b cuts are applied)                                     *
#*********************************************************************
 4 = maxjetflavor    ! Maximum jet pdg code
#*********************************************************************
# Jet measure cuts                                                   *
#*********************************************************************
 0   = xqcut   ! minimum kt jet measure between partons
#*********************************************************************
#
#*********************************************************************
# Store info for systematics studies                                 *
# WARNING: If use_syst is T, matched Pythia output is                *
#          meaningful ONLY if plotted taking matchscale              *
#          reweighting into account!                                 *
#*********************************************************************
   F  = use_syst      ! Enable systematics studies
#
#**************************************
# Parameter of the systematics study
#  will be used by SysCalc (if installed)
#**************************************                                  
#
0.5 1 2 = sys_scalefact  # factorization/renormalization scale factor
0.5 1 2 = sys_alpsfact  # \alpha_s emission scale factors
30 50 = sys_matchscale # variation of merging scale
# PDF sets and number of members (0 or none for all members).
CT10nlo.LHgrid = sys_pdf # matching scales
# MSTW2008nlo68cl.LHgrid 1  = sys_pdf
</MGRunCard>
<slha>
######################################################################
## PARAM_CARD AUTOMATICALY GENERATED BY MG5 FOLLOWING UFO MODEL   ####
######################################################################
##                                                                  ##
##  Width set on Auto will be computed following the information    ##
##        present in the decay.py files of the model.               ##
##        See  arXiv:1402.1178 for more details.                    ##
##                                                                  ##
######################################################################

###################################
## INFORMATION FOR CKMBLOCK
###################################
Block ckmblock 
    1 2.277360e-01 # cabi 

###################################
## INFORMATION FOR FRBLOCK
###################################
Block frblock 
    1 1.400000e+00 # gz 

###################################
## INFORMATION FOR MASS
###################################
Block mass 
    1 5.040000e-03 # MD 
    2 2.550000e-03 # MU 
    3 1.010000e-01 # MS 
    4 1.270000e+00 # MC 
    5 4.700000e+00 # MB 
    6 1.720000e+02 # MT 
   11 5.110000e-04 # Me 
   13 1.056600e-01 # MM 
   15 1.777000e+00 # MTA 
   23 9.118760e+01 # MZ 
   25 1.200000e+02 # MH 
  10030 2.400000e+03 # MZph 
  10031 3.000000e+02 # MZpl 
## Dependent parameters, given by model restrictions.
## Those values should be edited following the 
## analytical expression. MG5 ignores those values 
## but they are important for interfacing the output of MG5
## to external program such as Pythia.
  12 0.000000 # ve : 0.0 
  14 0.000000 # vm : 0.0 
  16 0.000000 # vt : 0.0 
  21 0.000000 # g : 0.0 
  22 0.000000 # a : 0.0 
  24 79.824360 # w+ : cmath.sqrt(MZ__exp__2/2. + cmath.sqrt(MZ__exp__4/4. - (aEW*cmath.pi*MZ__exp__2)/(Gf*sqrt__2))) 

###################################
## INFORMATION FOR SMINPUTS
###################################
Block sminputs 
    1 1.279000e+02 # aEWM1 
    2 1.166370e-05 # Gf 
    3 1.184000e-01 # aS 

###################################
## INFORMATION FOR YUKAWA
###################################
Block yukawa 
    1 5.040000e-03 # ymdo 
    2 2.550000e-03 # ymup 
    3 1.010000e-01 # yms 
    4 1.270000e+00 # ymc 
    5 4.700000e+00 # ymb 
    6 1.720000e+02 # ymt 
   11 5.110000e-04 # yme 
   13 1.056600e-01 # ymm 
   15 1.777000e+00 # ymtau 

###################################
## INFORMATION FOR DECAY
###################################
DECAY   6 1.508336e+00 # WT 
DECAY  23 2.495200e+00 # WZ 
DECAY  24 2.085000e+00 # WW 
DECAY  25 5.753088e-03 # WH 
## Dependent parameters, given by model restrictions.
## Those values should be edited following the 
## analytical expression. MG5 ignores those values 
## but they are important for interfacing the output of MG5
## to external program such as Pythia.
DECAY  1 0.000000 # d : 0.0 
DECAY  2 0.000000 # u : 0.0 
DECAY  3 0.000000 # s : 0.0 
DECAY  4 0.000000 # c : 0.0 
DECAY  5 0.000000 # b : 0.0 
DECAY  11 0.000000 # e- : 0.0 
DECAY  12 0.000000 # ve : 0.0 
DECAY  13 0.000000 # mu- : 0.0 
DECAY  14 0.000000 # vm : 0.0 
DECAY  15 0.000000 # ta- : 0.0 
DECAY  16 0.000000 # vt : 0.0 
DECAY  21 0.000000 # g : 0.0 
DECAY  22 0.000000 # a : 0.0 
DECAY  10030 0.308725 # zph : (gz__exp__2*MZph*(5 + cmath.sqrt(1 - (4*MT__exp__2)/MZph__exp__2)))/(144.*cmath.pi) 
DECAY  10031 0.132629 # zpl : (5*gz__exp__2*MZpl)/(144.*cmath.pi) 
#===========================================================
# QUANTUM NUMBERS OF NEW STATE(S) (NON SM PDG CODE)
#===========================================================

Block QNUMBERS 10030  # zph 
        1 0  # 3 times electric charge
        2 3  # number of spin states (2S+1)
        3 1  # colour rep (1: singlet, 3: triplet, 8: octet)
        4 0  # Particle/Antiparticle distinction (0=own anti)
Block QNUMBERS 10031  # zpl 
        1 0  # 3 times electric charge
        2 3  # number of spin states (2S+1)
        3 1  # colour rep (1: singlet, 3: triplet, 8: octet)
        4 0  # Particle/Antiparticle distinction (0=own anti)
</slha>
## END BANNER##
<MGGenerationInfo>
#  Number of Events        :         3975
#  Integrated weight (pb)  :  0.18713E-01
#  Max wgt                 :  0.69781E-05
#  Average wgt             :  0.47077E-05
</MGGenerationInfo>
</header>
<init>
     2212     2212  0.40000000000E+04  0.40000000000E+04 0 0  247000  247000 2   1
  0.18725221289E-01  0.49974616663E-04  0.69781150000E-05   0
</init>
<event>
 5   0  0.6337926E-05  0.2311571E+04  0.7818609E-02  0.8473373E-01
        2   -1    0    0  501    0  0.00000000000E+00  0.00000000000E+00  0.13156512145E+04  0.13156512145E+04  0.25500000920E-02 0. -1.
       -2   -1    0    0    0  501  0.00000000000E+00  0.00000000000E+00 -0.10153448844E+04  0.10153448844E+04  0.25500000920E-02 0.  1.
    10030    2    1    2    0    0  0.00000000000E+00  0.00000000000E+00  0.30030633003E+03  0.23309960989E+04  0.23115706611E+04 0.  0.
        1    1    3    3  502    0  0.10087841562E+04 -0.55884946431E+03  0.72817534117E+02  0.11555347640E+04  0.50400001928E-02 0.  1.
       -1    1    3    3    0  502 -0.10087841562E+04  0.55884946431E+03  0.22748879591E+03  0.11754613349E+04  0.50400001928E-02 0. -1.
</event>
<event>
 5   0  0.6337926E-05  0.2371166E+04  0.7818609E-02  0.8450378E-01
       -2   -1    0    0    0  501  0.00000000000E+00  0.00000000000E+00  0.16027512929E+04  0.16027512929E+04  0.25500000920E-02 0. -1.
        2   -1    0    0  501    0  0.00000000000E+00  0.00000000000E+00 -0.87699665807E+03  0.87699665808E+03  0.25500000920E-02 0.  1.
    10030    2    1    2    0    0  0.00000000000E+00  0.00000000000E+00  0.72575463485E+03  0.24797479510E+04  0.23711664030E+04 0.  0.
        1    1    3    3  502    0 -0.13089231490E+03  0.95803088042E+03  0.10803332966E+04  0.14498537849E+04  0.50400001928E-02 0. -1.
       -1    1    3    3    0  502  0.13089231490E+03 -0.95803088042E+03 -0.35457866173E+03  0.10298941661E+04  0.50400001928E-02 0.  1.
</event>
<event>
 5   0  0.6714629E-05  0.2413536E+04  0.7818609E-02  0.8434453E-01
        2   -1    0    0  501    0  0.00000000000E+00  0.00000000000E+00  0.13453333185E+04  0.13453333185E+04  0.25500000920E-02 0. -1.
       -2   -1    0    0    0  501  0.00000000000E+00  0.00000000000E+00 -0.10824747224E+04  0.10824747224E+04  0.25500000920E-02 0.  1.
    10030    2    1    2    0    0  0.00000000000E+00  0.00000000000E+00  0.26285859602E+03  0.24278080409E+04  0.24135362525E+04 0.  0.
        3    1    3    3  502    0 -0.70546147616E+03 -0.89228821607E+02 -0.84934983224E+03  0.11077151370E+04  0.10100000352E+00 0.  1.
       -3    1    3    3    0  502  0.70546147616E+03  0.89228821607E+02  0.11122084283E+04  0.13200929039E+04  0.10100000352E+00 0. -1.
</event>
<event>
 5   0  0.6337926E-05  0.2419614E+04  0.7818609E-02  0.8432197E-01
       -2   -1    0    0    0  501  0.00000000000E+00  0.00000000000E+00  0.59593371643E+03  0.59593371643E+03  0.25500000920E-02 0.  1.
        2   -1    0    0  501    0  0.00000000000E+00  0.00000000000E+00 -0.24560326768E+04  0.24560326768E+04  0.25500000920E-02 0. -1.
    10030    2    1    2    0    0  0.00000000000E+00  0.00000000000E+00 -0.18600989604E+04  0.30519663933E+04  0.24196137550E+04 0.  0.
        1    1    3    3  502    0  0.38925665674E+03  0.53184489796E+03 -0.22097099685E+04  0.23059050035E+04  0.50400001928E-02 0. -1.
       -1    1    3    3    0  502 -0.38925665674E+03 -0.53184489796E+03  0.34961100809E+03  0.74606138977E+03  0.50400001928E-02 0.  1.
</event>
<event>
 5   0  0.6714629E-05  0.2376655E+04  0.7818609E-02  0.8448295E-01
       -2   -1    0    0    0  501  0.00000000000E+00  0.00000000000E+00  0.58563813683E+03  0.58563813684E+03  0.25500000920E-02 0. -1.
        2   -1    0    0  501    0  0.00000000000E+00  0.00000000000E+00 -0.24112546855E+04  0.24112546855E+04  0.25500000920E-02 0.  1.
    10030    2    1    2    0    0  0.00000000000E+00  0.00000000000E+00 -0.18256165486E+04  0.29968928223E+04  0.23766553822E+04 0.  0.
        3    1    3    3  502    0 -0.24249577258E+03 -0.10685223534E+04 -0.33279125587E+03  0.11451175702E+04  0.10100000352E+00 0. -1.
       -3    1    3    3    0  502  0.24249577258E+03  0.10685223534E+04 -0.14928252928E+04  0.18517752521E+04  0.10100000352E+00 0.  1.
</event>
<event>
 5   0  0.2943123E-05  0.2488798E+04  0.7818609E-02  0.8406987E-01
        1   -1    0    0  501    0  0.00000000000E+00  0.00000000000E+00  0.13588703219E+04  0.13588703219E+04  0.50400001928E-02 0.  1.
       -1   -1    0    0    0  501  0.00000000000E+00  0.00000000000E+00 -0.11395707489E+04  0.11395707489E+04  0.50400001928E-02 0. -1.
    10030    2    1    2    0    0  0.00000000000E+00  0.00000000000E+00  0.21929957296E+03  0.24984410708E+04  0.24887979994E+04 0.  0.
        1    1    3    3  502    0 -0.72924295528E+03  0.31007629233E+03 -0.85353964672E+03  0.11646770039E+04  0.50400001928E-02 0. -1.
       -1    1    3    3    0  502  0.72924295528E+03 -0.31007629233E+03  0.10728392197E+04  0.13337640669E+04  0.50400001928E-02 0.  1.
</event>
<event>
 5   0  0.2943244E-05  0.2388946E+04  0.7818609E-02  0.8443654E-01
       -1   -1    0    0    0  501  0.00000000000E+00  0.00000000000E+00  0.14526593525E+04  0.14526593525E+04  0.50400001928E-02 0.  1.
        1   -1    0    0  501    0  0.00000000000E+00  0.00000000000E+00 -0.98217517336E+03  0.98217517337E+03  0.50400001928E-02 0. -1.
    10030    2    1    2    0    0  0.00000000000E+00  0.00000000000E+00  0.47048417916E+03  0.24348345259E+04  0.23889461705E+04 0.  0.
        3    1    3    3  502    0 -0.60197211941E+03  0.83865894451E+03  0.84765560606E+03  0.13357542043E+04  0.10100000352E+00 0.  1.
       -3    1    3    3    0  502  0.60197211941E+03 -0.83865894451E+03 -0.37717142689E+03  0.10990803216E+04  0.10100000352E+00 0. -1.
</event>
<event>
 5   0  0.6337926E-05  0.2394933E+04  0.7818609E-02  0.8441403E-01
       -2   -1    0    0    0  501  0.00000000000E+00  0.00000000000E+00  0.13308811398E+04  0.13308811398E+04  0.25500000920E-02 0. -1.
        2   -1    0    0  501    0  0.00000000000E+00  0.00000000000E+00 -0.10774262281E+04  0.10774262281E+04  0.25500000920E-02 0.  1.
    10030    2    1    2    0    0  0.00000000000E+00  0.00000000000E+00  0.25345491172E+03  0.24083073678E+04  0.23949331902E+04 0.  0.
        1    1    3    3  502    0  0.50033704275E+02  0.97314772831E+03  0.82660721881E+03  0.12778103799E+04  0.50400001928E-02 0. -1.
       -1    1    3    3    0  502 -0.50033704275E+02 -0.97314772831E+03 -0.57315230709E+03  0.11304969880E+04  0.50400001928E-02 0.  1.
</event>
<event>
 5   0  0.2915546E-05  0.2013222E+04  0.7818609E-02  0.8600464E-01
       -1   -1    0    0    0  501  0.00000000000E+00  0.00000000000E+00  0.44294423968E+03  0.44294423971E+03  0.50400001928E-02 0.  1.
        1   -1    0    0  501    0  0.00000000000E+00  0.00000000000E+00 -0.22875689138E+04  0.22875689138E+04  0.50400001928E-02 0. -1.
    10030    2    1    2    0    0  0.00000000000E+00  0.00000000000E+00 -0.18446246741E+04  0.27305131535E+04  0.20132217695E+04 0.  0.
        2    1    3    3  502    0 -0.35580934596E+03  0.10862016757E+02  0.35472497387E+03  0.50254162134E+03  0.25500000920E-02 0.  1.
       -2    1    3    3    0  502  0.35580934596E+03 -0.10862016757E+02 -0.21993496480E+04  0.22279715322E+04  0.25500000920E-02 0. -1.
</event>
<event>
 5   0  0.6337926E-05  0.1608667E+04  0.7818609E-02  0.8815241E-01
        2   -1    0    0  501    0  0.00000000000E+00  0.00000000000E+00  0.80956162013E+03  0.80956162014E+03  0.25500000920E-02 0. -1.
       -2   -1    0    0    0  501  0.00000000000E+00  0.00000000000E+00 -0.79913961217E+03  0.79913961217E+03  0.25500000920E-02 0.  1.
    10030    2    1    2    0    0  0.00000000000E+00  0.00000000000E+00  0.10422007963E+02  0.16087012323E+04  0.16086674723E+04 0.  0.
        1    1    3    3  502    0  0.41443582141E+03  0.54194609455E+03  0.43123654001E+03  0.80711063240E+03  0.50400001928E-02 0. -1.
       -1    1    3    3    0  502 -0.41443582141E+03 -0.54194609455E+03 -0.42081453204E+03  0.80159059991E+03  0.50400001928E-02 0.  1.
</event>
<event>
 5   0  0.6600166E-05  0.1949940E+04  0.7818609E-02  0.8630390E-01
       -2   -1    0    0    0  501  0.00000000000E+00  0.00000000000E+00  0.41624599777E+03  0.41624599778E+03  0.25500000920E-02 0. -1.
        2   -1    0    0  501    0  0.00000000000E+00  0.00000000000E+00 -0.22836640720E+04  0.22836640720E+04  0.25500000920E-02 0.  1.
    10030    2    1    2    0    0  0.00000000000E+00  0.00000000000E+00 -0.18674180743E+04  0.26999100698E+04  0.19499395173E+04 0.  0.
        5    1    3    3  502    0 -0.86507772191E+03 -0.44581316401E+03 -0.85255731686E+03  0.12938256879E+04  0.46999998093E+01 0. -1.
       -5    1    3    3    0  502  0.86507772191E+03  0.44581316401E+03 -0.10148607574E+04  0.14060843819E+04  0.46999998093E+01 0.  1.
</event>
<event>
 5   0  0.6600166E-05  0.2460266E+04  0.7818609E-02  0.8417279E-01
       -2   -1    0    0    0  501  0.00000000000E+00  0.00000000000E+00  0.66616233709E+03  0.66616233710E+03  0.25500000920E-02 0.  1.
        2   -1    0    0  501    0  0.00000000000E+00  0.00000000000E+00 -0.22715590032E+04  0.22715590032E+04  0.25500000920E-02 0. -1.
    10030    2    1    2    0    0  0.00000000000E+00  0.00000000000E+00 -0.16053966661E+04  0.29377213403E+04  0.24602658835E+04 0.  0.
        5    1    3    3  502    0  0.12062232086E+04 -0.23495552528E+03 -0.73700907679E+03  0.14329630132E+04  0.46999998093E+01 0. -1.
       -5    1    3    3    0  502 -0.12062232086E+04  0.23495552528E+03 -0.86838758933E+03  0.15047583271E+04  0.46999998093E+01 0.  1.
</event>
<event>
 5   0  0.2847158E-05  0.2403423E+04  0.7818609E-02  0.8438223E-01
        1   -1    0    0  501    0  0.00000000000E+00  0.00000000000E+00  0.10626111104E+04  0.10626111104E+04  0.50400001928E-02 0. -1.
       -1   -1    0    0    0  501  0.00000000000E+00  0.00000000000E+00 -0.13590202538E+04  0.13590202538E+04  0.50400001928E-02 0.  1.
    10030    2    1    2    0    0  0.00000000000E+00  0.00000000000E+00 -0.29640914340E+03  0.24216313642E+04  0.24034225770E+04 0.  0.
        5    1    3    3  502    0  0.10255472969E+04 -0.14488061859E+03 -0.76220655463E+03  0.12859698961E+04  0.46999998093E+01 0.  1.
       -5    1    3    3    0  502 -0.10255472969E+04  0.14488061859E+03  0.46579741123E+03  0.11356614681E+04  0.46999998093E+01 0. -1.
</event>
<event>
 5   0  0.2339125E-05  0.2419091E+04  0.7818609E-02  0.8432390E-01
       -3   -1    0    0    0  501  0.00000000000E+00  0.00000000000E+00  0.13276652161E+04  0.13276652200E+04  0.10100000352E+00 0. -1.
        3   -1    0    0  501    0  0.00000000000E+00  0.00000000000E+00 -0.11019349257E+04  0.11019349303E+04  0.10100000352E+00 0.  1.
    10030    2    1    2    0    0  0.00000000000E+00  0.00000000000E+00  0.22573029050E+03  0.24296001503E+04  0.24190913017E+04 0.  0.
        5    1    3    3  502    0 -0.41693678886E+03 -0.10957282496E+04  0.41168395426E+03  0.12425628560E+04  0.46999998093E+01 0. -1.
       -5    1    3    3    0  502  0.41693678886E+03  0.10957282496E+04 -0.18595366377E+03  0.11870372943E+04  0.46999998093E+01 0.  1.
</event>
<event>
 5   0  0.2943123E-05  0.1620974E+04  0.7818609E-02  0.8807766E-01
       -1   -1    0    0    0  501  0.00000000000E+00  0.00000000000E+00  0.99397048766E+03  0.99397048768E+03  0.50400001928E-02 0. -1.
        1   -1    0    0  501    0  0.00000000000E+00  0.00000000000E+00 -0.66087380237E+03  0.66087380239E+03  0.50400001928E-02 0.  1.
    10030    2    1    2    0    0  0.00000000000E+00  0.00000000000E+00  0.33309668529E+03  0.16548442901E+04  0.16209738501E+04 0.  0.
        1    1    3    3  502    0 -0.39758365049E+03 -0.13867130750E+03 -0.54044387169E+03  0.68511463941E+03  0.50400001928E-02 0.  1.
       -1    1    3    3    0  502  0.39758365049E+03  0.13867130750E+03  0.87354055698E+03  0.96972965066E+03  0.50400001928E-02 0. -1.
</event>
<event>
 5   0  0.2943244E-05  0.2448071E+04  0.7818609E-02  0.8421723E-01
       -1   -1    0    0    0  501  0.00000000000E+00  0.00000000000E+00  0.21316991483E+04  0.21316991483E+04  0.50400001928E-02 0. -1.
        1   -1    0    0  501    0  0.00000000000E+00  0.00000000000E+00 -0.70284908570E+03  0.70284908572E+03  0.50400001928E-02 0.  1.
    10030    2    1    2    0    0  0.00000000000E+00  0.00000000000E+00  0.14288500625E+04  0.28345482340E+04  0.24480709119E+04 0.  0.
        3    1    3    3  502    0 -0.44521666050E+03  0.97414145122E+03  0.28350722225E+02  0.10714351196E+04  0.10100000352E+00 0.  1.
       -3    1    3    3    0  502  0.44521666050E+03 -0.97414145122E+03  0.14004993403E+04  0.17631131144E+04  0.10100000352E+00 0. -1.
</event>
<event>
 5   0  0.2943244E-05  0.1913452E+04  0.7818609E-02  0.8648189E-01
        1   -1    0    0  501    0  0.00000000000E+00  0.00000000000E+00  0.48610432314E+03  0.48610432317E+03  0.50400001928E-02 0.  1.
       -1   -1    0    0    0  501  0.00000000000E+00  0.00000000000E+00 -0.18829805548E+04  0.18829805548E+04  0.50400001928E-02 0. -1.
    10030    2    1    2    0    0  0.00000000000E+00  0.00000000000E+00 -0.13968762317E+04  0.23690848780E+04  0.19134523648E+04 0.  0.
        3    1    3    3  502    0 -0.49063726870E+03 -0.36459954732E+03  0.21279447080E+03  0.64725517097E+03  0.10100000352E+00 0.  1.
       -3    1    3    3    0  502  0.49063726870E+03  0.36459954732E+03 -0.16096707025E+04  0.17218297070E+04  0.10100000352E+00 0. -1.
</event>
<event>
 5   0  0.6337926E-05  0.2578162E+04  0.7818609E-02  0.8375657E-01
        2   -1    0    0  501    0  0.00000000000E+00  0.00000000000E+00  0.19698619930E+04  0.19698619930E+04  0.25500000920E-02 0. -1.
       -2   -1    0    0    0  501  0.00000000000E+00  0.00000000000E+00 -0.84357666700E+03  0.84357666700E+03  0.25500000920E-02 0.  1.
    10030    2    1    2    0    0  0.00000000000E+00  0.00000000000E+00  0.11262853260E+04  0.28134386600E+04  0.25781618370E+04 0.  0.
        1    1    3    3  502    0 -0.11285070744E+04 -0.13600271110E+03  0.12266637627E+04  0.16723423516E+04  0.50400001928E-02 0. -1.
       -1    1    3    3    0  502  0.11285070744E+04  0.13600271110E+03 -0.10037843671E+03  0.11410963083E+04  0.50400001928E-02 0.  1.
</event>
<event>
 5   0  0.2901816E-05  0.2399863E+04  0.7818609E-02  0.8439555E-01
       -1   -1    0    0    0  501  0.00000000000E+00  0.00000000000E+00  0.78999272597E+03  0.78999272598E+03  0.50400001928E-02 0. -1.
        1   -1    0    0  501    0  0.00000000000E+00  0.00000000000E+00 -0.18225936399E+04  0.18225936399E+04  0.50400001928E-02 0.  1.
    10030    2    1    2    0    0  0.00000000000E+00  0.00000000000E+00 -0.10326009139E+04  0.26125863659E+04  0.23998630944E+04 0.  0.
        4    1    3    3  502    0  0.97302643929E+03 -0.35500707679E+02 -0.12797415215E+04  0.16080362952E+04  0.12699999809E+01 0.  1.
       -4    1    3    3    0  502 -0.97302643929E+03  0.35500707679E+02  0.24714060757E+03  0.10045500707E+04  0.12699999809E+01 0. -1.
</event>
<event>
 5   0  0.2943123E-05  0.2440610E+04  0.7818609E-02  0.8424455E-01
       -1   -1    0    0    0  501  0.00000000000E+00  0.00000000000E+00  0.93151964076E+03  0.93151964078E+03  0.50400001928E-02 0.  1.
        1   -1    0    0  501    0  0.00000000000E+00  0.00000000000E+00 -0.15986175928E+04  0.15986175928E+04  0.50400001928E-02 0. -1.
    10030    2    1    2    0    0  0.00000000000E+00  0.00000000000E+00 -0.66709795204E+03  0.25301372336E+04  0.24406095024E+04 0.  0.
        1    1    3    3  502    0  0.87921904155E+03 -0.39667799331E+03 -0.11084746330E+04  0.14693861186E+04  0.50400001928E-02 0.  1.
       -1    1    3    3    0  502 -0.87921904155E+03  0.39667799331E+03  0.44137668100E+03  0.10607511150E+04  0.50400001928E-02 0. -1.
</event>
<event>
 5   0  0.6703961E-05  0.2396205E+04  0.7818609E-02  0.8440926E-01
       -2   -1    0    0    0  501  0.00000000000E+00  0.00000000000E+00  0.11604650322E+04  0.11604650322E+04  0.25500000920E-02 0. -1.
        2   -1    0    0  501    0  0.00000000000E+00  0.00000000000E+00 -0.12369602684E+04  0.12369602684E+04  0.25500000920E-02 0.  1.
    10030    2    1    2    0    0  0.00000000000E+00  0.00000000000E+00 -0.76495236195E+02  0.23974253007E+04  0.23962046138E+04 0.  0.
        2    1    3    3  502    0  0.11273791994E+04 -0.10610647195E+03 -0.42986328368E+03  0.12112080273E+04  0.25500000920E-02 0.  1.
       -2    1    3    3    0  502 -0.11273791994E+04  0.10610647195E+03  0.35336804749E+03  0.11862172734E+04  0.25500000920E-02 0. -1.
</event>
<event>
 5   0  0.2943244E-05  0.2385798E+04  0.7818609E-02  0.8444840E-01
        1   -1    0    0  501    0  0.00000000000E+00  0.00000000000E+00  0.21827287567E+04  0.21827287567E+04  0.50400001928E-02 0. -1.
       -1   -1    0    0    0  501  0.00000000000E+00  0.00000000000E+00 -0.65194017956E+03  0.65194017958E+03  0.50400001928E-02 0.  1.
    10030    2    1    2    0    0  0.00000000000E+00  0.00000000000E+00  0.15307885772E+04  0.28346689363E+04  0.23857984639E+04 0.  0.
        3    1    3    3  502    0 -0.71434325465E+03 -0.87736662458E+03  0.12146160676E+04  0.16599249023E+04  0.10100000352E+00 0. -1.
       -3    1    3    3    0  502  0.71434325465E+03  0.87736662458E+03  0.31617250953E+03  0.11747440340E+04  0.10100000352E+00 0.  1.
</event>
<event>
 5   0  0.6714629E-05  0.2033204E+04  0.7818609E-02  0.8591252E-01
       -2   -1    0    0    0  501  0.00000000000E+00  0.00000000000E+00  0.62596744968E+03  0.62596744968E+03  0.25500000920E-02 0. -1.
        2   -1    0    0  501    0  0.00000000000E+00  0.00000000000E+00 -0.16510115383E+04  0.16510115383E+04  0.25500000920E-02 0.  1.
    10030    2    1    2    0    0  0.00000000000E+00  0.00000000000E+00 -0.10250440886E+04  0.22769789880E+04  0.20332038580E+04 0.  0.
        3    1    3    3  502    0  0.80676533341E+03  0.39806803266E+02  0.17875892069E+03  0.82729054552E+03  0.10100000352E+00 0. -1.
       -3    1    3    3    0  502 -0.80676533341E+03 -0.39806803266E+02 -0.12038030093E+04  0.14496884425E+04  0.10100000352E+00 0.  1.
</event>
<event>
 5   0  0.2943123E-05  0.1978980E+04  0.7818609E-02  0.8616512E-01
        1   -1    0    0  501    0  0.00000000000E+00  0.00000000000E+00  0.80730260451E+03  0.80730260453E+03  0.50400001928E-02 0. -1.
       -1   -1    0    0    0  501  0.00000000000E+00  0.00000000000E+00 -0.12127923706E+04  0.12127923706E+04  0.50400001928E-02 0.  1.
    10030    2    1    2    0    0  0.00000000000E+00  0.00000000000E+00 -0.40548976606E+03  0.20200949751E+04  0.19789799792E+04 0.  0.
        1    1    3    3  502    0 -0.42052058612E+03  0.44528491796E+03  0.59055901423E+03  0.85080912714E+03  0.50400001928E-02 0. -1.
       -1    1    3    3    0  502  0.42052058612E+03 -0.44528491796E+03 -0.99604878029E+03  0.11692858480E+04  0.50400001928E-02 0.  1.
</event>
<event>
 5   0  0.6703961E-05  0.2454347E+04  0.7818609E-02  0.8419433E-01
       -2   -1    0    0    0  501  0.00000000000E+00  0.00000000000E+00  0.14446308398E+04  0.14446308398E+04  0.25500000920E-02 0.  1.
        2   -1    0    0  501    0  0.00000000000E+00  0.00000000000E+00 -0.10424493503E+04  0.10424493503E+04  0.25500000920E-02 0. -1.
    10030    2    1    2    0    0  0.00000000000E+00  0.00000000000E+00  0.40218148954E+03  0.24870801901E+04  0.24543467402E+04 0.  0.
        2    1    3    3  502    0  0.89610966951E+03  0.49324102596E+02  0.10492174782E+04  0.13806892205E+04  0.25500000920E-02 0.  1.
       -2    1    3    3    0  502 -0.89610966951E+03 -0.49324102596E+02 -0.64703598870E+03  0.11063909696E+04  0.25500000920E-02 0. -1.
</event>
<event>
 5   0  0.2915546E-05  0.2426688E+04  0.7818609E-02  0.8429579E-01
        1   -1    0    0  501    0  0.00000000000E+00  0.00000000000E+00  0.55836705968E+03  0.55836705970E+03  0.50400001928E-02 0. -1.
       -1   -1    0    0    0  501  0.00000000000E+00  0.00000000000E+00 -0.26366239709E+04  0.26366239709E+04  0.50400001928E-02 0.  1.
    10030    2    1    2    0    0  0.00000000000E+00  0.00000000000E+00 -0.20782569112E+04  0.31949910306E+04  0.24266882570E+04 0.  0.
        2    1    3    3  502    0 -0.15960823131E+03  0.40764495645E+03  0.45076336146E+03  0.62836041096E+03  0.25500000920E-02 0. -1.
       -2    1    3    3    0  502  0.15960823131E+03 -0.40764495645E+03 -0.25290202727E+04  0.25666306196E+04  0.25500000920E-02 0.  1.
</event>
<event>
 5   0  0.6714629E-05  0.2448339E+04  0.7818609E-02  0.8421625E-01
       -2   -1    0    0    0  501  0.00000000000E+00  0.00000000000E+00  0.12493981631E+04  0.12493981631E+04  0.25500000920E-02 0. -1.
        2   -1    0    0  501    0  0.00000000000E+00  0.00000000000E+00 -0.11994499082E+04  0.11994499082E+04  0.25500000920E-02 0.  1.
    10030    2    1    2    0    0  0.00000000000E+00  0.00000000000E+00  0.49948254951E+02  0.24488480713E+04  0.24483386302E+04 0.  0.
        3    1    3    3  502    0  0.21779306225E+03  0.74076904074E+03 -0.92518033084E+03  0.12050440840E+04  0.10100000352E+00 0.  1.
       -3    1    3    3    0  502 -0.21779306225E+03 -0.74076904074E+03  0.97512858579E+03  0.12438039873E+04  0.10100000352E+00 0. -1.
</event>
<event>
 5   0  0.6600166E-05  0.2392919E+04  0.7818609E-02  0.8442159E-01
        2   -1    0    0  501    0  0.00000000000E+00  0.00000000000E+00  0.17653854578E+04  0.17653854578E+04  0.25500000920E-02 0.  1.
       -2   -1    0    0    0  501  0.00000000000E+00  0.00000000000E+00 -0.81087999236E+03  0.81087999237E+03  0.25500000920E-02 0. -1.
    10030    2    1    2    0    0  0.00000000000E+00  0.00000000000E+00  0.95450546545E+03  0.25762654502E+04  0.23929193439E+04 0.  0.
        5    1    3    3  502    0 -0.85283510995E+03  0.75340113142E+03  0.87509657649E+03  0.14355337327E+04  0.46999998093E+01 0.  1.
       -5    1    3    3    0  502  0.85283510995E+03 -0.75340113142E+03  0.79408888965E+02  0.11407317175E+04  0.46999998093E+01 0. -1.
</event>
<event>
 5   0  0.2915546E-05  0.2405421E+04  0.7818609E-02  0.8437477E-01
       -1   -1    0    0    0  501  0.00000000000E+00  0.00000000000E+00  0.13202031657E+04  0.13202031657E+04  0.50400001928E-02 0.  1.
        1   -1    0    0  501    0  0.00000000000E+00  0.00000000000E+00 -0.10956744193E+04  0.10956744193E+04  0.50400001928E-02 0. -1.
    10030    2    1    2    0    0  0.00000000000E+00  0.00000000000E+00  0.22452874632E+03  0.24158775850E+04  0.24054212412E+04 0.  0.
        2    1    3    3  502    0  0.96918782671E+03 -0.50239346349E+02  0.82574939444E+03  0.12742492291E+04  0.25500000920E-02 0.  1.
       -2    1    3    3    0  502 -0.96918782671E+03  0.50239346349E+02 -0.60122064812E+03  0.11416283559E+04  0.25500000920E-02 0. -1.
</event>
<event>
 5   0  0.6714629E-05  0.2363876E+04  0.7818609E-02  0.8453153E-01
       -2   -1    0    0    0  501  0.00000000000E+00  0.00000000000E+00  0.62571127490E+03  0.62571127490E+03  0.25500000920E-02 0.  1.
        2   -1    0    0  501    0  0.00000000000E+00  0.00000000000E+00 -0.22326235072E+04  0.22326235072E+04  0.25500000920E-02 0. -1.
    10030    2    1    2    0    0  0.00000000000E+00  0.00000000000E+00 -0.16069122323E+04  0.28583347821E+04  0.23638762244E+04 0.  0.
        3    1    3    3  502    0  0.28467923049E+03  0.38601491538E+03 -0.21096582096E+04  0.21634942918E+04  0.10100000352E+00 0. -1.
       -3    1    3    3    0  502 -0.28467923049E+03 -0.38601491538E+03  0.50274597725E+03  0.69484049034E+03  0.10100000352E+00 0.  1.
</event>
<event>
 5   0  0.6337926E-05  0.2416544E+04  0.7818609E-02  0.8433336E-01
        2   -1    0    0  501    0  0.00000000000E+00  0.00000000000E+00  0.10131401018E+04  0.10131401018E+04  0.25500000920E-02 0.  1.
       -2   -1    0    0    0  501  0.00000000000E+00  0.00000000000E+00 -0.14409865168E+04  0.14409865168E+04  0.25500000920E-02 0. -1.
    10030    2    1    2    0    0  0.00000000000E+00  0.00000000000E+00 -0.42784641503E+03  0.24541266186E+04  0.24165440003E+04 0.  0.
        1    1    3    3  502    0 -0.32787452290E+03 -0.11114891666E+04 -0.56131236977E+03  0.12876262838E+04  0.50400001928E-02 0. -1.
       -1    1    3    3    0  502  0.32787452290E+03  0.11114891666E+04  0.13346595474E+03  0.11665003349E+04  0.50400001928E-02 0.  1.
</event>
<event>
 5   0  0.2847158E-05  0.2459967E+04  0.7818609E-02  0.8417388E-01
       -1   -1    0    0    0  501  0.00000000000E+00  0.00000000000E+00  0.23647166051E+04  0.23647166052E+04  0.50400001928E-02 0.  1.
        1   -1    0    0  501    0  0.00000000000E+00  0.00000000000E+00 -0.63976353923E+03  0.63976353925E+03  0.50400001928E-02 0. -1.
    10030    2    1    2    0    0  0.00000000000E+00  0.00000000000E+00  0.17249530659E+04  0.30044801444E+04  0.24599670442E+04 0.  0.
        5    1    3    3  502    0 -0.10052336907E+04 -0.47727801063E+03  0.15024315240E+04  0.18696554888E+04  0.46999998093E+01 0.  1.
       -5    1    3    3    0  502  0.10052336907E+04  0.47727801063E+03  0.22252154188E+03  0.11348246556E+04  0.46999998093E+01 0. -1.
</event>
<event>
 5   0  0.6714629E-05  0.2453551E+04  0.7818609E-02  0.8419723E-01
        2   -1    0    0  501    0  0.00000000000E+00  0.00000000000E+00  0.17865123001E+04  0.17865123001E+04  0.25500000920E-02 0.  1.
       -2   -1    0    0    0  501  0.00000000000E+00  0.00000000000E+00 -0.84241128623E+03  0.84241128624E+03  0.25500000920E-02 0. -1.
    10030    2    1    2    0    0  0.00000000000E+00  0.00000000000E+00  0.94410101389E+03  0.26289235864E+04  0.24535509977E+04 0.  0.
        3    1    3    3  502    0  0.60125872636E+03  0.26975160786E+03  0.15807575360E+04  0.17126214946E+04  0.10100000352E+00 0.  1.
       -3    1    3    3    0  502 -0.60125872636E+03 -0.26975160786E+03 -0.63665652213E+03  0.91630209174E+03  0.10100000352E+00 0. -1.
</event>
<event>
 5   0  0.2901816E-05  0.2452725E+04  0.7818609E-02  0.8420024E-01
        1   -1    0    0  501    0  0.00000000000E+00  0.00000000000E+00  0.16673542704E+04  0.16673542704E+04  0.50400001928E-02 0.  1.
       -1   -1    0    0    0  501  0.00000000000E+00  0.00000000000E+00 -0.90200720823E+03  0.90200720825E+03  0.50400001928E-02 0. -1.
    10030    2    1    2    0    0  0.00000000000E+00  0.00000000000E+00  0.76534706212E+03  0.25693614786E+04  0.24527254804E+04 0.  0.
        4    1    3    3  502    0 -0.20928114221E+03  0.36305895362E+03  0.15900233113E+04  0.16443193557E+04  0.12699999809E+01 0.  1.
       -4    1    3    3    0  502  0.20928114221E+03 -0.36305895362E+03 -0.82467624916E+03  0.92504212289E+03  0.12699999809E+01 0. -1.
</event>
<event>
 5   0  0.2943123E-05  0.1769357E+04  0.7818609E-02  0.8722767E-01
       -1   -1    0    0    0  501  0.00000000000E+00  0.00000000000E+00  0.11264335688E+04  0.11264335688E+04  0.50400001928E-02 0.  1.
        1   -1    0    0  501    0  0.00000000000E+00  0.00000000000E+00 -0.69480851845E+03  0.69480851847E+03  0.50400001928E-02 0. -1.
    10030    2    1    2    0    0  0.00000000000E+00  0.00000000000E+00  0.43162505030E+03  0.18212420872E+04  0.17693565374E+04 0.  0.
        1    1    3    3  502    0 -0.42275789497E+03  0.59599758673E+03 -0.29752873681E+03  0.78896179274E+03  0.50400001928E-02 0. -1.
       -1    1    3    3    0  502  0.42275789497E+03 -0.59599758673E+03  0.72915378711E+03  0.10322802945E+04  0.50400001928E-02 0.  1.
</event>
<event>
 5   0  0.2943244E-05  0.2453238E+04  0.7818609E-02  0.8419837E-01
       -1   -1    0    0    0  501  0.00000000000E+00  0.00000000000E+00  0.78063573771E+03  0.78063573772E+03  0.50400001928E-02 0. -1.
        1   -1    0    0  501    0  0.00000000000E+00  0.00000000000E+00 -0.19273957118E+04  0.19273957118E+04  0.50400001928E-02 0.  1.
    10030    2    1    2    0    0  0.00000000000E+00  0.00000000000E+00 -0.11467599741E+04  0.27080314495E+04  0.24532378388E+04 0.  0.
        3    1    3    3  502    0  0.67038771286E+03  0.34577577423E+03 -0.16411119992E+04  0.18061642162E+04  0.10100000352E+00 0.  1.
       -3    1    3    3    0  502 -0.67038771286E+03 -0.34577577423E+03  0.49435202515E+03  0.90186723334E+03  0.10100000352E+00 0. -1.
</event>
<event>
 5   0  0.6978115E-05  0.2343008E+04  0.7818609E-02  0.8461154E-01
       -2   -1    0    0    0  501  0.00000000000E+00  0.00000000000E+00  0.65484648232E+03  0.65484648232E+03  0.25500000920E-02 0. -1.
        2   -1    0    0  501    0  0.00000000000E+00  0.00000000000E+00 -0.20957906372E+04  0.20957906372E+04  0.25500000920E-02 0.  1.
    10030    2    1    2    0    0  0.00000000000E+00  0.00000000000E+00 -0.14409441549E+04  0.27506371196E+04  0.23430075770E+04 0.  0.
        4    1    3    3  502    0 -0.43888458807E+03  0.44122704082E+03  0.44473697659E+03  0.76491409612E+03  0.12699999809E+01 0. -1.
       -4    1    3    3    0  502  0.43888458807E+03 -0.44122704082E+03 -0.18856811315E+04  0.19857230234E+04  0.12699999809E+01 0.  1.
</event>
<event>
 5   0  0.6978115E-05  0.2457702E+04  0.7818609E-02  0.8418211E-01
        2   -1    0    0  501    0  0.00000000000E+00  0.00000000000E+00  0.26931006060E+04  0.26931006060E+04  0.25500000920E-02 0. -1.
       -2   -1    0    0    0  501  0.00000000000E+00  0.00000000000E+00 -0.56071975786E+03  0.56071975787E+03  0.25500000920E-02 0.  1.
    10030    2    1    2    0    0  0.00000000000E+00  0.00000000000E+00  0.21323808482E+04  0.32538203639E+04  0.24577019508E+04 0.  0.
        4    1    3    3  502    0  0.47560143671E+02  0.57808389120E+03 -0.36807651703E+03  0.68696789431E+03  0.12699999809E+01 0.  1.
       -4    1    3    3    0  502 -0.47560143671E+02 -0.57808389120E+03  0.25004573652E+04  0.25668524696E+04  0.12699999809E+01 0. -1.
</event>
<event>
 5   0  0.2339125E-05  0.2125697E+04  0.7818609E-02  0.8550007E-01
       -4   -1    0    0    0  501  0.00000000000E+00  0.00000000000E+00  0.19247588094E+04  0.19247592284E+04  0.12699999809E+01 0.  1.
        4   -1    0    0  501    0  0.00000000000E+00  0.00000000000E+00 -0.58690178294E+03  0.58690315702E+03  0.12699999809E+01 0. -1.
    10030    2    1    2    0    0  0.00000000000E+00  0.00000000000E+00  0.13378570265E+04  0.25116623854E+04  0.21256967129E+04 0.  0.
        5    1    3    3  502    0 -0.37443679695E+03  0.90611808606E+03  0.11537640327E+04  0.15140827038E+04  0.46999998093E+01 0.  1.
       -5    1    3    3    0  502  0.37443679695E+03 -0.90611808606E+03  0.18409299373E+03  0.99757968159E+03  0.46999998093E+01 0. -1.
</event>
<event>
 5   0  0.2943244E-05  0.2399647E+04  0.7818609E-02  0.8439636E-01
        1   -1    0    0  501    0  0.00000000000E+00  0.00000000000E+00  0.22273373721E+04  0.22273373721E+04  0.50400001928E-02 0.  1.
       -1   -1    0    0    0  501  0.00000000000E+00  0.00000000000E+00 -0.64632178977E+03  0.64632178979E+03  0.50400001928E-02 0. -1.
    10030    2    1    2    0    0  0.00000000000E+00  0.00000000000E+00  0.15810155823E+04  0.28736591619E+04  0.23996472047E+04 0.  0.
        3    1    3    3  502    0 -0.75802726994E+03 -0.65680968440E+03  0.15790385799E+04  0.18706595496E+04  0.10100000352E+00 0.  1.
       -3    1    3    3    0  502  0.75802726994E+03  0.65680968440E+03  0.19770024058E+01  0.10029996123E+04  0.10100000352E+00 0. -1.
</event>
<event>
 5   0  0.2847158E-05  0.2427295E+04  0.7818609E-02  0.8429355E-01
        1   -1    0    0  501    0  0.00000000000E+00  0.00000000000E+00  0.11100298427E+04  0.11100298428E+04  0.50400001928E-02 0. -1.
       -1   -1    0    0    0  501  0.00000000000E+00  0.00000000000E+00 -0.13269380656E+04  0.13269380656E+04  0.50400001928E-02 0.  1.
    10030    2    1    2    0    0  0.00000000000E+00  0.00000000000E+00 -0.21690822290E+03  0.24369679084E+04  0.24272954928E+04 0.  0.
        5    1    3    3  502    0 -0.24527444316E+03 -0.36791872432E+03 -0.12431768832E+04  0.13194826990E+04  0.46999998093E+01 0.  1.
       -5    1    3    3    0  502  0.24527444316E+03  0.36791872432E+03  0.10262686603E+04  0.11174852094E+04  0.46999998093E+01 0. -1.
</event>
<event>
 5   0  0.6703961E-05  0.2424148E+04  0.7818609E-02  0.8430518E-01
        2   -1    0    0  501    0  0.00000000000E+00  0.00000000000E+00  0.24062414742E+04  0.24062414742E+04  0.25500000920E-02 0. -1.
       -2   -1    0    0    0  501  0.00000000000E+00  0.00000000000E+00 -0.61054718830E+03  0.61054718831E+03  0.25500000920E-02 0.  1.
    10030    2    1    2    0    0  0.00000000000E+00  0.00000000000E+00  0.17956942859E+04  0.30167886625E+04  0.24241484826E+04 0.  0.
        2    1    3    3  502    0  0.66660943797E+03  0.93121206138E+03  0.40380537556E+03  0.12143240208E+04  0.25500000920E-02 0. -1.
       -2    1    3    3    0  502 -0.66660943797E+03 -0.93121206138E+03  0.13918889104E+04  0.18024646418E+04  0.25500000920E-02 0.  1.
</event>
<event>
 5   0  0.6714629E-05  0.2163582E+04  0.7818609E-02  0.8533741E-01
       -2   -1    0    0    0  501  0.00000000000E+00  0.00000000000E+00  0.87566749294E+03  0.87566749295E+03  0.25500000920E-02 0.  1.
        2   -1    0    0  501    0  0.00000000000E+00  0.00000000000E+00 -0.13364336525E+04  0.13364336525E+04  0.25500000920E-02 0. -1.
    10030    2    1    2    0    0  0.00000000000E+00  0.00000000000E+00 -0.46076615952E+03  0.22121011454E+04  0.21635817580E+04 0.  0.
        3    1    3    3  502    0 -0.52301076857E+03  0.41089575949E+03  0.64191779514E+03  0.92435602184E+03  0.10100000352E+00 0.  1.
       -3    1    3    3    0  502  0.52301076857E+03 -0.41089575949E+03 -0.11026839547E+04  0.12877451236E+04  0.10100000352E+00 0. -1.
</event>
<event>
 5   0  0.6337926E-05  0.2418076E+04  0.7818609E-02  0.8432767E-01
        2   -1    0    0  501    0  0.00000000000E+00  0.00000000000E+00  0.14272627487E+04  0.14272627487E+04  0.25500000920E-02 0. -1.
       -2   -1    0    0    0  501  0.00000000000E+00  0.00000000000E+00 -0.10241789981E+04  0.10241789981E+04  0.25500000920E-02 0.  1.
    10030    2    1    2    0    0  0.00000000000E+00  0.00000000000E+00  0.40308375065E+03  0.24514417468E+04  0.24180757077E+04 0.  0.
        1    1    3    3  502    0  0.88841979724E+03  0.21867750632E+03 -0.59972014070E+03  0.10939715879E+04  0.50400001928E-02 0.  1.
       -1    1    3    3    0  502 -0.88841979724E+03 -0.21867750632E+03  0.10028038913E+04  0.13574701589E+04  0.50400001928E-02 0. -1.
</event>
<event>
 5   0  0.6703961E-05  0.2254117E+04  0.7818609E-02  0.8496235E-01
       -2   -1    0    0    0  501  0.00000000000E+00  0.00000000000E+00  0.57501800384E+03  0.57501800385E+03  0.25500000920E-02 0.  1.
        2   -1    0    0  501    0  0.00000000000E+00  0.00000000000E+00 -0.22090810947E+04  0.22090810947E+04  0.25500000920E-02 0. -1.
    10030    2    1    2    0    0  0.00000000000E+00  0.00000000000E+00 -0.16340630909E+04  0.27840990985E+04  0.22541174782E+04 0.  0.
        2    1    3    3  502    0  0.87542224019E+03 -0.24061954462E+03 -0.16418822456E+04  0.18761767434E+04  0.25500000920E-02 0.  1.
       -2    1    3    3    0  502 -0.87542224019E+03  0.24061954462E+03  0.78191547492E+01  0.90792235519E+03  0.25500000920E-02 0. -1.
</event>
<event>
 5   0  0.6714629E-05  0.2204737E+04  0.7818609E-02  0.8516459E-01
       -2   -1    0    0    0  501  0.00000000000E+00  0.00000000000E+00  0.61610576893E+03  0.61610576894E+03  0.25500000920E-02 0. -1.
        2   -1    0    0  501    0  0.00000000000E+00  0.00000000000E+00 -0.19724142443E+04  0.19724142443E+04  0.25500000920E-02 0.  1.
    10030    2    1    2    0    0  0.00000000000E+00  0.00000000000E+00 -0.13563084754E+04  0.25885200132E+04  0.22047365327E+04 0.  0.
        3    1    3    3  502    0  0.26940416193E+02 -0.38985783866E+02  0.61490933632E+03  0.61673266450E+03  0.10100000352E+00 0. -1.
       -3    1    3    3    0  502 -0.26940416193E+02  0.38985783866E+02 -0.19712178117E+04  0.19717873487E+04  0.10100000352E+00 0.  1.
</event>
<event>
 5   0  0.2943244E-05  0.2416816E+04  0.7818609E-02  0.8433235E-01
        1   -1    0    0  501    0  0.00000000000E+00  0.00000000000E+00  0.10512781691E+04  0.10512781691E+04  0.50400001928E-02 0.  1.
       -1   -1    0    0    0  501  0.00000000000E+00  0.00000000000E+00 -0.13890232020E+04  0.13890232020E+04  0.50400001928E-02 0. -1.
    10030    2    1    2    0    0  0.00000000000E+00  0.00000000000E+00 -0.33774503291E+03  0.24403013711E+04  0.24168158959E+04 0.  0.
        3    1    3    3  502    0  0.56059875905E+03  0.19263006839E+03 -0.12321354919E+04  0.13673094721E+04  0.10100000352E+00 0. -1.
       -3    1    3    3    0  502 -0.56059875905E+03 -0.19263006839E+03  0.89439045903E+03  0.10729918990E+04  0.10100000352E+00 0.  1.
</event>
<event>
 5   0  0.6600166E-05  0.2384499E+04  0.7818609E-02  0.8445330E-01
        2   -1    0    0  501    0  0.00000000000E+00  0.00000000000E+00  0.13560577881E+04  0.13560577881E+04  0.25500000920E-02 0.  1.
       -2   -1    0    0    0  501  0.00000000000E+00  0.00000000000E+00 -0.10482286373E+04  0.10482286373E+04  0.25500000920E-02 0. -1.
    10030    2    1    2    0    0  0.00000000000E+00  0.00000000000E+00  0.30782915078E+03  0.24042864254E+04  0.23844987795E+04 0.  0.
        5    1    3    3  502    0 -0.56271784843E+03  0.84609353328E+03  0.78271690595E+03  0.12826509614E+04  0.46999998093E+01 0.  1.
       -5    1    3    3    0  502  0.56271784843E+03 -0.84609353328E+03 -0.47488775517E+03  0.11216354640E+04  0.46999998093E+01 0. -1.
</event>
<event>
 5   0  0.2847158E-05  0.2362077E+04  0.7818609E-02  0.8453839E-01
       -1   -1    0    0    0  501  0.00000000000E+00  0.00000000000E+00  0.62149416314E+03  0.62149416316E+03  0.50400001928E-02 0. -1.
        1   -1    0    0  501    0  0.00000000000E+00  0.00000000000E+00 -0.22443522326E+04  0.22443522326E+04  0.50400001928E-02 0.  1.
    10030    2    1    2    0    0  0.00000000000E+00  0.00000000000E+00 -0.16228580694E+04  0.28658463957E+04  0.23620768934E+04 0.  0.
        5    1    3    3  502    0 -0.36266319654E+03 -0.72129042654E+03  0.23441400127E+03  0.84068810360E+03  0.46999998093E+01 0. -1.
       -5    1    3    3    0  502  0.36266319654E+03  0.72129042654E+03 -0.18572720707E+04  0.20251582921E+04  0.46999998093E+01 0.  1.
</event>
<event>
 5   0  0.2943244E-05  0.2241864E+04  0.7818609E-02  0.8501203E-01
       -1   -1    0    0    0  501  0.00000000000E+00  0.00000000000E+00  0.10303791304E+04  0.10303791304E+04  0.50400001928E-02 0.  1.
        1   -1    0    0  501    0  0.00000000000E+00  0.00000000000E+00 -0.12194424828E+04  0.12194424828E+04  0.50400001928E-02 0. -1.
    10030    2    1    2    0    0  0.00000000000E+00  0.00000000000E+00 -0.18906335238E+03  0.22498216133E+04  0.22418635865E+04 0.  0.
        3    1    3    3  502    0 -0.40962439024E+03  0.44178589643E+03  0.85408623698E+03  0.10451938719E+04  0.10100000352E+00 0.  1.
       -3    1    3    3    0  502  0.40962439024E+03 -0.44178589643E+03 -0.10431495894E+04  0.12046277414E+04  0.10100000352E+00 0. -1.
</event>
<event>
 5   0  0.6714629E-05  0.1708257E+04  0.7818609E-02  0.8756669E-01
       -2   -1    0    0    0  501  0.00000000000E+00  0.00000000000E+00  0.94406564353E+03  0.94406564353E+03  0.25500000920E-02 0.  1.
        2   -1    0    0  501    0  0.00000000000E+00  0.00000000000E+00 -0.77275966542E+03  0.77275966542E+03  0.25500000920E-02 0. -1.
    10030    2    1    2    0    0  0.00000000000E+00  0.00000000000E+00  0.17130597811E+03  0.17168253090E+04  0.17082574172E+04 0.  0.
        3    1    3    3  502    0 -0.53662944762E+03 -0.54325201644E+03 -0.29894366688E+03  0.82003734280E+03  0.10100000352E+00 0. -1.
       -3    1    3    3    0  502  0.53662944762E+03  0.54325201644E+03  0.47024964499E+03  0.89678796615E+03  0.10100000352E+00 0.  1.
</event>
<event>
 5   0  0.2943123E-05  0.2554564E+04  0.7818609E-02  0.8383801E-01
       -1   -1    0    0    0  501  0.00000000000E+00  0.00000000000E+00  0.10776377400E+04  0.10776377400E+04  0.50400001928E-02 0. -1.
        1   -1    0    0  501    0  0.00000000000E+00  0.00000000000E+00 -0.15139119947E+04  0.15139119947E+04  0.50400001928E-02 0.  1.
    10030    2    1    2    0    0  0.00000000000E+00  0.00000000000E+00 -0.43627425465E+03  0.25915497347E+04  0.25545635248E+04 0.  0.
        1    1    3    3  502    0  0.54637733343E+03  0.48102703200E+03  0.84659828021E+03  0.11165320614E+04  0.50400001928E-02 0. -1.
       -1    1    3    3    0  502 -0.54637733343E+03 -0.48102703200E+03 -0.12828725349E+04  0.14750176734E+04  0.50400001928E-02 0.  1.
</event>
<event>
 5   0  0.2943244E-05  0.2267628E+04  0.7818609E-02  0.8490796E-01
       -1   -1    0    0    0  501  0.00000000000E+00  0.00000000000E+00  0.58301760888E+03  0.58301760890E+03  0.50400001928E-02 0.  1.
        1   -1    0    0  501    0  0.00000000000E+00  0.00000000000E+00 -0.22049657501E+04  0.22049657501E+04  0.50400001928E-02 0. -1.
    10030    2    1    2    0    0  0.00000000000E+00  0.00000000000E+00 -0.16219481412E+04  0.27879833590E+04  0.22676277113E+04 0.  0.
        3    1    3    3  502    0  0.77315875529E+03 -0.41138892602E+01 -0.18305776273E+04  0.19871602464E+04  0.10100000352E+00 0. -1.
       -3    1    3    3    0  502 -0.77315875529E+03  0.41138892602E+01  0.20862948613E+03  0.80082311259E+03  0.10100000352E+00 0.  1.
</event>
<event>
 5   0  0.2915546E-05  0.2401448E+04  0.7818609E-02  0.8438962E-01
        1   -1    0    0  501    0  0.00000000000E+00  0.00000000000E+00  0.14012741077E+04  0.14012741077E+04  0.50400001928E-02 0.  1.
       -1   -1    0    0    0  501  0.00000000000E+00  0.00000000000E+00 -0.10288761940E+04  0.10288761941E+04  0.50400001928E-02 0. -1.
    10030    2    1    2    0    0  0.00000000000E+00  0.00000000000E+00  0.37239791363E+03  0.24301503017E+04  0.24014475391E+04 0.  0.
        2    1    3    3  502    0 -0.46900012903E+03 -0.10664821291E+04 -0.10777678097E+03  0.11700261054E+04  0.25500000920E-02 0.  1.
       -2    1    3    3    0  502  0.46900012903E+03  0.10664821291E+04  0.48017469460E+03  0.12601241963E+04  0.25500000920E-02 0. -1.
</event>
<event>
 5   0  0.2847158E-05  0.2327776E+04  0.7818609E-02  0.8467049E-01
       -1   -1    0    0    0  501  0.00000000000E+00  0.00000000000E+00  0.77770000860E+03  0.77770000861E+03  0.50400001928E-02 0.  1.
        1   -1    0    0  501    0  0.00000000000E+00  0.00000000000E+00 -0.17418475592E+04  0.17418475592E+04  0.50400001928E-02 0. -1.
    10030    2    1    2    0    0  0.00000000000E+00  0.00000000000E+00 -0.96414755063E+03  0.25195475678E+04  0.23277756437E+04 0.  0.
        5    1    3    3  502    0  0.48506052083E+03  0.10499777061E+03  0.65741748016E+03  0.82372815535E+03  0.46999998093E+01 0.  1.
       -5    1    3    3    0  502 -0.48506052083E+03 -0.10499777061E+03 -0.16215650308E+04  0.16958194125E+04  0.46999998093E+01 0. -1.
</event>
<event>
 5   0  0.6978115E-05  0.2354987E+04  0.7818609E-02  0.8456551E-01
       -2   -1    0    0    0  501  0.00000000000E+00  0.00000000000E+00  0.93121794650E+03  0.93121794651E+03  0.25500000920E-02 0.  1.
        2   -1    0    0  501    0  0.00000000000E+00  0.00000000000E+00 -0.14889002543E+04  0.14889002543E+04  0.25500000920E-02 0. -1.
    10030    2    1    2    0    0  0.00000000000E+00  0.00000000000E+00 -0.55768230781E+03  0.24201182008E+04  0.23549867408E+04 0.  0.
        4    1    3    3  502    0 -0.11010243341E+04  0.21544600460E+03 -0.64624457998E+03  0.12947220687E+04  0.12699999809E+01 0. -1.
       -4    1    3    3    0  502  0.11010243341E+04 -0.21544600460E+03  0.88562272165E+02  0.11253961321E+04  0.12699999809E+01 0.  1.
</event>
<event>
 5   0  0.6337926E-05  0.2402297E+04  0.7818609E-02  0.8438644E-01
        2   -1    0    0  501    0  0.00000000000E+00  0.00000000000E+00  0.16587767387E+04  0.16587767387E+04  0.25500000920E-02 0.  1.
       -2   -1    0    0    0  501  0.00000000000E+00  0.00000000000E+00 -0.86977214039E+03  0.86977214039E+03  0.25500000920E-02 0. -1.
    10030    2    1    2    0    0  0.00000000000E+00  0.00000000000E+00  0.78900459829E+03  0.25285488791E+04  0.24022970628E+04 0.  0.
        1    1    3    3  502    0 -0.64664053982E+03 -0.59518824252E+02 -0.66908387009E+03  0.93239460714E+03  0.50400001928E-02 0. -1.
       -1    1    3    3    0  502  0.64664053982E+03  0.59518824252E+02  0.14580884684E+04  0.15961542719E+04  0.50400001928E-02 0.  1.
</event>
<event>
 5   0  0.2901816E-05  0.2408688E+04  0.7818609E-02  0.8436258E-01
       -1   -1    0    0    0  501  0.00000000000E+00  0.00000000000E+00  0.62431327965E+03  0.62431327967E+03  0.50400001928E-02 0.  1.
        1   -1    0    0  501    0  0.00000000000E+00  0.00000000000E+00 -0.23232635370E+04  0.23232635370E+04  0.50400001928E-02 0. -1.
    10030    2    1    2    0    0  0.00000000000E+00  0.00000000000E+00 -0.16989502573E+04  0.29475768167E+04  0.24086878406E+04 0.  0.
        4    1    3    3  502    0  0.62557220163E+03 -0.87584364434E+03 -0.15107408876E+04  0.18549345840E+04  0.12699999809E+01 0.  1.
       -4    1    3    3    0  502 -0.62557220163E+03  0.87584364434E+03 -0.18820936979E+03  0.10926422326E+04  0.12699999809E+01 0. -1.
</event>
<event>
 5   0  0.6703961E-05  0.2396032E+04  0.7818609E-02  0.8440991E-01
        2   -1    0    0  501    0  0.00000000000E+00  0.00000000000E+00  0.94566168936E+03  0.94566168936E+03  0.25500000920E-02 0. -1.
       -2   -1    0    0    0  501  0.00000000000E+00  0.00000000000E+00 -0.15177122980E+04  0.15177122980E+04  0.25500000920E-02 0.  1.
    10030    2    1    2    0    0  0.00000000000E+00  0.00000000000E+00 -0.57205060860E+03  0.24633739873E+04  0.23960320329E+04 0.  0.
        2    1    3    3  502    0  0.30401823734E+03 -0.92499843518E+03 -0.10036350566E+04  0.13983320494E+04  0.25500000920E-02 0.  1.
       -2    1    3    3    0  502 -0.30401823734E+03  0.92499843518E+03  0.43158444796E+03  0.10650419379E+04  0.25500000920E-02 0. -1.
</event>
<event>
 5   0  0.2847158E-05  0.2445859E+04  0.7818609E-02  0.8422531E-01
       -1   -1    0    0    0  501  0.00000000000E+00  0.00000000000E+00  0.10094073416E+04  0.10094073416E+04  0.50400001928E-02 0.  1.
        1   -1    0    0  501    0  0.00000000000E+00  0.00000000000E+00 -0.14816184342E+04  0.14816184342E+04  0.50400001928E-02 0. -1.
    10030    2    1    2    0    0  0.00000000000E+00  0.00000000000E+00 -0.47221109268E+03  0.24910257758E+04  0.24458589697E+04 0.  0.
        5    1    3    3  502    0  0.11360791293E+04 -0.36668210955E+03 -0.50634080640E+03  0.12967400124E+04  0.46999998093E+01 0. -1.
       -5    1    3    3    0  502 -0.11360791293E+04  0.36668210955E+03  0.34129713721E+02  0.11942857635E+04  0.46999998093E+01 0.  1.
</event>
<event>
 5   0  0.6703961E-05  0.2394592E+04  0.7818609E-02  0.8441531E-01
        2   -1    0    0  501    0  0.00000000000E+00  0.00000000000E+00  0.15483716443E+04  0.15483716443E+04  0.25500000920E-02 0.  1.
       -2   -1    0    0    0  501  0.00000000000E+00  0.00000000000E+00 -0.92582238516E+03  0.92582238516E+03  0.25500000920E-02 0. -1.
    10030    2    1    2    0    0  0.00000000000E+00  0.00000000000E+00  0.62254925912E+03  0.24741940294E+04  0.23945915132E+04 0.  0.
        2    1    3    3  502    0  0.11784702208E+04  0.18987781421E+03  0.21505825007E+03  0.12128873387E+04  0.25500000920E-02 0.  1.
       -2    1    3    3    0  502 -0.11784702208E+04 -0.18987781421E+03  0.40749100904E+03  0.12613066907E+04  0.25500000920E-02 0. -1.
</event>
<event>
 5   0  0.2901816E-05  0.2372775E+04  0.7818609E-02  0.8449767E-01
        1   -1    0    0  501    0  0.00000000000E+00  0.00000000000E+00  0.18706647222E+04  0.18706647223E+04  0.50400001928E-02 0. -1.
       -1   -1    0    0    0  501  0.00000000000E+00  0.00000000000E+00 -0.75241468568E+03  0.75241468570E+03  0.50400001928E-02 0.  1.
    10030    2    1    2    0    0  0.00000000000E+00  0.00000000000E+00  0.11182500366E+04  0.26230794080E+04  0.23727752604E+04 0.  0.
        4    1    3    3  502    0  0.14211202931E+03  0.26517381029E+03 -0.70954269586E+03  0.77069152629E+03  0.12699999809E+01 0.  1.
       -4    1    3    3    0  502 -0.14211202931E+03 -0.26517381029E+03  0.18277927324E+04  0.18523878817E+04  0.12699999809E+01 0. -1.
</event>
<event>
 5   0  0.2915546E-05  0.2229669E+04  0.7818609E-02  0.8506180E-01
        1   -1    0    0  501    0  0.00000000000E+00  0.00000000000E+00  0.10465748054E+04  0.10465748054E+04  0.50400001928E-02 0.  1.
       -1   -1    0    0    0  501  0.00000000000E+00  0.00000000000E+00 -0.11875457488E+04  0.11875457488E+04  0.50400001928E-02 0. -1.
    10030    2    1    2    0    0  0.00000000000E+00  0.00000000000E+00 -0.14097094338E+03  0.22341205542E+04  0.22296685503E+04 0.  0.
        2    1    3    3  502    0  0.59697958779E+03 -0.87488084313E+03 -0.41910883122E+03  0.11390580891E+04  0.25500000920E-02 0. -1.
       -2    1    3    3    0  502 -0.59697958779E+03  0.87488084313E+03  0.27813788784E+03  0.10950624651E+04  0.25500000920E-02 0.  1.
</event>
<event>
 5   0  0.2915546E-05  0.2440498E+04  0.7818609E-02  0.8424495E-01
       -1   -1    0    0    0  501  0.00000000000E+00  0.00000000000E+00  0.12123144254E+04  0.12123144255E+04  0.50400001928E-02 0. -1.
        1   -1    0    0  501    0  0.00000000000E+00  0.00000000000E+00 -0.12282359755E+04  0.12282359755E+04  0.50400001928E-02 0.  1.
    10030    2    1    2    0    0  0.00000000000E+00  0.00000000000E+00 -0.15921550034E+02  0.24405504010E+04  0.24404984663E+04 0.  0.
        2    1    3    3  502    0  0.10823492775E+04 -0.37188068062E+03 -0.43132896029E+03  0.12230371503E+04  0.25500000920E-02 0.  1.
       -2    1    3    3    0  502 -0.10823492775E+04  0.37188068062E+03  0.41540741026E+03  0.12175132507E+04  0.25500000920E-02 0. -1.
</event>
<event>
 5   0  0.6703961E-05  0.2129263E+04  0.7818609E-02  0.8548461E-01
        2   -1    0    0  501    0  0.00000000000E+00  0.00000000000E+00  0.17647927511E+04  0.17647927511E+04  0.25500000920E-02 0.  1.
       -2   -1    0    0    0  501  0.00000000000E+00  0.00000000000E+00 -0.64225141395E+03  0.64225141395E+03  0.25500000920E-02 0. -1.
    10030    2    1    2    0    0  0.00000000000E+00  0.00000000000E+00  0.11225413371E+04  0.24070441650E+04  0.21292633841E+04 0.  0.
        2    1    3    3  502    0 -0.57151745621E+03 -0.37010717496E+03 -0.36393158897E+03  0.77204774798E+03  0.25500000920E-02 0. -1.
       -2    1    3    3    0  502  0.57151745621E+03  0.37010717496E+03  0.14864729261E+04  0.16349964170E+04  0.25500000920E-02 0.  1.
</event>
<event>
 5   0  0.2847158E-05  0.2455923E+04  0.7818609E-02  0.8418859E-01
       -1   -1    0    0    0  501  0.00000000000E+00  0.00000000000E+00  0.11720115783E+04  0.11720115783E+04  0.50400001928E-02 0. -1.
        1   -1    0    0  501    0  0.00000000000E+00  0.00000000000E+00 -0.12865821658E+04  0.12865821658E+04  0.50400001928E-02 0.  1.
    10030    2    1    2    0    0  0.00000000000E+00  0.00000000000E+00 -0.11457058748E+03  0.24585937441E+04  0.24559227958E+04 0.  0.
        5    1    3    3  502    0  0.10070965775E+04 -0.68091286591E+03 -0.23062457197E+03  0.12373744908E+04  0.46999998093E+01 0.  1.
       -5    1    3    3    0  502 -0.10070965775E+04  0.68091286591E+03  0.11605398449E+03  0.12212192533E+04  0.46999998093E+01 0. -1.
</event>
<event>
 5   0  0.6600166E-05  0.2488768E+04  0.7818609E-02  0.8406998E-01
       -2   -1    0    0    0  501  0.00000000000E+00  0.00000000000E+00  0.11222625238E+04  0.11222625238E+04  0.25500000920E-02 0. -1.
        2   -1    0    0  501    0  0.00000000000E+00  0.00000000000E+00 -0.13797945966E+04  0.13797945966E+04  0.25500000920E-02 0.  1.
    10030    2    1    2    0    0  0.00000000000E+00  0.00000000000E+00 -0.25753207273E+03  0.25020571204E+04  0.24887681823E+04 0.  0.
        5    1    3    3  502    0 -0.19843018688E+02 -0.83328183565E+03  0.80013579420E+03  0.11554184273E+04  0.46999998093E+01 0. -1.
       -5    1    3    3    0  502  0.19843018688E+02  0.83328183565E+03 -0.10576678669E+04  0.13466386931E+04  0.46999998093E+01 0.  1.
</event>
<event>
 5   0  0.6600166E-05  0.2519330E+04  0.7818609E-02  0.8396131E-01
        2   -1    0    0  501    0  0.00000000000E+00  0.00000000000E+00  0.10416454078E+04  0.10416454078E+04  0.25500000920E-02 0.  1.
       -2   -1    0    0    0  501  0.00000000000E+00  0.00000000000E+00 -0.15233169903E+04  0.15233169903E+04  0.25500000920E-02 0. -1.
    10030    2    1    2    0    0  0.00000000000E+00  0.00000000000E+00 -0.48167158248E+03  0.25649623981E+04  0.25193301868E+04 0.  0.
        5    1    3    3  502    0 -0.86957002280E+02  0.11795978773E+04  0.20028018514E+03  0.11996444953E+04  0.46999998093E+01 0.  1.
       -5    1    3    3    0  502  0.86957002280E+02 -0.11795978773E+04 -0.68195176761E+03  0.13653179028E+04  0.46999998093E+01 0. -1.
</event>
<event>
 5   0  0.6978115E-05  0.2453592E+04  0.7818609E-02  0.8419708E-01
       -2   -1    0    0    0  501  0.00000000000E+00  0.00000000000E+00  0.17942762355E+04  0.17942762356E+04  0.25500000920E-02 0.  1.
        2   -1    0    0  501    0  0.00000000000E+00  0.00000000000E+00 -0.83879392785E+03  0.83879392785E+03  0.25500000920E-02 0. -1.
    10030    2    1    2    0    0  0.00000000000E+00  0.00000000000E+00  0.95548230770E+03  0.26330701634E+04  0.24535916623E+04 0.  0.
        4    1    3    3  502    0 -0.14418279561E+02  0.33822618100E+03 -0.78767505110E+03  0.85734382561E+03  0.12699999809E+01 0. -1.
       -4    1    3    3    0  502  0.14418279561E+02 -0.33822618100E+03  0.17431573588E+04  0.17757263378E+04  0.12699999809E+01 0.  1.
</event>
<event>
 5   0  0.2901816E-05  0.1806036E+04  0.7818609E-02  0.8703096E-01
        1   -1    0    0  501    0  0.00000000000E+00  0.00000000000E+00  0.13079764481E+04  0.13079764481E+04  0.50400001928E-02 0. -1.
       -1   -1    0    0    0  501  0.00000000000E+00  0.00000000000E+00 -0.62343778071E+03  0.62343778073E+03  0.50400001928E-02 0.  1.
    10030    2    1    2    0    0  0.00000000000E+00  0.00000000000E+00  0.68453866739E+03  0.19314142288E+04  0.18060364714E+04 0.  0.
        4    1    3    3  502    0  0.62017681530E+03  0.44574768151E+03  0.85751528339E+03  0.11483224077E+04  0.12699999809E+01 0. -1.
       -4    1    3    3    0  502 -0.62017681530E+03 -0.44574768151E+03 -0.17297661600E+03  0.78309182117E+03  0.12699999809E+01 0.  1.
</event>
<event>
 5   0  0.2915546E-05  0.2424928E+04  0.7818609E-02  0.8430229E-01
        1   -1    0    0  501    0  0.00000000000E+00  0.00000000000E+00  0.28660274530E+04  0.28660274530E+04  0.50400001928E-02 0.  1.
       -1   -1    0    0    0  501  0.00000000000E+00  0.00000000000E+00 -0.51292928759E+03  0.51292928761E+03  0.50400001928E-02 0. -1.
    10030    2    1    2    0    0  0.00000000000E+00  0.00000000000E+00  0.23530981654E+04  0.33789567406E+04  0.24249283863E+04 0.  0.
        2    1    3    3  502    0 -0.37924493064E+03 -0.55609152841E+03 -0.22867388673E+03  0.71088413392E+03  0.25500000920E-02 0. -1.
       -2    1    3    3    0  502  0.37924493064E+03  0.55609152841E+03  0.25817720521E+04  0.26680726067E+04  0.25500000920E-02 0.  1.
</event>
<event>
 5   0  0.6703961E-05  0.2431090E+04  0.7818609E-02  0.8427955E-01
       -2   -1    0    0    0  501  0.00000000000E+00  0.00000000000E+00  0.13350180689E+04  0.13350180689E+04  0.25500000920E-02 0.  1.
        2   -1    0    0  501    0  0.00000000000E+00  0.00000000000E+00 -0.11067640090E+04  0.11067640090E+04  0.25500000920E-02 0. -1.
    10030    2    1    2    0    0  0.00000000000E+00  0.00000000000E+00  0.22825405985E+03  0.24417820779E+04  0.24310902493E+04 0.  0.
        2    1    3    3  502    0 -0.83190871240E+03 -0.52950454427E+03 -0.59970445685E+03  0.11541631617E+04  0.25500000920E-02 0. -1.
       -2    1    3    3    0  502  0.83190871240E+03  0.52950454427E+03  0.82795851671E+03  0.12876189163E+04  0.25500000920E-02 0.  1.
</event>
<event>
 5   0  0.2915546E-05  0.2388626E+04  0.7818609E-02  0.8443774E-01
       -1   -1    0    0    0  501  0.00000000000E+00  0.00000000000E+00  0.13131289526E+04  0.13131289526E+04  0.50400001928E-02 0. -1.
        1   -1    0    0  501    0  0.00000000000E+00  0.00000000000E+00 -0.10862478362E+04  0.10862478362E+04  0.50400001928E-02 0.  1.
    10030    2    1    2    0    0  0.00000000000E+00  0.00000000000E+00  0.22688111640E+03  0.23993767888E+04  0.23886259510E+04 0.  0.
        2    1    3    3  502    0  0.14774738840E+03 -0.55980473050E+03 -0.93585318673E+03  0.11004689065E+04  0.25500000920E-02 0.  1.
       -2    1    3    3    0  502 -0.14774738840E+03  0.55980473050E+03  0.11627343031E+04  0.12989078823E+04  0.25500000920E-02 0. -1.
</event>
<event>
 5   0  0.6714629E-05  0.2495106E+04  0.7818609E-02  0.8404731E-01
       -2   -1    0    0    0  501  0.00000000000E+00  0.00000000000E+00  0.61636115680E+03  0.61636115680E+03  0.25500000920E-02 0.  1.
        2   -1    0    0  501    0  0.00000000000E+00  0.00000000000E+00 -0.25251233016E+04  0.25251233016E+04  0.25500000920E-02 0. -1.
    10030    2    1    2    0    0  0.00000000000E+00  0.00000000000E+00 -0.19087621448E+04  0.31414844584E+04  0.24951055443E+04 0.  0.
        3    1    3    3  502    0  0.23204950882E+03  0.77532635282E+03  0.24100220371E+03  0.84442880121E+03  0.10100000352E+00 0.  1.
       -3    1    3    3    0  502 -0.23204950882E+03 -0.77532635282E+03 -0.21497643485E+04  0.22970556572E+04  0.10100000352E+00 0. -1.
</event>
<event>
 5   0  0.6600166E-05  0.2441690E+04  0.7818609E-02  0.8424058E-01
       -2   -1    0    0    0  501  0.00000000000E+00  0.00000000000E+00  0.13624387278E+04  0.13624387278E+04  0.25500000920E-02 0.  1.
        2   -1    0    0  501    0  0.00000000000E+00  0.00000000000E+00 -0.10939665753E+04  0.10939665754E+04  0.25500000920E-02 0. -1.
    10030    2    1    2    0    0  0.00000000000E+00  0.00000000000E+00  0.26847215247E+03  0.24564053032E+04  0.24416899305E+04 0.  0.
        5    1    3    3  502    0  0.12089951340E+04  0.12880703806E+03  0.24526356645E+03  0.12403373711E+04  0.46999998093E+01 0.  1.
       -5    1    3    3    0  502 -0.12089951340E+04 -0.12880703806E+03  0.23208586017E+02  0.12160679321E+04  0.46999998093E+01 0. -1.
</event>
<event>
 5   0  0.2847158E-05  0.2376296E+04  0.7818609E-02  0.8448432E-01
        1   -1    0    0  501    0  0.00000000000E+00  0.00000000000E+00  0.80341110772E+03  0.80341110773E+03  0.50400001928E-02 0. -1.
       -1   -1    0    0    0  501  0.00000000000E+00  0.00000000000E+00 -0.17571273068E+04  0.17571273068E+04  0.50400001928E-02 0.  1.
    10030    2    1    2    0    0  0.00000000000E+00  0.00000000000E+00 -0.95371619905E+03  0.25605384145E+04  0.23762959378E+04 0.  0.
        5    1    3    3  502    0 -0.76708706200E+03 -0.81706960622E+03 -0.51746625675E+02  0.11219291891E+04  0.46999998093E+01 0. -1.
       -5    1    3    3    0  502  0.76708706200E+03  0.81706960622E+03 -0.90196957337E+03  0.14386092254E+04  0.46999998093E+01 0.  1.
</event>
<event>
 5   0  0.2943244E-05  0.1972740E+04  0.7818609E-02  0.8619473E-01
       -1   -1    0    0    0  501  0.00000000000E+00  0.00000000000E+00  0.10904033437E+04  0.10904033437E+04  0.50400001928E-02 0.  1.
        1   -1    0    0  501    0  0.00000000000E+00  0.00000000000E+00 -0.89226259601E+03  0.89226259603E+03  0.50400001928E-02 0. -1.
    10030    2    1    2    0    0  0.00000000000E+00  0.00000000000E+00  0.19814074765E+03  0.19826659397E+04  0.19727403460E+04 0.  0.
        3    1    3    3  502    0  0.22291516624E+03 -0.35479935401E+03 -0.79836825637E+03  0.90164607021E+03  0.10100000352E+00 0. -1.
       -3    1    3    3    0  502 -0.22291516624E+03  0.35479935401E+03  0.99650900401E+03  0.10810198695E+04  0.10100000352E+00 0.  1.
</event>
<event>
 5   0  0.6714629E-05  0.2421341E+04  0.7818609E-02  0.8431557E-01
        2   -1    0    0  501    0  0.00000000000E+00  0.00000000000E+00  0.15420092983E+04  0.15420092983E+04  0.25500000920E-02 0. -1.
       -2   -1    0    0    0  501  0.00000000000E+00  0.00000000000E+00 -0.95052804408E+03  0.95052804408E+03  0.25500000920E-02 0.  1.
    10030    2    1    2    0    0  0.00000000000E+00  0.00000000000E+00  0.59148125427E+03  0.24925373424E+04  0.24213410188E+04 0.  0.
        3    1    3    3  502    0 -0.83564813677E+03 -0.62903352261E+03  0.92336636011E+03  0.13952047972E+04  0.10100000352E+00 0.  1.
       -3    1    3    3    0  502  0.83564813677E+03  0.62903352261E+03 -0.33188510584E+03  0.10973325452E+04  0.10100000352E+00 0. -1.
</event>
<event>
 5   0  0.6337926E-05  0.2400268E+04  0.7818609E-02  0.8439403E-01
        2   -1    0    0  501    0  0.00000000000E+00  0.00000000000E+00  0.21502935493E+04  0.21502935493E+04  0.25500000920E-02 0.  1.
       -2   -1    0    0    0  501  0.00000000000E+00  0.00000000000E+00 -0.66982576319E+03  0.66982576319E+03  0.25500000920E-02 0. -1.
    10030    2    1    2    0    0  0.00000000000E+00  0.00000000000E+00  0.14804677861E+04  0.28201193125E+04  0.24002683331E+04 0.  0.
        1    1    3    3  502    0 -0.11683928552E+04 -0.13915990802E+03  0.46265791293E+03  0.12643416028E+04  0.50400001928E-02 0. -1.
       -1    1    3    3    0  502  0.11683928552E+04  0.13915990802E+03  0.10178098732E+04  0.15557777097E+04  0.50400001928E-02 0.  1.
</event>
<event>
 5   0  0.6337926E-05  0.2289761E+04  0.7818609E-02  0.8481969E-01
        2   -1    0    0  501    0  0.00000000000E+00  0.00000000000E+00  0.17689252476E+04  0.17689252476E+04  0.25500000920E-02 0. -1.
       -2   -1    0    0    0  501  0.00000000000E+00  0.00000000000E+00 -0.74098715254E+03  0.74098715255E+03  0.25500000920E-02 0.  1.
    10030    2    1    2    0    0  0.00000000000E+00  0.00000000000E+00  0.10279380950E+04  0.25099124001E+04  0.22897605833E+04 0.  0.
        1    1    3    3  502    0 -0.50053300521E+03 -0.41449292420E+03 -0.51921095722E+03  0.83181590009E+03  0.50400001928E-02 0.  1.
       -1    1    3    3    0  502  0.50053300521E+03  0.41449292420E+03  0.15471490522E+04  0.16780965000E+04  0.50400001928E-02 0. -1.
</event>
<event>
 5   0  0.6703961E-05  0.2453982E+04  0.7818609E-02  0.8419565E-01
       -2   -1    0    0    0  501  0.00000000000E+00  0.00000000000E+00  0.10084665627E+04  0.10084665627E+04  0.25500000920E-02 0. -1.
        2   -1    0    0  501    0  0.00000000000E+00  0.00000000000E+00 -0.14928680476E+04  0.14928680476E+04  0.25500000920E-02 0.  1.
    10030    2    1    2    0    0  0.00000000000E+00  0.00000000000E+00 -0.48440148490E+03  0.25013346104E+04  0.24539824845E+04 0.  0.
        2    1    3    3  502    0 -0.10277945572E+03  0.12116995918E+04 -0.75559116450E+02  0.12183959526E+04  0.25500000920E-02 0. -1.
       -2    1    3    3    0  502  0.10277945572E+03 -0.12116995918E+04 -0.40884236845E+03  0.12829386577E+04  0.25500000920E-02 0.  1.
</event>
<event>
 5   0  0.2943123E-05  0.2394010E+04  0.7818609E-02  0.8441749E-01
        1   -1    0    0  501    0  0.00000000000E+00  0.00000000000E+00  0.14693748974E+04  0.14693748974E+04  0.50400001928E-02 0. -1.
       -1   -1    0    0    0  501  0.00000000000E+00  0.00000000000E+00 -0.97512293743E+03  0.97512293744E+03  0.50400001928E-02 0.  1.
    10030    2    1    2    0    0  0.00000000000E+00  0.00000000000E+00  0.49425195992E+03  0.24444978348E+04  0.23940101638E+04 0.  0.
        1    1    3    3  502    0  0.83455525024E+03  0.45324676328E+03 -0.49687329658E+03  0.10718200255E+04  0.50400001928E-02 0. -1.
       -1    1    3    3    0  502 -0.83455525024E+03 -0.45324676328E+03  0.99112525651E+03  0.13726778093E+04  0.50400001928E-02 0.  1.
</event>
<event>
 5   0  0.6337926E-05  0.2393791E+04  0.7818609E-02  0.8441832E-01
       -2   -1    0    0    0  501  0.00000000000E+00  0.00000000000E+00  0.68914144695E+03  0.68914144695E+03  0.25500000920E-02 0.  1.
        2   -1    0    0  501    0  0.00000000000E+00  0.00000000000E+00 -0.20787594015E+04  0.20787594015E+04  0.25500000920E-02 0. -1.
    10030    2    1    2    0    0  0.00000000000E+00  0.00000000000E+00 -0.13896179545E+04  0.27679008484E+04  0.23937913541E+04 0.  0.
        1    1    3    3  502    0 -0.93172937585E+03  0.32092957957E+03  0.90650274731E+02  0.98961249851E+03  0.50400001928E-02 0.  1.
       -1    1    3    3    0  502  0.93172937585E+03 -0.32092957957E+03 -0.14802682292E+04  0.17782883499E+04  0.50400001928E-02 0. -1.
</event>
<event>
 5   0  0.6978115E-05  0.2438416E+04  0.7818609E-02  0.8425260E-01
       -2   -1    0    0    0  501  0.00000000000E+00  0.00000000000E+00  0.11911614234E+04  0.11911614234E+04  0.25500000920E-02 0.  1.
        2   -1    0    0  501    0  0.00000000000E+00  0.00000000000E+00 -0.12479150516E+04  0.12479150516E+04  0.25500000920E-02 0. -1.
    10030    2    1    2    0    0  0.00000000000E+00  0.00000000000E+00 -0.56753628213E+02  0.24390764750E+04  0.24384161000E+04 0.  0.
        4    1    3    3  502    0 -0.66222207762E+01  0.99218560141E+02  0.11870977294E+04  0.11912559794E+04  0.12699999809E+01 0.  1.
       -4    1    3    3    0  502  0.66222207762E+01 -0.99218560141E+02 -0.12438513576E+04  0.12478204956E+04  0.12699999809E+01 0. -1.
</event>
<event>
 5   0  0.6714629E-05  0.2403319E+04  0.7818609E-02  0.8438262E-01
        2   -1    0    0  501    0  0.00000000000E+00  0.00000000000E+00  0.15227930273E+04  0.15227930273E+04  0.25500000920E-02 0. -1.
       -2   -1    0    0    0  501  0.00000000000E+00  0.00000000000E+00 -0.94824814096E+03  0.94824814096E+03  0.25500000920E-02 0.  1.
    10030    2    1    2    0    0  0.00000000000E+00  0.00000000000E+00  0.57454488632E+03  0.24710411682E+04  0.24033190859E+04 0.  0.
        3    1    3    3  502    0 -0.48143385409E+03  0.10087956145E+04 -0.16622132794E+03  0.11300781777E+04  0.10100000352E+00 0. -1.
       -3    1    3    3    0  502  0.48143385409E+03 -0.10087956145E+04  0.74076621426E+03  0.13409629905E+04  0.10100000352E+00 0.  1.
</event>
<event>
 5   0  0.2943244E-05  0.2390750E+04  0.7818609E-02  0.8442975E-01
       -1   -1    0    0    0  501  0.00000000000E+00  0.00000000000E+00  0.84736541677E+03  0.84736541678E+03  0.50400001928E-02 0.  1.
        1   -1    0    0  501    0  0.00000000000E+00  0.00000000000E+00 -0.16863107767E+04  0.16863107767E+04  0.50400001928E-02 0. -1.
    10030    2    1    2    0    0  0.00000000000E+00  0.00000000000E+00 -0.83894535997E+03  0.25336761935E+04  0.23907500364E+04 0.  0.
        3    1    3    3  502    0 -0.11711077674E+04  0.23958112035E+03 -0.42517072250E+03  0.12687248202E+04  0.10100000352E+00 0. -1.
       -3    1    3    3    0  502  0.11711077674E+04 -0.23958112035E+03 -0.41377463747E+03  0.12649513733E+04  0.10100000352E+00 0.  1.
</event>
<event>
 5   0  0.2915546E-05  0.2386185E+04  0.7818609E-02  0.8444694E-01
        1   -1    0    0  501    0  0.00000000000E+00  0.00000000000E+00  0.17725896059E+04  0.17725896059E+04  0.50400001928E-02 0.  1.
       -1   -1    0    0    0  501  0.00000000000E+00  0.00000000000E+00 -0.80304538932E+03  0.80304538934E+03  0.50400001928E-02 0. -1.
    10030    2    1    2    0    0  0.00000000000E+00  0.00000000000E+00  0.96954421653E+03  0.25756349952E+04  0.23861851648E+04 0.  0.
        2    1    3    3  502    0 -0.64833252180E+03  0.77651236898E+03  0.11675805061E+04  0.15448465154E+04  0.25500000920E-02 0.  1.
       -2    1    3    3    0  502  0.64833252180E+03 -0.77651236898E+03 -0.19803628958E+03  0.10307884798E+04  0.25500000920E-02 0. -1.
</event>
<event>
 5   0  0.6337926E-05  0.2421486E+04  0.7818609E-02  0.8431503E-01
        2   -1    0    0  501    0  0.00000000000E+00  0.00000000000E+00  0.20921486672E+04  0.20921486672E+04  0.25500000920E-02 0. -1.
       -2   -1    0    0    0  501  0.00000000000E+00  0.00000000000E+00 -0.70066661904E+03  0.70066661905E+03  0.25500000920E-02 0.  1.
    10030    2    1    2    0    0  0.00000000000E+00  0.00000000000E+00  0.13914820481E+04  0.27928152862E+04  0.24214861000E+04 0.  0.
        1    1    3    3  502    0 -0.13970634031E+03 -0.98719769212E+03  0.14879671065E+04  0.17911234617E+04  0.50400001928E-02 0. -1.
       -1    1    3    3    0  502  0.13970634031E+03  0.98719769212E+03 -0.96485058394E+02  0.10016918245E+04  0.50400001928E-02 0.  1.
</event>
<event>
 5   0  0.6978115E-05  0.2077489E+04  0.7818609E-02  0.8571225E-01
        2   -1    0    0  501    0  0.00000000000E+00  0.00000000000E+00  0.13197831912E+04  0.13197831912E+04  0.25500000920E-02 0. -1.
       -2   -1    0    0    0  501  0.00000000000E+00  0.00000000000E+00 -0.81755128257E+03  0.81755128257E+03  0.25500000920E-02 0.  1.
    10030    2    1    2    0    0  0.00000000000E+00  0.00000000000E+00  0.50223190863E+03  0.21373344738E+04  0.20774892930E+04 0.  0.
        4    1    3    3  502    0  0.52461856563E+03  0.74578612570E+03 -0.26077833746E+03  0.94838206377E+03  0.12699999809E+01 0.  1.
       -4    1    3    3    0  502 -0.52461856563E+03 -0.74578612570E+03  0.76301024609E+03  0.11889524100E+04  0.12699999809E+01 0. -1.
</event>
<event>
 5   0  0.6714629E-05  0.2277755E+04  0.7818609E-02  0.8486744E-01
       -2   -1    0    0    0  501  0.00000000000E+00  0.00000000000E+00  0.91037100903E+03  0.91037100903E+03  0.25500000920E-02 0. -1.
        2   -1    0    0  501    0  0.00000000000E+00  0.00000000000E+00 -0.14247396635E+04  0.14247396635E+04  0.25500000920E-02 0.  1.
    10030    2    1    2    0    0  0.00000000000E+00  0.00000000000E+00 -0.51436865446E+03  0.23351106725E+04  0.22777547586E+04 0.  0.
        3    1    3    3  502    0  0.14415806741E+03  0.76618345123E+03 -0.11082839566E+04  0.13550320911E+04  0.10100000352E+00 0.  1.
       -3    1    3    3    0  502 -0.14415806741E+03 -0.76618345123E+03  0.59391530215E+03  0.98007858138E+03  0.10100000352E+00 0. -1.
</event>
<event>
 5   0  0.2943123E-05  0.2392039E+04  0.7818609E-02  0.8442490E-01
       -1   -1    0    0    0  501  0.00000000000E+00  0.00000000000E+00  0.90682170716E+03  0.90682170718E+03  0.50400001928E-02 0.  1.
        1   -1    0    0  501    0  0.00000000000E+00  0.00000000000E+00 -0.15774462322E+04  0.15774462322E+04  0.50400001928E-02 0. -1.
    10030    2    1    2    0    0  0.00000000000E+00  0.00000000000E+00 -0.67062452499E+03  0.24842679393E+04  0.23920388669E+04 0.  0.
        1    1    3    3  502    0 -0.47756612105E+03  0.40881603278E+03 -0.13920213731E+04  0.15273910606E+04  0.50400001928E-02 0. -1.
       -1    1    3    3    0  502  0.47756612105E+03 -0.40881603278E+03  0.72139684813E+03  0.95687687878E+03  0.50400001928E-02 0.  1.
</event>
<event>
 5   0  0.6703961E-05  0.2560442E+04  0.7818609E-02  0.8381764E-01
       -2   -1    0    0    0  501  0.00000000000E+00  0.00000000000E+00  0.12586784620E+04  0.12586784620E+04  0.25500000920E-02 0.  1.
        2   -1    0    0  501    0  0.00000000000E+00  0.00000000000E+00 -0.13021321598E+04  0.13021321598E+04  0.25500000920E-02 0. -1.
    10030    2    1    2    0    0  0.00000000000E+00  0.00000000000E+00 -0.43453697781E+02  0.25608106218E+04  0.25604419183E+04 0.  0.
        2    1    3    3  502    0 -0.75244527120E+03  0.52659345129E+03  0.87030469373E+03  0.12652686707E+04  0.25500000920E-02 0.  1.
       -2    1    3    3    0  502  0.75244527120E+03 -0.52659345129E+03 -0.91375839151E+03  0.12955419511E+04  0.25500000920E-02 0. -1.
</event>
<event>
 5   0  0.2943123E-05  0.2383425E+04  0.7818609E-02  0.8445735E-01
        1   -1    0    0  501    0  0.00000000000E+00  0.00000000000E+00  0.21218035033E+04  0.21218035033E+04  0.50400001928E-02 0.  1.
       -1   -1    0    0    0  501  0.00000000000E+00  0.00000000000E+00 -0.66932644009E+03  0.66932644011E+03  0.50400001928E-02 0. -1.
    10030    2    1    2    0    0  0.00000000000E+00  0.00000000000E+00  0.14524770632E+04  0.27911299434E+04  0.23834254219E+04 0.  0.
        1    1    3    3  502    0  0.67525601249E+03  0.95156130576E+03  0.44241792540E+03  0.12478674696E+04  0.50400001928E-02 0. -1.
       -1    1    3    3    0  502 -0.67525601249E+03 -0.95156130576E+03  0.10100591378E+04  0.15432624738E+04  0.50400001928E-02 0.  1.
</event>
<event>
 5   0  0.2915546E-05  0.2398821E+04  0.7818609E-02  0.8439945E-01
       -1   -1    0    0    0  501  0.00000000000E+00  0.00000000000E+00  0.17949131947E+04  0.17949131947E+04  0.50400001928E-02 0.  1.
        1   -1    0    0  501    0  0.00000000000E+00  0.00000000000E+00 -0.80147913943E+03  0.80147913945E+03  0.50400001928E-02 0. -1.
    10030    2    1    2    0    0  0.00000000000E+00  0.00000000000E+00  0.99343405526E+03  0.25963923341E+04  0.23988209459E+04 0.  0.
        2    1    3    3  502    0 -0.41438580805E+03 -0.11207976901E+04  0.60858541161E+03  0.13409993524E+04  0.25500000920E-02 0. -1.
       -2    1    3    3    0  502  0.41438580805E+03  0.11207976901E+04  0.38484864366E+03  0.12553929817E+04  0.25500000920E-02 0.  1.
</event>
<event>
 5   0  0.6600166E-05  0.2406860E+04  0.7818609E-02  0.8436940E-01
       -2   -1    0    0    0  501  0.00000000000E+00  0.00000000000E+00  0.10489766328E+04  0.10489766328E+04  0.25500000920E-02 0. -1.
        2   -1    0    0  501    0  0.00000000000E+00  0.00000000000E+00 -0.13806258383E+04  0.13806258383E+04  0.25500000920E-02 0.  1.
    10030    2    1    2    0    0  0.00000000000E+00  0.00000000000E+00 -0.33164920556E+03  0.24296024711E+04  0.24068603973E+04 0.  0.
        5    1    3    3  502    0 -0.44437869882E+03  0.59761078919E+03 -0.11200667387E+04  0.13450586131E+04  0.46999998093E+01 0.  1.
       -5    1    3    3    0  502  0.44437869882E+03 -0.59761078919E+03  0.78841753319E+03  0.10845438580E+04  0.46999998093E+01 0. -1.
</event>
<event>
 5   0  0.2943123E-05  0.2392502E+04  0.7818609E-02  0.8442316E-01
       -1   -1    0    0    0  501  0.00000000000E+00  0.00000000000E+00  0.22837734645E+04  0.22837734645E+04  0.50400001928E-02 0.  1.
        1   -1    0    0  501    0  0.00000000000E+00  0.00000000000E+00 -0.62660187532E+03  0.62660187534E+03  0.50400001928E-02 0. -1.
    10030    2    1    2    0    0  0.00000000000E+00  0.00000000000E+00  0.16571715892E+04  0.29103753399E+04  0.23925022347E+04 0.  0.
        1    1    3    3  502    0 -0.70380793178E+03  0.85631918533E+03  0.28133089892E+03  0.11435800045E+04  0.50400001928E-02 0. -1.
       -1    1    3    3    0  502  0.70380793178E+03 -0.85631918533E+03  0.13758406903E+04  0.17667953353E+04  0.50400001928E-02 0.  1.
</event>
<event>
 5   0  0.6978115E-05  0.2360512E+04  0.7818609E-02  0.8454437E-01
       -2   -1    0    0    0  501  0.00000000000E+00  0.00000000000E+00  0.62290908646E+03  0.62290908647E+03  0.25500000920E-02 0. -1.
        2   -1    0    0  501    0  0.00000000000E+00  0.00000000000E+00 -0.22362879845E+04  0.22362879845E+04  0.25500000920E-02 0.  1.
    10030    2    1    2    0    0  0.00000000000E+00  0.00000000000E+00 -0.16133788980E+04  0.28591970709E+04  0.23605118983E+04 0.  0.
        4    1    3    3  502    0 -0.48567392884E+03 -0.91948632646E+03 -0.14829034502E+04  0.18111704849E+04  0.12699999809E+01 0.  1.
       -4    1    3    3    0  502  0.48567392884E+03  0.91948632646E+03 -0.13047544777E+03  0.10480265861E+04  0.12699999809E+01 0. -1.
</event>
<event>
 5   0  0.2847158E-05  0.1698634E+04  0.7818609E-02  0.8762144E-01
        1   -1    0    0  501    0  0.00000000000E+00  0.00000000000E+00  0.20726378551E+04  0.20726378551E+04  0.50400001928E-02 0.  1.
       -1   -1    0    0    0  501  0.00000000000E+00  0.00000000000E+00 -0.34802948644E+03  0.34802948648E+03  0.50400001928E-02 0. -1.
    10030    2    1    2    0    0  0.00000000000E+00  0.00000000000E+00  0.17246083687E+04  0.24206673416E+04  0.16986336725E+04 0.  0.
        5    1    3    3  502    0 -0.74644094247E+03  0.33004365377E+03  0.52744640112E+03  0.97176370072E+03  0.46999998093E+01 0. -1.
       -5    1    3    3    0  502  0.74644094247E+03 -0.33004365377E+03  0.11971619676E+04  0.14489036409E+04  0.46999998093E+01 0.  1.
</event>
<event>
 5   0  0.6714629E-05  0.1955052E+04  0.7818609E-02  0.8627929E-01
       -2   -1    0    0    0  501  0.00000000000E+00  0.00000000000E+00  0.14007893877E+04  0.14007893877E+04  0.25500000920E-02 0. -1.
        2   -1    0    0  501    0  0.00000000000E+00  0.00000000000E+00 -0.68215579532E+03  0.68215579533E+03  0.25500000920E-02 0.  1.
    10030    2    1    2    0    0  0.00000000000E+00  0.00000000000E+00  0.71863359241E+03  0.20829451831E+04  0.19550515071E+04 0.  0.
        3    1    3    3  502    0 -0.12231662122E+03 -0.95193939132E+03  0.16169233734E+03  0.97329049247E+03  0.10100000352E+00 0. -1.
       -3    1    3    3    0  502  0.12231662122E+03  0.95193939132E+03  0.55694125507E+03  0.11096546906E+04  0.10100000352E+00 0.  1.
</event>
<event>
 5   0  0.6714629E-05  0.2414068E+04  0.7818609E-02  0.8434255E-01
        2   -1    0    0  501    0  0.00000000000E+00  0.00000000000E+00  0.14465104558E+04  0.14465104558E+04  0.25500000920E-02 0. -1.
       -2   -1    0    0    0  501  0.00000000000E+00  0.00000000000E+00 -0.10072040515E+04  0.10072040515E+04  0.25500000920E-02 0.  1.
    10030    2    1    2    0    0  0.00000000000E+00  0.00000000000E+00  0.43930640431E+03  0.24537145072E+04  0.24140680947E+04 0.  0.
        3    1    3    3  502    0  0.69563024032E+03  0.37088859378E+03  0.11487058137E+04  0.13931923187E+04  0.10100000352E+00 0. -1.
       -3    1    3    3    0  502 -0.69563024032E+03 -0.37088859378E+03 -0.70939940935E+03  0.10605221886E+04  0.10100000352E+00 0.  1.
</event>
<event>
 5   0  0.2943244E-05  0.2445223E+04  0.7818609E-02  0.8422764E-01
       -1   -1    0    0    0  501  0.00000000000E+00  0.00000000000E+00  0.91002704301E+03  0.91002704302E+03  0.50400001928E-02 0.  1.
        1   -1    0    0  501    0  0.00000000000E+00  0.00000000000E+00 -0.16425651747E+04  0.16425651747E+04  0.50400001928E-02 0. -1.
    10030    2    1    2    0    0  0.00000000000E+00  0.00000000000E+00 -0.73253813167E+03  0.25525922177E+04  0.24452228765E+04 0.  0.
        3    1    3    3  502    0  0.89511213032E+03 -0.38721972922E+03 -0.11359456190E+04  0.14971764439E+04  0.10100000352E+00 0. -1.
       -3    1    3    3    0  502 -0.89511213032E+03  0.38721972922E+03  0.40340748737E+03  0.10554157738E+04  0.10100000352E+00 0.  1.
</event>
<event>
 5   0  0.6703961E-05  0.2457319E+04  0.7818609E-02  0.8418351E-01
        2   -1    0    0  501    0  0.00000000000E+00  0.00000000000E+00  0.11873375939E+04  0.11873375939E+04  0.25500000920E-02 0.  1.
       -2   -1    0    0    0  501  0.00000000000E+00  0.00000000000E+00 -0.12714196961E+04  0.12714196961E+04  0.25500000920E-02 0. -1.
    10030    2    1    2    0    0  0.00000000000E+00  0.00000000000E+00 -0.84082102281E+02  0.24587572900E+04  0.24573191920E+04 0.  0.
        2    1    3    3  502    0  0.44450888248E+03 -0.68785672271E+03 -0.95847519299E+03  0.12607179356E+04  0.25500000920E-02 0. -1.
       -2    1    3    3    0  502 -0.44450888248E+03  0.68785672271E+03  0.87439309070E+03  0.11980393544E+04  0.25500000920E-02 0.  1.
</event>
<event>
 5   0  0.6978115E-05  0.2397947E+04  0.7818609E-02  0.8440273E-01
       -2   -1    0    0    0  501  0.00000000000E+00  0.00000000000E+00  0.17554450396E+04  0.17554450396E+04  0.25500000920E-02 0.  1.
        2   -1    0    0  501    0  0.00000000000E+00  0.00000000000E+00 -0.81890208655E+03  0.81890208656E+03  0.25500000920E-02 0. -1.
    10030    2    1    2    0    0  0.00000000000E+00  0.00000000000E+00  0.93654295302E+03  0.25743471261E+04  0.23979471268E+04 0.  0.
        4    1    3    3  502    0  0.12170038796E+03  0.27114802429E+03 -0.77872801105E+03  0.83351734451E+03  0.12699999809E+01 0. -1.
       -4    1    3    3    0  502 -0.12170038796E+03 -0.27114802429E+03  0.17152709641E+04  0.17408297816E+04  0.12699999809E+01 0.  1.
</event>
<event>
 5   0  0.6978115E-05  0.2241773E+04  0.7818609E-02  0.8501240E-01
        2   -1    0    0  501    0  0.00000000000E+00  0.00000000000E+00  0.15994218963E+04  0.15994218963E+04  0.25500000920E-02 0. -1.
       -2   -1    0    0    0  501  0.00000000000E+00  0.00000000000E+00 -0.78552556409E+03  0.78552556409E+03  0.25500000920E-02 0.  1.
    10030    2    1    2    0    0  0.00000000000E+00  0.00000000000E+00  0.81389633223E+03  0.23849474604E+04  0.22417732154E+04 0.  0.
        4    1    3    3  502    0  0.84572315524E+01  0.83306260921E+03 -0.39082428704E+03  0.92022283816E+03  0.12699999809E+01 0.  1.
       -4    1    3    3    0  502 -0.84572315524E+01 -0.83306260921E+03  0.12047206193E+04  0.14647246222E+04  0.12699999809E+01 0. -1.
</event>
<event>
 5   0  0.2901816E-05  0.2322550E+04  0.7818609E-02  0.8469083E-01
        1   -1    0    0  501    0  0.00000000000E+00  0.00000000000E+00  0.10286429506E+04  0.10286429506E+04  0.50400001928E-02 0. -1.
       -1   -1    0    0    0  501  0.00000000000E+00  0.00000000000E+00 -0.13110088547E+04  0.13110088547E+04  0.50400001928E-02 0.  1.
    10030    2    1    2    0    0  0.00000000000E+00  0.00000000000E+00 -0.28236590407E+03  0.23396518053E+04  0.23225503367E+04 0.  0.
        4    1    3    3  502    0  0.67310131095E+03  0.56468180977E+03  0.62376830486E+03  0.10775061170E+04  0.12699999809E+01 0. -1.
       -4    1    3    3    0  502 -0.67310131095E+03 -0.56468180977E+03 -0.90613420893E+03  0.12621456883E+04  0.12699999809E+01 0.  1.
</event>
<event>
 5   0  0.2943244E-05  0.2449755E+04  0.7818609E-02  0.8421107E-01
        1   -1    0    0  501    0  0.00000000000E+00  0.00000000000E+00  0.15574708293E+04  0.15574708293E+04  0.50400001928E-02 0. -1.
       -1   -1    0    0    0  501  0.00000000000E+00  0.00000000000E+00 -0.96330872492E+03  0.96330872494E+03  0.50400001928E-02 0.  1.
    10030    2    1    2    0    0  0.00000000000E+00  0.00000000000E+00  0.59416210434E+03  0.25207795542E+04  0.24497552846E+04 0.  0.
        3    1    3    3  502    0 -0.24576801792E+02  0.93769209409E+03  0.11076075546E+04  0.14514354921E+04  0.10100000352E+00 0. -1.
       -3    1    3    3    0  502  0.24576801792E+02 -0.93769209409E+03 -0.51344545029E+03  0.10693440621E+04  0.10100000352E+00 0.  1.
</event>
<event>
 5   0  0.2943123E-05  0.2309254E+04  0.7818609E-02  0.8474281E-01
       -1   -1    0    0    0  501  0.00000000000E+00  0.00000000000E+00  0.58115598090E+03  0.58115598092E+03  0.50400001928E-02 0.  1.
        1   -1    0    0  501    0  0.00000000000E+00  0.00000000000E+00 -0.22939861007E+04  0.22939861007E+04  0.50400001928E-02 0. -1.
    10030    2    1    2    0    0  0.00000000000E+00  0.00000000000E+00 -0.17128301198E+04  0.28751420816E+04  0.23092542022E+04 0.  0.
        1    1    3    3  502    0  0.65241830926E+01  0.62293208754E+03  0.35396320909E+03  0.71650324777E+03  0.50400001928E-02 0.  1.
       -1    1    3    3    0  502 -0.65241830926E+01 -0.62293208754E+03 -0.20667933289E+04  0.21586388339E+04  0.50400001928E-02 0. -1.
</event>
<event>
 5   0  0.2901816E-05  0.2162867E+04  0.7818609E-02  0.8534045E-01
        1   -1    0    0  501    0  0.00000000000E+00  0.00000000000E+00  0.19898399110E+04  0.19898399110E+04  0.50400001928E-02 0.  1.
       -1   -1    0    0    0  501  0.00000000000E+00  0.00000000000E+00 -0.58773483239E+03  0.58773483241E+03  0.50400001928E-02 0. -1.
    10030    2    1    2    0    0  0.00000000000E+00  0.00000000000E+00  0.14021050786E+04  0.25775747434E+04  0.21628668259E+04 0.  0.
        4    1    3    3  502    0 -0.66034651254E+03 -0.34842238239E+03 -0.23128189627E+03  0.78163201164E+03  0.12699999809E+01 0. -1.
       -4    1    3    3    0  502  0.66034651254E+03  0.34842238239E+03  0.16333869749E+04  0.17959427318E+04  0.12699999809E+01 0.  1.
</event>
<event>
 5   0  0.2943123E-05  0.2416992E+04  0.7818609E-02  0.8433169E-01
        1   -1    0    0  501    0  0.00000000000E+00  0.00000000000E+00  0.17761431753E+04  0.17761431753E+04  0.50400001928E-02 0. -1.
       -1   -1    0    0    0  501  0.00000000000E+00  0.00000000000E+00 -0.82226640174E+03  0.82226640175E+03  0.50400001928E-02 0.  1.
    10030    2    1    2    0    0  0.00000000000E+00  0.00000000000E+00  0.95387677352E+03  0.25984095770E+04  0.24169922281E+04 0.  0.
        1    1    3    3  502    0 -0.72482816403E+03 -0.45784931697E+03 -0.43873246025E+03  0.96306180286E+03  0.50400001928E-02 0.  1.
       -1    1    3    3    0  502  0.72482816403E+03  0.45784931697E+03  0.13926092338E+04  0.16353477742E+04  0.50400001928E-02 0. -1.
</event>
<event>
 5   0  0.6703961E-05  0.2506101E+04  0.7818609E-02  0.8400815E-01
        2   -1    0    0  501    0  0.00000000000E+00  0.00000000000E+00  0.22898517874E+04  0.22898517874E+04  0.25500000920E-02 0.  1.
       -2   -1    0    0    0  501  0.00000000000E+00  0.00000000000E+00 -0.68569284156E+03  0.68569284156E+03  0.25500000920E-02 0. -1.
    10030    2    1    2    0    0  0.00000000000E+00  0.00000000000E+00  0.16041589458E+04  0.29755446290E+04  0.25061005398E+04 0.  0.
        2    1    3    3  502    0 -0.77720713838E+03 -0.28401971772E+03  0.19193076182E+04  0.20900860914E+04  0.25500000920E-02 0.  1.
       -2    1    3    3    0  502  0.77720713838E+03  0.28401971772E+03 -0.31514867241E+03  0.88545853756E+03  0.25500000920E-02 0. -1.
</event>
<event>
 5   0  0.2901816E-05  0.2402937E+04  0.7818609E-02  0.8438405E-01
        1   -1    0    0  501    0  0.00000000000E+00  0.00000000000E+00  0.15221386084E+04  0.15221386084E+04  0.50400001928E-02 0.  1.
       -1   -1    0    0    0  501  0.00000000000E+00  0.00000000000E+00 -0.94835416730E+03  0.94835416731E+03  0.50400001928E-02 0. -1.
    10030    2    1    2    0    0  0.00000000000E+00  0.00000000000E+00  0.57378444110E+03  0.24704927757E+04  0.24029369467E+04 0.  0.
        4    1    3    3  502    0  0.33974165392E+03  0.44666397405E+03  0.13791110393E+04  0.14889197322E+04  0.12699999809E+01 0.  1.
       -4    1    3    3    0  502 -0.33974165392E+03 -0.44666397405E+03 -0.80532659823E+03  0.98157304356E+03  0.12699999809E+01 0. -1.
</event>
<event>
 5   0  0.6703961E-05  0.2479162E+04  0.7818609E-02  0.8410447E-01
       -2   -1    0    0    0  501  0.00000000000E+00  0.00000000000E+00  0.94052791743E+03  0.94052791743E+03  0.25500000920E-02 0. -1.
        2   -1    0    0  501    0  0.00000000000E+00  0.00000000000E+00 -0.16337215122E+04  0.16337215122E+04  0.25500000920E-02 0.  1.
    10030    2    1    2    0    0  0.00000000000E+00  0.00000000000E+00 -0.69319359476E+03  0.25742494296E+04  0.24791617063E+04 0.  0.
        2    1    3    3  502    0 -0.64113145053E+02  0.10214787732E+04 -0.10727263356E+04  0.14826567946E+04  0.25500000920E-02 0.  1.
       -2    1    3    3    0  502  0.64113145053E+02 -0.10214787732E+04  0.37953274081E+03  0.10915926350E+04  0.25500000920E-02 0. -1.
</event>
<event>
 5   0  0.2943123E-05  0.2436563E+04  0.7818609E-02  0.8425940E-01
       -1   -1    0    0    0  501  0.00000000000E+00  0.00000000000E+00  0.97076134995E+03  0.97076134996E+03  0.50400001928E-02 0.  1.
        1   -1    0    0  501    0  0.00000000000E+00  0.00000000000E+00 -0.15289129911E+04  0.15289129911E+04  0.50400001928E-02 0. -1.
    10030    2    1    2    0    0  0.00000000000E+00  0.00000000000E+00 -0.55815164118E+03  0.24996743411E+04  0.24365628572E+04 0.  0.
        1    1    3    3  502    0 -0.81952049375E+03 -0.41323570548E+03 -0.11009711510E+04  0.14333579677E+04  0.50400001928E-02 0. -1.
       -1    1    3    3    0  502  0.81952049375E+03  0.41323570548E+03  0.54281950987E+03  0.10663163734E+04  0.50400001928E-02 0.  1.
</event>
<event>
 5   0  0.2943244E-05  0.2439207E+04  0.7818609E-02  0.8424969E-01
        1   -1    0    0  501    0  0.00000000000E+00  0.00000000000E+00  0.19955109317E+04  0.19955109317E+04  0.50400001928E-02 0. -1.
       -1   -1    0    0    0  501  0.00000000000E+00  0.00000000000E+00 -0.74538917409E+03  0.74538917411E+03  0.50400001928E-02 0.  1.
    10030    2    1    2    0    0  0.00000000000E+00  0.00000000000E+00  0.12501217576E+04  0.27409001058E+04  0.24392066294E+04 0.  0.
        3    1    3    3  502    0  0.10327484679E+04  0.58071247382E+03  0.95002908937E+03  0.15186677241E+04  0.10100000352E+00 0. -1.
       -3    1    3    3    0  502 -0.10327484679E+04 -0.58071247382E+03  0.30009266821E+03  0.12222323817E+04  0.10100000352E+00 0.  1.
</event>
<event>
 5   0  0.6703961E-05  0.2401339E+04  0.7818609E-02  0.8439003E-01
       -2   -1    0    0    0  501  0.00000000000E+00  0.00000000000E+00  0.74767626224E+03  0.74767626224E+03  0.25500000920E-02 0.  1.
        2   -1    0    0  501    0  0.00000000000E+00  0.00000000000E+00 -0.19281161665E+04  0.19281161665E+04  0.25500000920E-02 0. -1.
    10030    2    1    2    0    0  0.00000000000E+00  0.00000000000E+00 -0.11804399042E+04  0.26757924287E+04  0.24013385338E+04 0.  0.
        2    1    3    3  502    0 -0.71563942581E+03  0.21017889800E+03  0.45821679566E+03  0.87537282844E+03  0.25500000920E-02 0.  1.
       -2    1    3    3    0  502  0.71563942581E+03 -0.21017889800E+03 -0.16386566999E+04  0.18004196003E+04  0.25500000920E-02 0. -1.
</event>
<event>
 5   0  0.6337926E-05  0.2383343E+04  0.7818609E-02  0.8445766E-01
       -2   -1    0    0    0  501  0.00000000000E+00  0.00000000000E+00  0.70298196869E+03  0.70298196870E+03  0.25500000920E-02 0.  1.
        2   -1    0    0  501    0  0.00000000000E+00  0.00000000000E+00 -0.20200812239E+04  0.20200812239E+04  0.25500000920E-02 0. -1.
    10030    2    1    2    0    0  0.00000000000E+00  0.00000000000E+00 -0.13170992552E+04  0.27230631926E+04  0.23833427582E+04 0.  0.
        1    1    3    3  502    0 -0.33924269278E+03 -0.30003889407E+03  0.60082315281E+03  0.75239444677E+03  0.50400001928E-02 0.  1.
       -1    1    3    3    0  502  0.33924269278E+03  0.30003889407E+03 -0.19179224080E+04  0.19706687458E+04  0.50400001928E-02 0. -1.
</event>
<event>
 5   0  0.6600166E-05  0.2383471E+04  0.7818609E-02  0.8445718E-01
       -2   -1    0    0    0  501  0.00000000000E+00  0.00000000000E+00  0.14353306856E+04  0.14353306856E+04  0.25500000920E-02 0.  1.
        2   -1    0    0  501    0  0.00000000000E+00  0.00000000000E+00 -0.98948137633E+03  0.98948137634E+03  0.25500000920E-02 0. -1.
    10030    2    1    2    0    0  0.00000000000E+00  0.00000000000E+00  0.44584930926E+03  0.24248120619E+04  0.23834705639E+04 0.  0.
        5    1    3    3  502    0  0.34701830497E+03 -0.46643126808E+02  0.13818113754E+04  0.14254901096E+04  0.46999998093E+01 0.  1.
       -5    1    3    3    0  502 -0.34701830497E+03  0.46643126808E+02 -0.93596206614E+03  0.99932195238E+03  0.46999998093E+01 0. -1.
</event>
<event>
 5   0  0.2901816E-05  0.2419194E+04  0.7818609E-02  0.8432353E-01
        1   -1    0    0  501    0  0.00000000000E+00  0.00000000000E+00  0.14615091023E+04  0.14615091023E+04  0.50400001928E-02 0. -1.
       -1   -1    0    0    0  501  0.00000000000E+00  0.00000000000E+00 -0.10011052249E+04  0.10011052249E+04  0.50400001928E-02 0.  1.
    10030    2    1    2    0    0  0.00000000000E+00  0.00000000000E+00  0.46040387745E+03  0.24626143272E+04  0.24191935834E+04 0.  0.
        4    1    3    3  502    0 -0.97560465695E+03  0.15185011097E+03 -0.48109559217E+03  0.10983248538E+04  0.12699999809E+01 0.  1.
       -4    1    3    3    0  502  0.97560465695E+03 -0.15185011097E+03  0.94149946962E+03  0.13642894733E+04  0.12699999809E+01 0. -1.
</event>
<event>
 5   0  0.2943123E-05  0.2388592E+04  0.7818609E-02  0.8443787E-01
       -1   -1    0    0    0  501  0.00000000000E+00  0.00000000000E+00  0.62458178296E+03  0.62458178298E+03  0.50400001928E-02 0.  1.
        1   -1    0    0  501    0  0.00000000000E+00  0.00000000000E+00 -0.22836766597E+04  0.22836766598E+04  0.50400001928E-02 0. -1.
    10030    2    1    2    0    0  0.00000000000E+00  0.00000000000E+00 -0.16590948768E+04  0.29082584427E+04  0.23885919198E+04 0.  0.
        1    1    3    3  502    0  0.33457902728E+03 -0.11309999591E+04 -0.60098669704E+03  0.13237405498E+04  0.50400001928E-02 0.  1.
       -1    1    3    3    0  502 -0.33457902728E+03  0.11309999591E+04 -0.10581081797E+04  0.15845178930E+04  0.50400001928E-02 0. -1.
</event>
<event>
 5   0  0.2943244E-05  0.2418368E+04  0.7818609E-02  0.8432659E-01
       -1   -1    0    0    0  501  0.00000000000E+00  0.00000000000E+00  0.78860999470E+03  0.78860999472E+03  0.50400001928E-02 0. -1.
        1   -1    0    0  501    0  0.00000000000E+00  0.00000000000E+00 -0.18540550045E+04  0.18540550045E+04  0.50400001928E-02 0.  1.
    10030    2    1    2    0    0  0.00000000000E+00  0.00000000000E+00 -0.10654450098E+04  0.26426649992E+04  0.24183682989E+04 0.  0.
        3    1    3    3  502    0  0.58309091387E+03  0.62965223292E+03 -0.14635925629E+04  0.16966320016E+04  0.10100000352E+00 0.  1.
       -3    1    3    3    0  502 -0.58309091387E+03 -0.62965223292E+03  0.39814755319E+03  0.94603299761E+03  0.10100000352E+00 0. -1.
</event>
<event>
 5   0  0.6714629E-05  0.2369816E+04  0.7818609E-02  0.8450891E-01
       -2   -1    0    0    0  501  0.00000000000E+00  0.00000000000E+00  0.84679378072E+03  0.84679378073E+03  0.25500000920E-02 0.  1.
        2   -1    0    0  501    0  0.00000000000E+00  0.00000000000E+00 -0.16580273916E+04  0.16580273916E+04  0.25500000920E-02 0. -1.
    10030    2    1    2    0    0  0.00000000000E+00  0.00000000000E+00 -0.81123361090E+03  0.25048211724E+04  0.23698162659E+04 0.  0.
        3    1    3    3  502    0  0.76105313409E+03  0.13499377212E+03 -0.13548793269E+04  0.15598471695E+04  0.10100000352E+00 0. -1.
       -3    1    3    3    0  502 -0.76105313409E+03 -0.13499377212E+03  0.54364571599E+03  0.94497400289E+03  0.10100000352E+00 0.  1.
</event>
<event>
 5   0  0.6703961E-05  0.2414443E+04  0.7818609E-02  0.8434116E-01
       -2   -1    0    0    0  501  0.00000000000E+00  0.00000000000E+00  0.10827718211E+04  0.10827718211E+04  0.25500000920E-02 0. -1.
        2   -1    0    0  501    0  0.00000000000E+00  0.00000000000E+00 -0.13459749185E+04  0.13459749185E+04  0.25500000920E-02 0.  1.
    10030    2    1    2    0    0  0.00000000000E+00  0.00000000000E+00 -0.26320309749E+03  0.24287467396E+04  0.24144429698E+04 0.  0.
        2    1    3    3  502    0 -0.10171197873E+04  0.92123734646E+02 -0.77912638179E+03  0.12845455862E+04  0.25500000920E-02 0.  1.
       -2    1    3    3    0  502  0.10171197873E+04 -0.92123734646E+02  0.51592328430E+03  0.11442011534E+04  0.25500000920E-02 0. -1.
</event>
<event>
 5   0  0.2915546E-05  0.2459605E+04  0.7818609E-02  0.8417519E-01
        1   -1    0    0  501    0  0.00000000000E+00  0.00000000000E+00  0.96544511533E+03  0.96544511535E+03  0.50400001928E-02 0. -1.
       -1   -1    0    0    0  501  0.00000000000E+00  0.00000000000E+00 -0.15665460998E+04  0.15665460998E+04  0.50400001928E-02 0.  1.
    10030    2    1    2    0    0  0.00000000000E+00  0.00000000000E+00 -0.60110098450E+03  0.25319912152E+04  0.24596050740E+04 0.  0.
        2    1    3    3  502    0  0.71752525204E+03  0.33209993303E+03  0.66912743453E+03  0.10357916665E+04  0.25500000920E-02 0. -1.
       -2    1    3    3    0  502 -0.71752525204E+03 -0.33209993303E+03 -0.12702284190E+04  0.14961995486E+04  0.25500000920E-02 0.  1.
</event>
<event>
 5   0  0.2915546E-05  0.2291733E+04  0.7818609E-02  0.8481188E-01
        1   -1    0    0  501    0  0.00000000000E+00  0.00000000000E+00  0.10955467498E+04  0.10955467498E+04  0.50400001928E-02 0. -1.
       -1   -1    0    0    0  501  0.00000000000E+00  0.00000000000E+00 -0.11984973088E+04  0.11984973088E+04  0.50400001928E-02 0.  1.
    10030    2    1    2    0    0  0.00000000000E+00  0.00000000000E+00 -0.10295055895E+03  0.22940440586E+04  0.22917328215E+04 0.  0.
        2    1    3    3  502    0  0.88967756146E+03 -0.54143970480E+03  0.42684206923E+03  0.11255564266E+04  0.25500000920E-02 0. -1.
       -2    1    3    3    0  502 -0.88967756146E+03  0.54143970480E+03 -0.52979262818E+03  0.11684876320E+04  0.25500000920E-02 0.  1.
</event>
<event>
 5   0  0.6337926E-05  0.2455646E+04  0.7818609E-02  0.8418959E-01
        2   -1    0    0  501    0  0.00000000000E+00  0.00000000000E+00  0.19328431013E+04  0.19328431013E+04  0.25500000920E-02 0.  1.
       -2   -1    0    0    0  501  0.00000000000E+00  0.00000000000E+00 -0.77996466442E+03  0.77996466442E+03  0.25500000920E-02 0. -1.
    10030    2    1    2    0    0  0.00000000000E+00  0.00000000000E+00  0.11528784369E+04  0.27128077657E+04  0.24556460013E+04 0.  0.
        1    1    3    3  502    0 -0.83469260769E+03  0.50903038749E+03  0.13970077192E+04  0.17051258758E+04  0.50400001928E-02 0.  1.
       -1    1    3    3    0  502  0.83469260769E+03 -0.50903038749E+03 -0.24412928235E+03  0.10076818899E+04  0.50400001928E-02 0. -1.
</event>
<event>
 5   0  0.2943244E-05  0.2378197E+04  0.7818609E-02  0.8447712E-01
        1   -1    0    0  501    0  0.00000000000E+00  0.00000000000E+00  0.14698263064E+04  0.14698263064E+04  0.50400001928E-02 0. -1.
       -1   -1    0    0    0  501  0.00000000000E+00  0.00000000000E+00 -0.96198796291E+03  0.96198796293E+03  0.50400001928E-02 0.  1.
    10030    2    1    2    0    0  0.00000000000E+00  0.00000000000E+00  0.50783834348E+03  0.24318142693E+04  0.23781969762E+04 0.  0.
        3    1    3    3  502    0  0.52539441408E+02  0.92416833950E+03 -0.50930507179E+03  0.10565222094E+04  0.10100000352E+00 0.  1.
       -3    1    3    3    0  502 -0.52539441408E+02 -0.92416833950E+03  0.10171434153E+04  0.13752920599E+04  0.10100000352E+00 0. -1.
</event>
<event>
 5   0  0.6337926E-05  0.2413051E+04  0.7818609E-02  0.8434634E-01
        2   -1    0    0  501    0  0.00000000000E+00  0.00000000000E+00  0.16969434101E+04  0.16969434101E+04  0.25500000920E-02 0. -1.
       -2   -1    0    0    0  501  0.00000000000E+00  0.00000000000E+00 -0.85783854353E+03  0.85783854354E+03  0.25500000920E-02 0.  1.
    10030    2    1    2    0    0  0.00000000000E+00  0.00000000000E+00  0.83910486658E+03  0.25547819537E+04  0.24130507358E+04 0.  0.
        1    1    3    3  502    0 -0.35225433315E+03 -0.91727662883E+03 -0.32173159346E+03  0.10339200875E+04  0.50400001928E-02 0.  1.
       -1    1    3    3    0  502  0.35225433315E+03  0.91727662883E+03  0.11608364600E+04  0.15208618662E+04  0.50400001928E-02 0. -1.
</event>
<event>
 5   0  0.2915546E-05  0.2325789E+04  0.7818609E-02  0.8467822E-01
        1   -1    0    0  501    0  0.00000000000E+00  0.00000000000E+00  0.12878196621E+04  0.12878196621E+04  0.50400001928E-02 0.  1.
       -1   -1    0    0    0  501  0.00000000000E+00  0.00000000000E+00 -0.10500874379E+04  0.10500874379E+04  0.50400001928E-02 0. -1.
    10030    2    1    2    0    0  0.00000000000E+00  0.00000000000E+00  0.23773222418E+03  0.23379071001E+04  0.23257886830E+04 0.  0.
        2    1    3    3  502    0  0.13300111224E+03 -0.92455173388E+02  0.12764243261E+04  0.12866609169E+04  0.25500000920E-02 0.  1.
       -2    1    3    3    0  502 -0.13300111224E+03  0.92455173388E+02 -0.10386921019E+04  0.10512461831E+04  0.25500000920E-02 0. -1.
</event>
<event>
 5   0  0.2901816E-05  0.2396796E+04  0.7818609E-02  0.8440704E-01
        1   -1    0    0  501    0  0.00000000000E+00  0.00000000000E+00  0.71992180563E+03  0.71992180565E+03  0.50400001928E-02 0.  1.
       -1   -1    0    0    0  501  0.00000000000E+00  0.00000000000E+00 -0.19948804097E+04  0.19948804097E+04  0.50400001928E-02 0. -1.
    10030    2    1    2    0    0  0.00000000000E+00  0.00000000000E+00 -0.12749586040E+04  0.27148022153E+04  0.23967961170E+04 0.  0.
        4    1    3    3  502    0  0.11442257795E+04  0.20608330968E+03 -0.30835188761E+03  0.12028322678E+04  0.12699999809E+01 0.  1.
       -4    1    3    3    0  502 -0.11442257795E+04 -0.20608330968E+03 -0.96660671644E+03  0.15119699475E+04  0.12699999809E+01 0. -1.
</event>
<event>
 5   0  0.6978115E-05  0.2479854E+04  0.7818609E-02  0.8410198E-01
        2   -1    0    0  501    0  0.00000000000E+00  0.00000000000E+00  0.19931548842E+04  0.19931548842E+04  0.25500000920E-02 0. -1.
       -2   -1    0    0    0  501  0.00000000000E+00  0.00000000000E+00 -0.77134958198E+03  0.77134958199E+03  0.25500000920E-02 0.  1.
    10030    2    1    2    0    0  0.00000000000E+00  0.00000000000E+00  0.12218053023E+04  0.27645044662E+04  0.24798541786E+04 0.  0.
        4    1    3    3  502    0 -0.39315502653E+03  0.60837084017E+03 -0.51095650502E+03  0.88643336861E+03  0.12699999809E+01 0.  1.
       -4    1    3    3    0  502  0.39315502653E+03 -0.60837084017E+03  0.17327618073E+04  0.18780710976E+04  0.12699999809E+01 0. -1.
</event>
<event>
 5   0  0.6703961E-05  0.2444392E+04  0.7818609E-02  0.8423068E-01
       -2   -1    0    0    0  501  0.00000000000E+00  0.00000000000E+00  0.12874139262E+04  0.12874139262E+04  0.25500000920E-02 0.  1.
        2   -1    0    0  501    0  0.00000000000E+00  0.00000000000E+00 -0.11602816049E+04  0.11602816049E+04  0.25500000920E-02 0. -1.
    10030    2    1    2    0    0  0.00000000000E+00  0.00000000000E+00  0.12713232131E+03  0.24476955310E+04  0.24443917005E+04 0.  0.
        2    1    3    3  502    0 -0.72164976877E+03 -0.41559973823E+03 -0.83221611592E+03  0.11773211944E+04  0.25500000920E-02 0. -1.
       -2    1    3    3    0  502  0.72164976877E+03  0.41559973823E+03  0.95934843722E+03  0.12703743366E+04  0.25500000920E-02 0.  1.
</event>
<event>
 5   0  0.2847158E-05  0.2321179E+04  0.7818609E-02  0.8469617E-01
        1   -1    0    0  501    0  0.00000000000E+00  0.00000000000E+00  0.80672101802E+03  0.80672101803E+03  0.50400001928E-02 0.  1.
       -1   -1    0    0    0  501  0.00000000000E+00  0.00000000000E+00 -0.16696827068E+04  0.16696827068E+04  0.50400001928E-02 0. -1.
    10030    2    1    2    0    0  0.00000000000E+00  0.00000000000E+00 -0.86296168880E+03  0.24764037249E+04  0.23211791254E+04 0.  0.
        5    1    3    3  502    0 -0.35280347471E+03  0.79767166165E+03 -0.12483153886E+04  0.15228472580E+04  0.46999998093E+01 0. -1.
       -5    1    3    3    0  502  0.35280347471E+03 -0.79767166165E+03  0.38535369984E+03  0.95355646689E+03  0.46999998093E+01 0.  1.
</event>
<event>
 5   0  0.6600166E-05  0.2400623E+04  0.7818609E-02  0.8439270E-01
       -2   -1    0    0    0  501  0.00000000000E+00  0.00000000000E+00  0.93934689269E+03  0.93934689269E+03  0.25500000920E-02 0. -1.
        2   -1    0    0  501    0  0.00000000000E+00  0.00000000000E+00 -0.15337761248E+04  0.15337761248E+04  0.25500000920E-02 0.  1.
    10030    2    1    2    0    0  0.00000000000E+00  0.00000000000E+00 -0.59442923212E+03  0.24731230175E+04  0.24006231165E+04 0.  0.
        5    1    3    3  502    0  0.77843709701E+03  0.30125109274E+03  0.59139476160E+03  0.10229791733E+04  0.46999998093E+01 0. -1.
       -5    1    3    3    0  502 -0.77843709701E+03 -0.30125109274E+03 -0.11858239937E+04  0.14501438442E+04  0.46999998093E+01 0.  1.
</event>
<event>
 5   0  0.6703961E-05  0.2368501E+04  0.7818609E-02  0.8451391E-01
       -2   -1    0    0    0  501  0.00000000000E+00  0.00000000000E+00  0.85621576542E+03  0.85621576543E+03  0.25500000920E-02 0. -1.
        2   -1    0    0  501    0  0.00000000000E+00  0.00000000000E+00 -0.16379628689E+04  0.16379628689E+04  0.25500000920E-02 0.  1.
    10030    2    1    2    0    0  0.00000000000E+00  0.00000000000E+00 -0.78174710346E+03  0.24941786343E+04  0.23685013249E+04 0.  0.
        2    1    3    3  502    0  0.31723528038E+03  0.37517682659E+03  0.74382391880E+03  0.89144259294E+03  0.25500000920E-02 0. -1.
       -2    1    3    3    0  502 -0.31723528038E+03 -0.37517682659E+03 -0.15255710223E+04  0.16027360414E+04  0.25500000920E-02 0.  1.
</event>
<event>
 5   0  0.6600166E-05  0.2449902E+04  0.7818609E-02  0.8421054E-01
        2   -1    0    0  501    0  0.00000000000E+00  0.00000000000E+00  0.25446060742E+04  0.25446060742E+04  0.25500000920E-02 0.  1.
       -2   -1    0    0    0  501  0.00000000000E+00  0.00000000000E+00 -0.58968074715E+03  0.58968074716E+03  0.25500000920E-02 0. -1.
    10030    2    1    2    0    0  0.00000000000E+00  0.00000000000E+00  0.19549253270E+04  0.31342868213E+04  0.24499022111E+04 0.  0.
        5    1    3    3  502    0 -0.39306693027E+03 -0.97602917778E+03  0.17798402075E+04  0.20676043678E+04  0.46999998093E+01 0.  1.
       -5    1    3    3    0  502  0.39306693027E+03  0.97602917778E+03  0.17508511951E+03  0.10666824535E+04  0.46999998093E+01 0. -1.
</event>
<event>
 5   0  0.2943244E-05  0.2397307E+04  0.7818609E-02  0.8440512E-01
       -1   -1    0    0    0  501  0.00000000000E+00  0.00000000000E+00  0.14439262264E+04  0.14439262264E+04  0.50400001928E-02 0.  1.
        1   -1    0    0  501    0  0.00000000000E+00  0.00000000000E+00 -0.99504398689E+03  0.99504398690E+03  0.50400001928E-02 0. -1.
    10030    2    1    2    0    0  0.00000000000E+00  0.00000000000E+00  0.44888223951E+03  0.24389702133E+04  0.23973069133E+04 0.  0.
        3    1    3    3  502    0 -0.18449279534E+03  0.11084721175E+04  0.64885055106E+03  0.12975958827E+04  0.10100000352E+00 0. -1.
       -3    1    3    3    0  502  0.18449279534E+03 -0.11084721175E+04 -0.19996831155E+03  0.11413743307E+04  0.10100000352E+00 0.  1.
</event>
<event>
 5   0  0.6337926E-05  0.2501187E+04  0.7818609E-02  0.8402563E-01
       -2   -1    0    0    0  501  0.00000000000E+00  0.00000000000E+00  0.13476908150E+04  0.13476908150E+04  0.25500000920E-02 0.  1.
        2   -1    0    0  501    0  0.00000000000E+00  0.00000000000E+00 -0.11604918085E+04  0.11604918085E+04  0.25500000920E-02 0. -1.
    10030    2    1    2    0    0  0.00000000000E+00  0.00000000000E+00  0.18719900649E+03  0.25081826236E+04  0.25011870392E+04 0.  0.
        1    1    3    3  502    0 -0.65186905655E+03 -0.12904261254E+03  0.11559959247E+04  0.13333836060E+04  0.50400001928E-02 0.  1.
       -1    1    3    3    0  502  0.65186905655E+03  0.12904261254E+03 -0.96879691826E+03  0.11747990175E+04  0.50400001928E-02 0. -1.
</event>
<event>
 5   0  0.2943244E-05  0.2397565E+04  0.7818609E-02  0.8440416E-01
       -1   -1    0    0    0  501  0.00000000000E+00  0.00000000000E+00  0.75270305921E+03  0.75270305923E+03  0.50400001928E-02 0.  1.
        1   -1    0    0  501    0  0.00000000000E+00  0.00000000000E+00 -0.19092250774E+04  0.19092250774E+04  0.50400001928E-02 0. -1.
    10030    2    1    2    0    0  0.00000000000E+00  0.00000000000E+00 -0.11565220182E+04  0.26619281366E+04  0.23975650619E+04 0.  0.
        3    1    3    3  502    0 -0.18165101959E+03  0.89831107620E+03 -0.14362004076E+04  0.17037110974E+04  0.10100000352E+00 0. -1.
       -3    1    3    3    0  502  0.18165101959E+03 -0.89831107620E+03  0.27967838940E+03  0.95821703921E+03  0.10100000352E+00 0.  1.
</event>
<event>
 5   0  0.6703961E-05  0.2178950E+04  0.7818609E-02  0.8527241E-01
        2   -1    0    0  501    0  0.00000000000E+00  0.00000000000E+00  0.14517832151E+04  0.14517832151E+04  0.25500000920E-02 0. -1.
       -2   -1    0    0    0  501  0.00000000000E+00  0.00000000000E+00 -0.81758505685E+03  0.81758505686E+03  0.25500000920E-02 0.  1.
    10030    2    1    2    0    0  0.00000000000E+00  0.00000000000E+00  0.63419815827E+03  0.22693682720E+04  0.21789504469E+04 0.  0.
        2    1    3    3  502    0  0.85467232785E+03 -0.49905654722E+03  0.79144769195E+03  0.12672457040E+04  0.25500000920E-02 0. -1.
       -2    1    3    3    0  502 -0.85467232785E+03  0.49905654722E+03 -0.15724953368E+03  0.10021225679E+04  0.25500000920E-02 0.  1.
</event>
<event>
 5   0  0.6714629E-05  0.1606620E+04  0.7818609E-02  0.8816491E-01
        2   -1    0    0  501    0  0.00000000000E+00  0.00000000000E+00  0.14995508103E+04  0.14995508103E+04  0.25500000920E-02 0. -1.
       -2   -1    0    0    0  501  0.00000000000E+00  0.00000000000E+00 -0.43033340915E+03  0.43033340916E+03  0.25500000920E-02 0.  1.
    10030    2    1    2    0    0  0.00000000000E+00  0.00000000000E+00  0.10692174012E+04  0.19298842195E+04  0.16066198211E+04 0.  0.
        3    1    3    3  502    0 -0.33102310148E+02  0.13754541639E+03 -0.41525146256E+03  0.43868928853E+03  0.10100000352E+00 0.  1.
       -3    1    3    3    0  502  0.33102310148E+02 -0.13754541639E+03  0.14844688637E+04  0.14911949310E+04  0.10100000352E+00 0. -1.
</event>
<event>
 5   0  0.6337926E-05  0.2416405E+04  0.7818609E-02  0.8433387E-01
       -2   -1    0    0    0  501  0.00000000000E+00  0.00000000000E+00  0.10194608981E+04  0.10194608981E+04  0.25500000920E-02 0.  1.
        2   -1    0    0  501    0  0.00000000000E+00  0.00000000000E+00 -0.14318879957E+04  0.14318879957E+04  0.25500000920E-02 0. -1.
    10030    2    1    2    0    0  0.00000000000E+00  0.00000000000E+00 -0.41242709762E+03  0.24513488937E+04  0.24164054478E+04 0.  0.
        1    1    3    3  502    0 -0.25785451744E+03 -0.61756772380E+03 -0.12266800422E+04  0.13973627917E+04  0.50400001928E-02 0. -1.
       -1    1    3    3    0  502  0.25785451744E+03  0.61756772380E+03  0.81425294455E+03  0.10539861021E+04  0.50400001928E-02 0.  1.
</event>
<event>
 5   0  0.6600166E-05  0.2385498E+04  0.7818609E-02  0.8444953E-01
       -2   -1    0    0    0  501  0.00000000000E+00  0.00000000000E+00  0.53794891251E+03  0.53794891251E+03  0.25500000920E-02 0.  1.
        2   -1    0    0  501    0  0.00000000000E+00  0.00000000000E+00 -0.26445822043E+04  0.26445822043E+04  0.25500000920E-02 0. -1.
    10030    2    1    2    0    0  0.00000000000E+00  0.00000000000E+00 -0.21066332918E+04  0.31825311168E+04  0.23854979529E+04 0.  0.
        5    1    3    3  502    0  0.96047893908E+03  0.23496249821E+03 -0.16344937377E+03  0.10022299915E+04  0.46999998093E+01 0.  1.
       -5    1    3    3    0  502 -0.96047893908E+03 -0.23496249821E+03 -0.19431839180E+04  0.21803011254E+04  0.46999998093E+01 0. -1.
</event>
<event>
 5   0  0.2901816E-05  0.2368680E+04  0.7818609E-02  0.8451323E-01
       -1   -1    0    0    0  501  0.00000000000E+00  0.00000000000E+00  0.10042991878E+04  0.10042991878E+04  0.50400001928E-02 0. -1.
        1   -1    0    0  501    0  0.00000000000E+00  0.00000000000E+00 -0.13966571585E+04  0.13966571585E+04  0.50400001928E-02 0.  1.
    10030    2    1    2    0    0  0.00000000000E+00  0.00000000000E+00 -0.39235797065E+03  0.24009563463E+04  0.23686803499E+04 0.  0.
        4    1    3    3  502    0 -0.31626002162E+03 -0.83924030850E+03 -0.98022739027E+03  0.13286053011E+04  0.12699999809E+01 0.  1.
       -4    1    3    3    0  502  0.31626002162E+03  0.83924030850E+03  0.58786941961E+03  0.10723510452E+04  0.12699999809E+01 0. -1.
</event>
<event>
 5   0  0.2847158E-05  0.2418471E+04  0.7818609E-02  0.8432621E-01
       -1   -1    0    0    0  501  0.00000000000E+00  0.00000000000E+00  0.19968717769E+04  0.19968717769E+04  0.50400001928E-02 0. -1.
        1   -1    0    0  501    0  0.00000000000E+00  0.00000000000E+00 -0.73227033581E+03  0.73227033583E+03  0.50400001928E-02 0.  1.
    10030    2    1    2    0    0  0.00000000000E+00  0.00000000000E+00  0.12646014411E+04  0.27291421127E+04  0.24184705635E+04 0.  0.
        5    1    3    3  502    0  0.60606027679E+02 -0.31920429219E+03 -0.68208066698E+03  0.75552670172E+03  0.46999998093E+01 0.  1.
       -5    1    3    3    0  502 -0.60606027679E+02  0.31920429219E+03  0.19466821080E+04  0.19736154110E+04  0.46999998093E+01 0. -1.
</event>
<event>
 5   0  0.6978115E-05  0.2373805E+04  0.7818609E-02  0.8449376E-01
        2   -1    0    0  501    0  0.00000000000E+00  0.00000000000E+00  0.13255749972E+04  0.13255749972E+04  0.25500000920E-02 0. -1.
       -2   -1    0    0    0  501  0.00000000000E+00  0.00000000000E+00 -0.10627367116E+04  0.10627367116E+04  0.25500000920E-02 0.  1.
    10030    2    1    2    0    0  0.00000000000E+00  0.00000000000E+00  0.26283828565E+03  0.23883117088E+04  0.23738047211E+04 0.  0.
        4    1    3    3  502    0 -0.48742507645E+03 -0.23346827845E+03  0.11945912478E+04  0.13111599843E+04  0.12699999809E+01 0. -1.
       -4    1    3    3    0  502  0.48742507645E+03  0.23346827845E+03 -0.93175296217E+03  0.10771517245E+04  0.12699999809E+01 0.  1.
</event>
<event>
 5   0  0.2901816E-05  0.2406543E+04  0.7818609E-02  0.8437058E-01
       -1   -1    0    0    0  501  0.00000000000E+00  0.00000000000E+00  0.97639760082E+03  0.97639760083E+03  0.50400001928E-02 0.  1.
        1   -1    0    0  501    0  0.00000000000E+00  0.00000000000E+00 -0.14828609020E+04  0.14828609020E+04  0.50400001928E-02 0. -1.
    10030    2    1    2    0    0  0.00000000000E+00  0.00000000000E+00 -0.50646330116E+03  0.24592585028E+04  0.24065426047E+04 0.  0.
        4    1    3    3  502    0  0.62263416388E+03 -0.95878804839E+03  0.13037419632E+03  0.11506289010E+04  0.12699999809E+01 0.  1.
       -4    1    3    3    0  502 -0.62263416388E+03  0.95878804839E+03 -0.63683749748E+03  0.13086296019E+04  0.12699999809E+01 0. -1.
</event>
<event>
 5   0  0.2943123E-05  0.2383023E+04  0.7818609E-02  0.8445887E-01
        1   -1    0    0  501    0  0.00000000000E+00  0.00000000000E+00  0.18698222484E+04  0.18698222484E+04  0.50400001928E-02 0. -1.
       -1   -1    0    0    0  501  0.00000000000E+00  0.00000000000E+00 -0.75927016474E+03  0.75927016475E+03  0.50400001928E-02 0.  1.
    10030    2    1    2    0    0  0.00000000000E+00  0.00000000000E+00  0.11105520837E+04  0.26290924132E+04  0.23830234968E+04 0.  0.
        1    1    3    3  502    0  0.88511410886E+03 -0.72556760781E+03  0.92089436309E+03  0.14689866464E+04  0.50400001928E-02 0. -1.
       -1    1    3    3    0  502 -0.88511410886E+03  0.72556760781E+03  0.18965772061E+03  0.11601057668E+04  0.50400001928E-02 0.  1.
</event>
<event>
 5   0  0.6337926E-05  0.2400511E+04  0.7818609E-02  0.8439312E-01
        2   -1    0    0  501    0  0.00000000000E+00  0.00000000000E+00  0.20803962537E+04  0.20803962537E+04  0.25500000920E-02 0.  1.
       -2   -1    0    0    0  501  0.00000000000E+00  0.00000000000E+00 -0.69247059307E+03  0.69247059307E+03  0.25500000920E-02 0. -1.
    10030    2    1    2    0    0  0.00000000000E+00  0.00000000000E+00  0.13879256607E+04  0.27728668468E+04  0.24005109687E+04 0.  0.
        1    1    3    3  502    0 -0.69461825656E+03 -0.88859219496E+03  0.21977061829E+03  0.11490821276E+04  0.50400001928E-02 0. -1.
       -1    1    3    3    0  502  0.69461825656E+03  0.88859219496E+03  0.11681550424E+04  0.16237847192E+04  0.50400001928E-02 0.  1.
</event>
<event>
 5   0  0.2847158E-05  0.2313316E+04  0.7818609E-02  0.8472689E-01
        1   -1    0    0  501    0  0.00000000000E+00  0.00000000000E+00  0.12896438568E+04  0.12896438568E+04  0.50400001928E-02 0.  1.
       -1   -1    0    0    0  501  0.00000000000E+00  0.00000000000E+00 -0.10373853381E+04  0.10373853381E+04  0.50400001928E-02 0. -1.
    10030    2    1    2    0    0  0.00000000000E+00  0.00000000000E+00  0.25225851874E+03  0.23270291950E+04  0.23133159131E+04 0.  0.
        5    1    3    3  502    0 -0.11236107065E+04  0.71943115840E+02  0.39257432034E+03  0.11923982215E+04  0.46999998093E+01 0. -1.
       -5    1    3    3    0  502  0.11236107065E+04 -0.71943115840E+02 -0.14031580160E+03  0.11346309734E+04  0.46999998093E+01 0.  1.
</event>
<event>
 5   0  0.6978115E-05  0.2362294E+04  0.7818609E-02  0.8453757E-01
       -2   -1    0    0    0  501  0.00000000000E+00  0.00000000000E+00  0.78604827833E+03  0.78604827834E+03  0.25500000920E-02 0. -1.
        2   -1    0    0  501    0  0.00000000000E+00  0.00000000000E+00 -0.17748372504E+04  0.17748372504E+04  0.25500000920E-02 0.  1.
    10030    2    1    2    0    0  0.00000000000E+00  0.00000000000E+00 -0.98878897208E+03  0.25608855288E+04  0.23622936016E+04 0.  0.
        4    1    3    3  502    0 -0.74269454870E+03  0.50642296774E+03  0.33620686205E+03  0.95973750678E+03  0.12699999809E+01 0. -1.
       -4    1    3    3    0  502  0.74269454870E+03 -0.50642296774E+03 -0.13249958341E+04  0.16011480220E+04  0.12699999809E+01 0.  1.
</event>
<event>
 5   0  0.6337926E-05  0.2431222E+04  0.7818609E-02  0.8427906E-01
       -2   -1    0    0    0  501  0.00000000000E+00  0.00000000000E+00  0.14019551508E+04  0.14019551508E+04  0.25500000920E-02 0. -1.
        2   -1    0    0  501    0  0.00000000000E+00  0.00000000000E+00 -0.10540356026E+04  0.10540356026E+04  0.25500000920E-02 0.  1.
    10030    2    1    2    0    0  0.00000000000E+00  0.00000000000E+00  0.34791954815E+03  0.24559907534E+04  0.24312224433E+04 0.  0.
        1    1    3    3  502    0 -0.40489203219E+03  0.65412053712E+03  0.11247708601E+04  0.13626887842E+04  0.50400001928E-02 0. -1.
       -1    1    3    3    0  502  0.40489203219E+03 -0.65412053712E+03 -0.77685131198E+03  0.10933019692E+04  0.50400001928E-02 0.  1.
</event>
<event>
 5   0  0.6714629E-05  0.2410417E+04  0.7818609E-02  0.8435614E-01
       -2   -1    0    0    0  501  0.00000000000E+00  0.00000000000E+00  0.57123252905E+03  0.57123252906E+03  0.25500000920E-02 0.  1.
        2   -1    0    0  501    0  0.00000000000E+00  0.00000000000E+00 -0.25427961862E+04  0.25427961862E+04  0.25500000920E-02 0. -1.
    10030    2    1    2    0    0  0.00000000000E+00  0.00000000000E+00 -0.19715636571E+04  0.31140287153E+04  0.24104173052E+04 0.  0.
        3    1    3    3  502    0  0.86490862064E+03  0.20180772056E+03 -0.20382951658E+04  0.22233849130E+04  0.10100000352E+00 0. -1.
       -3    1    3    3    0  502 -0.86490862064E+03 -0.20180772056E+03  0.66731508637E+02  0.89064380230E+03  0.10100000352E+00 0.  1.
</event>
<event>
 5   0  0.6703961E-05  0.2230177E+04  0.7818609E-02  0.8505972E-01
        2   -1    0    0  501    0  0.00000000000E+00  0.00000000000E+00  0.13379057066E+04  0.13379057066E+04  0.25500000920E-02 0. -1.
       -2   -1    0    0    0  501  0.00000000000E+00  0.00000000000E+00 -0.92937943049E+03  0.92937943049E+03  0.25500000920E-02 0.  1.
    10030    2    1    2    0    0  0.00000000000E+00  0.00000000000E+00  0.40852627608E+03  0.22672851371E+04  0.22301767137E+04 0.  0.
        2    1    3    3  502    0 -0.25080060184E+03  0.95134569668E+03 -0.32931506566E+03  0.10375008381E+04  0.25500000920E-02 0.  1.
       -2    1    3    3    0  502  0.25080060184E+03 -0.95134569668E+03  0.73784134174E+03  0.12297842990E+04  0.25500000920E-02 0. -1.
</event>
<event>
 5   0  0.6337926E-05  0.2401437E+04  0.7818609E-02  0.8438966E-01
        2   -1    0    0  501    0  0.00000000000E+00  0.00000000000E+00  0.14679283072E+04  0.14679283072E+04  0.25500000920E-02 0. -1.
       -2   -1    0    0    0  501  0.00000000000E+00  0.00000000000E+00 -0.98214954608E+03  0.98214954608E+03  0.25500000920E-02 0.  1.
    10030    2    1    2    0    0  0.00000000000E+00  0.00000000000E+00  0.48577876108E+03  0.24500778532E+04  0.24014371702E+04 0.  0.
        1    1    3    3  502    0  0.74803376047E+03 -0.90935512009E+03  0.30885185013E+01  0.11774934311E+04  0.50400001928E-02 0.  1.
       -1    1    3    3    0  502 -0.74803376047E+03  0.90935512009E+03  0.48269024258E+03  0.12725844222E+04  0.50400001928E-02 0. -1.
</event>
<event>
 5   0  0.6600166E-05  0.2344299E+04  0.7818609E-02  0.8460656E-01
        2   -1    0    0  501    0  0.00000000000E+00  0.00000000000E+00  0.16809496559E+04  0.16809496559E+04  0.25500000920E-02 0. -1.
       -2   -1    0    0    0  501  0.00000000000E+00  0.00000000000E+00 -0.81735641909E+03  0.81735641910E+03  0.25500000920E-02 0.  1.
    10030    2    1    2    0    0  0.00000000000E+00  0.00000000000E+00  0.86359323684E+03  0.24983060750E+04  0.23442994616E+04 0.  0.
        5    1    3    3  502    0 -0.17174342929E+03 -0.34551724778E+03  0.16113206451E+04  0.16568808905E+04  0.46999998093E+01 0. -1.
       -5    1    3    3    0  502  0.17174342929E+03  0.34551724778E+03 -0.74772740828E+03  0.84142518450E+03  0.46999998093E+01 0.  1.
</event>
<event>
 5   0  0.6703961E-05  0.2411458E+04  0.7818609E-02  0.8435226E-01
        2   -1    0    0  501    0  0.00000000000E+00  0.00000000000E+00  0.11760052794E+04  0.11760052794E+04  0.25500000920E-02 0. -1.
       -2   -1    0    0    0  501  0.00000000000E+00  0.00000000000E+00 -0.12362039575E+04  0.12362039575E+04  0.25500000920E-02 0.  1.
    10030    2    1    2    0    0  0.00000000000E+00  0.00000000000E+00 -0.60198678085E+02  0.24122092370E+04  0.24114579661E+04 0.  0.
        2    1    3    3  502    0 -0.11836296516E+03  0.47500485082E+03 -0.11323241855E+04  0.12336115518E+04  0.25500000920E-02 0.  1.
       -2    1    3    3    0  502  0.11836296516E+03 -0.47500485082E+03  0.10721255074E+04  0.11785976851E+04  0.25500000920E-02 0. -1.
</event>
<event>
 5   0  0.2943244E-05  0.2364473E+04  0.7818609E-02  0.8452925E-01
       -1   -1    0    0    0  501  0.00000000000E+00  0.00000000000E+00  0.87264279431E+03  0.87264279432E+03  0.50400001928E-02 0. -1.
        1   -1    0    0  501    0  0.00000000000E+00  0.00000000000E+00 -0.16016669552E+04  0.16016669552E+04  0.50400001928E-02 0.  1.
    10030    2    1    2    0    0  0.00000000000E+00  0.00000000000E+00 -0.72902416084E+03  0.24743097495E+04  0.23644729876E+04 0.  0.
        3    1    3    3  502    0 -0.98075451667E+03  0.61435639824E+03 -0.61733370950E+03  0.13116455791E+04  0.10100000352E+00 0.  1.
       -3    1    3    3    0  502  0.98075451667E+03 -0.61435639824E+03 -0.11169045134E+03  0.11626641704E+04  0.10100000352E+00 0. -1.
</event>
<event>
 5   0  0.2943123E-05  0.2054560E+04  0.7818609E-02  0.8581528E-01
       -1   -1    0    0    0  501  0.00000000000E+00  0.00000000000E+00  0.10601493724E+04  0.10601493724E+04  0.50400001928E-02 0. -1.
        1   -1    0    0  501    0  0.00000000000E+00  0.00000000000E+00 -0.99542999980E+03  0.99542999981E+03  0.50400001928E-02 0.  1.
    10030    2    1    2    0    0  0.00000000000E+00  0.00000000000E+00  0.64719372566E+02  0.20555793722E+04  0.20545602834E+04 0.  0.
        1    1    3    3  502    0  0.59389578334E+03  0.69917054882E+03 -0.43020375014E+03  0.10132259987E+04  0.50400001928E-02 0.  1.
       -1    1    3    3    0  502 -0.59389578334E+03 -0.69917054882E+03  0.49492312270E+03  0.10423533735E+04  0.50400001928E-02 0. -1.
</event>
<event>
 5   0  0.6703961E-05  0.1638494E+04  0.7818609E-02  0.8797242E-01
       -2   -1    0    0    0  501  0.00000000000E+00  0.00000000000E+00  0.52889764520E+03  0.52889764521E+03  0.25500000920E-02 0. -1.
        2   -1    0    0  501    0  0.00000000000E+00  0.00000000000E+00 -0.12689903450E+04  0.12689903450E+04  0.25500000920E-02 0.  1.
    10030    2    1    2    0    0  0.00000000000E+00  0.00000000000E+00 -0.74009269980E+03  0.17978879902E+04  0.16384944373E+04 0.  0.
        2    1    3    3  502    0  0.36746951331E+02  0.75227759621E+03 -0.16364257260E+02  0.75335231407E+03  0.25500000920E-02 0. -1.
       -2    1    3    3    0  502 -0.36746951331E+02 -0.75227759621E+03 -0.72372844254E+03  0.10445356761E+04  0.25500000920E-02 0.  1.
</event>
<event>
 5   0  0.6600166E-05  0.2416614E+04  0.7818609E-02  0.8433310E-01
        2   -1    0    0  501    0  0.00000000000E+00  0.00000000000E+00  0.14490539948E+04  0.14490539948E+04  0.25500000920E-02 0.  1.
       -2   -1    0    0    0  501  0.00000000000E+00  0.00000000000E+00 -0.10075575951E+04  0.10075575951E+04  0.25500000920E-02 0. -1.
    10030    2    1    2    0    0  0.00000000000E+00  0.00000000000E+00  0.44149639969E+03  0.24566115900E+04  0.24166136292E+04 0.  0.
        5    1    3    3  502    0  0.68086319211E+01 -0.12068547910E+04  0.28035681033E+03  0.12390185129E+04  0.46999998093E+01 0.  1.
       -5    1    3    3    0  502 -0.68086319211E+01  0.12068547910E+04  0.16113958935E+03  0.12175930771E+04  0.46999998093E+01 0. -1.
</event>
<event>
 5   0  0.6600166E-05  0.2145437E+04  0.7818609E-02  0.8541488E-01
        2   -1    0    0  501    0  0.00000000000E+00  0.00000000000E+00  0.25976374195E+04  0.25976374195E+04  0.25500000920E-02 0. -1.
       -2   -1    0    0    0  501  0.00000000000E+00  0.00000000000E+00 -0.44298892015E+03  0.44298892016E+03  0.25500000920E-02 0.  1.
    10030    2    1    2    0    0  0.00000000000E+00  0.00000000000E+00  0.21546484993E+04  0.30406263396E+04  0.21454366413E+04 0.  0.
        5    1    3    3  502    0 -0.43789972165E+03  0.90137594572E+03  0.16197225943E+04  0.19046674603E+04  0.46999998093E+01 0. -1.
       -5    1    3    3    0  502  0.43789972165E+03 -0.90137594572E+03  0.53492590502E+03  0.11359588794E+04  0.46999998093E+01 0.  1.
</event>
<event>
 5   0  0.2901816E-05  0.2424364E+04  0.7818609E-02  0.8430438E-01
        1   -1    0    0  501    0  0.00000000000E+00  0.00000000000E+00  0.22513099532E+04  0.22513099532E+04  0.50400001928E-02 0.  1.
       -1   -1    0    0    0  501  0.00000000000E+00  0.00000000000E+00 -0.65268032156E+03  0.65268032158E+03  0.50400001928E-02 0. -1.
    10030    2    1    2    0    0  0.00000000000E+00  0.00000000000E+00  0.15986296316E+04  0.29039902748E+04  0.24243644150E+04 0.  0.
        4    1    3    3  502    0  0.57076185958E+02 -0.46203036480E+01  0.22496881356E+04  0.22504171521E+04  0.12699999809E+01 0.  1.
       -4    1    3    3    0  502 -0.57076185958E+02  0.46203036480E+01 -0.65105850395E+03  0.65357312267E+03  0.12699999809E+01 0. -1.
</event>
<event>
 5   0  0.2847158E-05  0.2392575E+04  0.7818609E-02  0.8442289E-01
        1   -1    0    0  501    0  0.00000000000E+00  0.00000000000E+00  0.25193014087E+04  0.25193014087E+04  0.50400001928E-02 0. -1.
       -1   -1    0    0    0  501  0.00000000000E+00  0.00000000000E+00 -0.56805565870E+03  0.56805565873E+03  0.50400001928E-02 0.  1.
    10030    2    1    2    0    0  0.00000000000E+00  0.00000000000E+00  0.19512457500E+04  0.30873570675E+04  0.23925746979E+04 0.  0.
        5    1    3    3  502    0 -0.10445472143E+04  0.55809322241E+03  0.75764834342E+03  0.14059160822E+04  0.46999998093E+01 0. -1.
       -5    1    3    3    0  502  0.10445472143E+04 -0.55809322241E+03  0.11935974066E+04  0.16814409853E+04  0.46999998093E+01 0.  1.
</event>
<event>
 5   0  0.6337926E-05  0.2338571E+04  0.7818609E-02  0.8462867E-01
       -2   -1    0    0    0  501  0.00000000000E+00  0.00000000000E+00  0.69446752971E+03  0.69446752971E+03  0.25500000920E-02 0.  1.
        2   -1    0    0  501    0  0.00000000000E+00  0.00000000000E+00 -0.19687437381E+04  0.19687437381E+04  0.25500000920E-02 0. -1.
    10030    2    1    2    0    0  0.00000000000E+00  0.00000000000E+00 -0.12742762083E+04  0.26632112678E+04  0.23385710170E+04 0.  0.
        1    1    3    3  502    0 -0.61044263417E+03  0.45525044505E+03  0.37335871844E+03  0.84810960965E+03  0.50400001928E-02 0.  1.
       -1    1    3    3    0  502  0.61044263417E+03 -0.45525044505E+03 -0.16476349268E+04  0.18151016581E+04  0.50400001928E-02 0. -1.
</event>
<event>
 5   0  0.6978115E-05  0.2161949E+04  0.7818609E-02  0.8534435E-01
       -2   -1    0    0    0  501  0.00000000000E+00  0.00000000000E+00  0.91063142153E+03  0.91063142154E+03  0.25500000920E-02 0. -1.
        2   -1    0    0  501    0  0.00000000000E+00  0.00000000000E+00 -0.12831823501E+04  0.12831823501E+04  0.25500000920E-02 0.  1.
    10030    2    1    2    0    0  0.00000000000E+00  0.00000000000E+00 -0.37255092852E+03  0.21938137716E+04  0.21619492756E+04 0.  0.
        4    1    3    3  502    0  0.10109451381E+04 -0.24581278815E+03 -0.48397733334E+03  0.11474622744E+04  0.12699999809E+01 0.  1.
       -4    1    3    3    0  502 -0.10109451381E+04  0.24581278815E+03  0.11142640482E+03  0.10463514972E+04  0.12699999809E+01 0. -1.
</event>
<event>
 5   0  0.6703961E-05  0.1938110E+04  0.7818609E-02  0.8636116E-01
       -2   -1    0    0    0  501  0.00000000000E+00  0.00000000000E+00  0.11826698306E+04  0.11826698306E+04  0.25500000920E-02 0. -1.
        2   -1    0    0  501    0  0.00000000000E+00  0.00000000000E+00 -0.79402383121E+03  0.79402383121E+03  0.25500000920E-02 0.  1.
    10030    2    1    2    0    0  0.00000000000E+00  0.00000000000E+00  0.38864599939E+03  0.19766936618E+04  0.19381104509E+04 0.  0.
        2    1    3    3  502    0 -0.37924297760E+03  0.83844536447E+03  0.50409997084E+03  0.10492533754E+04  0.25500000920E-02 0. -1.
       -2    1    3    3    0  502  0.37924297760E+03 -0.83844536447E+03 -0.11545397145E+03  0.92744028637E+03  0.25500000920E-02 0.  1.
</event>
<event>
 5   0  0.6703961E-05  0.2689974E+04  0.7818609E-02  0.8338265E-01
        2   -1    0    0  501    0  0.00000000000E+00  0.00000000000E+00  0.23912972149E+04  0.23912972149E+04  0.25500000920E-02 0.  1.
       -2   -1    0    0    0  501  0.00000000000E+00  0.00000000000E+00 -0.75648914217E+03  0.75648914217E+03  0.25500000920E-02 0. -1.
    10030    2    1    2    0    0  0.00000000000E+00  0.00000000000E+00  0.16348080727E+04  0.31477863571E+04  0.26899742592E+04 0.  0.
        2    1    3    3  502    0  0.17431558411E+02  0.13133041511E+04  0.11563937860E+04  0.17499480680E+04  0.25500000920E-02 0.  1.
       -2    1    3    3    0  502 -0.17431558411E+02 -0.13133041511E+04  0.47841428675E+03  0.13978382890E+04  0.25500000920E-02 0. -1.
</event>
<event>
 5   0  0.2339125E-05  0.2068585E+04  0.7818609E-02  0.8575210E-01
        4   -1    0    0  501    0  0.00000000000E+00  0.00000000000E+00  0.11174654236E+04  0.11174661452E+04  0.12699999809E+01 0.  1.
       -4   -1    0    0    0  501  0.00000000000E+00  0.00000000000E+00 -0.95730879612E+03  0.95730963854E+03  0.12699999809E+01 0. -1.
    10030    2    1    2    0    0  0.00000000000E+00  0.00000000000E+00  0.16015662743E+03  0.20747757838E+04  0.20685851222E+04 0.  0.
        5    1    3    3  502    0 -0.38770588587E+02 -0.10156742236E+04 -0.11191483369E+03  0.10225675073E+04  0.46999998093E+01 0. -1.
       -5    1    3    3    0  502  0.38770588587E+02  0.10156742236E+04  0.27207146112E+03  0.10522082764E+04  0.46999998093E+01 0.  1.
</event>
<event>
 5   0  0.2943244E-05  0.2404548E+04  0.7818609E-02  0.8437803E-01
        1   -1    0    0  501    0  0.00000000000E+00  0.00000000000E+00  0.10725509310E+04  0.10725509311E+04  0.50400001928E-02 0. -1.
       -1   -1    0    0    0  501  0.00000000000E+00  0.00000000000E+00 -0.13476869161E+04  0.13476869161E+04  0.50400001928E-02 0.  1.
    10030    2    1    2    0    0  0.00000000000E+00  0.00000000000E+00 -0.27513598510E+03  0.24202378472E+04  0.24045480712E+04 0.  0.
        3    1    3    3  502    0  0.94999131820E+03 -0.50599257244E+03  0.40160527112E+03  0.11488249614E+04  0.10100000352E+00 0. -1.
       -3    1    3    3    0  502 -0.94999131820E+03  0.50599257244E+03 -0.67674125622E+03  0.12714128858E+04  0.10100000352E+00 0.  1.
</event>
<event>
 5   0  0.6600166E-05  0.2342004E+04  0.7818609E-02  0.8461541E-01
        2   -1    0    0  501    0  0.00000000000E+00  0.00000000000E+00  0.10879159354E+04  0.10879159354E+04  0.25500000920E-02 0. -1.
       -2   -1    0    0    0  501  0.00000000000E+00  0.00000000000E+00 -0.12604332465E+04  0.12604332465E+04  0.25500000920E-02 0.  1.
    10030    2    1    2    0    0  0.00000000000E+00  0.00000000000E+00 -0.17251731109E+03  0.23483491819E+04  0.23420037697E+04 0.  0.
        5    1    3    3  502    0  0.89136790087E+03 -0.66749909079E+03 -0.44936069392E+03  0.12008492387E+04  0.46999998093E+01 0.  1.
       -5    1    3    3    0  502 -0.89136790087E+03  0.66749909079E+03  0.27684338283E+03  0.11474999431E+04  0.46999998093E+01 0. -1.
</event>
<event>
 5   0  0.6337926E-05  0.2443933E+04  0.7818609E-02  0.8423236E-01
        2   -1    0    0  501    0  0.00000000000E+00  0.00000000000E+00  0.22006730519E+04  0.22006730519E+04  0.25500000920E-02 0.  1.
       -2   -1    0    0    0  501  0.00000000000E+00  0.00000000000E+00 -0.67852093084E+03  0.67852093085E+03  0.25500000920E-02 0. -1.
    10030    2    1    2    0    0  0.00000000000E+00  0.00000000000E+00  0.15221521211E+04  0.28791939828E+04  0.24439334915E+04 0.  0.
        1    1    3    3  502    0 -0.83423373827E+03 -0.32682522458E+03 -0.21783935146E+03  0.92207084356E+03  0.50400001928E-02 0. -1.
       -1    1    3    3    0  502  0.83423373827E+03  0.32682522458E+03  0.17399914725E+04  0.19571231392E+04  0.50400001928E-02 0.  1.
</event>
<event>
 5   0  0.2901816E-05  0.2393628E+04  0.7818609E-02  0.8441893E-01
       -1   -1    0    0    0  501  0.00000000000E+00  0.00000000000E+00  0.69467200710E+03  0.69467200712E+03  0.50400001928E-02 0.  1.
        1   -1    0    0  501    0  0.00000000000E+00  0.00000000000E+00 -0.20619289860E+04  0.20619289860E+04  0.50400001928E-02 0. -1.
    10030    2    1    2    0    0  0.00000000000E+00  0.00000000000E+00 -0.13672569789E+04  0.27566009931E+04  0.23936284985E+04 0.  0.
        4    1    3    3  502    0  0.95852860697E+03  0.16213819903E+03 -0.14875505801E+04  0.17770408625E+04  0.12699999809E+01 0. -1.
       -4    1    3    3    0  502 -0.95852860697E+03 -0.16213819903E+03  0.12029360121E+03  0.97956013055E+03  0.12699999809E+01 0.  1.
</event>
<event>
 5   0  0.2943244E-05  0.2412631E+04  0.7818609E-02  0.8434790E-01
       -1   -1    0    0    0  501  0.00000000000E+00  0.00000000000E+00  0.62665751658E+03  0.62665751660E+03  0.50400001928E-02 0. -1.
        1   -1    0    0  501    0  0.00000000000E+00  0.00000000000E+00 -0.23221570234E+04  0.23221570234E+04  0.50400001928E-02 0.  1.
    10030    2    1    2    0    0  0.00000000000E+00  0.00000000000E+00 -0.16954995068E+04  0.29488145400E+04  0.24126310563E+04 0.  0.
        3    1    3    3  502    0 -0.89004157717E+03 -0.22860620147E+03  0.10744663146E+03  0.92519165217E+03  0.10100000352E+00 0. -1.
       -3    1    3    3    0  502  0.89004157717E+03  0.22860620147E+03 -0.18029461383E+04  0.20236228878E+04  0.10100000352E+00 0.  1.
</event>
<event>
 5   0  0.6600166E-05  0.2202097E+04  0.7818609E-02  0.8517556E-01
        2   -1    0    0  501    0  0.00000000000E+00  0.00000000000E+00  0.89401713030E+03  0.89401713030E+03  0.25500000920E-02 0. -1.
       -2   -1    0    0    0  501  0.00000000000E+00  0.00000000000E+00 -0.13560232519E+04  0.13560232519E+04  0.25500000920E-02 0.  1.
    10030    2    1    2    0    0  0.00000000000E+00  0.00000000000E+00 -0.46200612162E+03  0.22500403822E+04  0.22020971970E+04 0.  0.
        5    1    3    3  502    0 -0.70520199519E+03 -0.62448196631E+02 -0.10926154378E+04  0.13019371015E+04  0.46999998093E+01 0.  1.
       -5    1    3    3    0  502  0.70520199519E+03  0.62448196631E+02  0.63060931619E+03  0.94810328074E+03  0.46999998093E+01 0. -1.
</event>
<event>
 5   0  0.6600166E-05  0.2412330E+04  0.7818609E-02  0.8434902E-01
       -2   -1    0    0    0  501  0.00000000000E+00  0.00000000000E+00  0.10603144517E+04  0.10603144517E+04  0.25500000920E-02 0. -1.
        2   -1    0    0  501    0  0.00000000000E+00  0.00000000000E+00 -0.13720780315E+04  0.13720780315E+04  0.25500000920E-02 0.  1.
    10030    2    1    2    0    0  0.00000000000E+00  0.00000000000E+00 -0.31176357982E+03  0.24323924832E+04  0.24123301314E+04 0.  0.
        5    1    3    3  502    0  0.11472535064E+03  0.35189116697E+03  0.10016299802E+04  0.10678361329E+04  0.46999998093E+01 0. -1.
       -5    1    3    3    0  502 -0.11472535064E+03 -0.35189116697E+03 -0.13133935601E+04  0.13645563503E+04  0.46999998093E+01 0.  1.
</event>
<event>
 5   0  0.6703961E-05  0.2167710E+04  0.7818609E-02  0.8531989E-01
       -2   -1    0    0    0  501  0.00000000000E+00  0.00000000000E+00  0.11420168476E+04  0.11420168476E+04  0.25500000920E-02 0. -1.
        2   -1    0    0  501    0  0.00000000000E+00  0.00000000000E+00 -0.10286550803E+04  0.10286550803E+04  0.25500000920E-02 0.  1.
    10030    2    1    2    0    0  0.00000000000E+00  0.00000000000E+00  0.11336176725E+03  0.21706719279E+04  0.21677097887E+04 0.  0.
        2    1    3    3  502    0  0.82241028551E+03 -0.70097534036E+03  0.14055886059E+03  0.10897164305E+04  0.25500000920E-02 0. -1.
       -2    1    3    3    0  502 -0.82241028551E+03  0.70097534036E+03 -0.27197093340E+02  0.10809554974E+04  0.25500000920E-02 0.  1.
</event>
<event>
 5   0  0.6978115E-05  0.2422681E+04  0.7818609E-02  0.8431061E-01
        2   -1    0    0  501    0  0.00000000000E+00  0.00000000000E+00  0.16023764058E+04  0.16023764058E+04  0.25500000920E-02 0.  1.
       -2   -1    0    0    0  501  0.00000000000E+00  0.00000000000E+00 -0.91573127263E+03  0.91573127264E+03  0.25500000920E-02 0. -1.
    10030    2    1    2    0    0  0.00000000000E+00  0.00000000000E+00  0.68664513319E+03  0.25181076785E+04  0.24226813124E+04 0.  0.
        4    1    3    3  502    0  0.92735097244E+03 -0.28154214811E+03  0.10986505661E+04  0.14650189372E+04  0.12699999809E+01 0.  1.
       -4    1    3    3    0  502 -0.92735097244E+03  0.28154214811E+03 -0.41200543288E+03  0.10530887412E+04  0.12699999809E+01 0. -1.
</event>
<event>
 5   0  0.2943123E-05  0.2430270E+04  0.7818609E-02  0.8428257E-01
        1   -1    0    0  501    0  0.00000000000E+00  0.00000000000E+00  0.13270639248E+04  0.13270639248E+04  0.50400001928E-02 0.  1.
       -1   -1    0    0    0  501  0.00000000000E+00  0.00000000000E+00 -0.11126462456E+04  0.11126462456E+04  0.50400001928E-02 0. -1.
    10030    2    1    2    0    0  0.00000000000E+00  0.00000000000E+00  0.21441767925E+03  0.24397101704E+04  0.24302696917E+04 0.  0.
        1    1    3    3  502    0 -0.60887440900E+03 -0.44273621999E+03  0.10647533013E+04  0.13040103524E+04  0.50400001928E-02 0.  1.
       -1    1    3    3    0  502  0.60887440900E+03  0.44273621999E+03 -0.85033562209E+03  0.11356998180E+04  0.50400001928E-02 0. -1.
</event>
<event>
 5   0  0.2943123E-05  0.2520000E+04  0.7818609E-02  0.8395895E-01
        1   -1    0    0  501    0  0.00000000000E+00  0.00000000000E+00  0.13647726414E+04  0.13647726414E+04  0.50400001928E-02 0.  1.
       -1   -1    0    0    0  501  0.00000000000E+00  0.00000000000E+00 -0.11632703107E+04  0.11632703108E+04  0.50400001928E-02 0. -1.
    10030    2    1    2    0    0  0.00000000000E+00  0.00000000000E+00  0.20150233066E+03  0.25280429522E+04  0.25199995990E+04 0.  0.
        1    1    3    3  502    0  0.99490382496E+03 -0.97824424672E+01 -0.67480770576E+03  0.12022041245E+04  0.50400001928E-02 0.  1.
       -1    1    3    3    0  502 -0.99490382496E+03  0.97824424672E+01  0.87631003642E+03  0.13258388277E+04  0.50400001928E-02 0. -1.
</event>
<event>
 5   0  0.2943244E-05  0.2366337E+04  0.7818609E-02  0.8452215E-01
       -1   -1    0    0    0  501  0.00000000000E+00  0.00000000000E+00  0.13002172625E+04  0.13002172625E+04  0.50400001928E-02 0.  1.
        1   -1    0    0  501    0  0.00000000000E+00  0.00000000000E+00 -0.10766563196E+04  0.10766563196E+04  0.50400001928E-02 0. -1.
    10030    2    1    2    0    0  0.00000000000E+00  0.00000000000E+00  0.22356094291E+03  0.23768735821E+04  0.23663365209E+04 0.  0.
        3    1    3    3  502    0  0.11076800048E+04 -0.17704074042E+03  0.48973876793E+03  0.12239863103E+04  0.10100000352E+00 0.  1.
       -3    1    3    3    0  502 -0.11076800048E+04  0.17704074042E+03 -0.26617782502E+03  0.11528872718E+04  0.10100000352E+00 0. -1.
</event>
<event>
 5   0  0.6337926E-05  0.2371641E+04  0.7818609E-02  0.8450197E-01
        2   -1    0    0  501    0  0.00000000000E+00  0.00000000000E+00  0.10360244914E+04  0.10360244914E+04  0.25500000920E-02 0.  1.
       -2   -1    0    0    0  501  0.00000000000E+00  0.00000000000E+00 -0.13572756739E+04  0.13572756739E+04  0.25500000920E-02 0. -1.
    10030    2    1    2    0    0  0.00000000000E+00  0.00000000000E+00 -0.32125118246E+03  0.23933001653E+04  0.23716414905E+04 0.  0.
        1    1    3    3  502    0  0.46005223339E+03  0.73200806615E+03 -0.97963269499E+03  0.13065848933E+04  0.50400001928E-02 0. -1.
       -1    1    3    3    0  502 -0.46005223339E+03 -0.73200806615E+03  0.65838151253E+03  0.10867152720E+04  0.50400001928E-02 0.  1.
</event>
<event>
 5   0  0.2339125E-05  0.2393723E+04  0.7818609E-02  0.8441857E-01
       -3   -1    0    0    0  501  0.00000000000E+00  0.00000000000E+00  0.21439475160E+04  0.21439475183E+04  0.10100000352E+00 0.  1.
        3   -1    0    0  501    0  0.00000000000E+00  0.00000000000E+00 -0.66814971918E+03  0.66814972681E+03  0.10100000352E+00 0. -1.
    10030    2    1    2    0    0  0.00000000000E+00  0.00000000000E+00  0.14757977968E+04  0.28120972451E+04  0.23937234133E+04 0.  0.
        3    1    3    3  502    0 -0.96915197776E+03 -0.61309056302E+03  0.11403227745E+04  0.16172419839E+04  0.10100000352E+00 0. -1.
       -3    1    3    3    0  502  0.96915197776E+03  0.61309056302E+03  0.33547502233E+03  0.11948552612E+04  0.10100000352E+00 0.  1.
</event>
<event>
 5   0  0.6978115E-05  0.2408578E+04  0.7818609E-02  0.8436299E-01
        2   -1    0    0  501    0  0.00000000000E+00  0.00000000000E+00  0.20204944830E+04  0.20204944830E+04  0.25500000920E-02 0.  1.
       -2   -1    0    0    0  501  0.00000000000E+00  0.00000000000E+00 -0.71780067824E+03  0.71780067824E+03  0.25500000920E-02 0. -1.
    10030    2    1    2    0    0  0.00000000000E+00  0.00000000000E+00  0.13026938048E+04  0.27382951613E+04  0.24085782614E+04 0.  0.
        4    1    3    3  502    0 -0.65573357928E+02 -0.11947684165E+04  0.49654876470E+03  0.12955051999E+04  0.12699999809E+01 0.  1.
       -4    1    3    3    0  502  0.65573357928E+02  0.11947684165E+04  0.80614504009E+03  0.14427899614E+04  0.12699999809E+01 0. -1.
</event>
<event>
 5   0  0.2901816E-05  0.2082195E+04  0.7818609E-02  0.8569127E-01
        1   -1    0    0  501    0  0.00000000000E+00  0.00000000000E+00  0.80982607607E+03  0.80982607609E+03  0.50400001928E-02 0.  1.
       -1   -1    0    0    0  501  0.00000000000E+00  0.00000000000E+00 -0.13384156996E+04  0.13384156996E+04  0.50400001928E-02 0. -1.
    10030    2    1    2    0    0  0.00000000000E+00  0.00000000000E+00 -0.52858962349E+03  0.21482417757E+04  0.20821949324E+04 0.  0.
        4    1    3    3  502    0  0.36358159502E+03  0.41351065019E+03  0.64730405228E+03  0.84981573477E+03  0.12699999809E+01 0.  1.
       -4    1    3    3    0  502 -0.36358159502E+03 -0.41351065019E+03 -0.11758936758E+04  0.12984260409E+04  0.12699999809E+01 0. -1.
</event>
<event>
 5   0  0.2847158E-05  0.2424950E+04  0.7818609E-02  0.8430221E-01
       -1   -1    0    0    0  501  0.00000000000E+00  0.00000000000E+00  0.64817133685E+03  0.64817133687E+03  0.50400001928E-02 0. -1.
        1   -1    0    0  501    0  0.00000000000E+00  0.00000000000E+00 -0.22680671921E+04  0.22680671921E+04  0.50400001928E-02 0.  1.
    10030    2    1    2    0    0  0.00000000000E+00  0.00000000000E+00 -0.16198958552E+04  0.29162385290E+04  0.24249504275E+04 0.  0.
        5    1    3    3  502    0 -0.88760510918E+03  0.24087217281E+02 -0.18028381325E+04  0.20096443581E+04  0.46999998093E+01 0.  1.
       -5    1    3    3    0  502  0.88760510918E+03 -0.24087217281E+02  0.18294227727E+03  0.90659417089E+03  0.46999998093E+01 0. -1.
</event>
<event>
 5   0  0.6337926E-05  0.2403590E+04  0.7818609E-02  0.8438161E-01
        2   -1    0    0  501    0  0.00000000000E+00  0.00000000000E+00  0.17334659823E+04  0.17334659824E+04  0.25500000920E-02 0.  1.
       -2   -1    0    0    0  501  0.00000000000E+00  0.00000000000E+00 -0.83319238994E+03  0.83319238995E+03  0.25500000920E-02 0. -1.
    10030    2    1    2    0    0  0.00000000000E+00  0.00000000000E+00  0.90027359240E+03  0.25666583723E+04  0.24035895363E+04 0.  0.
        1    1    3    3  502    0  0.75874049844E+03  0.45504119879E+03 -0.41840899280E+03  0.97868060258E+03  0.50400001928E-02 0. -1.
       -1    1    3    3    0  502 -0.75874049844E+03 -0.45504119879E+03  0.13186825852E+04  0.15879777697E+04  0.50400001928E-02 0.  1.
</event>
<event>
 5   0  0.2943244E-05  0.1748163E+04  0.7818609E-02  0.8734362E-01
        1   -1    0    0  501    0  0.00000000000E+00  0.00000000000E+00  0.16314418383E+04  0.16314418383E+04  0.50400001928E-02 0. -1.
       -1   -1    0    0    0  501  0.00000000000E+00  0.00000000000E+00 -0.46830888018E+03  0.46830888020E+03  0.50400001928E-02 0.  1.
    10030    2    1    2    0    0  0.00000000000E+00  0.00000000000E+00  0.11631329581E+04  0.20997507185E+04  0.17481632651E+04 0.  0.
        3    1    3    3  502    0 -0.77628515848E+03  0.39232010607E+03  0.68548213702E+03  0.11074382526E+04  0.10100000352E+00 0. -1.
       -3    1    3    3    0  502  0.77628515848E+03 -0.39232010607E+03  0.47765082106E+03  0.99231246589E+03  0.10100000352E+00 0.  1.
</event>
<event>
 5   0  0.6703961E-05  0.2461100E+04  0.7818609E-02  0.8416976E-01
       -2   -1    0    0    0  501  0.00000000000E+00  0.00000000000E+00  0.75537063763E+03  0.75537063763E+03  0.25500000920E-02 0. -1.
        2   -1    0    0  501    0  0.00000000000E+00  0.00000000000E+00 -0.20046496414E+04  0.20046496414E+04  0.25500000920E-02 0.  1.
    10030    2    1    2    0    0  0.00000000000E+00  0.00000000000E+00 -0.12492790038E+04  0.27600202790E+04  0.24611001425E+04 0.  0.
        2    1    3    3  502    0  0.21825483369E+03 -0.74587823270E+03  0.44533008733E+03  0.89570553037E+03  0.25500000920E-02 0. -1.
       -2    1    3    3    0  502 -0.21825483369E+03  0.74587823270E+03 -0.16946090911E+04  0.18643147487E+04  0.25500000920E-02 0.  1.
</event>
<event>
 5   0  0.6703961E-05  0.1559006E+04  0.7818609E-02  0.8846136E-01
       -2   -1    0    0    0  501  0.00000000000E+00  0.00000000000E+00  0.37984699853E+03  0.37984699853E+03  0.25500000920E-02 0.  1.
        2   -1    0    0  501    0  0.00000000000E+00  0.00000000000E+00 -0.15996565460E+04  0.15996565460E+04  0.25500000920E-02 0. -1.
    10030    2    1    2    0    0  0.00000000000E+00  0.00000000000E+00 -0.12198095475E+04  0.19795035445E+04  0.15590057571E+04 0.  0.
        2    1    3    3  502    0  0.12419001420E+03  0.59255993235E+03 -0.12333295041E+04  0.13739185197E+04  0.25500000920E-02 0. -1.
       -2    1    3    3    0  502 -0.12419001420E+03 -0.59255993235E+03  0.13519956656E+02  0.60558502482E+03  0.25500000920E-02 0.  1.
</event>
<event>
 5   0  0.6978115E-05  0.2403111E+04  0.7818609E-02  0.8438340E-01
       -2   -1    0    0    0  501  0.00000000000E+00  0.00000000000E+00  0.12850747756E+04  0.12850747756E+04  0.25500000920E-02 0. -1.
        2   -1    0    0  501    0  0.00000000000E+00  0.00000000000E+00 -0.11234640186E+04  0.11234640186E+04  0.25500000920E-02 0.  1.
    10030    2    1    2    0    0  0.00000000000E+00  0.00000000000E+00  0.16161075704E+03  0.24085387942E+04  0.24031107104E+04 0.  0.
        4    1    3    3  502    0  0.15565163804E+03 -0.10431753471E+04 -0.49607393002E+03  0.11655613215E+04  0.12699999809E+01 0.  1.
       -4    1    3    3    0  502 -0.15565163804E+03  0.10431753471E+04  0.65768468706E+03  0.12429774727E+04  0.12699999809E+01 0. -1.
</event>
<event>
 5   0  0.6714629E-05  0.2409331E+04  0.7818609E-02  0.8436018E-01
        2   -1    0    0  501    0  0.00000000000E+00  0.00000000000E+00  0.13972555641E+04  0.13972555641E+04  0.25500000920E-02 0. -1.
       -2   -1    0    0    0  501  0.00000000000E+00  0.00000000000E+00 -0.10386213082E+04  0.10386213082E+04  0.25500000920E-02 0.  1.
    10030    2    1    2    0    0  0.00000000000E+00  0.00000000000E+00  0.35863425594E+03  0.24358768723E+04  0.24093313611E+04 0.  0.
        3    1    3    3  502    0  0.86226605529E+03  0.33157497817E+03 -0.60236026976E+03  0.11028520395E+04  0.10100000352E+00 0.  1.
       -3    1    3    3    0  502 -0.86226605529E+03 -0.33157497817E+03  0.96099452570E+03  0.13330248328E+04  0.10100000352E+00 0. -1.
</event>
<event>
 5   0  0.6337926E-05  0.2328857E+04  0.7818609E-02  0.8466629E-01
       -2   -1    0    0    0  501  0.00000000000E+00  0.00000000000E+00  0.70881656431E+03  0.70881656431E+03  0.25500000920E-02 0.  1.
        2   -1    0    0  501    0  0.00000000000E+00  0.00000000000E+00 -0.19128974097E+04  0.19128974097E+04  0.25500000920E-02 0. -1.
    10030    2    1    2    0    0  0.00000000000E+00  0.00000000000E+00 -0.12040808454E+04  0.26217139740E+04  0.23288566893E+04 0.  0.
        1    1    3    3  502    0  0.35214626379E+03  0.33698338638E+03  0.58845370045E+03  0.76409590458E+03  0.50400001928E-02 0.  1.
       -1    1    3    3    0  502 -0.35214626379E+03 -0.33698338638E+03 -0.17925345458E+04  0.18576180694E+04  0.50400001928E-02 0. -1.
</event>
<event>
 5   0  0.6600166E-05  0.2400448E+04  0.7818609E-02  0.8439336E-01
        2   -1    0    0  501    0  0.00000000000E+00  0.00000000000E+00  0.15286647596E+04  0.15286647596E+04  0.25500000920E-02 0. -1.
       -2   -1    0    0    0  501  0.00000000000E+00  0.00000000000E+00 -0.94235056069E+03  0.94235056070E+03  0.25500000920E-02 0.  1.
    10030    2    1    2    0    0  0.00000000000E+00  0.00000000000E+00  0.58631419887E+03  0.24710153203E+04  0.24004483692E+04 0.  0.
        5    1    3    3  502    0 -0.11684467306E+04 -0.24561356293E+03  0.41890471786E+03  0.12653446318E+04  0.46999998093E+01 0. -1.
       -5    1    3    3    0  502  0.11684467306E+04  0.24561356293E+03  0.16740948101E+03  0.12056706884E+04  0.46999998093E+01 0.  1.
</event>
<event>
 5   0  0.2901816E-05  0.2364310E+04  0.7818609E-02  0.8452988E-01
        1   -1    0    0  501    0  0.00000000000E+00  0.00000000000E+00  0.14213049500E+04  0.14213049500E+04  0.50400001928E-02 0. -1.
       -1   -1    0    0    0  501  0.00000000000E+00  0.00000000000E+00 -0.98324445713E+03  0.98324445714E+03  0.50400001928E-02 0.  1.
    10030    2    1    2    0    0  0.00000000000E+00  0.00000000000E+00  0.43806049290E+03  0.24045494072E+04  0.23643098055E+04 0.  0.
        4    1    3    3  502    0 -0.80689282739E+03 -0.37474684251E+03  0.10107245586E+04  0.13465054686E+04  0.12699999809E+01 0. -1.
       -4    1    3    3    0  502  0.80689282739E+03  0.37474684251E+03 -0.57266406568E+03  0.10580439385E+04  0.12699999809E+01 0.  1.
</event>
<event>
 5   0  0.2847158E-05  0.2453825E+04  0.7818609E-02  0.8419623E-01
       -1   -1    0    0    0  501  0.00000000000E+00  0.00000000000E+00  0.14926438580E+04  0.14926438580E+04  0.50400001928E-02 0. -1.
        1   -1    0    0  501    0  0.00000000000E+00  0.00000000000E+00 -0.10084886828E+04  0.10084886828E+04  0.50400001928E-02 0.  1.
    10030    2    1    2    0    0  0.00000000000E+00  0.00000000000E+00  0.48415517521E+03  0.25011325408E+04  0.24538251268E+04 0.  0.
        5    1    3    3  502    0 -0.24639007262E+02  0.36550297895E+03 -0.95143369479E+03  0.10195330666E+04  0.46999998093E+01 0.  1.
       -5    1    3    3    0  502  0.24639007262E+02 -0.36550297895E+03  0.14355888700E+04  0.14815994742E+04  0.46999998093E+01 0. -1.
</event>
<event>
 5   0  0.6978115E-05  0.2053388E+04  0.7818609E-02  0.8582059E-01
       -2   -1    0    0    0  501  0.00000000000E+00  0.00000000000E+00  0.79554042876E+03  0.79554042876E+03  0.25500000920E-02 0. -1.
        2   -1    0    0  501    0  0.00000000000E+00  0.00000000000E+00 -0.13250118268E+04  0.13250118268E+04  0.25500000920E-02 0.  1.
    10030    2    1    2    0    0  0.00000000000E+00  0.00000000000E+00 -0.52947139801E+03  0.21205522555E+04  0.20533879096E+04 0.  0.
        4    1    3    3  502    0 -0.23767591969E+03 -0.65862454044E+03  0.51070621327E+03  0.86665943556E+03  0.12699999809E+01 0. -1.
       -4    1    3    3    0  502  0.23767591969E+03  0.65862454044E+03 -0.10401776113E+04  0.12538928200E+04  0.12699999809E+01 0.  1.
</event>
<event>
 5   0  0.6703961E-05  0.2433502E+04  0.7818609E-02  0.8427066E-01
        2   -1    0    0  501    0  0.00000000000E+00  0.00000000000E+00  0.14195387609E+04  0.14195387609E+04  0.25500000920E-02 0. -1.
       -2   -1    0    0    0  501  0.00000000000E+00  0.00000000000E+00 -0.10429324008E+04  0.10429324008E+04  0.25500000920E-02 0.  1.
    10030    2    1    2    0    0  0.00000000000E+00  0.00000000000E+00  0.37660636015E+03  0.24624711617E+04  0.24335019769E+04 0.  0.
        2    1    3    3  502    0  0.12056937402E+04 -0.15854391141E+03  0.22939946452E+03  0.12375207802E+04  0.25500000920E-02 0.  1.
       -2    1    3    3    0  502 -0.12056937402E+04  0.15854391141E+03  0.14720689563E+03  0.12249503815E+04  0.25500000920E-02 0. -1.
</event>
<event>
 5   0  0.2847158E-05  0.2377759E+04  0.7818609E-02  0.8447878E-01
        1   -1    0    0  501    0  0.00000000000E+00  0.00000000000E+00  0.15553142599E+04  0.15553142599E+04  0.50400001928E-02 0. -1.
       -1   -1    0    0    0  501  0.00000000000E+00  0.00000000000E+00 -0.90877721800E+03  0.90877721801E+03  0.50400001928E-02 0.  1.
    10030    2    1    2    0    0  0.00000000000E+00  0.00000000000E+00  0.64653704187E+03  0.24640914779E+04  0.23777587483E+04 0.  0.
        5    1    3    3  502    0  0.37249897127E+03 -0.56430033850E+03 -0.69010217333E+03  0.96615395008E+03  0.46999998093E+01 0.  1.
       -5    1    3    3    0  502 -0.37249897127E+03  0.56430033850E+03  0.13366392152E+04  0.14979375278E+04  0.46999998093E+01 0. -1.
</event>
<event>
 5   0  0.2915546E-05  0.2390674E+04  0.7818609E-02  0.8443003E-01
       -1   -1    0    0    0  501  0.00000000000E+00  0.00000000000E+00  0.73029652160E+03  0.73029652162E+03  0.50400001928E-02 0.  1.
        1   -1    0    0  501    0  0.00000000000E+00  0.00000000000E+00 -0.19565069052E+04  0.19565069052E+04  0.50400001928E-02 0. -1.
    10030    2    1    2    0    0  0.00000000000E+00  0.00000000000E+00 -0.12262103836E+04  0.26868034269E+04  0.23906737020E+04 0.  0.
        2    1    3    3  502    0 -0.26442037747E+03  0.80761894342E+03 -0.15578662389E+04  0.17745742341E+04  0.25500000920E-02 0. -1.
       -2    1    3    3    0  502  0.26442037747E+03 -0.80761894342E+03  0.33165585531E+03  0.91222919278E+03  0.25500000920E-02 0.  1.
</event>
<event>
 5   0  0.6600166E-05  0.2402644E+04  0.7818609E-02  0.8438514E-01
        2   -1    0    0  501    0  0.00000000000E+00  0.00000000000E+00  0.19867391637E+04  0.19867391637E+04  0.25500000920E-02 0.  1.
       -2   -1    0    0    0  501  0.00000000000E+00  0.00000000000E+00 -0.72640350531E+03  0.72640350531E+03  0.25500000920E-02 0. -1.
    10030    2    1    2    0    0  0.00000000000E+00  0.00000000000E+00  0.12603356584E+04  0.27131426690E+04  0.24026437877E+04 0.  0.
        5    1    3    3  502    0 -0.14705099749E+03 -0.10691385415E+04  0.12260676021E+04  0.16333845450E+04  0.46999998093E+01 0.  1.
       -5    1    3    3    0  502  0.14705099749E+03  0.10691385415E+04  0.34268056319E+02  0.10797581241E+04  0.46999998093E+01 0. -1.
</event>
<event>
 5   0  0.2915546E-05  0.2003313E+04  0.7818609E-02  0.8605073E-01
        1   -1    0    0  501    0  0.00000000000E+00  0.00000000000E+00  0.13413569137E+04  0.13413569137E+04  0.50400001928E-02 0. -1.
       -1   -1    0    0    0  501  0.00000000000E+00  0.00000000000E+00 -0.74798538016E+03  0.74798538017E+03  0.50400001928E-02 0.  1.
    10030    2    1    2    0    0  0.00000000000E+00  0.00000000000E+00  0.59337153352E+03  0.20893422939E+04  0.20033126177E+04 0.  0.
        2    1    3    3  502    0 -0.71084471225E+03 -0.62235165337E+03  0.64367985631E+03  0.11432171897E+04  0.25500000920E-02 0. -1.
       -2    1    3    3    0  502  0.71084471225E+03  0.62235165337E+03 -0.50308322793E+02  0.94612510416E+03  0.25500000920E-02 0.  1.
</event>
<event>
 5   0  0.2943244E-05  0.2520034E+04  0.7818609E-02  0.8395883E-01
       -1   -1    0    0    0  501  0.00000000000E+00  0.00000000000E+00  0.14307199228E+04  0.14307199228E+04  0.50400001928E-02 0.  1.
        1   -1    0    0  501    0  0.00000000000E+00  0.00000000000E+00 -0.11096812724E+04  0.11096812724E+04  0.50400001928E-02 0. -1.
    10030    2    1    2    0    0  0.00000000000E+00  0.00000000000E+00  0.32103865048E+03  0.25404011952E+04  0.25200342096E+04 0.  0.
        3    1    3    3  502    0  0.77854582931E+03  0.89941435169E+03 -0.25824541099E+03  0.12172799542E+04  0.10100000352E+00 0.  1.
       -3    1    3    3    0  502 -0.77854582931E+03 -0.89941435169E+03  0.57928406147E+03  0.13231212410E+04  0.10100000352E+00 0. -1.
</event>
<event>
 5   0  0.2943123E-05  0.2443441E+04  0.7818609E-02  0.8423417E-01
       -1   -1    0    0    0  501  0.00000000000E+00  0.00000000000E+00  0.15623302025E+04  0.15623302025E+04  0.50400001928E-02 0. -1.
        1   -1    0    0  501    0  0.00000000000E+00  0.00000000000E+00 -0.95536851937E+03  0.95536851938E+03  0.50400001928E-02 0.  1.
    10030    2    1    2    0    0  0.00000000000E+00  0.00000000000E+00  0.60696168316E+03  0.25176987219E+04  0.24434410919E+04 0.  0.
        1    1    3    3  502    0  0.11268744493E+04  0.46262874343E+03  0.20720842244E+03  0.12356402021E+04  0.50400001928E-02 0.  1.
       -1    1    3    3    0  502 -0.11268744493E+04 -0.46262874343E+03  0.39975326072E+03  0.12820585198E+04  0.50400001928E-02 0. -1.
</event>
<event>
 5   0  0.6337926E-05  0.2448016E+04  0.7818609E-02  0.8421743E-01
        2   -1    0    0  501    0  0.00000000000E+00  0.00000000000E+00  0.11734561004E+04  0.11734561004E+04  0.25500000920E-02 0. -1.
       -2   -1    0    0    0  501  0.00000000000E+00  0.00000000000E+00 -0.12767380822E+04  0.12767380822E+04  0.25500000920E-02 0.  1.
    10030    2    1    2    0    0  0.00000000000E+00  0.00000000000E+00 -0.10328198183E+03  0.24501941826E+04  0.24480164143E+04 0.  0.
        1    1    3    3  502    0  0.10376155755E+04 -0.63123316405E+03  0.10046361082E+03  0.12186854914E+04  0.50400001928E-02 0. -1.
       -1    1    3    3    0  502 -0.10376155755E+04  0.63123316405E+03 -0.20374559265E+03  0.12315086912E+04  0.50400001928E-02 0.  1.
</event>
<event>
 5   0  0.2339125E-05  0.1828889E+04  0.7818609E-02  0.8691086E-01
       -3   -1    0    0    0  501  0.00000000000E+00  0.00000000000E+00  0.90611092743E+03  0.90611093306E+03  0.10100000352E+00 0. -1.
        3   -1    0    0  501    0  0.00000000000E+00  0.00000000000E+00 -0.92285482425E+03  0.92285482978E+03  0.10100000352E+00 0.  1.
    10030    2    1    2    0    0  0.00000000000E+00  0.00000000000E+00 -0.16743896819E+02  0.18289657628E+04  0.18288891173E+04 0.  0.
        5    1    3    3  502    0 -0.23066162809E+03 -0.19738081421E+03  0.85423175611E+03  0.90658587880E+03  0.46999998093E+01 0. -1.
       -5    1    3    3    0  502  0.23066162809E+03  0.19738081421E+03 -0.87097565293E+03  0.92237988404E+03  0.46999998093E+01 0.  1.
</event>
<event>
 5   0  0.6714629E-05  0.2309786E+04  0.7818609E-02  0.8474073E-01
       -2   -1    0    0    0  501  0.00000000000E+00  0.00000000000E+00  0.12255696703E+04  0.12255696703E+04  0.25500000920E-02 0. -1.
        2   -1    0    0  501    0  0.00000000000E+00  0.00000000000E+00 -0.10882922215E+04  0.10882922216E+04  0.25500000920E-02 0.  1.
    10030    2    1    2    0    0  0.00000000000E+00  0.00000000000E+00  0.13727744875E+03  0.23138618919E+04  0.23097860846E+04 0.  0.
        3    1    3    3  502    0  0.81842998761E+03 -0.42160454669E+03 -0.62987203698E+03  0.11154895031E+04  0.10100000352E+00 0.  1.
       -3    1    3    3    0  502 -0.81842998761E+03  0.42160454669E+03  0.76714948573E+03  0.11983723887E+04  0.10100000352E+00 0. -1.
</event>
<event>
 5   0  0.6600166E-05  0.2376498E+04  0.7818609E-02  0.8448355E-01
        2   -1    0    0  501    0  0.00000000000E+00  0.00000000000E+00  0.14887696793E+04  0.14887696793E+04  0.25500000920E-02 0. -1.
       -2   -1    0    0    0  501  0.00000000000E+00  0.00000000000E+00 -0.94839093749E+03  0.94839093750E+03  0.25500000920E-02 0.  1.
    10030    2    1    2    0    0  0.00000000000E+00  0.00000000000E+00  0.54037874178E+03  0.24371606168E+04  0.23764979881E+04 0.  0.
        5    1    3    3  502    0 -0.87731251823E+03  0.10188472198E+03 -0.54499472729E+03  0.10378338470E+04  0.46999998093E+01 0.  1.
       -5    1    3    3    0  502  0.87731251823E+03 -0.10188472198E+03  0.10853734691E+04  0.13993267698E+04  0.46999998093E+01 0. -1.
</event>
<event>
 5   0  0.6978115E-05  0.2403626E+04  0.7818609E-02  0.8438147E-01
        2   -1    0    0  501    0  0.00000000000E+00  0.00000000000E+00  0.22482146471E+04  0.22482146471E+04  0.25500000920E-02 0.  1.
       -2   -1    0    0    0  501  0.00000000000E+00  0.00000000000E+00 -0.64244498923E+03  0.64244498924E+03  0.25500000920E-02 0. -1.
    10030    2    1    2    0    0  0.00000000000E+00  0.00000000000E+00  0.16057696579E+04  0.28906596364E+04  0.24036257901E+04 0.  0.
        4    1    3    3  502    0 -0.48066745811E+03  0.66473879571E+03  0.18591657139E+04  0.20320968571E+04  0.12699999809E+01 0.  1.
       -4    1    3    3    0  502  0.48066745811E+03 -0.66473879571E+03 -0.25339605605E+03  0.85856277926E+03  0.12699999809E+01 0. -1.
</event>
<event>
 5   0  0.6337926E-05  0.2438695E+04  0.7818609E-02  0.8425157E-01
        2   -1    0    0  501    0  0.00000000000E+00  0.00000000000E+00  0.11796903722E+04  0.11796903722E+04  0.25500000920E-02 0. -1.
       -2   -1    0    0    0  501  0.00000000000E+00  0.00000000000E+00 -0.12603382034E+04  0.12603382034E+04  0.25500000920E-02 0.  1.
    10030    2    1    2    0    0  0.00000000000E+00  0.00000000000E+00 -0.80647831171E+02  0.24400285756E+04  0.24386954252E+04 0.  0.
        1    1    3    3  502    0  0.61302694519E+02 -0.12149634892E+04 -0.12352310929E+03  0.12227641878E+04  0.50400001928E-02 0.  1.
       -1    1    3    3    0  502 -0.61302694519E+02  0.12149634892E+04  0.42875278114E+02  0.12172643878E+04  0.50400001928E-02 0. -1.
</event>
<event>
 5   0  0.2915546E-05  0.2385974E+04  0.7818609E-02  0.8444773E-01
        1   -1    0    0  501    0  0.00000000000E+00  0.00000000000E+00  0.12200700547E+04  0.12200700547E+04  0.50400001928E-02 0.  1.
       -1   -1    0    0    0  501  0.00000000000E+00  0.00000000000E+00 -0.11665054877E+04  0.11665054877E+04  0.50400001928E-02 0. -1.
    10030    2    1    2    0    0  0.00000000000E+00  0.00000000000E+00  0.53564567053E+02  0.23865755424E+04  0.23859743621E+04 0.  0.
        2    1    3    3  502    0 -0.48091613983E+03 -0.63481798233E+03  0.91523139940E+03  0.12132282220E+04  0.25500000920E-02 0.  1.
       -2    1    3    3    0  502  0.48091613983E+03  0.63481798233E+03 -0.86166683235E+03  0.11733473204E+04  0.25500000920E-02 0. -1.
</event>
<event>
 5   0  0.2943244E-05  0.2793447E+04  0.7818609E-02  0.8305306E-01
       -1   -1    0    0    0  501  0.00000000000E+00  0.00000000000E+00  0.14417232782E+04  0.14417232782E+04  0.50400001928E-02 0. -1.
        1   -1    0    0  501    0  0.00000000000E+00  0.00000000000E+00 -0.13531285254E+04  0.13531285254E+04  0.50400001928E-02 0.  1.
    10030    2    1    2    0    0  0.00000000000E+00  0.00000000000E+00  0.88594752844E+02  0.27948518036E+04  0.27934472564E+04 0.  0.
        3    1    3    3  502    0 -0.56714867995E+03  0.10450915103E+04 -0.68884865248E+03  0.13741857103E+04  0.10100000352E+00 0.  1.
       -3    1    3    3    0  502  0.56714867995E+03 -0.10450915103E+04  0.77744340533E+03  0.14206660934E+04  0.10100000352E+00 0. -1.
</event>
<event>
 5   0  0.6714629E-05  0.2391819E+04  0.7818609E-02  0.8442573E-01
        2   -1    0    0  501    0  0.00000000000E+00  0.00000000000E+00  0.13878272167E+04  0.13878272167E+04  0.25500000920E-02 0.  1.
       -2   -1    0    0    0  501  0.00000000000E+00  0.00000000000E+00 -0.10305316653E+04  0.10305316653E+04  0.25500000920E-02 0. -1.
    10030    2    1    2    0    0  0.00000000000E+00  0.00000000000E+00  0.35729555142E+03  0.24183588820E+04  0.23918193015E+04 0.  0.
        3    1    3    3  502    0 -0.91760668347E+03  0.39403955920E+03  0.84392333252E+03  0.13074692353E+04  0.10100000352E+00 0.  1.
       -3    1    3    3    0  502  0.91760668347E+03 -0.39403955920E+03 -0.48662778111E+03  0.11108896468E+04  0.10100000352E+00 0. -1.
</event>
<event>
 5   0  0.6714629E-05  0.2277396E+04  0.7818609E-02  0.8486887E-01
        2   -1    0    0  501    0  0.00000000000E+00  0.00000000000E+00  0.17534537280E+04  0.17534537280E+04  0.25500000920E-02 0.  1.
       -2   -1    0    0    0  501  0.00000000000E+00  0.00000000000E+00 -0.73947358127E+03  0.73947358127E+03  0.25500000920E-02 0. -1.
    10030    2    1    2    0    0  0.00000000000E+00  0.00000000000E+00  0.10139801468E+04  0.24929273093E+04  0.22773956247E+04 0.  0.
        3    1    3    3  502    0 -0.30183549328E+03 -0.69552003018E+03  0.14369699072E+04  0.16247262237E+04  0.10100000352E+00 0.  1.
       -3    1    3    3    0  502  0.30183549328E+03  0.69552003018E+03 -0.42298976049E+03  0.86820108562E+03  0.10100000352E+00 0. -1.
</event>
<event>
 5   0  0.2915546E-05  0.2404619E+04  0.7818609E-02  0.8437776E-01
        1   -1    0    0  501    0  0.00000000000E+00  0.00000000000E+00  0.13320247985E+04  0.13320247985E+04  0.50400001928E-02 0.  1.
       -1   -1    0    0    0  501  0.00000000000E+00  0.00000000000E+00 -0.10852264155E+04  0.10852264155E+04  0.50400001928E-02 0. -1.
    10030    2    1    2    0    0  0.00000000000E+00  0.00000000000E+00  0.24679838303E+03  0.24172512140E+04  0.24046193024E+04 0.  0.
        2    1    3    3  502    0  0.11354157962E+04  0.26814460927E+03  0.41557691730E+03  0.12384565943E+04  0.25500000920E-02 0.  1.
       -2    1    3    3    0  502 -0.11354157962E+04 -0.26814460927E+03 -0.16877853427E+03  0.11787946197E+04  0.25500000920E-02 0. -1.
</event>
<event>
 5   0  0.2943123E-05  0.2351769E+04  0.7818609E-02  0.8457785E-01
       -1   -1    0    0    0  501  0.00000000000E+00  0.00000000000E+00  0.58888594208E+03  0.58888594211E+03  0.50400001928E-02 0. -1.
        1   -1    0    0  501    0  0.00000000000E+00  0.00000000000E+00 -0.23479999736E+04  0.23479999736E+04  0.50400001928E-02 0.  1.
    10030    2    1    2    0    0  0.00000000000E+00  0.00000000000E+00 -0.17591140315E+04  0.29368859157E+04  0.23517688462E+04 0.  0.
        1    1    3    3  502    0 -0.85939128188E+03 -0.43935186865E+03 -0.17183191940E+04  0.19708384745E+04  0.50400001928E-02 0.  1.
       -1    1    3    3    0  502  0.85939128188E+03  0.43935186865E+03 -0.40794837448E+02  0.96604744120E+03  0.50400001928E-02 0. -1.
</event>
<event>
 5   0  0.6600166E-05  0.1985873E+04  0.7818609E-02  0.8613254E-01
        2   -1    0    0  501    0  0.00000000000E+00  0.00000000000E+00  0.76918257058E+03  0.76918257058E+03  0.25500000920E-02 0.  1.
       -2   -1    0    0    0  501  0.00000000000E+00  0.00000000000E+00 -0.12817802985E+04  0.12817802985E+04  0.25500000920E-02 0. -1.
    10030    2    1    2    0    0  0.00000000000E+00  0.00000000000E+00 -0.51259772788E+03  0.20509628690E+04  0.19858731731E+04 0.  0.
        5    1    3    3  502    0 -0.49934331369E+03  0.75268370022E+03 -0.68215412133E+03  0.11319155590E+04  0.46999998093E+01 0.  1.
       -5    1    3    3    0  502  0.49934331369E+03 -0.75268370022E+03  0.16955639344E+03  0.91904731003E+03  0.46999998093E+01 0. -1.
</event>
<event>
 5   0  0.2901816E-05  0.2081904E+04  0.7818609E-02  0.8569257E-01
        1   -1    0    0  501    0  0.00000000000E+00  0.00000000000E+00  0.79180834177E+03  0.79180834179E+03  0.50400001928E-02 0. -1.
       -1   -1    0    0    0  501  0.00000000000E+00  0.00000000000E+00 -0.13684889865E+04  0.13684889865E+04  0.50400001928E-02 0.  1.
    10030    2    1    2    0    0  0.00000000000E+00  0.00000000000E+00 -0.57668064473E+03  0.21602973283E+04  0.20819039317E+04 0.  0.
        4    1    3    3  502    0 -0.60446834569E+03 -0.66554861151E+03  0.25605019076E+03  0.93482631987E+03  0.12699999809E+01 0. -1.
       -4    1    3    3    0  502  0.60446834569E+03  0.66554861151E+03 -0.83273083548E+03  0.12254710084E+04  0.12699999809E+01 0.  1.
</event>
<event>
 5   0  0.2943123E-05  0.2236708E+04  0.7818609E-02  0.8503303E-01
       -1   -1    0    0    0  501  0.00000000000E+00  0.00000000000E+00  0.79284856879E+03  0.79284856881E+03  0.50400001928E-02 0. -1.
        1   -1    0    0  501    0  0.00000000000E+00  0.00000000000E+00 -0.15774956267E+04  0.15774956267E+04  0.50400001928E-02 0.  1.
    10030    2    1    2    0    0  0.00000000000E+00  0.00000000000E+00 -0.78464705787E+03  0.23703441955E+04  0.22367075355E+04 0.  0.
        1    1    3    3  502    0 -0.26319552706E+02 -0.72154907033E+03 -0.12973930253E+04  0.14847742057E+04  0.50400001928E-02 0.  1.
       -1    1    3    3    0  502  0.26319552706E+02  0.72154907033E+03  0.51274596740E+03  0.88556998981E+03  0.50400001928E-02 0. -1.
</event>
<event>
 5   0  0.6978115E-05  0.2350203E+04  0.7818609E-02  0.8458386E-01
       -2   -1    0    0    0  501  0.00000000000E+00  0.00000000000E+00  0.11492620680E+04  0.11492620680E+04  0.25500000920E-02 0.  1.
        2   -1    0    0  501    0  0.00000000000E+00  0.00000000000E+00 -0.12015217969E+04  0.12015217969E+04  0.25500000920E-02 0. -1.
    10030    2    1    2    0    0  0.00000000000E+00  0.00000000000E+00 -0.52259728910E+02  0.23507838649E+04  0.23502029062E+04 0.  0.
        4    1    3    3  502    0 -0.83255141916E+03  0.48358546135E+03  0.64773174033E+03  0.11604114720E+04  0.12699999809E+01 0.  1.
       -4    1    3    3    0  502  0.83255141916E+03 -0.48358546135E+03 -0.69999146924E+03  0.11903723930E+04  0.12699999809E+01 0. -1.
</event>
<event>
 5   0  0.2943123E-05  0.2373187E+04  0.7818609E-02  0.8449611E-01
       -1   -1    0    0    0  501  0.00000000000E+00  0.00000000000E+00  0.26628902891E+04  0.26628902891E+04  0.50400001928E-02 0. -1.
        1   -1    0    0  501    0  0.00000000000E+00  0.00000000000E+00 -0.52875038800E+03  0.52875038802E+03  0.50400001928E-02 0.  1.
    10030    2    1    2    0    0  0.00000000000E+00  0.00000000000E+00  0.21341399011E+04  0.31916406771E+04  0.23731871174E+04 0.  0.
        1    1    3    3  502    0  0.18397185520E+03  0.76364444273E+03 -0.12904203429E+03  0.79602156067E+03  0.50400001928E-02 0.  1.
       -1    1    3    3    0  502 -0.18397185520E+03 -0.76364444273E+03  0.22631819354E+04  0.23956191164E+04  0.50400001928E-02 0. -1.
</event>
<event>
 5   0  0.2943123E-05  0.2433966E+04  0.7818609E-02  0.8426896E-01
       -1   -1    0    0    0  501  0.00000000000E+00  0.00000000000E+00  0.11709009505E+04  0.11709009505E+04  0.50400001928E-02 0. -1.
        1   -1    0    0  501    0  0.00000000000E+00  0.00000000000E+00 -0.12648783663E+04  0.12648783663E+04  0.50400001928E-02 0.  1.
    10030    2    1    2    0    0  0.00000000000E+00  0.00000000000E+00 -0.93977415804E+02  0.24357793169E+04  0.24339657200E+04 0.  0.
        1    1    3    3  502    0 -0.45053843483E+03 -0.93418169705E+03 -0.68414746077E+03  0.12424725641E+04  0.50400001928E-02 0.  1.
       -1    1    3    3    0  502  0.45053843483E+03  0.93418169705E+03  0.59017004497E+03  0.11933067528E+04  0.50400001928E-02 0. -1.
</event>
<event>
 5   0  0.2943123E-05  0.2368788E+04  0.7818609E-02  0.8451282E-01
        1   -1    0    0  501    0  0.00000000000E+00  0.00000000000E+00  0.21945455110E+04  0.21945455110E+04  0.50400001928E-02 0.  1.
       -1   -1    0    0    0  501  0.00000000000E+00  0.00000000000E+00 -0.63921644419E+03  0.63921644421E+03  0.50400001928E-02 0. -1.
    10030    2    1    2    0    0  0.00000000000E+00  0.00000000000E+00  0.15553290668E+04  0.28337619552E+04  0.23687883639E+04 0.  0.
        1    1    3    3  502    0  0.21653794361E+03  0.65737038616E+03 -0.37212373509E+03  0.78581205124E+03  0.50400001928E-02 0. -1.
       -1    1    3    3    0  502 -0.21653794361E+03 -0.65737038616E+03  0.19274528019E+04  0.20479499040E+04  0.50400001928E-02 0.  1.
</event>
<event>
 5   0  0.2847158E-05  0.2443314E+04  0.7818609E-02  0.8423463E-01
       -1   -1    0    0    0  501  0.00000000000E+00  0.00000000000E+00  0.10529064967E+04  0.10529064967E+04  0.50400001928E-02 0. -1.
        1   -1    0    0  501    0  0.00000000000E+00  0.00000000000E+00 -0.14174535716E+04  0.14174535716E+04  0.50400001928E-02 0.  1.
    10030    2    1    2    0    0  0.00000000000E+00  0.00000000000E+00 -0.36454707489E+03  0.24703600683E+04  0.24433142035E+04 0.  0.
        5    1    3    3  502    0 -0.50656899095E+03  0.31877977807E+03  0.89449930558E+03  0.10762823919E+04  0.46999998093E+01 0. -1.
       -5    1    3    3    0  502  0.50656899095E+03 -0.31877977807E+03 -0.12590463805E+04  0.13940776763E+04  0.46999998093E+01 0.  1.
</event>
<event>
 5   0  0.2847158E-05  0.2406579E+04  0.7818609E-02  0.8437045E-01
       -1   -1    0    0    0  501  0.00000000000E+00  0.00000000000E+00  0.89004331001E+03  0.89004331002E+03  0.50400001928E-02 0. -1.
        1   -1    0    0  501    0  0.00000000000E+00  0.00000000000E+00 -0.16267813633E+04  0.16267813633E+04  0.50400001928E-02 0.  1.
    10030    2    1    2    0    0  0.00000000000E+00  0.00000000000E+00 -0.73673805324E+03  0.25168246733E+04  0.24065792065E+04 0.  0.
        5    1    3    3  502    0  0.28867241441E+03 -0.10544912464E+04  0.15724829845E+03  0.11045508901E+04  0.46999998093E+01 0. -1.
       -5    1    3    3    0  502 -0.28867241441E+03  0.10544912464E+04 -0.89398635169E+03  0.14122737831E+04  0.46999998093E+01 0.  1.
</event>
<event>
 5   0  0.2915546E-05  0.2391168E+04  0.7818609E-02  0.8442817E-01
        1   -1    0    0  501    0  0.00000000000E+00  0.00000000000E+00  0.83590926849E+03  0.83590926850E+03  0.50400001928E-02 0. -1.
       -1   -1    0    0    0  501  0.00000000000E+00  0.00000000000E+00 -0.17100199854E+04  0.17100199854E+04  0.50400001928E-02 0.  1.
    10030    2    1    2    0    0  0.00000000000E+00  0.00000000000E+00 -0.87411071690E+03  0.25459292539E+04  0.23911683798E+04 0.  0.
        2    1    3    3  502    0 -0.67447492407E+03  0.93642364550E+03 -0.76971217498E+03  0.13871778903E+04  0.25500000920E-02 0. -1.
       -2    1    3    3    0  502  0.67447492407E+03 -0.93642364550E+03 -0.10439854192E+03  0.11587513636E+04  0.25500000920E-02 0.  1.
</event>
<event>
 5   0  0.2915546E-05  0.2352638E+04  0.7818609E-02  0.8457451E-01
        1   -1    0    0  501    0  0.00000000000E+00  0.00000000000E+00  0.12537756611E+04  0.12537756611E+04  0.50400001928E-02 0. -1.
       -1   -1    0    0    0  501  0.00000000000E+00  0.00000000000E+00 -0.11036477588E+04  0.11036477588E+04  0.50400001928E-02 0.  1.
    10030    2    1    2    0    0  0.00000000000E+00  0.00000000000E+00  0.15012790231E+03  0.23574234198E+04  0.23526382623E+04 0.  0.
        2    1    3    3  502    0 -0.13754244153E+03  0.11503394910E+04  0.27926222188E+03  0.11917156776E+04  0.25500000920E-02 0. -1.
       -2    1    3    3    0  502  0.13754244153E+03 -0.11503394910E+04 -0.12913431958E+03  0.11657077422E+04  0.25500000920E-02 0.  1.
</event>
<event>
 5   0  0.2915546E-05  0.2426169E+04  0.7818609E-02  0.8429771E-01
        1   -1    0    0  501    0  0.00000000000E+00  0.00000000000E+00  0.12838937296E+04  0.12838937296E+04  0.50400001928E-02 0.  1.
       -1   -1    0    0    0  501  0.00000000000E+00  0.00000000000E+00 -0.11461808333E+04  0.11461808333E+04  0.50400001928E-02 0. -1.
    10030    2    1    2    0    0  0.00000000000E+00  0.00000000000E+00  0.13771289624E+03  0.24300745629E+04  0.24261693138E+04 0.  0.
        2    1    3    3  502    0  0.80971095159E+03  0.56673009976E+03  0.77338011773E+03  0.12549628033E+04  0.25500000920E-02 0.  1.
       -2    1    3    3    0  502 -0.80971095159E+03 -0.56673009976E+03 -0.63566722149E+03  0.11751117596E+04  0.25500000920E-02 0. -1.
</event>
<event>
 5   0  0.6600166E-05  0.2431110E+04  0.7818609E-02  0.8427948E-01
        2   -1    0    0  501    0  0.00000000000E+00  0.00000000000E+00  0.15295213652E+04  0.15295213652E+04  0.25500000920E-02 0. -1.
       -2   -1    0    0    0  501  0.00000000000E+00  0.00000000000E+00 -0.96603648417E+03  0.96603648417E+03  0.25500000920E-02 0.  1.
    10030    2    1    2    0    0  0.00000000000E+00  0.00000000000E+00  0.56348488108E+03  0.24955578494E+04  0.24311095756E+04 0.  0.
        5    1    3    3  502    0  0.94590218169E+03 -0.76274308719E+03  0.24858446074E+03  0.12402920134E+04  0.46999998093E+01 0. -1.
       -5    1    3    3    0  502 -0.94590218169E+03  0.76274308719E+03  0.31490042034E+03  0.12552658360E+04  0.46999998093E+01 0.  1.
</event>
<event>
 5   0  0.2943123E-05  0.2162342E+04  0.7818609E-02  0.8534268E-01
       -1   -1    0    0    0  501  0.00000000000E+00  0.00000000000E+00  0.10570018458E+04  0.10570018458E+04  0.50400001928E-02 0.  1.
        1   -1    0    0  501    0  0.00000000000E+00  0.00000000000E+00 -0.11058931666E+04  0.11058931666E+04  0.50400001928E-02 0. -1.
    10030    2    1    2    0    0  0.00000000000E+00  0.00000000000E+00 -0.48891320856E+02  0.21628950124E+04  0.21623423581E+04 0.  0.
        1    1    3    3  502    0  0.43711296902E+03  0.22142570738E+03 -0.98845233714E+03  0.11032384667E+04  0.50400001928E-02 0. -1.
       -1    1    3    3    0  502 -0.43711296902E+03 -0.22142570738E+03  0.93956101629E+03  0.10596565457E+04  0.50400001928E-02 0.  1.
</event>
<event>
 5   0  0.2339125E-05  0.2379362E+04  0.7818609E-02  0.8447271E-01
       -3   -1    0    0    0  501  0.00000000000E+00  0.00000000000E+00  0.27700164573E+04  0.27700164591E+04  0.10100000352E+00 0.  1.
        3   -1    0    0  501    0  0.00000000000E+00  0.00000000000E+00 -0.51095030933E+03  0.51095031931E+03  0.10100000352E+00 0. -1.
    10030    2    1    2    0    0  0.00000000000E+00  0.00000000000E+00  0.22590661480E+04  0.32809667784E+04  0.23793619187E+04 0.  0.
        2    1    3    3  502    0 -0.50451355314E+03  0.23561646488E+02 -0.35577805384E+03  0.61779211722E+03  0.25500000920E-02 0. -1.
       -2    1    3    3    0  502  0.50451355314E+03 -0.23561646488E+02  0.26148442018E+04  0.26631746612E+04  0.25500000920E-02 0.  1.
</event>
<event>
 5   0  0.6714629E-05  0.2417710E+04  0.7818609E-02  0.8432903E-01
       -2   -1    0    0    0  501  0.00000000000E+00  0.00000000000E+00  0.14721707108E+04  0.14721707108E+04  0.25500000920E-02 0. -1.
        2   -1    0    0  501    0  0.00000000000E+00  0.00000000000E+00 -0.99263647183E+03  0.99263647183E+03  0.25500000920E-02 0.  1.
    10030    2    1    2    0    0  0.00000000000E+00  0.00000000000E+00  0.47953423895E+03  0.24648071826E+04  0.24177099415E+04 0.  0.
        3    1    3    3  502    0  0.59306204016E+03  0.52298666668E+03  0.11719604010E+04  0.14137640640E+04  0.10100000352E+00 0. -1.
       -3    1    3    3    0  502 -0.59306204016E+03 -0.52298666668E+03 -0.69242616207E+03  0.10510431186E+04  0.10100000352E+00 0.  1.
</event>
<event>
 5   0  0.2901816E-05  0.2438365E+04  0.7818609E-02  0.8425278E-01
        1   -1    0    0  501    0  0.00000000000E+00  0.00000000000E+00  0.20637118671E+04  0.20637118671E+04  0.50400001928E-02 0. -1.
       -1   -1    0    0    0  501  0.00000000000E+00  0.00000000000E+00 -0.72025871650E+03  0.72025871652E+03  0.50400001928E-02 0.  1.
    10030    2    1    2    0    0  0.00000000000E+00  0.00000000000E+00  0.13434531506E+04  0.27839705837E+04  0.24383654039E+04 0.  0.
        4    1    3    3  502    0  0.11121052541E+03 -0.48048548366E+03 -0.60128176440E+03  0.77767310232E+03  0.12699999809E+01 0.  1.
       -4    1    3    3    0  502 -0.11121052541E+03  0.48048548366E+03  0.19447349150E+04  0.20062974813E+04  0.12699999809E+01 0. -1.
</event>
<event>
 5   0  0.6978115E-05  0.2542350E+04  0.7818609E-02  0.8388051E-01
        2   -1    0    0  501    0  0.00000000000E+00  0.00000000000E+00  0.17170654147E+04  0.17170654147E+04  0.25500000920E-02 0. -1.
       -2   -1    0    0    0  501  0.00000000000E+00  0.00000000000E+00 -0.94107446919E+03  0.94107446920E+03  0.25500000920E-02 0.  1.
    10030    2    1    2    0    0  0.00000000000E+00  0.00000000000E+00  0.77599094550E+03  0.26581398839E+04  0.25423504272E+04 0.  0.
        4    1    3    3  502    0 -0.84215237567E+03 -0.28725345281E+03  0.13371686500E+04  0.16061621280E+04  0.12699999809E+01 0. -1.
       -4    1    3    3    0  502  0.84215237567E+03  0.28725345281E+03 -0.56117770448E+03  0.10519777559E+04  0.12699999809E+01 0.  1.
</event>
<event>
 5   0  0.6337926E-05  0.2390610E+04  0.7818609E-02  0.8443027E-01
       -2   -1    0    0    0  501  0.00000000000E+00  0.00000000000E+00  0.93378951078E+03  0.93378951078E+03  0.25500000920E-02 0. -1.
        2   -1    0    0  501    0  0.00000000000E+00  0.00000000000E+00 -0.15300604807E+04  0.15300604807E+04  0.25500000920E-02 0.  1.
    10030    2    1    2    0    0  0.00000000000E+00  0.00000000000E+00 -0.59627096996E+03  0.24638499915E+04  0.23906103219E+04 0.  0.
        1    1    3    3  502    0 -0.67939345286E+03 -0.98306079866E+03 -0.32674247066E+03  0.12388481101E+04  0.50400001928E-02 0.  1.
       -1    1    3    3    0  502  0.67939345286E+03  0.98306079866E+03 -0.26952849930E+03  0.12250018815E+04  0.50400001928E-02 0. -1.
</event>
<event>
 5   0  0.2943244E-05  0.2383257E+04  0.7818609E-02  0.8445798E-01
        1   -1    0    0  501    0  0.00000000000E+00  0.00000000000E+00  0.93945096716E+03  0.93945096717E+03  0.50400001928E-02 0.  1.
       -1   -1    0    0    0  501  0.00000000000E+00  0.00000000000E+00 -0.15114986627E+04  0.15114986627E+04  0.50400001928E-02 0. -1.
    10030    2    1    2    0    0  0.00000000000E+00  0.00000000000E+00 -0.57204769552E+03  0.24509496299E+04  0.23832573344E+04 0.  0.
        3    1    3    3  502    0  0.42346894630E+03 -0.96358663017E+03 -0.86060015105E+03  0.13595799986E+04  0.10100000352E+00 0. -1.
       -3    1    3    3    0  502 -0.42346894630E+03  0.96358663017E+03  0.28855245553E+03  0.10913696313E+04  0.10100000352E+00 0.  1.
</event>
<event>
 5   0  0.6714629E-05  0.2370069E+04  0.7818609E-02  0.8450795E-01
        2   -1    0    0  501    0  0.00000000000E+00  0.00000000000E+00  0.12232820074E+04  0.12232820074E+04  0.25500000920E-02 0.  1.
       -2   -1    0    0    0  501  0.00000000000E+00  0.00000000000E+00 -0.11479832037E+04  0.11479832037E+04  0.25500000920E-02 0. -1.
    10030    2    1    2    0    0  0.00000000000E+00  0.00000000000E+00  0.75298803682E+02  0.23712652111E+04  0.23700693643E+04 0.  0.
        3    1    3    3  502    0 -0.73089556513E+03  0.78596978490E+03 -0.46494892169E+03  0.11696727491E+04  0.10100000352E+00 0.  1.
       -3    1    3    3    0  502  0.73089556513E+03 -0.78596978490E+03  0.54024772537E+03  0.12015924621E+04  0.10100000352E+00 0. -1.
</event>
<event>
 5   0  0.2901816E-05  0.2425698E+04  0.7818609E-02  0.8429945E-01
        1   -1    0    0  501    0  0.00000000000E+00  0.00000000000E+00  0.19914434634E+04  0.19914434634E+04  0.50400001928E-02 0.  1.
       -1   -1    0    0    0  501  0.00000000000E+00  0.00000000000E+00 -0.73866150732E+03  0.73866150734E+03  0.50400001928E-02 0. -1.
    10030    2    1    2    0    0  0.00000000000E+00  0.00000000000E+00  0.12527819561E+04  0.27301049707E+04  0.24256979453E+04 0.  0.
        4    1    3    3  502    0 -0.40316951360E+03  0.71287884186E+03  0.16332251355E+04  0.18270653672E+04  0.12699999809E+01 0. -1.
       -4    1    3    3    0  502  0.40316951360E+03 -0.71287884186E+03 -0.38044317943E+03  0.90303960354E+03  0.12699999809E+01 0.  1.
</event>
<event>
 5   0  0.6703961E-05  0.2361226E+04  0.7818609E-02  0.8454164E-01
       -2   -1    0    0    0  501  0.00000000000E+00  0.00000000000E+00  0.10826278681E+04  0.10826278681E+04  0.25500000920E-02 0. -1.
        2   -1    0    0  501    0  0.00000000000E+00  0.00000000000E+00 -0.12874665541E+04  0.12874665541E+04  0.25500000920E-02 0.  1.
    10030    2    1    2    0    0  0.00000000000E+00  0.00000000000E+00 -0.20483868598E+03  0.23700944221E+04  0.23612260973E+04 0.  0.
        2    1    3    3  502    0  0.88372216928E+03 -0.77371116548E+03  0.17416366778E+02  0.11746902442E+04  0.25500000920E-02 0. -1.
       -2    1    3    3    0  502 -0.88372216928E+03  0.77371116548E+03 -0.22225505276E+03  0.11954041779E+04  0.25500000920E-02 0.  1.
</event>
<event>
 5   0  0.2901816E-05  0.1844882E+04  0.7818609E-02  0.8682789E-01
        1   -1    0    0  501    0  0.00000000000E+00  0.00000000000E+00  0.11937678445E+04  0.11937678445E+04  0.50400001928E-02 0.  1.
       -1   -1    0    0    0  501  0.00000000000E+00  0.00000000000E+00 -0.71278274063E+03  0.71278274065E+03  0.50400001928E-02 0. -1.
    10030    2    1    2    0    0  0.00000000000E+00  0.00000000000E+00  0.48098510383E+03  0.19065505851E+04  0.18448816936E+04 0.  0.
        4    1    3    3  502    0 -0.73599955195E+03 -0.13299536231E+03  0.79845930859E+03  0.10940392988E+04  0.12699999809E+01 0.  1.
       -4    1    3    3    0  502  0.73599955195E+03  0.13299536231E+03 -0.31747420476E+03  0.81251128636E+03  0.12699999809E+01 0. -1.
</event>
<event>
 5   0  0.2901816E-05  0.2174097E+04  0.7818609E-02  0.8529287E-01
        1   -1    0    0  501    0  0.00000000000E+00  0.00000000000E+00  0.69287821986E+03  0.69287821988E+03  0.50400001928E-02 0. -1.
       -1   -1    0    0    0  501  0.00000000000E+00  0.00000000000E+00 -0.17054583796E+04  0.17054583796E+04  0.50400001928E-02 0.  1.
    10030    2    1    2    0    0  0.00000000000E+00  0.00000000000E+00 -0.10125801598E+04  0.23983365995E+04  0.21740974828E+04 0.  0.
        4    1    3    3  502    0 -0.53780120993E+03 -0.94322299912E+03 -0.56438684104E+03  0.12236968116E+04  0.12699999809E+01 0. -1.
       -4    1    3    3    0  502  0.53780120993E+03  0.94322299912E+03 -0.44819331871E+03  0.11746397879E+04  0.12699999809E+01 0.  1.
</event>
<event>
 5   0  0.2915546E-05  0.2531699E+04  0.7818609E-02  0.8391779E-01
        1   -1    0    0  501    0  0.00000000000E+00  0.00000000000E+00  0.93774482687E+03  0.93774482689E+03  0.50400001928E-02 0. -1.
       -1   -1    0    0    0  501  0.00000000000E+00  0.00000000000E+00 -0.17087540736E+04  0.17087540736E+04  0.50400001928E-02 0.  1.
    10030    2    1    2    0    0  0.00000000000E+00  0.00000000000E+00 -0.77100924676E+03  0.26464989005E+04  0.25316992657E+04 0.  0.
        2    1    3    3  502    0 -0.12402346251E+04  0.23235378941E+03 -0.27990365564E+03  0.12924845319E+04  0.25500000920E-02 0. -1.
       -2    1    3    3    0  502  0.12402346251E+04 -0.23235378941E+03 -0.49110559113E+03  0.13540143686E+04  0.25500000920E-02 0.  1.
</event>
<event>
 5   0  0.6703961E-05  0.2410021E+04  0.7818609E-02  0.8435761E-01
        2   -1    0    0  501    0  0.00000000000E+00  0.00000000000E+00  0.15779684056E+04  0.15779684056E+04  0.25500000920E-02 0. -1.
       -2   -1    0    0    0  501  0.00000000000E+00  0.00000000000E+00 -0.92020276905E+03  0.92020276906E+03  0.25500000920E-02 0.  1.
    10030    2    1    2    0    0  0.00000000000E+00  0.00000000000E+00  0.65776563656E+03  0.24981711747E+04  0.24100214906E+04 0.  0.
        2    1    3    3  502    0 -0.67311787937E+03 -0.79217119336E+03 -0.30285751850E+03  0.10827490733E+04  0.25500000920E-02 0. -1.
       -2    1    3    3    0  502  0.67311787937E+03  0.79217119336E+03  0.96062315506E+03  0.14154221014E+04  0.25500000920E-02 0.  1.
</event>
<event>
 5   0  0.6337926E-05  0.1479893E+04  0.7818609E-02  0.8897935E-01
       -2   -1    0    0    0  501  0.00000000000E+00  0.00000000000E+00  0.95901417090E+03  0.95901417090E+03  0.25500000920E-02 0. -1.
        2   -1    0    0  501    0  0.00000000000E+00  0.00000000000E+00 -0.57092032405E+03  0.57092032406E+03  0.25500000920E-02 0.  1.
    10030    2    1    2    0    0  0.00000000000E+00  0.00000000000E+00  0.38809384684E+03  0.15299344950E+04  0.14798928086E+04 0.  0.
        1    1    3    3  502    0  0.60768426626E+02  0.64163959300E+02 -0.56544499626E+03  0.57230923387E+03  0.50400001928E-02 0.  1.
       -1    1    3    3    0  502 -0.60768426626E+02 -0.64163959300E+02  0.95353884311E+03  0.95762526109E+03  0.50400001928E-02 0. -1.
</event>
<event>
 5   0  0.6600166E-05  0.2409833E+04  0.7818609E-02  0.8435831E-01
        2   -1    0    0  501    0  0.00000000000E+00  0.00000000000E+00  0.96705468208E+03  0.96705468208E+03  0.25500000920E-02 0. -1.
       -2   -1    0    0    0  501  0.00000000000E+00  0.00000000000E+00 -0.15012837507E+04  0.15012837507E+04  0.25500000920E-02 0.  1.
    10030    2    1    2    0    0  0.00000000000E+00  0.00000000000E+00 -0.53422906859E+03  0.24683384328E+04  0.24098327579E+04 0.  0.
        5    1    3    3  502    0  0.11730986557E+04  0.20900603018E+03 -0.84008096541E+02  0.11945390018E+04  0.46999998093E+01 0. -1.
       -5    1    3    3    0  502 -0.11730986557E+04 -0.20900603018E+03 -0.45022097205E+03  0.12737994309E+04  0.46999998093E+01 0.  1.
</event>
<event>
 5   0  0.6337926E-05  0.2365863E+04  0.7818609E-02  0.8452395E-01
        2   -1    0    0  501    0  0.00000000000E+00  0.00000000000E+00  0.14957651157E+04  0.14957651157E+04  0.25500000920E-02 0. -1.
       -2   -1    0    0    0  501  0.00000000000E+00  0.00000000000E+00 -0.93552620336E+03  0.93552620337E+03  0.25500000920E-02 0.  1.
    10030    2    1    2    0    0  0.00000000000E+00  0.00000000000E+00  0.56023891237E+03  0.24312913191E+04  0.23658634448E+04 0.  0.
        1    1    3    3  502    0  0.60730197645E+03  0.14687284137E+03  0.13123578897E+04  0.14535028562E+04  0.50400001928E-02 0. -1.
       -1    1    3    3    0  502 -0.60730197645E+03 -0.14687284137E+03 -0.75211897735E+03  0.97778846294E+03  0.50400001928E-02 0.  1.
</event>
<event>
 5   0  0.2943123E-05  0.2363041E+04  0.7818609E-02  0.8453471E-01
        1   -1    0    0  501    0  0.00000000000E+00  0.00000000000E+00  0.89051560143E+03  0.89051560144E+03  0.50400001928E-02 0. -1.
       -1   -1    0    0    0  501  0.00000000000E+00  0.00000000000E+00 -0.15676208524E+04  0.15676208524E+04  0.50400001928E-02 0.  1.
    10030    2    1    2    0    0  0.00000000000E+00  0.00000000000E+00 -0.67710525096E+03  0.24581364538E+04  0.23630411137E+04 0.  0.
        1    1    3    3  502    0  0.15820838238E+03  0.99941335238E+03 -0.97312961205E+03  0.14038654434E+04  0.50400001928E-02 0.  1.
       -1    1    3    3    0  502 -0.15820838238E+03 -0.99941335238E+03  0.29602436109E+03  0.10542710105E+04  0.50400001928E-02 0. -1.
</event>
<event>
 5   0  0.6600166E-05  0.2407456E+04  0.7818609E-02  0.8436718E-01
        2   -1    0    0  501    0  0.00000000000E+00  0.00000000000E+00  0.16948303923E+04  0.16948303923E+04  0.25500000920E-02 0.  1.
       -2   -1    0    0    0  501  0.00000000000E+00  0.00000000000E+00 -0.85492957584E+03  0.85492957585E+03  0.25500000920E-02 0. -1.
    10030    2    1    2    0    0  0.00000000000E+00  0.00000000000E+00  0.83990081650E+03  0.25497599682E+04  0.24074556099E+04 0.  0.
        5    1    3    3  502    0  0.43879924454E+03 -0.10031704445E+04 -0.10964987057E+03  0.11004275995E+04  0.46999998093E+01 0. -1.
       -5    1    3    3    0  502 -0.43879924454E+03  0.10031704445E+04  0.94955068707E+03  0.14493323687E+04  0.46999998093E+01 0.  1.
</event>
<event>
 5   0  0.2339125E-05  0.2390045E+04  0.7818609E-02  0.8443240E-01
       -3   -1    0    0    0  501  0.00000000000E+00  0.00000000000E+00  0.10794212111E+04  0.10794212159E+04  0.10100000352E+00 0.  1.
        3   -1    0    0  501    0  0.00000000000E+00  0.00000000000E+00 -0.13230041079E+04  0.13230041117E+04  0.10100000352E+00 0. -1.
    10030    2    1    2    0    0  0.00000000000E+00  0.00000000000E+00 -0.24358289672E+03  0.24024253276E+04  0.23900449425E+04 0.  0.
        1    1    3    3  502    0  0.10519613066E+03 -0.19346677012E+02  0.10746000066E+04  0.10799100398E+04  0.50400001928E-02 0.  1.
       -1    1    3    3    0  502 -0.10519613066E+03  0.19346677012E+02 -0.13181829033E+04  0.13225152878E+04  0.50400001928E-02 0. -1.
</event>
<event>
 5   0  0.6978115E-05  0.2457300E+04  0.7818609E-02  0.8418358E-01
        2   -1    0    0  501    0  0.00000000000E+00  0.00000000000E+00  0.21755784917E+04  0.21755784917E+04  0.25500000920E-02 0. -1.
       -2   -1    0    0    0  501  0.00000000000E+00  0.00000000000E+00 -0.69387554030E+03  0.69387554031E+03  0.25500000920E-02 0.  1.
    10030    2    1    2    0    0  0.00000000000E+00  0.00000000000E+00  0.14817029514E+04  0.28694540320E+04  0.24572999015E+04 0.  0.
        4    1    3    3  502    0  0.82333615725E+03 -0.80810752421E+03  0.24727616871E+03  0.11798590234E+04  0.12699999809E+01 0.  1.
       -4    1    3    3    0  502 -0.82333615725E+03  0.80810752421E+03  0.12344267827E+04  0.16895950087E+04  0.12699999809E+01 0. -1.
</event>
<event>
 5   0  0.6978115E-05  0.2402917E+04  0.7818609E-02  0.8438412E-01
        2   -1    0    0  501    0  0.00000000000E+00  0.00000000000E+00  0.10041565574E+04  0.10041565574E+04  0.25500000920E-02 0. -1.
       -2   -1    0    0    0  501  0.00000000000E+00  0.00000000000E+00 -0.14375271521E+04  0.14375271521E+04  0.25500000920E-02 0.  1.
    10030    2    1    2    0    0  0.00000000000E+00  0.00000000000E+00 -0.43337059469E+03  0.24416837095E+04  0.24029168244E+04 0.  0.
        4    1    3    3  502    0 -0.80265606218E+03 -0.85104320308E+03 -0.49490810588E+03  0.12702231827E+04  0.12699999809E+01 0.  1.
       -4    1    3    3    0  502  0.80265606218E+03  0.85104320308E+03  0.61537511187E+02  0.11714605268E+04  0.12699999809E+01 0. -1.
</event>
<event>
 5   0  0.2915546E-05  0.2438780E+04  0.7818609E-02  0.8425126E-01
        1   -1    0    0  501    0  0.00000000000E+00  0.00000000000E+00  0.96171784274E+03  0.96171784276E+03  0.50400001928E-02 0. -1.
       -1   -1    0    0    0  501  0.00000000000E+00  0.00000000000E+00 -0.15461005473E+04  0.15461005473E+04  0.50400001928E-02 0.  1.
    10030    2    1    2    0    0  0.00000000000E+00  0.00000000000E+00 -0.58438270459E+03  0.25078183901E+04  0.24387804190E+04 0.  0.
        2    1    3    3  502    0  0.98533814290E+03  0.54909563238E+03 -0.76846048174E+03  0.13648914907E+04  0.25500000920E-02 0.  1.
       -2    1    3    3    0  502 -0.98533814290E+03 -0.54909563238E+03  0.18407777715E+03  0.11429268994E+04  0.25500000920E-02 0. -1.
</event>
<event>
 5   0  0.2943123E-05  0.2417679E+04  0.7818609E-02  0.8432915E-01
        1   -1    0    0  501    0  0.00000000000E+00  0.00000000000E+00  0.20840173837E+04  0.20840173837E+04  0.50400001928E-02 0. -1.
       -1   -1    0    0    0  501  0.00000000000E+00  0.00000000000E+00 -0.70119009448E+03  0.70119009450E+03  0.50400001928E-02 0.  1.
    10030    2    1    2    0    0  0.00000000000E+00  0.00000000000E+00  0.13828272892E+04  0.27852074782E+04  0.24176785115E+04 0.  0.
        1    1    3    3  502    0 -0.81526035160E+03 -0.67854742027E+03  0.23426065916E+02  0.10609546753E+04  0.50400001928E-02 0.  1.
       -1    1    3    3    0  502  0.81526035160E+03  0.67854742027E+03  0.13594012233E+04  0.17242528029E+04  0.50400001928E-02 0. -1.
</event>
<event>
 5   0  0.2847158E-05  0.2398720E+04  0.7818609E-02  0.8439983E-01
        1   -1    0    0  501    0  0.00000000000E+00  0.00000000000E+00  0.10114476471E+04  0.10114476471E+04  0.50400001928E-02 0.  1.
       -1   -1    0    0    0  501  0.00000000000E+00  0.00000000000E+00 -0.14221833092E+04  0.14221833092E+04  0.50400001928E-02 0. -1.
    10030    2    1    2    0    0  0.00000000000E+00  0.00000000000E+00 -0.41073566207E+03  0.24336309563E+04  0.23987196266E+04 0.  0.
        5    1    3    3  502    0 -0.13601905771E+03  0.11130326953E+04 -0.63711862703E+03  0.12896841473E+04  0.46999998093E+01 0. -1.
       -5    1    3    3    0  502  0.13601905771E+03 -0.11130326953E+04  0.22638296496E+03  0.11439468090E+04  0.46999998093E+01 0.  1.
</event>
<event>
 5   0  0.6978115E-05  0.2368790E+04  0.7818609E-02  0.8451281E-01
       -2   -1    0    0    0  501  0.00000000000E+00  0.00000000000E+00  0.17877257442E+04  0.17877257442E+04  0.25500000920E-02 0. -1.
        2   -1    0    0  501    0  0.00000000000E+00  0.00000000000E+00 -0.78467958639E+03  0.78467958639E+03  0.25500000920E-02 0.  1.
    10030    2    1    2    0    0  0.00000000000E+00  0.00000000000E+00  0.10030461578E+04  0.25724053306E+04  0.23687903221E+04 0.  0.
        4    1    3    3  502    0  0.15683374134E+03  0.50655033683E+03 -0.64856691089E+03  0.83775337479E+03  0.12699999809E+01 0.  1.
       -4    1    3    3    0  502 -0.15683374134E+03 -0.50655033683E+03  0.16516130687E+04  0.17346519558E+04  0.12699999809E+01 0. -1.
</event>
<event>
 5   0  0.6600166E-05  0.2490761E+04  0.7818609E-02  0.8406284E-01
       -2   -1    0    0    0  501  0.00000000000E+00  0.00000000000E+00  0.73695370346E+03  0.73695370346E+03  0.25500000920E-02 0. -1.
        2   -1    0    0  501    0  0.00000000000E+00  0.00000000000E+00 -0.21045726430E+04  0.21045726430E+04  0.25500000920E-02 0.  1.
    10030    2    1    2    0    0  0.00000000000E+00  0.00000000000E+00 -0.13676189395E+04  0.28415263464E+04  0.24907610110E+04 0.  0.
        5    1    3    3  502    0  0.17552933348E+03 -0.20640883519E+03 -0.20705288008E+04  0.20881874339E+04  0.46999998093E+01 0.  1.
       -5    1    3    3    0  502 -0.17552933348E+03  0.20640883519E+03  0.70290986125E+03  0.75333891257E+03  0.46999998093E+01 0. -1.
</event>
<event>
 5   0  0.6337926E-05  0.2352573E+04  0.7818609E-02  0.8457476E-01
        2   -1    0    0  501    0  0.00000000000E+00  0.00000000000E+00  0.20629168917E+04  0.20629168917E+04  0.25500000920E-02 0. -1.
       -2   -1    0    0    0  501  0.00000000000E+00  0.00000000000E+00 -0.67072522758E+03  0.67072522758E+03  0.25500000920E-02 0.  1.
    10030    2    1    2    0    0  0.00000000000E+00  0.00000000000E+00  0.13921916641E+04  0.27336421192E+04  0.23525734009E+04 0.  0.
        1    1    3    3  502    0  0.18127278090E+03  0.38006838949E+03  0.19723379918E+04  0.20167867898E+04  0.50400001928E-02 0. -1.
       -1    1    3    3    0  502 -0.18127278090E+03 -0.38006838949E+03 -0.58014632768E+03  0.71685532943E+03  0.50400001928E-02 0.  1.
</event>
<event>
 5   0  0.6337926E-05  0.2416915E+04  0.7818609E-02  0.8433198E-01
       -2   -1    0    0    0  501  0.00000000000E+00  0.00000000000E+00  0.74578096769E+03  0.74578096770E+03  0.25500000920E-02 0. -1.
        2   -1    0    0  501    0  0.00000000000E+00  0.00000000000E+00 -0.19581748455E+04  0.19581748455E+04  0.25500000920E-02 0.  1.
    10030    2    1    2    0    0  0.00000000000E+00  0.00000000000E+00 -0.12123938778E+04  0.27039558132E+04  0.24169150016E+04 0.  0.
        1    1    3    3  502    0  0.50003042062E+03  0.64051730173E+03 -0.16068972235E+04  0.18006697427E+04  0.50400001928E-02 0.  1.
       -1    1    3    3    0  502 -0.50003042062E+03 -0.64051730173E+03  0.39450334570E+03  0.90328607050E+03  0.50400001928E-02 0. -1.
</event>
<event>
 5   0  0.2847158E-05  0.2368052E+04  0.7818609E-02  0.8451562E-01
        1   -1    0    0  501    0  0.00000000000E+00  0.00000000000E+00  0.13379468029E+04  0.13379468029E+04  0.50400001928E-02 0.  1.
       -1   -1    0    0    0  501  0.00000000000E+00  0.00000000000E+00 -0.10478124203E+04  0.10478124203E+04  0.50400001928E-02 0. -1.
    10030    2    1    2    0    0  0.00000000000E+00  0.00000000000E+00  0.29013438264E+03  0.23857592233E+04  0.23680517544E+04 0.  0.
        5    1    3    3  502    0  0.26598421845E+03  0.24174343722E+03 -0.99151214613E+03  0.10546591487E+04  0.46999998093E+01 0. -1.
       -5    1    3    3    0  502 -0.26598421845E+03 -0.24174343722E+03  0.12816465288E+04  0.13311000746E+04  0.46999998093E+01 0.  1.
</event>
<event>
 5   0  0.2847158E-05  0.2448527E+04  0.7818609E-02  0.8421556E-01
       -1   -1    0    0    0  501  0.00000000000E+00  0.00000000000E+00  0.25556450015E+04  0.25556450015E+04  0.50400001928E-02 0.  1.
        1   -1    0    0  501    0  0.00000000000E+00  0.00000000000E+00 -0.58647472774E+03  0.58647472776E+03  0.50400001928E-02 0. -1.
    10030    2    1    2    0    0  0.00000000000E+00  0.00000000000E+00  0.19691702737E+04  0.31421197292E+04  0.24485270727E+04 0.  0.
        5    1    3    3  502    0 -0.65604592198E+03 -0.62203541545E+03 -0.74772793146E+02  0.90715895543E+03  0.46999998093E+01 0. -1.
       -5    1    3    3    0  502  0.65604592198E+03  0.62203541545E+03  0.20439430669E+04  0.22349607738E+04  0.46999998093E+01 0.  1.
</event>
<event>
 5   0  0.6978115E-05  0.2375214E+04  0.7818609E-02  0.8448842E-01
        2   -1    0    0  501    0  0.00000000000E+00  0.00000000000E+00  0.11086726225E+04  0.11086726225E+04  0.25500000920E-02 0.  1.
       -2   -1    0    0    0  501  0.00000000000E+00  0.00000000000E+00 -0.12721609278E+04  0.12721609278E+04  0.25500000920E-02 0. -1.
    10030    2    1    2    0    0  0.00000000000E+00  0.00000000000E+00 -0.16348830532E+03  0.23808335504E+04  0.23752136680E+04 0.  0.
        4    1    3    3  502    0  0.93642599521E+03  0.26882940925E+03  0.59901331406E+03  0.11436701706E+04  0.12699999809E+01 0.  1.
       -4    1    3    3    0  502 -0.93642599521E+03 -0.26882940925E+03 -0.76250161938E+03  0.12371633798E+04  0.12699999809E+01 0. -1.
</event>
<event>
 5   0  0.2901816E-05  0.1818234E+04  0.7818609E-02  0.8696662E-01
        1   -1    0    0  501    0  0.00000000000E+00  0.00000000000E+00  0.10180019597E+04  0.10180019597E+04  0.50400001928E-02 0. -1.
       -1   -1    0    0    0  501  0.00000000000E+00  0.00000000000E+00 -0.81187874578E+03  0.81187874579E+03  0.50400001928E-02 0.  1.
    10030    2    1    2    0    0  0.00000000000E+00  0.00000000000E+00  0.20612321391E+03  0.18298807055E+04  0.18182344780E+04 0.  0.
        4    1    3    3  502    0 -0.43441603460E+03 -0.37375750669E+03  0.81333033222E+03  0.99494713786E+03  0.12699999809E+01 0. -1.
       -4    1    3    3    0  502  0.43441603460E+03  0.37375750669E+03 -0.60720711831E+03  0.83493356763E+03  0.12699999809E+01 0.  1.
</event>
<event>
 5   0  0.6978115E-05  0.2395888E+04  0.7818609E-02  0.8441045E-01
        2   -1    0    0  501    0  0.00000000000E+00  0.00000000000E+00  0.25846302569E+04  0.25846302569E+04  0.25500000920E-02 0.  1.
       -2   -1    0    0    0  501  0.00000000000E+00  0.00000000000E+00 -0.55523219837E+03  0.55523219837E+03  0.25500000920E-02 0. -1.
    10030    2    1    2    0    0  0.00000000000E+00  0.00000000000E+00  0.20293980586E+04  0.31398624553E+04  0.23958880938E+04 0.  0.
        4    1    3    3  502    0 -0.10235562373E+04 -0.51785451494E+03  0.56218442578E+03  0.12774559136E+04  0.12699999809E+01 0.  1.
       -4    1    3    3    0  502  0.10235562373E+04  0.51785451494E+03  0.14672136328E+04  0.18624065417E+04  0.12699999809E+01 0. -1.
</event>
<event>
 5   0  0.2943244E-05  0.2338257E+04  0.7818609E-02  0.8462988E-01
       -1   -1    0    0    0  501  0.00000000000E+00  0.00000000000E+00  0.48293165838E+03  0.48293165841E+03  0.50400001928E-02 0.  1.
        1   -1    0    0  501    0  0.00000000000E+00  0.00000000000E+00 -0.28303412430E+04  0.28303412430E+04  0.50400001928E-02 0. -1.
    10030    2    1    2    0    0  0.00000000000E+00  0.00000000000E+00 -0.23474095846E+04  0.33132729014E+04  0.23382569494E+04 0.  0.
        3    1    3    3  502    0  0.93343854265E+03  0.18393593398E+03 -0.21086286131E+03  0.97447580637E+03  0.10100000352E+00 0.  1.
       -3    1    3    3    0  502 -0.93343854265E+03 -0.18393593398E+03 -0.21365467233E+04  0.23387970950E+04  0.10100000352E+00 0. -1.
</event>
<event>
 5   0  0.2901816E-05  0.1656712E+04  0.7818609E-02  0.8786445E-01
       -1   -1    0    0    0  501  0.00000000000E+00  0.00000000000E+00  0.51395633035E+03  0.51395633037E+03  0.50400001928E-02 0. -1.
        1   -1    0    0  501    0  0.00000000000E+00  0.00000000000E+00 -0.13350821871E+04  0.13350821871E+04  0.50400001928E-02 0.  1.
    10030    2    1    2    0    0  0.00000000000E+00  0.00000000000E+00 -0.82112585674E+03  0.18490385175E+04  0.16567123367E+04 0.  0.
        4    1    3    3  502    0 -0.54879763543E+03 -0.57301681512E+03 -0.14493088600E+03  0.80655668721E+03  0.12699999809E+01 0. -1.
       -4    1    3    3    0  502  0.54879763543E+03  0.57301681512E+03 -0.67619497075E+03  0.10424818303E+04  0.12699999809E+01 0.  1.
</event>
<event>
 5   0  0.2915546E-05  0.1679862E+04  0.7818609E-02  0.8772934E-01
        1   -1    0    0  501    0  0.00000000000E+00  0.00000000000E+00  0.57675887956E+03  0.57675887958E+03  0.50400001928E-02 0. -1.
       -1   -1    0    0    0  501  0.00000000000E+00  0.00000000000E+00 -0.12231872679E+04  0.12231872680E+04  0.50400001928E-02 0.  1.
    10030    2    1    2    0    0  0.00000000000E+00  0.00000000000E+00 -0.64642838839E+03  0.17999461475E+04  0.16798620398E+04 0.  0.
        2    1    3    3  502    0  0.31255725704E+03 -0.61402243579E+03  0.19150952884E+03  0.71511641725E+03  0.25500000920E-02 0. -1.
       -2    1    3    3    0  502 -0.31255725704E+03  0.61402243579E+03 -0.83793791722E+03  0.10848297303E+04  0.25500000920E-02 0.  1.
</event>
<event>
 5   0  0.6337926E-05  0.2358761E+04  0.7818609E-02  0.8455106E-01
        2   -1    0    0  501    0  0.00000000000E+00  0.00000000000E+00  0.14979492159E+04  0.14979492159E+04  0.25500000920E-02 0. -1.
       -2   -1    0    0    0  501  0.00000000000E+00  0.00000000000E+00 -0.92856212819E+03  0.92856212820E+03  0.25500000920E-02 0.  1.
    10030    2    1    2    0    0  0.00000000000E+00  0.00000000000E+00  0.56938708776E+03  0.24265113441E+04  0.23587614647E+04 0.  0.
        1    1    3    3  502    0 -0.20025073196E+03 -0.99517719925E+03  0.90232212113E+03  0.13581837960E+04  0.50400001928E-02 0. -1.
       -1    1    3    3    0  502  0.20025073196E+03  0.99517719925E+03 -0.33293503337E+03  0.10683275481E+04  0.50400001928E-02 0.  1.
</event>
<event>
 5   0  0.2943123E-05  0.1659274E+04  0.7818609E-02  0.8784939E-01
       -1   -1    0    0    0  501  0.00000000000E+00  0.00000000000E+00  0.41800908151E+03  0.41800908154E+03  0.50400001928E-02 0.  1.
        1   -1    0    0  501    0  0.00000000000E+00  0.00000000000E+00 -0.16466094088E+04  0.16466094088E+04  0.50400001928E-02 0. -1.
    10030    2    1    2    0    0  0.00000000000E+00  0.00000000000E+00 -0.12286003273E+04  0.20646184903E+04  0.16592741625E+04 0.  0.
        1    1    3    3  502    0 -0.45647310979E+03  0.64478694980E+03 -0.92952524122E+03  0.12198914233E+04  0.50400001928E-02 0.  1.
       -1    1    3    3    0  502  0.45647310979E+03 -0.64478694980E+03 -0.29907508604E+03  0.84472706699E+03  0.50400001928E-02 0. -1.
</event>
<event>
 5   0  0.6337926E-05  0.2297454E+04  0.7818609E-02  0.8478926E-01
        2   -1    0    0  501    0  0.00000000000E+00  0.00000000000E+00  0.10458641550E+04  0.10458641550E+04  0.25500000920E-02 0.  1.
       -2   -1    0    0    0  501  0.00000000000E+00  0.00000000000E+00 -0.12617061885E+04  0.12617061885E+04  0.25500000920E-02 0. -1.
    10030    2    1    2    0    0  0.00000000000E+00  0.00000000000E+00 -0.21584203344E+03  0.23075703435E+04  0.22974536137E+04 0.  0.
        1    1    3    3  502    0 -0.12718278280E+03 -0.16466050077E+03  0.10267814131E+04  0.10476490878E+04  0.50400001928E-02 0.  1.
       -1    1    3    3    0  502  0.12718278280E+03  0.16466050077E+03 -0.12426234466E+04  0.12599212558E+04  0.50400001928E-02 0. -1.
</event>
<event>
 5   0  0.6703961E-05  0.1897991E+04  0.7818609E-02  0.8655857E-01
        2   -1    0    0  501    0  0.00000000000E+00  0.00000000000E+00  0.12784973422E+04  0.12784973422E+04  0.25500000920E-02 0.  1.
       -2   -1    0    0    0  501  0.00000000000E+00  0.00000000000E+00 -0.70441458733E+03  0.70441458733E+03  0.25500000920E-02 0. -1.
    10030    2    1    2    0    0  0.00000000000E+00  0.00000000000E+00  0.57408275491E+03  0.19829119296E+04  0.18979907036E+04 0.  0.
        2    1    3    3  502    0 -0.41603200673E+03 -0.62651842823E+03  0.89171567728E+03  0.11665182470E+04  0.25500000920E-02 0.  1.
       -2    1    3    3    0  502  0.41603200673E+03  0.62651842823E+03 -0.31763292237E+03  0.81639368255E+03  0.25500000920E-02 0. -1.
</event>
<event>
 5   0  0.6978115E-05  0.2562265E+04  0.7818609E-02  0.8381133E-01
       -2   -1    0    0    0  501  0.00000000000E+00  0.00000000000E+00  0.81464682272E+03  0.81464682272E+03  0.25500000920E-02 0.  1.
        2   -1    0    0  501    0  0.00000000000E+00  0.00000000000E+00 -0.20147385896E+04  0.20147385896E+04  0.25500000920E-02 0. -1.
    10030    2    1    2    0    0  0.00000000000E+00  0.00000000000E+00 -0.12000917669E+04  0.28293854124E+04  0.25622649283E+04 0.  0.
        4    1    3    3  502    0  0.24377484031E+03  0.99381074106E+03 -0.14512605250E+04  0.17757377864E+04  0.12699999809E+01 0. -1.
       -4    1    3    3    0  502 -0.24377484031E+03 -0.99381074106E+03  0.25116875804E+03  0.10536476260E+04  0.12699999809E+01 0.  1.
</event>
<event>
 5   0  0.2915546E-05  0.2431625E+04  0.7818609E-02  0.8427758E-01
        1   -1    0    0  501    0  0.00000000000E+00  0.00000000000E+00  0.17894703991E+04  0.17894703991E+04  0.50400001928E-02 0.  1.
       -1   -1    0    0    0  501  0.00000000000E+00  0.00000000000E+00 -0.82605477735E+03  0.82605477737E+03  0.50400001928E-02 0. -1.
    10030    2    1    2    0    0  0.00000000000E+00  0.00000000000E+00  0.96341562174E+03  0.26155251765E+04  0.24316254417E+04 0.  0.
        2    1    3    3  502    0  0.86759666390E+03 -0.32608493363E+03  0.13280743538E+04  0.16195174727E+04  0.25500000920E-02 0.  1.
       -2    1    3    3    0  502 -0.86759666390E+03  0.32608493363E+03 -0.36465873204E+03  0.99600770379E+03  0.25500000920E-02 0. -1.
</event>
<event>
 5   0  0.2943123E-05  0.2401748E+04  0.7818609E-02  0.8438849E-01
        1   -1    0    0  501    0  0.00000000000E+00  0.00000000000E+00  0.20658735954E+04  0.20658735954E+04  0.50400001928E-02 0. -1.
       -1   -1    0    0    0  501  0.00000000000E+00  0.00000000000E+00 -0.69805734790E+03  0.69805734791E+03  0.50400001928E-02 0.  1.
    10030    2    1    2    0    0  0.00000000000E+00  0.00000000000E+00  0.13678162475E+04  0.27639309433E+04  0.24017478994E+04 0.  0.
        1    1    3    3  502    0 -0.10224505317E+04 -0.35789625467E+03  0.87483533510E+02  0.10868064168E+04  0.50400001928E-02 0.  1.
       -1    1    3    3    0  502  0.10224505317E+04  0.35789625467E+03  0.12803327140E+04  0.16771245265E+04  0.50400001928E-02 0. -1.
</event>
<event>
 5   0  0.6978115E-05  0.2354500E+04  0.7818609E-02  0.8456737E-01
        2   -1    0    0  501    0  0.00000000000E+00  0.00000000000E+00  0.23652193355E+04  0.23652193355E+04  0.25500000920E-02 0. -1.
       -2   -1    0    0    0  501  0.00000000000E+00  0.00000000000E+00 -0.58595749344E+03  0.58595749344E+03  0.25500000920E-02 0.  1.
    10030    2    1    2    0    0  0.00000000000E+00  0.00000000000E+00  0.17792618421E+04  0.29511768289E+04  0.23545003659E+04 0.  0.
        4    1    3    3  502    0  0.57177222976E+02 -0.11633537006E+04  0.11040181164E+04  0.16048422607E+04  0.12699999809E+01 0.  1.
       -4    1    3    3    0  502 -0.57177222976E+02  0.11633537006E+04  0.67524372568E+03  0.13463345682E+04  0.12699999809E+01 0. -1.
</event>
<event>
 5   0  0.6714629E-05  0.2357176E+04  0.7818609E-02  0.8455713E-01
        2   -1    0    0  501    0  0.00000000000E+00  0.00000000000E+00  0.22713038316E+04  0.22713038316E+04  0.25500000920E-02 0.  1.
       -2   -1    0    0    0  501  0.00000000000E+00  0.00000000000E+00 -0.61157344742E+03  0.61157344743E+03  0.25500000920E-02 0. -1.
    10030    2    1    2    0    0  0.00000000000E+00  0.00000000000E+00  0.16597303842E+04  0.28828772790E+04  0.23571755255E+04 0.  0.
        3    1    3    3  502    0 -0.76962848100E+03  0.40104095151E+03  0.18051492473E+04  0.20029292695E+04  0.10100000352E+00 0.  1.
       -3    1    3    3    0  502  0.76962848100E+03 -0.40104095151E+03 -0.14541886308E+03  0.87994800953E+03  0.10100000352E+00 0. -1.
</event>
<event>
 5   0  0.2915546E-05  0.2418527E+04  0.7818609E-02  0.8432600E-01
        1   -1    0    0  501    0  0.00000000000E+00  0.00000000000E+00  0.78618886613E+03  0.78618886614E+03  0.50400001928E-02 0.  1.
       -1   -1    0    0    0  501  0.00000000000E+00  0.00000000000E+00 -0.18600083619E+04  0.18600083619E+04  0.50400001928E-02 0. -1.
    10030    2    1    2    0    0  0.00000000000E+00  0.00000000000E+00 -0.10738194958E+04  0.26461972280E+04  0.24185267127E+04 0.  0.
        2    1    3    3  502    0 -0.34249036830E+03 -0.36386729538E+03 -0.17417611042E+04  0.18120239527E+04  0.25500000920E-02 0. -1.
       -2    1    3    3    0  502  0.34249036830E+03  0.36386729538E+03  0.66794160843E+03  0.83417327535E+03  0.25500000920E-02 0.  1.
</event>
<event>
 5   0  0.2339125E-05  0.2378045E+04  0.7818609E-02  0.8447769E-01
        3   -1    0    0  501    0  0.00000000000E+00  0.00000000000E+00  0.11065711042E+04  0.11065711088E+04  0.10100000352E+00 0. -1.
       -3   -1    0    0    0  501  0.00000000000E+00  0.00000000000E+00 -0.12776178995E+04  0.12776179035E+04  0.10100000352E+00 0.  1.
    10030    2    1    2    0    0  0.00000000000E+00  0.00000000000E+00 -0.17104679523E+03  0.23841890123E+04  0.23780454664E+04 0.  0.
        5    1    3    3  502    0  0.45622070037E+03  0.41684968515E+03 -0.11039488155E+04  0.12651585137E+04  0.46999998093E+01 0.  1.
       -5    1    3    3    0  502 -0.45622070037E+03 -0.41684968515E+03  0.93290202027E+03  0.11190304986E+04  0.46999998093E+01 0. -1.
</event>
<event>
 5   0  0.2943244E-05  0.2363915E+04  0.7818609E-02  0.8453138E-01
        1   -1    0    0  501    0  0.00000000000E+00  0.00000000000E+00  0.13694551471E+04  0.13694551471E+04  0.50400001928E-02 0. -1.
       -1   -1    0    0    0  501  0.00000000000E+00  0.00000000000E+00 -0.10201312945E+04  0.10201312945E+04  0.50400001928E-02 0.  1.
    10030    2    1    2    0    0  0.00000000000E+00  0.00000000000E+00  0.34932385264E+03  0.23895864417E+04  0.23639154401E+04 0.  0.
        3    1    3    3  502    0 -0.35332459653E+03  0.10140852998E+04 -0.32447833311E+03  0.11218259511E+04  0.10100000352E+00 0.  1.
       -3    1    3    3    0  502  0.35332459653E+03 -0.10140852998E+04  0.67380218575E+03  0.12677604906E+04  0.10100000352E+00 0. -1.
</event>
<event>
 5   0  0.6703961E-05  0.2375883E+04  0.7818609E-02  0.8448588E-01
        2   -1    0    0  501    0  0.00000000000E+00  0.00000000000E+00  0.12154923400E+04  0.12154923400E+04  0.25500000920E-02 0.  1.
       -2   -1    0    0    0  501  0.00000000000E+00  0.00000000000E+00 -0.11610154615E+04  0.11610154616E+04  0.25500000920E-02 0. -1.
    10030    2    1    2    0    0  0.00000000000E+00  0.00000000000E+00  0.54476878432E+02  0.23765078015E+04  0.23758833306E+04 0.  0.
        2    1    3    3  502    0 -0.42611703809E+03  0.51558616734E+03 -0.95475305069E+03  0.11657436313E+04  0.25500000920E-02 0. -1.
       -2    1    3    3    0  502  0.42611703809E+03 -0.51558616734E+03  0.10092299291E+04  0.12107641702E+04  0.25500000920E-02 0.  1.
</event>
<event>
 5   0  0.6978115E-05  0.1991435E+04  0.7818609E-02  0.8610636E-01
       -2   -1    0    0    0  501  0.00000000000E+00  0.00000000000E+00  0.45188087886E+03  0.45188087887E+03  0.25500000920E-02 0.  1.
        2   -1    0    0  501    0  0.00000000000E+00  0.00000000000E+00 -0.21940588363E+04  0.21940588364E+04  0.25500000920E-02 0. -1.
    10030    2    1    2    0    0  0.00000000000E+00  0.00000000000E+00 -0.17421779575E+04  0.26459397152E+04  0.19914348950E+04 0.  0.
        4    1    3    3  502    0 -0.97422801256E+03  0.50471226653E+02 -0.11361027043E+04  0.14974640339E+04  0.12699999809E+01 0. -1.
       -4    1    3    3    0  502  0.97422801256E+03 -0.50471226653E+02 -0.60607525320E+03  0.11484756813E+04  0.12699999809E+01 0.  1.
</event>
<event>
 5   0  0.2943123E-05  0.2031868E+04  0.7818609E-02  0.8591865E-01
       -1   -1    0    0    0  501  0.00000000000E+00  0.00000000000E+00  0.35243281106E+03  0.35243281110E+03  0.50400001928E-02 0. -1.
        1   -1    0    0  501    0  0.00000000000E+00  0.00000000000E+00 -0.29285626951E+04  0.29285626951E+04  0.50400001928E-02 0.  1.
    10030    2    1    2    0    0  0.00000000000E+00  0.00000000000E+00 -0.25761298841E+04  0.32809955062E+04  0.20318676956E+04 0.  0.
        1    1    3    3  502    0 -0.85678062000E+03  0.33326822590E+03 -0.58981844537E+03  0.10922575428E+04  0.50400001928E-02 0. -1.
       -1    1    3    3    0  502  0.85678062000E+03 -0.33326822590E+03 -0.19863114387E+04  0.21887379635E+04  0.50400001928E-02 0.  1.
</event>
<event>
 5   0  0.2943123E-05  0.2414921E+04  0.7818609E-02  0.8433939E-01
       -1   -1    0    0    0  501  0.00000000000E+00  0.00000000000E+00  0.13735784580E+04  0.13735784580E+04  0.50400001928E-02 0. -1.
        1   -1    0    0  501    0  0.00000000000E+00  0.00000000000E+00 -0.10614322383E+04  0.10614322383E+04  0.50400001928E-02 0.  1.
    10030    2    1    2    0    0  0.00000000000E+00  0.00000000000E+00  0.31214621974E+03  0.24350106963E+04  0.24149206672E+04 0.  0.
        1    1    3    3  502    0  0.11881372369E+04  0.32161746512E+02  0.37057741773E+03  0.12450028491E+04  0.50400001928E-02 0. -1.
       -1    1    3    3    0  502 -0.11881372369E+04 -0.32161746512E+02 -0.58431197984E+02  0.11900078473E+04  0.50400001928E-02 0.  1.
</event>
<event>
 5   0  0.6714629E-05  0.2411063E+04  0.7818609E-02  0.8435373E-01
        2   -1    0    0  501    0  0.00000000000E+00  0.00000000000E+00  0.12336987267E+04  0.12336987267E+04  0.25500000920E-02 0.  1.
       -2   -1    0    0    0  501  0.00000000000E+00  0.00000000000E+00 -0.11780072936E+04  0.11780072936E+04  0.25500000920E-02 0. -1.
    10030    2    1    2    0    0  0.00000000000E+00  0.00000000000E+00  0.55691433100E+02  0.24117060204E+04  0.24110629177E+04 0.  0.
        3    1    3    3  502    0 -0.65962797719E+03  0.75731788873E+01 -0.98145249302E+03  0.11825461630E+04  0.10100000352E+00 0. -1.
       -3    1    3    3    0  502  0.65962797719E+03 -0.75731788873E+01  0.10371439261E+04  0.12291598574E+04  0.10100000352E+00 0.  1.
</event>
<event>
 5   0  0.2901816E-05  0.2448168E+04  0.7818609E-02  0.8421687E-01
        1   -1    0    0  501    0  0.00000000000E+00  0.00000000000E+00  0.13293121022E+04  0.13293121022E+04  0.50400001928E-02 0.  1.
       -1   -1    0    0    0  501  0.00000000000E+00  0.00000000000E+00 -0.11271855625E+04  0.11271855625E+04  0.50400001928E-02 0. -1.
    10030    2    1    2    0    0  0.00000000000E+00  0.00000000000E+00  0.20212653972E+03  0.24564976648E+04  0.24481678127E+04 0.  0.
        4    1    3    3  502    0  0.11670974039E+04 -0.44878138022E+02 -0.26658400212E+03  0.11979979301E+04  0.12699999809E+01 0.  1.
       -4    1    3    3    0  502 -0.11670974039E+04  0.44878138022E+02  0.46871054183E+03  0.12584997347E+04  0.12699999809E+01 0. -1.
</event>
<event>
 5   0  0.2943123E-05  0.2405902E+04  0.7818609E-02  0.8437297E-01
        1   -1    0    0  501    0  0.00000000000E+00  0.00000000000E+00  0.16131711781E+04  0.16131711781E+04  0.50400001928E-02 0. -1.
       -1   -1    0    0    0  501  0.00000000000E+00  0.00000000000E+00 -0.89704752955E+03  0.89704752957E+03  0.50400001928E-02 0.  1.
    10030    2    1    2    0    0  0.00000000000E+00  0.00000000000E+00  0.71612364852E+03  0.25102187076E+04  0.24059020928E+04 0.  0.
        1    1    3    3  502    0 -0.53649548427E+03 -0.56575661517E+03  0.13138508065E+04  0.15277800542E+04  0.50400001928E-02 0. -1.
       -1    1    3    3    0  502  0.53649548427E+03  0.56575661517E+03 -0.59772715802E+03  0.98243865341E+03  0.50400001928E-02 0.  1.
</event>
<event>
 5   0  0.2943123E-05  0.2191270E+04  0.7818609E-02  0.8522071E-01
       -1   -1    0    0    0  501  0.00000000000E+00  0.00000000000E+00  0.50832409764E+03  0.50832409767E+03  0.50400001928E-02 0. -1.
        1   -1    0    0  501    0  0.00000000000E+00  0.00000000000E+00 -0.23615163294E+04  0.23615163294E+04  0.50400001928E-02 0.  1.
    10030    2    1    2    0    0  0.00000000000E+00  0.00000000000E+00 -0.18531922317E+04  0.28698404270E+04  0.21912696386E+04 0.  0.
        1    1    3    3  502    0  0.92951730437E+03  0.29667728110E+03 -0.15793268728E+04  0.18564194567E+04  0.50400001928E-02 0.  1.
       -1    1    3    3    0  502 -0.92951730437E+03 -0.29667728110E+03 -0.27386535898E+03  0.10134209703E+04  0.50400001928E-02 0. -1.
</event>
<event>
 5   0  0.2943244E-05  0.2519780E+04  0.7818609E-02  0.8395972E-01
        1   -1    0    0  501    0  0.00000000000E+00  0.00000000000E+00  0.13321297981E+04  0.13321297981E+04  0.50400001928E-02 0. -1.
       -1   -1    0    0    0  501  0.00000000000E+00  0.00000000000E+00 -0.11915677449E+04  0.11915677449E+04  0.50400001928E-02 0.  1.
    10030    2    1    2    0    0  0.00000000000E+00  0.00000000000E+00  0.14056205320E+03  0.25236975431E+04  0.25197800694E+04 0.  0.
        3    1    3    3  502    0  0.28746188524E+03 -0.70733780523E+03  0.10740176208E+04  0.13177537578E+04  0.10100000352E+00 0. -1.
       -3    1    3    3    0  502 -0.28746188524E+03  0.70733780523E+03 -0.93345556765E+03  0.12059437852E+04  0.10100000352E+00 0.  1.
</event>
<event>
 5   0  0.6600166E-05  0.2391120E+04  0.7818609E-02  0.8442836E-01
       -2   -1    0    0    0  501  0.00000000000E+00  0.00000000000E+00  0.10280713057E+04  0.10280713057E+04  0.25500000920E-02 0.  1.
        2   -1    0    0  501    0  0.00000000000E+00  0.00000000000E+00 -0.13903349069E+04  0.13903349069E+04  0.25500000920E-02 0. -1.
    10030    2    1    2    0    0  0.00000000000E+00  0.00000000000E+00 -0.36226360115E+03  0.24184062126E+04  0.23911197570E+04 0.  0.
        5    1    3    3  502    0  0.54591792946E+03  0.21853133466E+03 -0.12339519896E+04  0.13669096285E+04  0.46999998093E+01 0. -1.
       -5    1    3    3    0  502 -0.54591792946E+03 -0.21853133466E+03  0.87168838841E+03  0.10514965841E+04  0.46999998093E+01 0.  1.
</event>
<event>
 5   0  0.2901816E-05  0.2371699E+04  0.7818609E-02  0.8450176E-01
        1   -1    0    0  501    0  0.00000000000E+00  0.00000000000E+00  0.13207910224E+04  0.13207910224E+04  0.50400001928E-02 0. -1.
       -1   -1    0    0    0  501  0.00000000000E+00  0.00000000000E+00 -0.10646941774E+04  0.10646941774E+04  0.50400001928E-02 0.  1.
    10030    2    1    2    0    0  0.00000000000E+00  0.00000000000E+00  0.25609684502E+03  0.23854851998E+04  0.23716985568E+04 0.  0.
        4    1    3    3  502    0  0.47158446405E+03 -0.29522216007E+03 -0.92526824058E+03  0.10796624289E+04  0.12699999809E+01 0.  1.
       -4    1    3    3    0  502 -0.47158446405E+03  0.29522216007E+03  0.11813650856E+04  0.13058227709E+04  0.12699999809E+01 0. -1.
</event>
<event>
 5   0  0.2943123E-05  0.2392760E+04  0.7818609E-02  0.8442219E-01
        1   -1    0    0  501    0  0.00000000000E+00  0.00000000000E+00  0.20515008526E+04  0.20515008526E+04  0.50400001928E-02 0.  1.
       -1   -1    0    0    0  501  0.00000000000E+00  0.00000000000E+00 -0.69769672263E+03  0.69769672265E+03  0.50400001928E-02 0. -1.
    10030    2    1    2    0    0  0.00000000000E+00  0.00000000000E+00  0.13538041299E+04  0.27491975752E+04  0.23927602649E+04 0.  0.
        1    1    3    3  502    0  0.99579650390E+03  0.29302979125E+03 -0.65614126568E+01  0.10380366987E+04  0.50400001928E-02 0. -1.
       -1    1    3    3    0  502 -0.99579650390E+03 -0.29302979125E+03  0.13603655426E+04  0.17111608765E+04  0.50400001928E-02 0.  1.
</event>
<event>
 5   0  0.2943123E-05  0.2384096E+04  0.7818609E-02  0.8445482E-01
        1   -1    0    0  501    0  0.00000000000E+00  0.00000000000E+00  0.62257625760E+03  0.62257625762E+03  0.50400001928E-02 0. -1.
       -1   -1    0    0    0  501  0.00000000000E+00  0.00000000000E+00 -0.22824165415E+04  0.22824165415E+04  0.50400001928E-02 0.  1.
    10030    2    1    2    0    0  0.00000000000E+00  0.00000000000E+00 -0.16598402839E+04  0.29049927991E+04  0.23840959282E+04 0.  0.
        1    1    3    3  502    0 -0.76041748963E+03 -0.83901914582E+03 -0.12838629571E+04  0.17118679792E+04  0.50400001928E-02 0.  1.
       -1    1    3    3    0  502  0.76041748963E+03  0.83901914582E+03 -0.37597732681E+03  0.11931248199E+04  0.50400001928E-02 0. -1.
</event>
<event>
 5   0  0.6600166E-05  0.1516382E+04  0.7818609E-02  0.8873632E-01
        2   -1    0    0  501    0  0.00000000000E+00  0.00000000000E+00  0.17666852695E+04  0.17666852695E+04  0.25500000920E-02 0.  1.
       -2   -1    0    0    0  501  0.00000000000E+00  0.00000000000E+00 -0.32538530522E+03  0.32538530523E+03  0.25500000920E-02 0. -1.
    10030    2    1    2    0    0  0.00000000000E+00  0.00000000000E+00  0.14412999642E+04  0.20920705747E+04  0.15163817799E+04 0.  0.
        5    1    3    3  502    0 -0.27875557673E+02  0.48644819951E+03 -0.80760010307E+02  0.49391615360E+03  0.46999998093E+01 0.  1.
       -5    1    3    3    0  502  0.27875557673E+02 -0.48644819951E+03  0.15220599745E+04  0.15981544211E+04  0.46999998093E+01 0. -1.
</event>
<event>
 5   0  0.6978115E-05  0.2370835E+04  0.7818609E-02  0.8450504E-01
       -2   -1    0    0    0  501  0.00000000000E+00  0.00000000000E+00  0.52670300694E+03  0.52670300695E+03  0.25500000920E-02 0. -1.
        2   -1    0    0  501    0  0.00000000000E+00  0.00000000000E+00 -0.26679441036E+04  0.26679441036E+04  0.25500000920E-02 0.  1.
    10030    2    1    2    0    0  0.00000000000E+00  0.00000000000E+00 -0.21412410967E+04  0.31946471106E+04  0.23708346056E+04 0.  0.
        4    1    3    3  502    0 -0.20340585567E+03  0.11469947118E+04 -0.77466042745E+03  0.13989536096E+04  0.12699999809E+01 0. -1.
       -4    1    3    3    0  502  0.20340585567E+03 -0.11469947118E+04 -0.13665806692E+04  0.17956935010E+04  0.12699999809E+01 0.  1.
</event>
<event>
 5   0  0.2847158E-05  0.2046015E+04  0.7818609E-02  0.8585404E-01
       -1   -1    0    0    0  501  0.00000000000E+00  0.00000000000E+00  0.90297370641E+03  0.90297370642E+03  0.50400001928E-02 0.  1.
        1   -1    0    0  501    0  0.00000000000E+00  0.00000000000E+00 -0.11589981315E+04  0.11589981315E+04  0.50400001928E-02 0. -1.
    10030    2    1    2    0    0  0.00000000000E+00  0.00000000000E+00 -0.25602442509E+03  0.20619718379E+04  0.20460154824E+04 0.  0.
        5    1    3    3  502    0 -0.49535284657E+03 -0.88770236902E+03 -0.24350440979E+03  0.10453259904E+04  0.46999998093E+01 0. -1.
       -5    1    3    3    0  502  0.49535284657E+03  0.88770236902E+03 -0.12520015299E+02  0.10166458476E+04  0.46999998093E+01 0.  1.
</event>
<event>
 5   0  0.6978115E-05  0.2455256E+04  0.7818609E-02  0.8419101E-01
       -2   -1    0    0    0  501  0.00000000000E+00  0.00000000000E+00  0.13832303143E+04  0.13832303143E+04  0.25500000920E-02 0.  1.
        2   -1    0    0  501    0  0.00000000000E+00  0.00000000000E+00 -0.10895296090E+04  0.10895296090E+04  0.25500000920E-02 0. -1.
    10030    2    1    2    0    0  0.00000000000E+00  0.00000000000E+00  0.29370070531E+03  0.24727599233E+04  0.24552558999E+04 0.  0.
        4    1    3    3  502    0  0.36131154403E+03  0.89771708122E+03 -0.61393346301E+03  0.11460182807E+04  0.12699999809E+01 0. -1.
       -4    1    3    3    0  502 -0.36131154403E+03 -0.89771708122E+03  0.90763416832E+03  0.13267416426E+04  0.12699999809E+01 0.  1.
</event>
<event>
 5   0  0.2943244E-05  0.2412837E+04  0.7818609E-02  0.8434713E-01
        1   -1    0    0  501    0  0.00000000000E+00  0.00000000000E+00  0.20608005918E+04  0.20608005918E+04  0.50400001928E-02 0.  1.
       -1   -1    0    0    0  501  0.00000000000E+00  0.00000000000E+00 -0.70625259211E+03  0.70625259213E+03  0.50400001928E-02 0. -1.
    10030    2    1    2    0    0  0.00000000000E+00  0.00000000000E+00  0.13545479997E+04  0.27670531839E+04  0.24128371348E+04 0.  0.
        3    1    3    3  502    0 -0.11758877154E+04 -0.21929678577E+03  0.85729952401E+03  0.14716539959E+04  0.10100000352E+00 0. -1.
       -3    1    3    3    0  502  0.11758877154E+04  0.21929678577E+03  0.49724847568E+03  0.12953991880E+04  0.10100000352E+00 0.  1.
</event>
<event>
 5   0  0.6703961E-05  0.2289993E+04  0.7818609E-02  0.8481877E-01
        2   -1    0    0  501    0  0.00000000000E+00  0.00000000000E+00  0.14374559587E+04  0.14374559587E+04  0.25500000920E-02 0.  1.
       -2   -1    0    0    0  501  0.00000000000E+00  0.00000000000E+00 -0.91203952495E+03  0.91203952495E+03  0.25500000920E-02 0. -1.
    10030    2    1    2    0    0  0.00000000000E+00  0.00000000000E+00  0.52541643377E+03  0.23494954837E+04  0.22899927072E+04 0.  0.
        2    1    3    3  502    0  0.57718944099E+03 -0.42218192706E+03 -0.65474819540E+03  0.96957744905E+03  0.25500000920E-02 0. -1.
       -2    1    3    3    0  502 -0.57718944099E+03  0.42218192706E+03  0.11801646292E+04  0.13799180346E+04  0.25500000920E-02 0.  1.
</event>
<event>
 5   0  0.6337926E-05  0.2396557E+04  0.7818609E-02  0.8440794E-01
       -2   -1    0    0    0  501  0.00000000000E+00  0.00000000000E+00  0.14252744513E+04  0.14252744513E+04  0.25500000920E-02 0. -1.
        2   -1    0    0  501    0  0.00000000000E+00  0.00000000000E+00 -0.10074348906E+04  0.10074348906E+04  0.25500000920E-02 0.  1.
    10030    2    1    2    0    0  0.00000000000E+00  0.00000000000E+00  0.41783956073E+03  0.24327093419E+04  0.23965568726E+04 0.  0.
        1    1    3    3  502    0 -0.56010788774E+03  0.97162824946E+03 -0.21945206670E+03  0.11427779796E+04  0.50400001928E-02 0.  1.
       -1    1    3    3    0  502  0.56010788774E+03 -0.97162824946E+03  0.63729162744E+03  0.12899313623E+04  0.50400001928E-02 0. -1.
</event>
<event>
 5   0  0.2901816E-05  0.2365616E+04  0.7818609E-02  0.8452490E-01
       -1   -1    0    0    0  501  0.00000000000E+00  0.00000000000E+00  0.83639838455E+03  0.83639838456E+03  0.50400001928E-02 0.  1.
        1   -1    0    0  501    0  0.00000000000E+00  0.00000000000E+00 -0.16726901626E+04  0.16726901626E+04  0.50400001928E-02 0. -1.
    10030    2    1    2    0    0  0.00000000000E+00  0.00000000000E+00 -0.83629177804E+03  0.25090885472E+04  0.23656164946E+04 0.  0.
        4    1    3    3  502    0 -0.98085622779E+03 -0.41525915421E+03  0.12735630149E+03  0.10727256617E+04  0.12699999809E+01 0.  1.
       -4    1    3    3    0  502  0.98085622779E+03  0.41525915421E+03 -0.96364807953E+03  0.14363628855E+04  0.12699999809E+01 0. -1.
</event>
<event>
 5   0  0.6337926E-05  0.2359713E+04  0.7818609E-02  0.8454742E-01
       -2   -1    0    0    0  501  0.00000000000E+00  0.00000000000E+00  0.30498263534E+04  0.30498263534E+04  0.25500000920E-02 0.  1.
        2   -1    0    0  501    0  0.00000000000E+00  0.00000000000E+00 -0.45643939670E+03  0.45643939671E+03  0.25500000920E-02 0. -1.
    10030    2    1    2    0    0  0.00000000000E+00  0.00000000000E+00  0.25933869567E+04  0.35062657501E+04  0.23597126103E+04 0.  0.
        1    1    3    3  502    0 -0.65487961724E+03  0.23269766091E+03 -0.12000849724E+03  0.70527835207E+03  0.50400001928E-02 0. -1.
       -1    1    3    3    0  502  0.65487961724E+03 -0.23269766091E+03  0.27133954539E+04  0.28009873980E+04  0.50400001928E-02 0.  1.
</event>
<event>
 5   0  0.2915546E-05  0.2330992E+04  0.7818609E-02  0.8465801E-01
       -1   -1    0    0    0  501  0.00000000000E+00  0.00000000000E+00  0.66043189990E+03  0.66043189992E+03  0.50400001928E-02 0. -1.
        1   -1    0    0  501    0  0.00000000000E+00  0.00000000000E+00 -0.20568072392E+04  0.20568072392E+04  0.50400001928E-02 0.  1.
    10030    2    1    2    0    0  0.00000000000E+00  0.00000000000E+00 -0.13963753393E+04  0.27172391391E+04  0.23309921602E+04 0.  0.
        2    1    3    3  502    0  0.54105944446E+03 -0.12112657495E+03 -0.18932236964E+04  0.19727424906E+04  0.25500000920E-02 0.  1.
       -2    1    3    3    0  502 -0.54105944446E+03  0.12112657495E+03  0.49684835715E+03  0.74449664848E+03  0.25500000920E-02 0. -1.
</event>
<event>
 5   0  0.6978115E-05  0.2490691E+04  0.7818609E-02  0.8406309E-01
        2   -1    0    0  501    0  0.00000000000E+00  0.00000000000E+00  0.11147418534E+04  0.11147418534E+04  0.25500000920E-02 0. -1.
       -2   -1    0    0    0  501  0.00000000000E+00  0.00000000000E+00 -0.13912505403E+04  0.13912505403E+04  0.25500000920E-02 0.  1.
    10030    2    1    2    0    0  0.00000000000E+00  0.00000000000E+00 -0.27650868697E+03  0.25059923937E+04  0.24906908326E+04 0.  0.
        4    1    3    3  502    0 -0.53807639107E+03 -0.41151427040E+03  0.91316002838E+03  0.11369841897E+04  0.12699999809E+01 0. -1.
       -4    1    3    3    0  502  0.53807639107E+03  0.41151427040E+03 -0.11896687154E+04  0.13690082040E+04  0.12699999809E+01 0.  1.
</event>
<event>
 5   0  0.6714629E-05  0.2393279E+04  0.7818609E-02  0.8442024E-01
        2   -1    0    0  501    0  0.00000000000E+00  0.00000000000E+00  0.99738977548E+03  0.99738977549E+03  0.25500000920E-02 0.  1.
       -2   -1    0    0    0  501  0.00000000000E+00  0.00000000000E+00 -0.14356936042E+04  0.14356936042E+04  0.25500000920E-02 0. -1.
    10030    2    1    2    0    0  0.00000000000E+00  0.00000000000E+00 -0.43830382872E+03  0.24330833797E+04  0.23932790239E+04 0.  0.
        3    1    3    3  502    0  0.10139507045E+04  0.16337637575E+03  0.40519426433E+03  0.11040698679E+04  0.10100000352E+00 0.  1.
       -3    1    3    3    0  502 -0.10139507045E+04 -0.16337637575E+03 -0.84349809305E+03  0.13290135118E+04  0.10100000352E+00 0. -1.
</event>
<event>
 5   0  0.2915546E-05  0.2374945E+04  0.7818609E-02  0.8448944E-01
        1   -1    0    0  501    0  0.00000000000E+00  0.00000000000E+00  0.13068444596E+04  0.13068444596E+04  0.50400001928E-02 0.  1.
       -1   -1    0    0    0  501  0.00000000000E+00  0.00000000000E+00 -0.10790041246E+04  0.10790041246E+04  0.50400001928E-02 0. -1.
    10030    2    1    2    0    0  0.00000000000E+00  0.00000000000E+00  0.22784033499E+03  0.23858485842E+04  0.23749446833E+04 0.  0.
        2    1    3    3  502    0  0.10129331858E+03  0.11200834991E+04 -0.26893741725E+03  0.11563627094E+04  0.25500000920E-02 0.  1.
       -2    1    3    3    0  502 -0.10129331858E+03 -0.11200834991E+04  0.49677775224E+03  0.12294858748E+04  0.25500000920E-02 0. -1.
</event>
<event>
 5   0  0.2901816E-05  0.2420887E+04  0.7818609E-02  0.8431725E-01
       -1   -1    0    0    0  501  0.00000000000E+00  0.00000000000E+00  0.56197739564E+03  0.56197739566E+03  0.50400001928E-02 0.  1.
        1   -1    0    0  501    0  0.00000000000E+00  0.00000000000E+00 -0.26071752888E+04  0.26071752888E+04  0.50400001928E-02 0. -1.
    10030    2    1    2    0    0  0.00000000000E+00  0.00000000000E+00 -0.20451978932E+04  0.31691526845E+04  0.24208870927E+04 0.  0.
        4    1    3    3  502    0  0.10498290172E+04  0.42985377819E+03 -0.46989623409E+03  0.12278922264E+04  0.12699999809E+01 0.  1.
       -4    1    3    3    0  502 -0.10498290172E+04 -0.42985377819E+03 -0.15753016591E+04  0.19412604581E+04  0.12699999809E+01 0. -1.
</event>
<event>
 5   0  0.2943244E-05  0.2402057E+04  0.7818609E-02  0.8438734E-01
        1   -1    0    0  501    0  0.00000000000E+00  0.00000000000E+00  0.72001309644E+03  0.72001309646E+03  0.50400001928E-02 0. -1.
       -1   -1    0    0    0  501  0.00000000000E+00  0.00000000000E+00 -0.20033929580E+04  0.20033929580E+04  0.50400001928E-02 0.  1.
    10030    2    1    2    0    0  0.00000000000E+00  0.00000000000E+00 -0.12833798615E+04  0.27234060545E+04  0.24020567579E+04 0.  0.
        3    1    3    3  502    0  0.13298142031E+03  0.19167463305E+03 -0.19774579844E+04  0.19911713421E+04  0.10100000352E+00 0.  1.
       -3    1    3    3    0  502 -0.13298142031E+03 -0.19167463305E+03  0.69407812290E+03  0.73223471236E+03  0.10100000352E+00 0. -1.
</event>
<event>
 5   0  0.2943244E-05  0.2121165E+04  0.7818609E-02  0.8551977E-01
        1   -1    0    0  501    0  0.00000000000E+00  0.00000000000E+00  0.15488922006E+04  0.15488922006E+04  0.50400001928E-02 0.  1.
       -1   -1    0    0    0  501  0.00000000000E+00  0.00000000000E+00 -0.72621941792E+03  0.72621941794E+03  0.50400001928E-02 0. -1.
    10030    2    1    2    0    0  0.00000000000E+00  0.00000000000E+00  0.82267278272E+03  0.22751116186E+04  0.21211653329E+04 0.  0.
        3    1    3    3  502    0 -0.83844698298E+03  0.10913371334E+03 -0.27539062984E+03  0.88923760596E+03  0.10100000352E+00 0. -1.
       -3    1    3    3    0  502  0.83844698298E+03 -0.10913371334E+03  0.10980634126E+04  0.13858740126E+04  0.10100000352E+00 0.  1.
</event>
<event>
 5   0  0.6337926E-05  0.2336923E+04  0.7818609E-02  0.8463503E-01
        2   -1    0    0  501    0  0.00000000000E+00  0.00000000000E+00  0.74441058285E+03  0.74441058285E+03  0.25500000920E-02 0. -1.
       -2   -1    0    0    0  501  0.00000000000E+00  0.00000000000E+00 -0.18340722206E+04  0.18340722206E+04  0.25500000920E-02 0.  1.
    10030    2    1    2    0    0  0.00000000000E+00  0.00000000000E+00 -0.10896616378E+04  0.25784828035E+04  0.23369234226E+04 0.  0.
        1    1    3    3  502    0  0.81626326199E+03  0.80368915789E+03 -0.29057536887E+03  0.11817935608E+04  0.50400001928E-02 0. -1.
       -1    1    3    3    0  502 -0.81626326199E+03 -0.80368915789E+03 -0.79908626893E+03  0.13966892427E+04  0.50400001928E-02 0.  1.
</event>
<event>
 5   0  0.6600166E-05  0.2420432E+04  0.7818609E-02  0.8431894E-01
        2   -1    0    0  501    0  0.00000000000E+00  0.00000000000E+00  0.62221288373E+03  0.62221288373E+03  0.25500000920E-02 0. -1.
       -2   -1    0    0    0  501  0.00000000000E+00  0.00000000000E+00 -0.23538930021E+04  0.23538930021E+04  0.25500000920E-02 0.  1.
    10030    2    1    2    0    0  0.00000000000E+00  0.00000000000E+00 -0.17316801184E+04  0.29761058858E+04  0.24204318233E+04 0.  0.
        5    1    3    3  502    0 -0.68479468076E+03  0.65805998597E+03  0.56435501353E+02  0.95141670983E+03  0.46999998093E+01 0. -1.
       -5    1    3    3    0  502  0.68479468076E+03 -0.65805998597E+03 -0.17881156197E+04  0.20246891760E+04  0.46999998093E+01 0.  1.
</event>
<event>
 5   0  0.6703961E-05  0.2406852E+04  0.7818609E-02  0.8436943E-01
       -2   -1    0    0    0  501  0.00000000000E+00  0.00000000000E+00  0.12416101732E+04  0.12416101732E+04  0.25500000920E-02 0.  1.
        2   -1    0    0  501    0  0.00000000000E+00  0.00000000000E+00 -0.11664159949E+04  0.11664159949E+04  0.25500000920E-02 0. -1.
    10030    2    1    2    0    0  0.00000000000E+00  0.00000000000E+00  0.75194178243E+02  0.24080261681E+04  0.24068518570E+04 0.  0.
        2    1    3    3  502    0  0.88723307974E+03  0.80899152189E+03  0.11877942429E+03  0.12065481225E+04  0.25500000920E-02 0.  1.
       -2    1    3    3    0  502 -0.88723307974E+03 -0.80899152189E+03 -0.43585246050E+02  0.12014780456E+04  0.25500000920E-02 0. -1.
</event>
<event>
 5   0  0.2943123E-05  0.2095377E+04  0.7818609E-02  0.8563282E-01
        1   -1    0    0  501    0  0.00000000000E+00  0.00000000000E+00  0.15927276767E+04  0.15927276768E+04  0.50400001928E-02 0.  1.
       -1   -1    0    0    0  501  0.00000000000E+00  0.00000000000E+00 -0.68916470176E+03  0.68916470178E+03  0.50400001928E-02 0. -1.
    10030    2    1    2    0    0  0.00000000000E+00  0.00000000000E+00  0.90356297498E+03  0.22818923785E+04  0.20953774785E+04 0.  0.
        1    1    3    3  502    0 -0.46139550515E+03 -0.65609813759E+03 -0.28223326386E+03  0.85029770880E+03  0.50400001928E-02 0. -1.
       -1    1    3    3    0  502  0.46139550515E+03  0.65609813759E+03  0.11857962388E+04  0.14315946697E+04  0.50400001928E-02 0.  1.
</event>
<event>
 5   0  0.6703961E-05  0.2286951E+04  0.7818609E-02  0.8483084E-01
       -2   -1    0    0    0  501  0.00000000000E+00  0.00000000000E+00  0.46552006499E+03  0.46552006500E+03  0.25500000920E-02 0.  1.
        2   -1    0    0  501    0  0.00000000000E+00  0.00000000000E+00 -0.28087646856E+04  0.28087646856E+04  0.25500000920E-02 0. -1.
    10030    2    1    2    0    0  0.00000000000E+00  0.00000000000E+00 -0.23432446206E+04  0.32742847506E+04  0.22869510874E+04 0.  0.
        2    1    3    3  502    0  0.92125517905E+03  0.64568775263E+03 -0.87851168585E+03  0.14273775117E+04  0.25500000920E-02 0.  1.
       -2    1    3    3    0  502 -0.92125517905E+03 -0.64568775263E+03 -0.14647329347E+04  0.18469072388E+04  0.25500000920E-02 0. -1.
</event>
<event>
 5   0  0.2943123E-05  0.2383149E+04  0.7818609E-02  0.8445839E-01
        1   -1    0    0  501    0  0.00000000000E+00  0.00000000000E+00  0.18315461273E+04  0.18315461273E+04  0.50400001928E-02 0. -1.
       -1   -1    0    0    0  501  0.00000000000E+00  0.00000000000E+00 -0.77521938707E+03  0.77521938709E+03  0.50400001928E-02 0.  1.
    10030    2    1    2    0    0  0.00000000000E+00  0.00000000000E+00  0.10563267403E+04  0.26067655144E+04  0.23831492326E+04 0.  0.
        1    1    3    3  502    0 -0.14690319097E+03  0.49350435363E+03  0.17035740464E+04  0.17796886318E+04  0.50400001928E-02 0. -1.
       -1    1    3    3    0  502  0.14690319097E+03 -0.49350435363E+03 -0.64724730610E+03  0.82707688267E+03  0.50400001928E-02 0.  1.
</event>
<event>
 5   0  0.2847158E-05  0.2390839E+04  0.7818609E-02  0.8442941E-01
       -1   -1    0    0    0  501  0.00000000000E+00  0.00000000000E+00  0.13230676968E+04  0.13230676968E+04  0.50400001928E-02 0. -1.
        1   -1    0    0  501    0  0.00000000000E+00  0.00000000000E+00 -0.10800868338E+04  0.10800868338E+04  0.50400001928E-02 0.  1.
    10030    2    1    2    0    0  0.00000000000E+00  0.00000000000E+00  0.24298086307E+03  0.24031545306E+04  0.23908391828E+04 0.  0.
        5    1    3    3  502    0  0.75243973953E+03  0.83687759342E+03  0.52665015462E+03  0.12425426123E+04  0.46999998093E+01 0. -1.
       -5    1    3    3    0  502 -0.75243973953E+03 -0.83687759342E+03 -0.28366929155E+03  0.11606119183E+04  0.46999998093E+01 0.  1.
</event>
<event>
 5   0  0.6978115E-05  0.1678840E+04  0.7818609E-02  0.8773526E-01
        2   -1    0    0  501    0  0.00000000000E+00  0.00000000000E+00  0.21480856191E+04  0.21480856191E+04  0.25500000920E-02 0.  1.
       -2   -1    0    0    0  501  0.00000000000E+00  0.00000000000E+00 -0.32802497117E+03  0.32802497118E+03  0.25500000920E-02 0. -1.
    10030    2    1    2    0    0  0.00000000000E+00  0.00000000000E+00  0.18200606479E+04  0.24761105902E+04  0.16788397461E+04 0.  0.
        4    1    3    3  502    0 -0.65837543935E+03  0.44021508647E+01  0.14202751857E+03  0.67353621061E+03  0.12699999809E+01 0. -1.
       -4    1    3    3    0  502  0.65837543935E+03 -0.44021508647E+01  0.16780331293E+04  0.18025743796E+04  0.12699999809E+01 0.  1.
</event>
<event>
 5   0  0.2943123E-05  0.2434937E+04  0.7818609E-02  0.8426538E-01
       -1   -1    0    0    0  501  0.00000000000E+00  0.00000000000E+00  0.88167718796E+03  0.88167718798E+03  0.50400001928E-02 0.  1.
        1   -1    0    0  501    0  0.00000000000E+00  0.00000000000E+00 -0.16811471462E+04  0.16811471462E+04  0.50400001928E-02 0. -1.
    10030    2    1    2    0    0  0.00000000000E+00  0.00000000000E+00 -0.79946995825E+03  0.25628243342E+04  0.24349366221E+04 0.  0.
        1    1    3    3  502    0 -0.56627073349E+03  0.64301479390E+03 -0.13100895456E+04  0.15653961755E+04  0.50400001928E-02 0. -1.
       -1    1    3    3    0  502  0.56627073349E+03 -0.64301479390E+03  0.51061958733E+03  0.99742815870E+03  0.50400001928E-02 0.  1.
</event>
<event>
 5   0  0.2339125E-05  0.2386627E+04  0.7818609E-02  0.8444527E-01
       -3   -1    0    0    0  501  0.00000000000E+00  0.00000000000E+00  0.11655835614E+04  0.11655835658E+04  0.10100000352E+00 0. -1.
        3   -1    0    0  501    0  0.00000000000E+00  0.00000000000E+00 -0.12217026812E+04  0.12217026854E+04  0.10100000352E+00 0.  1.
    10030    2    1    2    0    0  0.00000000000E+00  0.00000000000E+00 -0.56119119782E+02  0.23872862512E+04  0.23866265501E+04 0.  0.
        2    1    3    3  502    0  0.13802556790E+03  0.95987050267E+03  0.66754198993E+03  0.11772912756E+04  0.25500000920E-02 0. -1.
       -2    1    3    3    0  502 -0.13802556790E+03 -0.95987050267E+03 -0.72366110972E+03  0.12099949756E+04  0.25500000920E-02 0.  1.
</event>
<event>
 5   0  0.2943123E-05  0.2450487E+04  0.7818609E-02  0.8420840E-01
        1   -1    0    0  501    0  0.00000000000E+00  0.00000000000E+00  0.90547145254E+03  0.90547145255E+03  0.50400001928E-02 0. -1.
       -1   -1    0    0    0  501  0.00000000000E+00  0.00000000000E+00 -0.16579454072E+04  0.16579454072E+04  0.50400001928E-02 0.  1.
    10030    2    1    2    0    0  0.00000000000E+00  0.00000000000E+00 -0.75247395464E+03  0.25634168597E+04  0.24504874912E+04 0.  0.
        1    1    3    3  502    0  0.53601957288E+03  0.81701513903E+03  0.39701087091E+03  0.10547266715E+04  0.50400001928E-02 0. -1.
       -1    1    3    3    0  502 -0.53601957288E+03 -0.81701513903E+03 -0.11494848255E+04  0.15086901882E+04  0.50400001928E-02 0.  1.
</event>
<event>
 5   0  0.2915546E-05  0.2399509E+04  0.7818609E-02  0.8439687E-01
       -1   -1    0    0    0  501  0.00000000000E+00  0.00000000000E+00  0.74195030297E+03  0.74195030298E+03  0.50400001928E-02 0. -1.
        1   -1    0    0  501    0  0.00000000000E+00  0.00000000000E+00 -0.19400373539E+04  0.19400373539E+04  0.50400001928E-02 0.  1.
    10030    2    1    2    0    0  0.00000000000E+00  0.00000000000E+00 -0.11980870510E+04  0.26819876569E+04  0.23995093686E+04 0.  0.
        2    1    3    3  502    0  0.40203885475E+03  0.30927699100E+03  0.61620696861E+03  0.79812187419E+03  0.25500000920E-02 0. -1.
       -2    1    3    3    0  502 -0.40203885475E+03 -0.30927699100E+03 -0.18142940196E+04  0.18838657827E+04  0.25500000920E-02 0.  1.
</event>
<event>
 5   0  0.2901816E-05  0.2468939E+04  0.7818609E-02  0.8414135E-01
        1   -1    0    0  501    0  0.00000000000E+00  0.00000000000E+00  0.14902558867E+04  0.14902558867E+04  0.50400001928E-02 0. -1.
       -1   -1    0    0    0  501  0.00000000000E+00  0.00000000000E+00 -0.10225864604E+04  0.10225864605E+04  0.50400001928E-02 0.  1.
    10030    2    1    2    0    0  0.00000000000E+00  0.00000000000E+00  0.46766942623E+03  0.25128423471E+04  0.24689394422E+04 0.  0.
        4    1    3    3  502    0 -0.67686582447E+03  0.48073876363E+03 -0.69600644638E+03  0.10833668305E+04  0.12699999809E+01 0.  1.
       -4    1    3    3    0  502  0.67686582447E+03 -0.48073876363E+03  0.11636758726E+04  0.14294755166E+04  0.12699999809E+01 0. -1.
</event>
<event>
 5   0  0.2847158E-05  0.2383309E+04  0.7818609E-02  0.8445779E-01
       -1   -1    0    0    0  501  0.00000000000E+00  0.00000000000E+00  0.88570621898E+03  0.88570621900E+03  0.50400001928E-02 0.  1.
        1   -1    0    0  501    0  0.00000000000E+00  0.00000000000E+00 -0.16032858838E+04  0.16032858838E+04  0.50400001928E-02 0. -1.
    10030    2    1    2    0    0  0.00000000000E+00  0.00000000000E+00 -0.71757966484E+03  0.24889921028E+04  0.23833088580E+04 0.  0.
        5    1    3    3  502    0  0.57480934181E+03 -0.71700734659E+03  0.43347560992E+03  0.10160848926E+04  0.46999998093E+01 0.  1.
       -5    1    3    3    0  502 -0.57480934181E+03  0.71700734659E+03 -0.11510552748E+04  0.14729072103E+04  0.46999998093E+01 0. -1.
</event>
<event>
 5   0  0.6337926E-05  0.2305582E+04  0.7818609E-02  0.8475723E-01
        2   -1    0    0  501    0  0.00000000000E+00  0.00000000000E+00  0.91316380510E+03  0.91316380511E+03  0.25500000920E-02 0. -1.
       -2   -1    0    0    0  501  0.00000000000E+00  0.00000000000E+00 -0.14552996849E+04  0.14552996849E+04  0.25500000920E-02 0.  1.
    10030    2    1    2    0    0  0.00000000000E+00  0.00000000000E+00 -0.54213587982E+03  0.23684634900E+04  0.23055819203E+04 0.  0.
        1    1    3    3  502    0 -0.63203937663E+03  0.18826791694E+03  0.70024000268E+03  0.96190157685E+03  0.50400001928E-02 0. -1.
       -1    1    3    3    0  502  0.63203937663E+03 -0.18826791694E+03 -0.12423758825E+04  0.14065619132E+04  0.50400001928E-02 0.  1.
</event>
<event>
 5   0  0.2915546E-05  0.2409412E+04  0.7818609E-02  0.8435988E-01
       -1   -1    0    0    0  501  0.00000000000E+00  0.00000000000E+00  0.11568374856E+04  0.11568374856E+04  0.50400001928E-02 0. -1.
        1   -1    0    0  501    0  0.00000000000E+00  0.00000000000E+00 -0.12545551829E+04  0.12545551829E+04  0.50400001928E-02 0.  1.
    10030    2    1    2    0    0  0.00000000000E+00  0.00000000000E+00 -0.97717697335E+02  0.24113926685E+04  0.24094119310E+04 0.  0.
        2    1    3    3  502    0  0.72108301242E+03 -0.93112439143E+03  0.20504858997E+03  0.11954071555E+04  0.25500000920E-02 0. -1.
       -2    1    3    3    0  502 -0.72108301242E+03  0.93112439143E+03 -0.30276628731E+03  0.12159855130E+04  0.25500000920E-02 0.  1.
</event>
<event>
 5   0  0.6714629E-05  0.2411770E+04  0.7818609E-02  0.8435110E-01
       -2   -1    0    0    0  501  0.00000000000E+00  0.00000000000E+00  0.10255340172E+04  0.10255340172E+04  0.25500000920E-02 0.  1.
        2   -1    0    0  501    0  0.00000000000E+00  0.00000000000E+00 -0.14179525179E+04  0.14179525179E+04  0.25500000920E-02 0. -1.
    10030    2    1    2    0    0  0.00000000000E+00  0.00000000000E+00 -0.39241850067E+03  0.24434865351E+04  0.24117699242E+04 0.  0.
        3    1    3    3  502    0  0.70518466409E+03  0.93280606314E+03  0.10219068750E+03  0.11738209015E+04  0.10100000352E+00 0. -1.
       -3    1    3    3    0  502 -0.70518466409E+03 -0.93280606314E+03 -0.49460918818E+03  0.12696656336E+04  0.10100000352E+00 0.  1.
</event>
<event>
 5   0  0.2901816E-05  0.2424981E+04  0.7818609E-02  0.8430210E-01
       -1   -1    0    0    0  501  0.00000000000E+00  0.00000000000E+00  0.12986510330E+04  0.12986510330E+04  0.50400001928E-02 0. -1.
        1   -1    0    0  501    0  0.00000000000E+00  0.00000000000E+00 -0.11320466456E+04  0.11320466456E+04  0.50400001928E-02 0.  1.
    10030    2    1    2    0    0  0.00000000000E+00  0.00000000000E+00  0.16660438738E+03  0.24306976786E+04  0.24249812748E+04 0.  0.
        4    1    3    3  502    0  0.29272045369E+03 -0.10465105136E+03  0.12580268134E+04  0.12958665760E+04  0.12699999809E+01 0. -1.
       -4    1    3    3    0  502 -0.29272045369E+03  0.10465105136E+03 -0.10914224261E+04  0.11348311027E+04  0.12699999809E+01 0.  1.
</event>
<event>
 5   0  0.6337926E-05  0.2218081E+04  0.7818609E-02  0.8510940E-01
        2   -1    0    0  501    0  0.00000000000E+00  0.00000000000E+00  0.14565587342E+04  0.14565587342E+04  0.25500000920E-02 0. -1.
       -2   -1    0    0    0  501  0.00000000000E+00  0.00000000000E+00 -0.84443601216E+03  0.84443601217E+03  0.25500000920E-02 0.  1.
    10030    2    1    2    0    0  0.00000000000E+00  0.00000000000E+00  0.61212272203E+03  0.23009947464E+04  0.22180808362E+04 0.  0.
        1    1    3    3  502    0 -0.43217654773E+03  0.94017213940E+03  0.72006659553E+03  0.12606332227E+04  0.50400001928E-02 0. -1.
       -1    1    3    3    0  502  0.43217654773E+03 -0.94017213940E+03 -0.10794387349E+03  0.10403615237E+04  0.50400001928E-02 0.  1.
</event>
<event>
 5   0  0.2943244E-05  0.2414888E+04  0.7818609E-02  0.8433951E-01
        1   -1    0    0  501    0  0.00000000000E+00  0.00000000000E+00  0.13765652976E+04  0.13765652976E+04  0.50400001928E-02 0. -1.
       -1   -1    0    0    0  501  0.00000000000E+00  0.00000000000E+00 -0.10591005980E+04  0.10591005980E+04  0.50400001928E-02 0.  1.
    10030    2    1    2    0    0  0.00000000000E+00  0.00000000000E+00  0.31746469960E+03  0.24356658956E+04  0.24148880967E+04 0.  0.
        3    1    3    3  502    0  0.89307099916E+03 -0.70721685510E+03  0.56241297282E+03  0.12704486813E+04  0.10100000352E+00 0.  1.
       -3    1    3    3    0  502 -0.89307099916E+03  0.70721685510E+03 -0.24494827322E+03  0.11652172143E+04  0.10100000352E+00 0. -1.
</event>
<event>
 5   0  0.6978115E-05  0.2440733E+04  0.7818609E-02  0.8424409E-01
        2   -1    0    0  501    0  0.00000000000E+00  0.00000000000E+00  0.18078594389E+04  0.18078594389E+04  0.25500000920E-02 0. -1.
       -2   -1    0    0    0  501  0.00000000000E+00  0.00000000000E+00 -0.82378861202E+03  0.82378861203E+03  0.25500000920E-02 0.  1.
    10030    2    1    2    0    0  0.00000000000E+00  0.00000000000E+00  0.98407082689E+03  0.26316480509E+04  0.24407326916E+04 0.  0.
        4    1    3    3  502    0 -0.80021653446E+03 -0.61734848846E+03 -0.24544435943E+03  0.10400529817E+04  0.12699999809E+01 0. -1.
       -4    1    3    3    0  502  0.80021653446E+03  0.61734848846E+03  0.12295151863E+04  0.15915950693E+04  0.12699999809E+01 0.  1.
</event>
<event>
 5   0  0.2339125E-05  0.2394320E+04  0.7818609E-02  0.8441633E-01
        3   -1    0    0  501    0  0.00000000000E+00  0.00000000000E+00  0.19177533239E+04  0.19177533265E+04  0.10100000352E+00 0.  1.
       -3   -1    0    0    0  501  0.00000000000E+00  0.00000000000E+00 -0.74732882097E+03  0.74732882780E+03  0.10100000352E+00 0. -1.
    10030    2    1    2    0    0  0.00000000000E+00  0.00000000000E+00  0.11704245029E+04  0.26650821543E+04  0.23943202318E+04 0.  0.
        5    1    3    3  502    0 -0.25542075777E+03 -0.10124680842E+04  0.12369507747E+04  0.16187651757E+04  0.46999998093E+01 0.  1.
       -5    1    3    3    0  502  0.25542075777E+03  0.10124680842E+04 -0.66526271838E+02  0.10463169786E+04  0.46999998093E+01 0. -1.
</event>
<event>
 5   0  0.6978115E-05  0.2414065E+04  0.7818609E-02  0.8434257E-01
       -2   -1    0    0    0  501  0.00000000000E+00  0.00000000000E+00  0.24549549165E+04  0.24549549165E+04  0.25500000920E-02 0. -1.
        2   -1    0    0  501    0  0.00000000000E+00  0.00000000000E+00 -0.59346392498E+03  0.59346392498E+03  0.25500000920E-02 0.  1.
    10030    2    1    2    0    0  0.00000000000E+00  0.00000000000E+00  0.18614909915E+04  0.30484188414E+04  0.24140647716E+04 0.  0.
        4    1    3    3  502    0  0.15725653435E+03 -0.26975443384E+03  0.24030712309E+04  0.24232725859E+04  0.12699999809E+01 0. -1.
       -4    1    3    3    0  502 -0.15725653435E+03  0.26975443384E+03 -0.54158023939E+03  0.62514625551E+03  0.12699999809E+01 0.  1.
</event>
<event>
 5   0  0.6600166E-05  0.2454505E+04  0.7818609E-02  0.8419375E-01
       -2   -1    0    0    0  501  0.00000000000E+00  0.00000000000E+00  0.22977726608E+04  0.22977726608E+04  0.25500000920E-02 0.  1.
        2   -1    0    0  501    0  0.00000000000E+00  0.00000000000E+00 -0.65548219026E+03  0.65548219026E+03  0.25500000920E-02 0. -1.
    10030    2    1    2    0    0  0.00000000000E+00  0.00000000000E+00  0.16422904705E+04  0.29532548511E+04  0.24545052914E+04 0.  0.
        5    1    3    3  502    0  0.21615483020E+03  0.12013428381E+04  0.66810038764E+03  0.13915199399E+04  0.46999998093E+01 0. -1.
       -5    1    3    3    0  502 -0.21615483020E+03 -0.12013428381E+04  0.97419008290E+03  0.15617349112E+04  0.46999998093E+01 0.  1.
</event>
<event>
 5   0  0.6703961E-05  0.2484470E+04  0.7818609E-02  0.8408539E-01
       -2   -1    0    0    0  501  0.00000000000E+00  0.00000000000E+00  0.69720343778E+03  0.69720343778E+03  0.25500000920E-02 0. -1.
        2   -1    0    0  501    0  0.00000000000E+00  0.00000000000E+00 -0.22133401682E+04  0.22133401682E+04  0.25500000920E-02 0.  1.
    10030    2    1    2    0    0  0.00000000000E+00  0.00000000000E+00 -0.15161367304E+04  0.29105436059E+04  0.24844704661E+04 0.  0.
        2    1    3    3  502    0 -0.11408784326E+04  0.17030743275E+03 -0.21798504124E+03  0.11739359854E+04  0.25500000920E-02 0. -1.
       -2    1    3    3    0  502  0.11408784326E+04 -0.17030743275E+03 -0.12981516891E+04  0.17366076205E+04  0.25500000920E-02 0.  1.
</event>
<event>
 5   0  0.6714629E-05  0.2371378E+04  0.7818609E-02  0.8450298E-01
        2   -1    0    0  501    0  0.00000000000E+00  0.00000000000E+00  0.11306306382E+04  0.11306306382E+04  0.25500000920E-02 0.  1.
       -2   -1    0    0    0  501  0.00000000000E+00  0.00000000000E+00 -0.12434284737E+04  0.12434284737E+04  0.25500000920E-02 0. -1.
    10030    2    1    2    0    0  0.00000000000E+00  0.00000000000E+00 -0.11279783548E+03  0.23740591119E+04  0.23713779359E+04 0.  0.
        3    1    3    3  502    0  0.83559859904E+03 -0.84119729244E+03 -0.60922326559E+02  0.11872444751E+04  0.10100000352E+00 0.  1.
       -3    1    3    3    0  502 -0.83559859904E+03  0.84119729244E+03 -0.51875508919E+02  0.11868146368E+04  0.10100000352E+00 0. -1.
</event>
<event>
 5   0  0.6714629E-05  0.2411844E+04  0.7818609E-02  0.8435083E-01
       -2   -1    0    0    0  501  0.00000000000E+00  0.00000000000E+00  0.19542679037E+04  0.19542679037E+04  0.25500000920E-02 0. -1.
        2   -1    0    0  501    0  0.00000000000E+00  0.00000000000E+00 -0.74413953174E+03  0.74413953174E+03  0.25500000920E-02 0.  1.
    10030    2    1    2    0    0  0.00000000000E+00  0.00000000000E+00  0.12101283720E+04  0.26984074355E+04  0.24118441100E+04 0.  0.
        3    1    3    3  502    0  0.41632732441E+03  0.38997148608E+03 -0.58364284332E+03  0.81611591074E+03  0.10100000352E+00 0.  1.
       -3    1    3    3    0  502 -0.41632732441E+03 -0.38997148608E+03  0.17937712153E+04  0.18822915247E+04  0.10100000352E+00 0. -1.
</event>
<event>
 5   0  0.6703961E-05  0.2428888E+04  0.7818609E-02  0.8428767E-01
       -2   -1    0    0    0  501  0.00000000000E+00  0.00000000000E+00  0.22850661121E+04  0.22850661121E+04  0.25500000920E-02 0. -1.
        2   -1    0    0  501    0  0.00000000000E+00  0.00000000000E+00 -0.64544051957E+03  0.64544051957E+03  0.25500000920E-02 0.  1.
    10030    2    1    2    0    0  0.00000000000E+00  0.00000000000E+00  0.16396255925E+04  0.29305066317E+04  0.24288880243E+04 0.  0.
        2    1    3    3  502    0 -0.49139987970E+02  0.11424406015E+04  0.32633354478E+03  0.11891504736E+04  0.25500000920E-02 0.  1.
       -2    1    3    3    0  502  0.49139987970E+02 -0.11424406015E+04  0.13132920478E+04  0.17413561580E+04  0.25500000920E-02 0. -1.
</event>
<event>
 5   0  0.2339125E-05  0.2424923E+04  0.7818609E-02  0.8430231E-01
        3   -1    0    0  501    0  0.00000000000E+00  0.00000000000E+00  0.16015098052E+04  0.16015098084E+04  0.10100000352E+00 0. -1.
       -3   -1    0    0    0  501  0.00000000000E+00  0.00000000000E+00 -0.91792291972E+03  0.91792292528E+03  0.10100000352E+00 0.  1.
    10030    2    1    2    0    0  0.00000000000E+00  0.00000000000E+00  0.68358688549E+03  0.25194327337E+04  0.24249227347E+04 0.  0.
        4    1    3    3  502    0 -0.33707751568E+03  0.45473196454E+03  0.14558039777E+04  0.15619760707E+04  0.12699999809E+01 0. -1.
       -4    1    3    3    0  502  0.33707751568E+03 -0.45473196454E+03 -0.77221709217E+03  0.95745666298E+03  0.12699999809E+01 0.  1.
</event>
<event>
 5   0  0.6600166E-05  0.2373623E+04  0.7818609E-02  0.8449445E-01
        2   -1    0    0  501    0  0.00000000000E+00  0.00000000000E+00  0.10583646568E+04  0.10583646568E+04  0.25500000920E-02 0.  1.
       -2   -1    0    0    0  501  0.00000000000E+00  0.00000000000E+00 -0.13308469442E+04  0.13308469442E+04  0.25500000920E-02 0. -1.
    10030    2    1    2    0    0  0.00000000000E+00  0.00000000000E+00 -0.27248228748E+03  0.23892116010E+04  0.23736228591E+04 0.  0.
        5    1    3    3  502    0  0.29426620850E+02 -0.66788248149E+02  0.10560943153E+04  0.10586235823E+04  0.46999998093E+01 0.  1.
       -5    1    3    3    0  502 -0.29426620850E+02  0.66788248149E+02 -0.13285766028E+04  0.13305880187E+04  0.46999998093E+01 0. -1.
</event>
<event>
 5   0  0.6714629E-05  0.2417656E+04  0.7818609E-02  0.8432923E-01
       -2   -1    0    0    0  501  0.00000000000E+00  0.00000000000E+00  0.92351458711E+03  0.92351458711E+03  0.25500000920E-02 0. -1.
        2   -1    0    0  501    0  0.00000000000E+00  0.00000000000E+00 -0.15822875423E+04  0.15822875423E+04  0.25500000920E-02 0.  1.
    10030    2    1    2    0    0  0.00000000000E+00  0.00000000000E+00 -0.65877295520E+03  0.25058021294E+04  0.24176564076E+04 0.  0.
        3    1    3    3  502    0  0.92381500149E+03 -0.48974650875E+03 -0.95811649198E+03  0.14181935771E+04  0.10100000352E+00 0.  1.
       -3    1    3    3    0  502 -0.92381500149E+03  0.48974650875E+03  0.29934353678E+03  0.10876085523E+04  0.10100000352E+00 0. -1.
</event>
<event>
 5   0  0.2901816E-05  0.2319255E+04  0.7818609E-02  0.8470368E-01
       -1   -1    0    0    0  501  0.00000000000E+00  0.00000000000E+00  0.11818614878E+04  0.11818614878E+04  0.50400001928E-02 0. -1.
        1   -1    0    0  501    0  0.00000000000E+00  0.00000000000E+00 -0.11378113112E+04  0.11378113113E+04  0.50400001928E-02 0.  1.
    10030    2    1    2    0    0  0.00000000000E+00  0.00000000000E+00  0.44050176544E+02  0.23196727991E+04  0.23192545088E+04 0.  0.
        4    1    3    3  502    0 -0.37712062259E+03 -0.29925492304E+03  0.10771846859E+04  0.11798736938E+04  0.12699999809E+01 0. -1.
       -4    1    3    3    0  502  0.37712062259E+03  0.29925492304E+03 -0.10331345094E+04  0.11397991052E+04  0.12699999809E+01 0.  1.
</event>
<event>
 5   0  0.6337926E-05  0.2403890E+04  0.7818609E-02  0.8438049E-01
        2   -1    0    0  501    0  0.00000000000E+00  0.00000000000E+00  0.18730809538E+04  0.18730809538E+04  0.25500000920E-02 0.  1.
       -2   -1    0    0    0  501  0.00000000000E+00  0.00000000000E+00 -0.77128101692E+03  0.77128101692E+03  0.25500000920E-02 0. -1.
    10030    2    1    2    0    0  0.00000000000E+00  0.00000000000E+00  0.11017999369E+04  0.26443619707E+04  0.24038899998E+04 0.  0.
        1    1    3    3  502    0  0.59328662811E+03  0.29818124506E+03  0.16530064850E+04  0.17813847191E+04  0.50400001928E-02 0.  1.
       -1    1    3    3    0  502 -0.59328662811E+03 -0.29818124506E+03 -0.55120654815E+03  0.86297725158E+03  0.50400001928E-02 0. -1.
</event>
<event>
 5   0  0.6703961E-05  0.2413809E+04  0.7818609E-02  0.8434352E-01
        2   -1    0    0  501    0  0.00000000000E+00  0.00000000000E+00  0.13566901248E+04  0.13566901248E+04  0.25500000920E-02 0. -1.
       -2   -1    0    0    0  501  0.00000000000E+00  0.00000000000E+00 -0.10736562829E+04  0.10736562829E+04  0.25500000920E-02 0.  1.
    10030    2    1    2    0    0  0.00000000000E+00  0.00000000000E+00  0.28303384190E+03  0.24303464076E+04  0.24138093349E+04 0.  0.
        2    1    3    3  502    0  0.64050542538E+03  0.58009024178E+03 -0.70679136155E+03  0.11163807224E+04  0.25500000920E-02 0.  1.
       -2    1    3    3    0  502 -0.64050542538E+03 -0.58009024178E+03  0.98982520345E+03  0.13139656852E+04  0.25500000920E-02 0. -1.
</event>
<event>
 5   0  0.2915546E-05  0.2347830E+04  0.7818609E-02  0.8459298E-01
       -1   -1    0    0    0  501  0.00000000000E+00  0.00000000000E+00  0.10368754892E+04  0.10368754892E+04  0.50400001928E-02 0.  1.
        1   -1    0    0  501    0  0.00000000000E+00  0.00000000000E+00 -0.13290664738E+04  0.13290664738E+04  0.50400001928E-02 0. -1.
    10030    2    1    2    0    0  0.00000000000E+00  0.00000000000E+00 -0.29219098459E+03  0.23659419630E+04  0.23478300196E+04 0.  0.
        2    1    3    3  502    0  0.87234543233E+03 -0.55049170261E+03  0.41862817958E+03  0.11132282878E+04  0.25500000920E-02 0.  1.
       -2    1    3    3    0  502 -0.87234543233E+03  0.55049170261E+03 -0.71081916417E+03  0.12527136752E+04  0.25500000920E-02 0. -1.
</event>
<event>
 5   0  0.6600166E-05  0.1901471E+04  0.7818609E-02  0.8654125E-01
        2   -1    0    0  501    0  0.00000000000E+00  0.00000000000E+00  0.73287891021E+03  0.73287891022E+03  0.25500000920E-02 0.  1.
       -2   -1    0    0    0  501  0.00000000000E+00  0.00000000000E+00 -0.12333521549E+04  0.12333521549E+04  0.25500000920E-02 0. -1.
    10030    2    1    2    0    0  0.00000000000E+00  0.00000000000E+00 -0.50047324473E+03  0.19662310652E+04  0.19014707815E+04 0.  0.
        5    1    3    3  502    0  0.30380320772E+03  0.66188124446E+03 -0.88219118356E+03  0.11439696435E+04  0.46999998093E+01 0. -1.
       -5    1    3    3    0  502 -0.30380320772E+03 -0.66188124446E+03  0.38171793883E+03  0.82226142170E+03  0.46999998093E+01 0.  1.
</event>
<event>
 5   0  0.2943244E-05  0.2373639E+04  0.7818609E-02  0.8449439E-01
        1   -1    0    0  501    0  0.00000000000E+00  0.00000000000E+00  0.17572021102E+04  0.17572021102E+04  0.50400001928E-02 0.  1.
       -1   -1    0    0    0  501  0.00000000000E+00  0.00000000000E+00 -0.80158115827E+03  0.80158115829E+03  0.50400001928E-02 0. -1.
    10030    2    1    2    0    0  0.00000000000E+00  0.00000000000E+00  0.95562095190E+03  0.25587832685E+04  0.23736386438E+04 0.  0.
        3    1    3    3  502    0  0.97130845246E+03 -0.61480503803E+03  0.15963643716E+03  0.11605641503E+04  0.10100000352E+00 0. -1.
       -3    1    3    3    0  502 -0.97130845246E+03  0.61480503803E+03  0.79598451473E+03  0.13982191182E+04  0.10100000352E+00 0.  1.
</event>
<event>
 5   0  0.2943244E-05  0.2491292E+04  0.7818609E-02  0.8406095E-01
        1   -1    0    0  501    0  0.00000000000E+00  0.00000000000E+00  0.13808725843E+04  0.13808725844E+04  0.50400001928E-02 0. -1.
       -1   -1    0    0    0  501  0.00000000000E+00  0.00000000000E+00 -0.11236615353E+04  0.11236615353E+04  0.50400001928E-02 0.  1.
    10030    2    1    2    0    0  0.00000000000E+00  0.00000000000E+00  0.25721104906E+03  0.25045341196E+04  0.24912915592E+04 0.  0.
        3    1    3    3  502    0  0.50954995918E+03 -0.11308992559E+04  0.13721620079E+02  0.12404686941E+04  0.10100000352E+00 0.  1.
       -3    1    3    3    0  502 -0.50954995918E+03  0.11308992559E+04  0.24348942898E+03  0.12640654256E+04  0.10100000352E+00 0. -1.
</event>
<event>
 5   0  0.2901816E-05  0.2053862E+04  0.7818609E-02  0.8581844E-01
        1   -1    0    0  501    0  0.00000000000E+00  0.00000000000E+00  0.21153304895E+04  0.21153304895E+04  0.50400001928E-02 0. -1.
       -1   -1    0    0    0  501  0.00000000000E+00  0.00000000000E+00 -0.49854489295E+03  0.49854489298E+03  0.50400001928E-02 0.  1.
    10030    2    1    2    0    0  0.00000000000E+00  0.00000000000E+00  0.16167855965E+04  0.26138753825E+04  0.20538619355E+04 0.  0.
        4    1    3    3  502    0 -0.55829975824E+03 -0.59716899859E+03  0.17418104728E+02  0.81768847136E+03  0.12699999809E+01 0.  1.
       -4    1    3    3    0  502  0.55829975824E+03  0.59716899859E+03  0.15993674918E+04  0.17961869111E+04  0.12699999809E+01 0. -1.
</event>
<event>
 5   0  0.6978115E-05  0.2401548E+04  0.7818609E-02  0.8438924E-01
        2   -1    0    0  501    0  0.00000000000E+00  0.00000000000E+00  0.14992481626E+04  0.14992481626E+04  0.25500000920E-02 0.  1.
       -2   -1    0    0    0  501  0.00000000000E+00  0.00000000000E+00 -0.96172090552E+03  0.96172090552E+03  0.25500000920E-02 0. -1.
    10030    2    1    2    0    0  0.00000000000E+00  0.00000000000E+00  0.53752725712E+03  0.24609690682E+04  0.24015480845E+04 0.  0.
        4    1    3    3  502    0  0.28823317082E+03 -0.33442760682E+03  0.14130560925E+04  0.14804220069E+04  0.12699999809E+01 0.  1.
       -4    1    3    3    0  502 -0.28823317082E+03  0.33442760682E+03 -0.87552883537E+03  0.98054706130E+03  0.12699999809E+01 0. -1.
</event>
<event>
 5   0  0.6703961E-05  0.2435705E+04  0.7818609E-02  0.8426256E-01
        2   -1    0    0  501    0  0.00000000000E+00  0.00000000000E+00  0.11832781087E+04  0.11832781087E+04  0.25500000920E-02 0. -1.
       -2   -1    0    0    0  501  0.00000000000E+00  0.00000000000E+00 -0.12534366543E+04  0.12534366543E+04  0.25500000920E-02 0.  1.
    10030    2    1    2    0    0  0.00000000000E+00  0.00000000000E+00 -0.70158545624E+02  0.24367147631E+04  0.24357045418E+04 0.  0.
        2    1    3    3  502    0 -0.12046380445E+04 -0.58635819838E+02  0.13402685593E+03  0.12134884325E+04  0.25500000920E-02 0. -1.
       -2    1    3    3    0  502  0.12046380445E+04  0.58635819838E+02 -0.20418540156E+03  0.12232263306E+04  0.25500000920E-02 0.  1.
</event>
<event>
 5   0  0.6978115E-05  0.2482549E+04  0.7818609E-02  0.8409229E-01
        2   -1    0    0  501    0  0.00000000000E+00  0.00000000000E+00  0.14748069909E+04  0.14748069909E+04  0.25500000920E-02 0. -1.
       -2   -1    0    0    0  501  0.00000000000E+00  0.00000000000E+00 -0.10447213623E+04  0.10447213623E+04  0.25500000920E-02 0.  1.
    10030    2    1    2    0    0  0.00000000000E+00  0.00000000000E+00  0.43008562862E+03  0.25195283532E+04  0.24825489873E+04 0.  0.
        4    1    3    3  502    0 -0.94912381272E+02  0.54631254868E+03  0.13421232402E+04  0.14521577620E+04  0.12699999809E+01 0. -1.
       -4    1    3    3    0  502  0.94912381272E+02 -0.54631254868E+03 -0.91203761160E+03  0.10673705911E+04  0.12699999809E+01 0.  1.
</event>
<event>
 5   0  0.6337926E-05  0.2468339E+04  0.7818609E-02  0.8414353E-01
       -2   -1    0    0    0  501  0.00000000000E+00  0.00000000000E+00  0.68384928828E+03  0.68384928828E+03  0.25500000920E-02 0.  1.
        2   -1    0    0  501    0  0.00000000000E+00  0.00000000000E+00 -0.22273536051E+04  0.22273536051E+04  0.25500000920E-02 0. -1.
    10030    2    1    2    0    0  0.00000000000E+00  0.00000000000E+00 -0.15435043168E+04  0.29112028934E+04  0.24683388565E+04 0.  0.
        1    1    3    3  502    0 -0.48608232987E+03 -0.11226829763E+04 -0.96367892570E+03  0.15573599997E+04  0.50400001928E-02 0. -1.
       -1    1    3    3    0  502  0.48608232987E+03  0.11226829763E+04 -0.57982539113E+03  0.13538428937E+04  0.50400001928E-02 0.  1.
</event>
<event>
 5   0  0.6714629E-05  0.2331195E+04  0.7818609E-02  0.8465722E-01
        2   -1    0    0  501    0  0.00000000000E+00  0.00000000000E+00  0.89514074988E+03  0.89514074989E+03  0.25500000920E-02 0.  1.
       -2   -1    0    0    0  501  0.00000000000E+00  0.00000000000E+00 -0.15177697859E+04  0.15177697859E+04  0.25500000920E-02 0. -1.
    10030    2    1    2    0    0  0.00000000000E+00  0.00000000000E+00 -0.62262903602E+03  0.24129105358E+04  0.23311950449E+04 0.  0.
        3    1    3    3  502    0 -0.62452998078E+03  0.93765603674E+03 -0.62076081897E+03  0.12863049968E+04  0.10100000352E+00 0. -1.
       -3    1    3    3    0  502  0.62452998078E+03 -0.93765603674E+03 -0.18682170441E+01  0.11266055390E+04  0.10100000352E+00 0.  1.
</event>
<event>
 5   0  0.2943123E-05  0.1842172E+04  0.7818609E-02  0.8684189E-01
        1   -1    0    0  501    0  0.00000000000E+00  0.00000000000E+00  0.73336371500E+03  0.73336371502E+03  0.50400001928E-02 0. -1.
       -1   -1    0    0    0  501  0.00000000000E+00  0.00000000000E+00 -0.11568608767E+04  0.11568608767E+04  0.50400001928E-02 0.  1.
    10030    2    1    2    0    0  0.00000000000E+00  0.00000000000E+00 -0.42349716165E+03  0.18902245917E+04  0.18421724026E+04 0.  0.
        1    1    3    3  502    0 -0.49374955300E+03 -0.33588225068E+03  0.50782444516E+03  0.78389487467E+03  0.50400001928E-02 0. -1.
       -1    1    3    3    0  502  0.49374955300E+03  0.33588225068E+03 -0.93132160681E+03  0.11063297170E+04  0.50400001928E-02 0.  1.
</event>
<event>
 5   0  0.6703961E-05  0.2419181E+04  0.7818609E-02  0.8432357E-01
        2   -1    0    0  501    0  0.00000000000E+00  0.00000000000E+00  0.28798988886E+04  0.28798988886E+04  0.25500000920E-02 0.  1.
       -2   -1    0    0    0  501  0.00000000000E+00  0.00000000000E+00 -0.50804179077E+03  0.50804179077E+03  0.25500000920E-02 0. -1.
    10030    2    1    2    0    0  0.00000000000E+00  0.00000000000E+00  0.23718570979E+04  0.33879406794E+04  0.24191808437E+04 0.  0.
        2    1    3    3  502    0 -0.87984652554E+03 -0.31744131644E+03  0.11185580002E+03  0.94202474378E+03  0.25500000920E-02 0. -1.
       -2    1    3    3    0  502  0.87984652554E+03  0.31744131644E+03  0.22600012979E+04  0.24459159356E+04  0.25500000920E-02 0.  1.
</event>
<event>
 5   0  0.2915546E-05  0.2435539E+04  0.7818609E-02  0.8426317E-01
        1   -1    0    0  501    0  0.00000000000E+00  0.00000000000E+00  0.11200011273E+04  0.11200011273E+04  0.50400001928E-02 0.  1.
       -1   -1    0    0    0  501  0.00000000000E+00  0.00000000000E+00 -0.13240727824E+04  0.13240727824E+04  0.50400001928E-02 0. -1.
    10030    2    1    2    0    0  0.00000000000E+00  0.00000000000E+00 -0.20407165514E+03  0.24440739097E+04  0.24355393726E+04 0.  0.
        2    1    3    3  502    0  0.53958166879E+03  0.10772802424E+04  0.75450873383E+02  0.12072174338E+04  0.25500000920E-02 0. -1.
       -2    1    3    3    0  502 -0.53958166879E+03 -0.10772802424E+04 -0.27952252852E+03  0.12368564759E+04  0.25500000920E-02 0.  1.
</event>
<event>
 5   0  0.6703961E-05  0.2395615E+04  0.7818609E-02  0.8441147E-01
       -2   -1    0    0    0  501  0.00000000000E+00  0.00000000000E+00  0.15839889303E+04  0.15839889303E+04  0.25500000920E-02 0. -1.
        2   -1    0    0  501    0  0.00000000000E+00  0.00000000000E+00 -0.90577801945E+03  0.90577801946E+03  0.25500000920E-02 0.  1.
    10030    2    1    2    0    0  0.00000000000E+00  0.00000000000E+00  0.67821091087E+03  0.24897669498E+04  0.23956146236E+04 0.  0.
        2    1    3    3  502    0 -0.11625781283E+04  0.74620923292E+02  0.62859567628E+03  0.13237404243E+04  0.25500000920E-02 0. -1.
       -2    1    3    3    0  502  0.11625781283E+04 -0.74620923292E+02  0.49615234590E+02  0.11660265255E+04  0.25500000920E-02 0.  1.
</event>
<event>
 5   0  0.6978115E-05  0.2547394E+04  0.7818609E-02  0.8386293E-01
       -2   -1    0    0    0  501  0.00000000000E+00  0.00000000000E+00  0.73784224480E+03  0.73784224480E+03  0.25500000920E-02 0. -1.
        2   -1    0    0  501    0  0.00000000000E+00  0.00000000000E+00 -0.21987138618E+04  0.21987138618E+04  0.25500000920E-02 0.  1.
    10030    2    1    2    0    0  0.00000000000E+00  0.00000000000E+00 -0.14608716170E+04  0.29365561066E+04  0.25473939400E+04 0.  0.
        4    1    3    3  502    0  0.95291606055E+03 -0.57431989868E+03 -0.14451617192E+04  0.18238383624E+04  0.12699999809E+01 0.  1.
       -4    1    3    3    0  502 -0.95291606055E+03  0.57431989868E+03 -0.15709897761E+02  0.11127177442E+04  0.12699999809E+01 0. -1.
</event>
<event>
 5   0  0.2943123E-05  0.2356329E+04  0.7818609E-02  0.8456037E-01
       -1   -1    0    0    0  501  0.00000000000E+00  0.00000000000E+00  0.54068428201E+03  0.54068428203E+03  0.50400001928E-02 0. -1.
        1   -1    0    0  501    0  0.00000000000E+00  0.00000000000E+00 -0.25672504852E+04  0.25672504852E+04  0.50400001928E-02 0.  1.
    10030    2    1    2    0    0  0.00000000000E+00  0.00000000000E+00 -0.20265662032E+04  0.31079347672E+04  0.23563293364E+04 0.  0.
        1    1    3    3  502    0  0.71051265347E+03  0.40865536455E+02 -0.22516953326E+04  0.23614889569E+04  0.50400001928E-02 0.  1.
       -1    1    3    3    0  502 -0.71051265347E+03 -0.40865536455E+02  0.22512912940E+03  0.74644581032E+03  0.50400001928E-02 0. -1.
</event>
<event>
 5   0  0.2943244E-05  0.2381634E+04  0.7818609E-02  0.8446412E-01
       -1   -1    0    0    0  501  0.00000000000E+00  0.00000000000E+00  0.93324778119E+03  0.93324778121E+03  0.50400001928E-02 0.  1.
        1   -1    0    0  501    0  0.00000000000E+00  0.00000000000E+00 -0.15194735018E+04  0.15194735018E+04  0.50400001928E-02 0. -1.
    10030    2    1    2    0    0  0.00000000000E+00  0.00000000000E+00 -0.58622572064E+03  0.24527212831E+04  0.23816341232E+04 0.  0.
        3    1    3    3  502    0  0.97126161202E+03 -0.63948935379E+03 -0.55718307614E+03  0.12894761507E+04  0.10100000352E+00 0. -1.
       -3    1    3    3    0  502 -0.97126161202E+03  0.63948935379E+03 -0.29042644503E+02  0.11632451324E+04  0.10100000352E+00 0.  1.
</event>
<event>
 5   0  0.6714629E-05  0.2255568E+04  0.7818609E-02  0.8495649E-01
        2   -1    0    0  501    0  0.00000000000E+00  0.00000000000E+00  0.12710954362E+04  0.12710954362E+04  0.25500000920E-02 0. -1.
       -2   -1    0    0    0  501  0.00000000000E+00  0.00000000000E+00 -0.10006305026E+04  0.10006305026E+04  0.25500000920E-02 0.  1.
    10030    2    1    2    0    0  0.00000000000E+00  0.00000000000E+00  0.27046493358E+03  0.22717259387E+04  0.22555681015E+04 0.  0.
        3    1    3    3  502    0  0.89545939966E+03  0.21476243444E+03 -0.52052800132E+03  0.10577900784E+04  0.10100000352E+00 0.  1.
       -3    1    3    3    0  502 -0.89545939966E+03 -0.21476243444E+03  0.79099293489E+03  0.12139358603E+04  0.10100000352E+00 0. -1.
</event>
<event>
 5   0  0.2847158E-05  0.2490710E+04  0.7818609E-02  0.8406303E-01
       -1   -1    0    0    0  501  0.00000000000E+00  0.00000000000E+00  0.13879842958E+04  0.13879842958E+04  0.50400001928E-02 0.  1.
        1   -1    0    0  501    0  0.00000000000E+00  0.00000000000E+00 -0.11173822460E+04  0.11173822461E+04  0.50400001928E-02 0. -1.
    10030    2    1    2    0    0  0.00000000000E+00  0.00000000000E+00  0.27060204980E+03  0.25053665419E+04  0.24907099470E+04 0.  0.
        5    1    3    3  502    0  0.30423575974E+03 -0.27634433876E+03  0.13177871767E+04  0.13804023776E+04  0.46999998093E+01 0.  1.
       -5    1    3    3    0  502 -0.30423575974E+03  0.27634433876E+03 -0.10471851269E+04  0.11249641643E+04  0.46999998093E+01 0. -1.
</event>
<event>
 5   0  0.2901816E-05  0.2431259E+04  0.7818609E-02  0.8427892E-01
       -1   -1    0    0    0  501  0.00000000000E+00  0.00000000000E+00  0.19974938490E+04  0.19974938490E+04  0.50400001928E-02 0. -1.
        1   -1    0    0  501    0  0.00000000000E+00  0.00000000000E+00 -0.73980474684E+03  0.73980474686E+03  0.50400001928E-02 0.  1.
    10030    2    1    2    0    0  0.00000000000E+00  0.00000000000E+00  0.12576891022E+04  0.27372985959E+04  0.24312592880E+04 0.  0.
        4    1    3    3  502    0  0.11577030174E+04 -0.12870317873E+03  0.23734843696E+03  0.11887710790E+04  0.12699999809E+01 0. -1.
       -4    1    3    3    0  502 -0.11577030174E+04  0.12870317873E+03  0.10203406652E+04  0.15485275169E+04  0.12699999809E+01 0.  1.
</event>
<event>
 5   0  0.6978115E-05  0.2373749E+04  0.7818609E-02  0.8449397E-01
       -2   -1    0    0    0  501  0.00000000000E+00  0.00000000000E+00  0.82541645292E+03  0.82541645293E+03  0.25500000920E-02 0.  1.
        2   -1    0    0  501    0  0.00000000000E+00  0.00000000000E+00 -0.17066191026E+04  0.17066191026E+04  0.25500000920E-02 0. -1.
    10030    2    1    2    0    0  0.00000000000E+00  0.00000000000E+00 -0.88120264971E+03  0.25320355556E+04  0.23737493433E+04 0.  0.
        4    1    3    3  502    0 -0.10844823244E+04 -0.41745235136E+03 -0.69815917442E+03  0.13556534304E+04  0.12699999809E+01 0. -1.
       -4    1    3    3    0  502  0.10844823244E+04  0.41745235136E+03 -0.18304347529E+03  0.11763821252E+04  0.12699999809E+01 0.  1.
</event>
<event>
 5   0  0.6337926E-05  0.1968474E+04  0.7818609E-02  0.8621504E-01
        2   -1    0    0  501    0  0.00000000000E+00  0.00000000000E+00  0.63644891093E+03  0.63644891094E+03  0.25500000920E-02 0.  1.
       -2   -1    0    0    0  501  0.00000000000E+00  0.00000000000E+00 -0.15220740040E+04  0.15220740040E+04  0.25500000920E-02 0. -1.
    10030    2    1    2    0    0  0.00000000000E+00  0.00000000000E+00 -0.88562509304E+03  0.21585229149E+04  0.19684738679E+04 0.  0.
        1    1    3    3  502    0  0.65852174360E+03  0.71985778687E+03 -0.58526325889E+03  0.11377078721E+04  0.50400001928E-02 0. -1.
       -1    1    3    3    0  502 -0.65852174360E+03 -0.71985778687E+03 -0.30036183415E+03  0.10208150428E+04  0.50400001928E-02 0.  1.
</event>
<event>
 5   0  0.2915546E-05  0.2275655E+04  0.7818609E-02  0.8487582E-01
       -1   -1    0    0    0  501  0.00000000000E+00  0.00000000000E+00  0.10563361575E+04  0.10563361575E+04  0.50400001928E-02 0.  1.
        1   -1    0    0  501    0  0.00000000000E+00  0.00000000000E+00 -0.12256052904E+04  0.12256052904E+04  0.50400001928E-02 0. -1.
    10030    2    1    2    0    0  0.00000000000E+00  0.00000000000E+00 -0.16926913295E+03  0.22819414479E+04  0.22756547920E+04 0.  0.
        2    1    3    3  502    0 -0.42361323746E+03 -0.37553304641E+03  0.90509663119E+03  0.10675547554E+04  0.25500000920E-02 0.  1.
       -2    1    3    3    0  502  0.42361323746E+03  0.37553304641E+03 -0.10743657641E+04  0.12143866926E+04  0.25500000920E-02 0. -1.
</event>
<event>
 5   0  0.6703961E-05  0.2426733E+04  0.7818609E-02  0.8429563E-01
        2   -1    0    0  501    0  0.00000000000E+00  0.00000000000E+00  0.86460861005E+03  0.86460861005E+03  0.25500000920E-02 0. -1.
       -2   -1    0    0    0  501  0.00000000000E+00  0.00000000000E+00 -0.17028028395E+04  0.17028028395E+04  0.25500000920E-02 0.  1.
    10030    2    1    2    0    0  0.00000000000E+00  0.00000000000E+00 -0.83819422941E+03  0.25674114495E+04  0.24267327799E+04 0.  0.
        2    1    3    3  502    0  0.10621123638E+02  0.12131375290E+04 -0.39684138566E+03  0.12764397980E+04  0.25500000920E-02 0. -1.
       -2    1    3    3    0  502 -0.10621123638E+02 -0.12131375290E+04 -0.44135284375E+03  0.12909716516E+04  0.25500000920E-02 0.  1.
</event>
<event>
 5   0  0.6337926E-05  0.2395144E+04  0.7818609E-02  0.8441324E-01
       -2   -1    0    0    0  501  0.00000000000E+00  0.00000000000E+00  0.13426168507E+04  0.13426168507E+04  0.25500000920E-02 0.  1.
        2   -1    0    0  501    0  0.00000000000E+00  0.00000000000E+00 -0.10681962343E+04  0.10681962343E+04  0.25500000920E-02 0. -1.
    10030    2    1    2    0    0  0.00000000000E+00  0.00000000000E+00  0.27442061642E+03  0.24108130851E+04  0.23951436400E+04 0.  0.
        1    1    3    3  502    0  0.84222671677E+03  0.19824167637E+03  0.97059602159E+03  0.13002700650E+04  0.50400001928E-02 0.  1.
       -1    1    3    3    0  502 -0.84222671677E+03 -0.19824167637E+03 -0.69617540517E+03  0.11105430201E+04  0.50400001928E-02 0. -1.
</event>
<event>
 5   0  0.6714629E-05  0.2400584E+04  0.7818609E-02  0.8439285E-01
       -2   -1    0    0    0  501  0.00000000000E+00  0.00000000000E+00  0.89491042581E+03  0.89491042582E+03  0.25500000920E-02 0.  1.
        2   -1    0    0  501    0  0.00000000000E+00  0.00000000000E+00 -0.16098830826E+04  0.16098830826E+04  0.25500000920E-02 0. -1.
    10030    2    1    2    0    0  0.00000000000E+00  0.00000000000E+00 -0.71497265681E+03  0.25047935084E+04  0.24005842247E+04 0.  0.
        3    1    3    3  502    0 -0.42859058049E+03 -0.97729207780E+03  0.21583061385E+03  0.10887481596E+04  0.10100000352E+00 0.  1.
       -3    1    3    3    0  502  0.42859058049E+03  0.97729207780E+03 -0.93080327065E+03  0.14160453488E+04  0.10100000352E+00 0. -1.
</event>
<event>
 5   0  0.6703961E-05  0.2262001E+04  0.7818609E-02  0.8493056E-01
        2   -1    0    0  501    0  0.00000000000E+00  0.00000000000E+00  0.82047681343E+03  0.82047681343E+03  0.25500000920E-02 0. -1.
       -2   -1    0    0    0  501  0.00000000000E+00  0.00000000000E+00 -0.15590472483E+04  0.15590472483E+04  0.25500000920E-02 0.  1.
    10030    2    1    2    0    0  0.00000000000E+00  0.00000000000E+00 -0.73857043490E+03  0.23795240618E+04  0.22620009888E+04 0.  0.
        2    1    3    3  502    0 -0.27436012772E+03  0.99774230091E+03  0.11094011150E+03  0.10407069170E+04  0.25500000920E-02 0. -1.
       -2    1    3    3    0  502  0.27436012772E+03 -0.99774230091E+03 -0.84951054640E+03  0.13388171448E+04  0.25500000920E-02 0.  1.
</event>
<event>
 5   0  0.2847158E-05  0.2390742E+04  0.7818609E-02  0.8442978E-01
        1   -1    0    0  501    0  0.00000000000E+00  0.00000000000E+00  0.10047469218E+04  0.10047469218E+04  0.50400001928E-02 0.  1.
       -1   -1    0    0    0  501  0.00000000000E+00  0.00000000000E+00 -0.14221608003E+04  0.14221608003E+04  0.50400001928E-02 0. -1.
    10030    2    1    2    0    0  0.00000000000E+00  0.00000000000E+00 -0.41741387853E+03  0.24269077221E+04  0.23907418818E+04 0.  0.
        5    1    3    3  502    0  0.84820857150E+03 -0.57685729157E+03 -0.83172356671E+03  0.13206090629E+04  0.46999998093E+01 0. -1.
       -5    1    3    3    0  502 -0.84820857150E+03  0.57685729157E+03  0.41430968818E+03  0.11062986592E+04  0.46999998093E+01 0.  1.
</event>
<event>
 5   0  0.6978115E-05  0.2346428E+04  0.7818609E-02  0.8459837E-01
        2   -1    0    0  501    0  0.00000000000E+00  0.00000000000E+00  0.12050276185E+04  0.12050276185E+04  0.25500000920E-02 0.  1.
       -2   -1    0    0    0  501  0.00000000000E+00  0.00000000000E+00 -0.11422407057E+04  0.11422407057E+04  0.25500000920E-02 0. -1.
    10030    2    1    2    0    0  0.00000000000E+00  0.00000000000E+00  0.62786912804E+02  0.23472683243E+04  0.23464284327E+04 0.  0.
        4    1    3    3  502    0  0.70272251886E+03  0.15277795544E+03 -0.89590649220E+03  0.11488298820E+04  0.12699999809E+01 0. -1.
       -4    1    3    3    0  502 -0.70272251886E+03 -0.15277795544E+03  0.95869340501E+03  0.11984384423E+04  0.12699999809E+01 0.  1.
</event>
<event>
 5   0  0.2943244E-05  0.2384921E+04  0.7818609E-02  0.8445171E-01
       -1   -1    0    0    0  501  0.00000000000E+00  0.00000000000E+00  0.10170663998E+04  0.10170663998E+04  0.50400001928E-02 0. -1.
        1   -1    0    0  501    0  0.00000000000E+00  0.00000000000E+00 -0.13981013729E+04  0.13981013729E+04  0.50400001928E-02 0.  1.
    10030    2    1    2    0    0  0.00000000000E+00  0.00000000000E+00 -0.38103497309E+03  0.24151677727E+04  0.23849209043E+04 0.  0.
        3    1    3    3  502    0 -0.11364154361E+04 -0.35800010743E+03 -0.14134448288E+03  0.11998259847E+04  0.10100000352E+00 0. -1.
       -3    1    3    3    0  502  0.11364154361E+04  0.35800010743E+03 -0.23969049022E+03  0.12153417880E+04  0.10100000352E+00 0.  1.
</event>
<event>
 5   0  0.2943123E-05  0.2455415E+04  0.7818609E-02  0.8419044E-01
        1   -1    0    0  501    0  0.00000000000E+00  0.00000000000E+00  0.10446335006E+04  0.10446335006E+04  0.50400001928E-02 0.  1.
       -1   -1    0    0    0  501  0.00000000000E+00  0.00000000000E+00 -0.14428651627E+04  0.14428651627E+04  0.50400001928E-02 0. -1.
    10030    2    1    2    0    0  0.00000000000E+00  0.00000000000E+00 -0.39823166212E+03  0.24874986633E+04  0.24554146581E+04 0.  0.
        1    1    3    3  502    0  0.21276273065E+03 -0.11314154678E+04 -0.63118173792E+03  0.13129201524E+04  0.50400001928E-02 0. -1.
       -1    1    3    3    0  502 -0.21276273065E+03  0.11314154678E+04  0.23295007580E+03  0.11745785109E+04  0.50400001928E-02 0.  1.
</event>
<event>
 5   0  0.6714629E-05  0.2318417E+04  0.7818609E-02  0.8470695E-01
       -2   -1    0    0    0  501  0.00000000000E+00  0.00000000000E+00  0.11388296750E+04  0.11388296750E+04  0.25500000920E-02 0. -1.
        2   -1    0    0  501    0  0.00000000000E+00  0.00000000000E+00 -0.11799520795E+04  0.11799520795E+04  0.25500000920E-02 0.  1.
    10030    2    1    2    0    0  0.00000000000E+00  0.00000000000E+00 -0.41122404442E+02  0.23187817545E+04  0.23184170834E+04 0.  0.
        3    1    3    3  502    0  0.19127638185E+02 -0.52762394190E+03 -0.10527174921E+04  0.11776956393E+04  0.10100000352E+00 0.  1.
       -3    1    3    3    0  502 -0.19127638185E+02  0.52762394190E+03  0.10115950876E+04  0.11410861151E+04  0.10100000352E+00 0. -1.
</event>
<event>
 5   0  0.2339125E-05  0.2343139E+04  0.7818609E-02  0.8461104E-01
       -3   -1    0    0    0  501  0.00000000000E+00  0.00000000000E+00  0.12582949661E+04  0.12582949702E+04  0.10100000352E+00 0.  1.
        3   -1    0    0  501    0  0.00000000000E+00  0.00000000000E+00 -0.10908210777E+04  0.10908210824E+04  0.10100000352E+00 0. -1.
    10030    2    1    2    0    0  0.00000000000E+00  0.00000000000E+00  0.16747388839E+03  0.23491160526E+04  0.23431386483E+04 0.  0.
        2    1    3    3  502    0  0.10786377143E+04 -0.12761768797E+03 -0.35650635983E+03  0.11431720682E+04  0.25500000920E-02 0. -1.
       -2    1    3    3    0  502 -0.10786377143E+04  0.12761768797E+03  0.52398024822E+03  0.12059439844E+04  0.25500000920E-02 0.  1.
</event>
<event>
 5   0  0.2943244E-05  0.2388820E+04  0.7818609E-02  0.8443701E-01
        1   -1    0    0  501    0  0.00000000000E+00  0.00000000000E+00  0.14063350923E+04  0.14063350923E+04  0.50400001928E-02 0. -1.
       -1   -1    0    0    0  501  0.00000000000E+00  0.00000000000E+00 -0.10144205870E+04  0.10144205870E+04  0.50400001928E-02 0.  1.
    10030    2    1    2    0    0  0.00000000000E+00  0.00000000000E+00  0.39191450533E+03  0.24207556793E+04  0.23888200182E+04 0.  0.
        3    1    3    3  502    0  0.18070954295E+03 -0.19084040909E+02  0.13922455055E+04  0.14040540222E+04  0.10100000352E+00 0. -1.
       -3    1    3    3    0  502 -0.18070954295E+03  0.19084040909E+02 -0.10003310001E+04  0.10167016571E+04  0.10100000352E+00 0.  1.
</event>
<event>
 5   0  0.2901816E-05  0.2404979E+04  0.7818609E-02  0.8437642E-01
       -1   -1    0    0    0  501  0.00000000000E+00  0.00000000000E+00  0.12837698976E+04  0.12837698976E+04  0.50400001928E-02 0.  1.
        1   -1    0    0  501    0  0.00000000000E+00  0.00000000000E+00 -0.11263555693E+04  0.11263555693E+04  0.50400001928E-02 0. -1.
    10030    2    1    2    0    0  0.00000000000E+00  0.00000000000E+00  0.15741432824E+03  0.24101254669E+04  0.24049793129E+04 0.  0.
        4    1    3    3  502    0  0.58451940521E+03  0.22523978457E+03 -0.94993154251E+03  0.11378784838E+04  0.12699999809E+01 0. -1.
       -4    1    3    3    0  502 -0.58451940521E+03 -0.22523978457E+03  0.11073458707E+04  0.12722469831E+04  0.12699999809E+01 0.  1.
</event>
<event>
 5   0  0.2847158E-05  0.2277350E+04  0.7818609E-02  0.8486906E-01
       -1   -1    0    0    0  501  0.00000000000E+00  0.00000000000E+00  0.12967349261E+04  0.12967349261E+04  0.50400001928E-02 0. -1.
        1   -1    0    0  501    0  0.00000000000E+00  0.00000000000E+00 -0.99988098915E+03  0.99988098917E+03  0.50400001928E-02 0.  1.
    10030    2    1    2    0    0  0.00000000000E+00  0.00000000000E+00  0.29685393690E+03  0.22966159152E+04  0.22773498638E+04 0.  0.
        5    1    3    3  502    0  0.80002109388E+03 -0.76472753786E+03  0.41849197697E+03  0.11832157802E+04  0.46999998093E+01 0. -1.
       -5    1    3    3    0  502 -0.80002109388E+03  0.76472753786E+03 -0.12163804006E+03  0.11134001350E+04  0.46999998093E+01 0.  1.
</event>
<event>
 5   0  0.2901816E-05  0.1758623E+04  0.7818609E-02  0.8728618E-01
        1   -1    0    0  501    0  0.00000000000E+00  0.00000000000E+00  0.93182668699E+03  0.93182668700E+03  0.50400001928E-02 0.  1.
       -1   -1    0    0    0  501  0.00000000000E+00  0.00000000000E+00 -0.82975633885E+03  0.82975633886E+03  0.50400001928E-02 0. -1.
    10030    2    1    2    0    0  0.00000000000E+00  0.00000000000E+00  0.10207034814E+03  0.17615830259E+04  0.17586234392E+04 0.  0.
        4    1    3    3  502    0 -0.29066218434E+03  0.34872080515E+03 -0.70329043333E+03  0.83708407694E+03  0.12699999809E+01 0. -1.
       -4    1    3    3    0  502  0.29066218434E+03 -0.34872080515E+03  0.80536078147E+03  0.92449894893E+03  0.12699999809E+01 0.  1.
</event>
<event>
 5   0  0.6337926E-05  0.2400249E+04  0.7818609E-02  0.8439410E-01
        2   -1    0    0  501    0  0.00000000000E+00  0.00000000000E+00  0.16227272792E+04  0.16227272792E+04  0.25500000920E-02 0. -1.
       -2   -1    0    0    0  501  0.00000000000E+00  0.00000000000E+00 -0.88757906514E+03  0.88757906514E+03  0.25500000920E-02 0.  1.
    10030    2    1    2    0    0  0.00000000000E+00  0.00000000000E+00  0.73514821411E+03  0.25103063444E+04  0.24002489550E+04 0.  0.
        1    1    3    3  502    0  0.11252968482E+04 -0.41695418776E+03  0.38059361248E+03  0.12589659603E+04  0.50400001928E-02 0. -1.
       -1    1    3    3    0  502 -0.11252968482E+04  0.41695418776E+03  0.35455460162E+03  0.12513403841E+04  0.50400001928E-02 0.  1.
</event>
<event>
 5   0  0.2901816E-05  0.2364744E+04  0.7818609E-02  0.8452822E-01
        1   -1    0    0  501    0  0.00000000000E+00  0.00000000000E+00  0.97382725761E+03  0.97382725763E+03  0.50400001928E-02 0. -1.
       -1   -1    0    0    0  501  0.00000000000E+00  0.00000000000E+00 -0.14355759206E+04  0.14355759206E+04  0.50400001928E-02 0.  1.
    10030    2    1    2    0    0  0.00000000000E+00  0.00000000000E+00 -0.46174866302E+03  0.24094031783E+04  0.23647435057E+04 0.  0.
        4    1    3    3  502    0 -0.50309098594E+03  0.59301619640E+03 -0.11383306200E+04  0.13786105188E+04  0.12699999809E+01 0.  1.
       -4    1    3    3    0  502  0.50309098594E+03 -0.59301619640E+03  0.67658195698E+03  0.10307926594E+04  0.12699999809E+01 0. -1.
</event>
<event>
 5   0  0.6714629E-05  0.2434237E+04  0.7818609E-02  0.8426796E-01
        2   -1    0    0  501    0  0.00000000000E+00  0.00000000000E+00  0.15586540700E+04  0.15586540700E+04  0.25500000920E-02 0. -1.
       -2   -1    0    0    0  501  0.00000000000E+00  0.00000000000E+00 -0.95042069557E+03  0.95042069558E+03  0.25500000920E-02 0.  1.
    10030    2    1    2    0    0  0.00000000000E+00  0.00000000000E+00  0.60823337445E+03  0.25090747656E+04  0.24342367062E+04 0.  0.
        3    1    3    3  502    0  0.54945355565E+03 -0.10816942276E+04  0.40413318550E+03  0.12787827234E+04  0.10100000352E+00 0. -1.
       -3    1    3    3    0  502 -0.54945355565E+03  0.10816942276E+04  0.20410018895E+03  0.12302920422E+04  0.10100000352E+00 0.  1.
</event>
<event>
 5   0  0.6978115E-05  0.2224977E+04  0.7818609E-02  0.8508103E-01
       -2   -1    0    0    0  501  0.00000000000E+00  0.00000000000E+00  0.10052713921E+04  0.10052713921E+04  0.25500000920E-02 0. -1.
        2   -1    0    0  501    0  0.00000000000E+00  0.00000000000E+00 -0.12311409002E+04  0.12311409002E+04  0.25500000920E-02 0.  1.
    10030    2    1    2    0    0  0.00000000000E+00  0.00000000000E+00 -0.22586950813E+03  0.22364122923E+04  0.22249770575E+04 0.  0.
        4    1    3    3  502    0  0.74129630163E+03 -0.45124699353E+03 -0.81256169881E+03  0.11888659232E+04  0.12699999809E+01 0.  1.
       -4    1    3    3    0  502 -0.74129630163E+03  0.45124699353E+03  0.58669219067E+03  0.10475463691E+04  0.12699999809E+01 0. -1.
</event>
<event>
 5   0  0.2901816E-05  0.1910560E+04  0.7818609E-02  0.8649618E-01
        1   -1    0    0  501    0  0.00000000000E+00  0.00000000000E+00  0.89565253067E+03  0.89565253069E+03  0.50400001928E-02 0. -1.
       -1   -1    0    0    0  501  0.00000000000E+00  0.00000000000E+00 -0.10188771490E+04  0.10188771490E+04  0.50400001928E-02 0.  1.
    10030    2    1    2    0    0  0.00000000000E+00  0.00000000000E+00 -0.12322461832E+03  0.19145296797E+04  0.19105600194E+04 0.  0.
        4    1    3    3  502    0  0.55670915720E+02  0.85031735908E+03 -0.49427255880E+03  0.98511209377E+03  0.12699999809E+01 0.  1.
       -4    1    3    3    0  502 -0.55670915720E+02 -0.85031735908E+03  0.37104794047E+03  0.92941758593E+03  0.12699999809E+01 0. -1.
</event>
<event>
 5   0  0.2943123E-05  0.2429474E+04  0.7818609E-02  0.8428551E-01
        1   -1    0    0  501    0  0.00000000000E+00  0.00000000000E+00  0.14490093701E+04  0.14490093702E+04  0.50400001928E-02 0. -1.
       -1   -1    0    0    0  501  0.00000000000E+00  0.00000000000E+00 -0.10183412314E+04  0.10183412314E+04  0.50400001928E-02 0.  1.
    10030    2    1    2    0    0  0.00000000000E+00  0.00000000000E+00  0.43066813874E+03  0.24673506016E+04  0.24294740059E+04 0.  0.
        1    1    3    3  502    0 -0.47750500191E+03  0.82433655638E+03 -0.55010332325E+03  0.11000706574E+04  0.50400001928E-02 0.  1.
       -1    1    3    3    0  502  0.47750500191E+03 -0.82433655638E+03  0.98077146198E+03  0.13672799442E+04  0.50400001928E-02 0. -1.
</event>
<event>
 5   0  0.6703961E-05  0.2410561E+04  0.7818609E-02  0.8435560E-01
        2   -1    0    0  501    0  0.00000000000E+00  0.00000000000E+00  0.11366792180E+04  0.11366792180E+04  0.25500000920E-02 0.  1.
       -2   -1    0    0    0  501  0.00000000000E+00  0.00000000000E+00 -0.12780219627E+04  0.12780219627E+04  0.25500000920E-02 0. -1.
    10030    2    1    2    0    0  0.00000000000E+00  0.00000000000E+00 -0.14134274473E+03  0.24147011807E+04  0.24105609349E+04 0.  0.
        2    1    3    3  502    0  0.32497366687E+03 -0.37749024227E+03 -0.11700965313E+04  0.12717046276E+04  0.25500000920E-02 0. -1.
       -2    1    3    3    0  502 -0.32497366687E+03  0.37749024227E+03  0.10287537866E+04  0.11429965532E+04  0.25500000920E-02 0.  1.
</event>
<event>
 5   0  0.6714629E-05  0.2420124E+04  0.7818609E-02  0.8432007E-01
        2   -1    0    0  501    0  0.00000000000E+00  0.00000000000E+00  0.21825025996E+04  0.21825025996E+04  0.25500000920E-02 0.  1.
       -2   -1    0    0    0  501  0.00000000000E+00  0.00000000000E+00 -0.67090440547E+03  0.67090440547E+03  0.25500000920E-02 0. -1.
    10030    2    1    2    0    0  0.00000000000E+00  0.00000000000E+00  0.15115981942E+04  0.28534070051E+04  0.24201244671E+04 0.  0.
        3    1    3    3  502    0  0.92707435101E+03 -0.47569544202E+03  0.30432451251E+02  0.10424390391E+04  0.10100000352E+00 0. -1.
       -3    1    3    3    0  502 -0.92707435101E+03  0.47569544202E+03  0.14811657429E+04  0.18109679660E+04  0.10100000352E+00 0.  1.
</event>
<event>
 5   0  0.2901816E-05  0.2432743E+04  0.7818609E-02  0.8427346E-01
       -1   -1    0    0    0  501  0.00000000000E+00  0.00000000000E+00  0.17114000667E+04  0.17114000668E+04  0.50400001928E-02 0.  1.
        1   -1    0    0  501    0  0.00000000000E+00  0.00000000000E+00 -0.86453148835E+03  0.86453148836E+03  0.50400001928E-02 0. -1.
    10030    2    1    2    0    0  0.00000000000E+00  0.00000000000E+00  0.84686857840E+03  0.25759315551E+04  0.24327426883E+04 0.  0.
        4    1    3    3  502    0  0.90199031812E+03  0.81454604798E+03  0.37064153060E+03  0.12706095212E+04  0.12699999809E+01 0.  1.
       -4    1    3    3    0  502 -0.90199031812E+03 -0.81454604798E+03  0.47622704780E+03  0.13053220339E+04  0.12699999809E+01 0. -1.
</event>
<event>
 5   0  0.2915546E-05  0.2519303E+04  0.7818609E-02  0.8396141E-01
        1   -1    0    0  501    0  0.00000000000E+00  0.00000000000E+00  0.11921203172E+04  0.11921203172E+04  0.50400001928E-02 0.  1.
       -1   -1    0    0    0  501  0.00000000000E+00  0.00000000000E+00 -0.13310082593E+04  0.13310082593E+04  0.50400001928E-02 0. -1.
    10030    2    1    2    0    0  0.00000000000E+00  0.00000000000E+00 -0.13888794212E+03  0.25231285765E+04  0.25193030689E+04 0.  0.
        2    1    3    3  502    0 -0.25905738764E+02  0.65406011111E+03 -0.11473013351E+04  0.13208959421E+04  0.25500000920E-02 0. -1.
       -2    1    3    3    0  502  0.25905738764E+02 -0.65406011111E+03  0.10084133930E+04  0.12022326345E+04  0.25500000920E-02 0.  1.
</event>
<event>
 5   0  0.2943123E-05  0.2200420E+04  0.7818609E-02  0.8518253E-01
        1   -1    0    0  501    0  0.00000000000E+00  0.00000000000E+00  0.13925596913E+04  0.13925596913E+04  0.50400001928E-02 0. -1.
       -1   -1    0    0    0  501  0.00000000000E+00  0.00000000000E+00 -0.86923514823E+03  0.86923514824E+03  0.50400001928E-02 0.  1.
    10030    2    1    2    0    0  0.00000000000E+00  0.00000000000E+00  0.52332454308E+03  0.22617948396E+04  0.22004198051E+04 0.  0.
        1    1    3    3  502    0  0.48029759863E+02  0.38335497603E+03 -0.79721357777E+03  0.88589919521E+03  0.50400001928E-02 0.  1.
       -1    1    3    3    0  502 -0.48029759863E+02 -0.38335497603E+03  0.13205381208E+04  0.13758956443E+04  0.50400001928E-02 0. -1.
</event>
<event>
 5   0  0.6703961E-05  0.2417903E+04  0.7818609E-02  0.8432831E-01
       -2   -1    0    0    0  501  0.00000000000E+00  0.00000000000E+00  0.13549890627E+04  0.13549890627E+04  0.25500000920E-02 0. -1.
        2   -1    0    0  501    0  0.00000000000E+00  0.00000000000E+00 -0.10786536809E+04  0.10786536809E+04  0.25500000920E-02 0.  1.
    10030    2    1    2    0    0  0.00000000000E+00  0.00000000000E+00  0.27633538186E+03  0.24336427436E+04  0.24179031743E+04 0.  0.
        2    1    3    3  502    0  0.81325624573E+02 -0.25711232461E+03 -0.10479957891E+04  0.10821348246E+04  0.25500000920E-02 0.  1.
       -2    1    3    3    0  502 -0.81325624573E+02  0.25711232461E+03  0.13243311710E+04  0.13515079190E+04  0.25500000920E-02 0. -1.
</event>
<event>
 5   0  0.2847158E-05  0.2394537E+04  0.7818609E-02  0.8441552E-01
        1   -1    0    0  501    0  0.00000000000E+00  0.00000000000E+00  0.90806163534E+03  0.90806163535E+03  0.50400001928E-02 0. -1.
       -1   -1    0    0    0  501  0.00000000000E+00  0.00000000000E+00 -0.15785837941E+04  0.15785837941E+04  0.50400001928E-02 0.  1.
    10030    2    1    2    0    0  0.00000000000E+00  0.00000000000E+00 -0.67052215872E+03  0.24866454294E+04  0.23945365995E+04 0.  0.
        5    1    3    3  502    0 -0.27524448298E+02  0.51414762111E+02 -0.15770983442E+04  0.15781832436E+04  0.46999998093E+01 0.  1.
       -5    1    3    3    0  502  0.27524448298E+02 -0.51414762111E+02  0.90657618548E+03  0.90846218584E+03  0.46999998093E+01 0. -1.
</event>
<event>
 5   0  0.2943244E-05  0.2411961E+04  0.7818609E-02  0.8435039E-01
       -1   -1    0    0    0  501  0.00000000000E+00  0.00000000000E+00  0.77493652398E+03  0.77493652400E+03  0.50400001928E-02 0.  1.
        1   -1    0    0  501    0  0.00000000000E+00  0.00000000000E+00 -0.18767851538E+04  0.18767851538E+04  0.50400001928E-02 0. -1.
    10030    2    1    2    0    0  0.00000000000E+00  0.00000000000E+00 -0.11018486298E+04  0.26517216778E+04  0.24119613292E+04 0.  0.
        3    1    3    3  502    0 -0.84518156029E+03 -0.56953586298E+03 -0.12597517167E+04  0.16203942011E+04  0.10100000352E+00 0. -1.
       -3    1    3    3    0  502  0.84518156029E+03  0.56953586298E+03  0.15790308690E+03  0.10313274767E+04  0.10100000352E+00 0.  1.
</event>
<event>
 5   0  0.6714629E-05  0.2432671E+04  0.7818609E-02  0.8427372E-01
        2   -1    0    0  501    0  0.00000000000E+00  0.00000000000E+00  0.20542608113E+04  0.20542608113E+04  0.25500000920E-02 0. -1.
       -2   -1    0    0    0  501  0.00000000000E+00  0.00000000000E+00 -0.72019708106E+03  0.72019708107E+03  0.25500000920E-02 0.  1.
    10030    2    1    2    0    0  0.00000000000E+00  0.00000000000E+00  0.13340637302E+04  0.27744578923E+04  0.24326714863E+04 0.  0.
        3    1    3    3  502    0  0.12089898874E+04 -0.28743154740E+02  0.51837319210E+03  0.13157482636E+04  0.10100000352E+00 0. -1.
       -3    1    3    3    0  502 -0.12089898874E+04  0.28743154740E+02  0.81569053809E+03  0.14587096287E+04  0.10100000352E+00 0.  1.
</event>
<event>
 5   0  0.6714629E-05  0.2402118E+04  0.7818609E-02  0.8438711E-01
        2   -1    0    0  501    0  0.00000000000E+00  0.00000000000E+00  0.10063852361E+04  0.10063852361E+04  0.25500000920E-02 0. -1.
       -2   -1    0    0    0  501  0.00000000000E+00  0.00000000000E+00 -0.14333900053E+04  0.14333900053E+04  0.25500000920E-02 0.  1.
    10030    2    1    2    0    0  0.00000000000E+00  0.00000000000E+00 -0.42700476920E+03  0.24397752415E+04  0.24021178481E+04 0.  0.
        3    1    3    3  502    0 -0.99693063024E+03  0.30660960236E+02  0.46611496524E+03  0.11009422996E+04  0.10100000352E+00 0.  1.
       -3    1    3    3    0  502  0.99693063024E+03 -0.30660960236E+02 -0.89311973444E+03  0.13388329419E+04  0.10100000352E+00 0. -1.
</event>
<event>
 5   0  0.2943123E-05  0.1547141E+04  0.7818609E-02  0.8853696E-01
        1   -1    0    0  501    0  0.00000000000E+00  0.00000000000E+00  0.64579296752E+03  0.64579296754E+03  0.50400001928E-02 0.  1.
       -1   -1    0    0    0  501  0.00000000000E+00  0.00000000000E+00 -0.92662993421E+03  0.92662993422E+03  0.50400001928E-02 0. -1.
    10030    2    1    2    0    0  0.00000000000E+00  0.00000000000E+00 -0.28083696669E+03  0.15724229018E+04  0.15471407112E+04 0.  0.
        1    1    3    3  502    0  0.24715996553E+03 -0.47339528747E+03 -0.70922459361E+03  0.88780103118E+03  0.50400001928E-02 0. -1.
       -1    1    3    3    0  502 -0.24715996553E+03  0.47339528747E+03  0.42838762692E+03  0.68462187058E+03  0.50400001928E-02 0.  1.
</event>
<event>
 5   0  0.6337926E-05  0.2187377E+04  0.7818609E-02  0.8523700E-01
        2   -1    0    0  501    0  0.00000000000E+00  0.00000000000E+00  0.26562162436E+04  0.26562162436E+04  0.25500000920E-02 0. -1.
       -2   -1    0    0    0  501  0.00000000000E+00  0.00000000000E+00 -0.45032288133E+03  0.45032288134E+03  0.25500000920E-02 0.  1.
    10030    2    1    2    0    0  0.00000000000E+00  0.00000000000E+00  0.22058933623E+04  0.31065391250E+04  0.21873773815E+04 0.  0.
        1    1    3    3  502    0 -0.66243595305E+03 -0.69357072138E+03  0.35643222791E+03  0.10231840844E+04  0.50400001928E-02 0.  1.
       -1    1    3    3    0  502  0.66243595305E+03  0.69357072138E+03  0.18494611344E+04  0.20833550406E+04  0.50400001928E-02 0. -1.
</event>
<event>
 5   0  0.2915546E-05  0.2402371E+04  0.7818609E-02  0.8438616E-01
        1   -1    0    0  501    0  0.00000000000E+00  0.00000000000E+00  0.16006774704E+04  0.16006774704E+04  0.50400001928E-02 0. -1.
       -1   -1    0    0    0  501  0.00000000000E+00  0.00000000000E+00 -0.90139781783E+03  0.90139781784E+03  0.50400001928E-02 0.  1.
    10030    2    1    2    0    0  0.00000000000E+00  0.00000000000E+00  0.69927965257E+03  0.25020752883E+04  0.24023714774E+04 0.  0.
        2    1    3    3  502    0 -0.92974693048E+03 -0.11913775593E+03 -0.43268298865E+03  0.10323941729E+04  0.25500000920E-02 0.  1.
       -2    1    3    3    0  502  0.92974693048E+03  0.11913775593E+03  0.11319626412E+04  0.14696811153E+04  0.25500000920E-02 0. -1.
</event>
<event>
 5   0  0.2943123E-05  0.2388654E+04  0.7818609E-02  0.8443764E-01
        1   -1    0    0  501    0  0.00000000000E+00  0.00000000000E+00  0.14436709265E+04  0.14436709265E+04  0.50400001928E-02 0.  1.
       -1   -1    0    0    0  501  0.00000000000E+00  0.00000000000E+00 -0.98804868281E+03  0.98804868283E+03  0.50400001928E-02 0. -1.
    10030    2    1    2    0    0  0.00000000000E+00  0.00000000000E+00  0.45562224367E+03  0.24317196093E+04  0.23886541460E+04 0.  0.
        1    1    3    3  502    0 -0.58012258245E+03  0.71184102576E+03 -0.54960417679E+03  0.10701983965E+04  0.50400001928E-02 0. -1.
       -1    1    3    3    0  502  0.58012258245E+03 -0.71184102576E+03  0.10052264205E+04  0.13615212129E+04  0.50400001928E-02 0.  1.
</event>
<event>
 5   0  0.6600166E-05  0.2486795E+04  0.7818609E-02  0.8407705E-01
       -2   -1    0    0    0  501  0.00000000000E+00  0.00000000000E+00  0.12835245123E+04  0.12835245123E+04  0.25500000920E-02 0.  1.
        2   -1    0    0  501    0  0.00000000000E+00  0.00000000000E+00 -0.12045252421E+04  0.12045252421E+04  0.25500000920E-02 0. -1.
    10030    2    1    2    0    0  0.00000000000E+00  0.00000000000E+00  0.78999270205E+02  0.24880497543E+04  0.24867952661E+04 0.  0.
        5    1    3    3  502    0 -0.22962451891E+03 -0.11261206122E+04 -0.43522948447E+03  0.12289515235E+04  0.46999998093E+01 0. -1.
       -5    1    3    3    0  502  0.22962451891E+03  0.11261206122E+04  0.51422875468E+03  0.12590982309E+04  0.46999998093E+01 0.  1.
</event>
<event>
 5   0  0.6337926E-05  0.2371943E+04  0.7818609E-02  0.8450083E-01
        2   -1    0    0  501    0  0.00000000000E+00  0.00000000000E+00  0.16301431002E+04  0.16301431002E+04  0.25500000920E-02 0. -1.
       -2   -1    0    0    0  501  0.00000000000E+00  0.00000000000E+00 -0.86282509201E+03  0.86282509202E+03  0.25500000920E-02 0.  1.
    10030    2    1    2    0    0  0.00000000000E+00  0.00000000000E+00  0.76731800817E+03  0.24929681922E+04  0.23719429761E+04 0.  0.
        1    1    3    3  502    0 -0.60958064625E+03  0.56929404160E+03  0.12697935648E+04  0.15192300574E+04  0.50400001928E-02 0. -1.
       -1    1    3    3    0  502  0.60958064625E+03 -0.56929404160E+03 -0.50247555665E+03  0.97373813478E+03  0.50400001928E-02 0.  1.
</event>
<event>
 5   0  0.2915546E-05  0.2396824E+04  0.7818609E-02  0.8440694E-01
        1   -1    0    0  501    0  0.00000000000E+00  0.00000000000E+00  0.11225853553E+04  0.11225853553E+04  0.50400001928E-02 0. -1.
       -1   -1    0    0    0  501  0.00000000000E+00  0.00000000000E+00 -0.12793604659E+04  0.12793604659E+04  0.50400001928E-02 0.  1.
    10030    2    1    2    0    0  0.00000000000E+00  0.00000000000E+00 -0.15677511064E+03  0.24019458212E+04  0.23968240012E+04 0.  0.
        2    1    3    3  502    0  0.37528754104E+03 -0.28364490746E+03  0.10261910836E+04  0.11288770137E+04  0.25500000920E-02 0. -1.
       -2    1    3    3    0  502 -0.37528754104E+03  0.28364490746E+03 -0.11829661942E+04  0.12730688075E+04  0.25500000920E-02 0.  1.
</event>
<event>
 5   0  0.2915546E-05  0.2377713E+04  0.7818609E-02  0.8447895E-01
       -1   -1    0    0    0  501  0.00000000000E+00  0.00000000000E+00  0.12586673479E+04  0.12586673479E+04  0.50400001928E-02 0. -1.
        1   -1    0    0  501    0  0.00000000000E+00  0.00000000000E+00 -0.11229179359E+04  0.11229179360E+04  0.50400001928E-02 0.  1.
    10030    2    1    2    0    0  0.00000000000E+00  0.00000000000E+00  0.13574941194E+03  0.23815852839E+04  0.23777133051E+04 0.  0.
        2    1    3    3  502    0  0.96632617685E+03 -0.69165628673E+03  0.10265071066E+03  0.11927748603E+04  0.25500000920E-02 0.  1.
       -2    1    3    3    0  502 -0.96632617685E+03  0.69165628673E+03  0.33098701284E+02  0.11888104235E+04  0.25500000920E-02 0. -1.
</event>
<event>
 5   0  0.6703961E-05  0.2416047E+04  0.7818609E-02  0.8433520E-01
       -2   -1    0    0    0  501  0.00000000000E+00  0.00000000000E+00  0.15052337802E+04  0.15052337802E+04  0.25500000920E-02 0. -1.
        2   -1    0    0  501    0  0.00000000000E+00  0.00000000000E+00 -0.96949787436E+03  0.96949787437E+03  0.25500000920E-02 0.  1.
    10030    2    1    2    0    0  0.00000000000E+00  0.00000000000E+00  0.53573590587E+03  0.24747316546E+04  0.24160471439E+04 0.  0.
        2    1    3    3  502    0 -0.10402884153E+04  0.59141287097E+03  0.98467135521E+02  0.12006935278E+04  0.25500000920E-02 0. -1.
       -2    1    3    3    0  502  0.10402884153E+04 -0.59141287097E+03  0.43726877034E+03  0.12740381268E+04  0.25500000920E-02 0.  1.
</event>
<event>
 5   0  0.2943244E-05  0.2440437E+04  0.7818609E-02  0.8424518E-01
        1   -1    0    0  501    0  0.00000000000E+00  0.00000000000E+00  0.18276372817E+04  0.18276372817E+04  0.50400001928E-02 0.  1.
       -1   -1    0    0    0  501  0.00000000000E+00  0.00000000000E+00 -0.81467664660E+03  0.81467664662E+03  0.50400001928E-02 0. -1.
    10030    2    1    2    0    0  0.00000000000E+00  0.00000000000E+00  0.10129606351E+04  0.26423139283E+04  0.24404371837E+04 0.  0.
        3    1    3    3  502    0  0.41190317595E+03 -0.99176768068E+03  0.11337733807E+04  0.15616367848E+04  0.10100000352E+00 0.  1.
       -3    1    3    3    0  502 -0.41190317595E+03  0.99176768068E+03 -0.12081274555E+03  0.10806771435E+04  0.10100000352E+00 0. -1.
</event>
<event>
 5   0  0.6600166E-05  0.2415938E+04  0.7818609E-02  0.8433561E-01
       -2   -1    0    0    0  501  0.00000000000E+00  0.00000000000E+00  0.79823876580E+03  0.79823876580E+03  0.25500000920E-02 0.  1.
        2   -1    0    0  501    0  0.00000000000E+00  0.00000000000E+00 -0.18280102082E+04  0.18280102082E+04  0.25500000920E-02 0. -1.
    10030    2    1    2    0    0  0.00000000000E+00  0.00000000000E+00 -0.10297714424E+04  0.26262489740E+04  0.24159375923E+04 0.  0.
        5    1    3    3  502    0 -0.64013240893E+02  0.22202502690E+03  0.77398065355E+03  0.80775054915E+03  0.46999998093E+01 0.  1.
       -5    1    3    3    0  502  0.64013240893E+02 -0.22202502690E+03 -0.18037520960E+04  0.18184984249E+04  0.46999998093E+01 0. -1.
</event>
<event>
 5   0  0.2943244E-05  0.2377865E+04  0.7818609E-02  0.8447837E-01
       -1   -1    0    0    0  501  0.00000000000E+00  0.00000000000E+00  0.12521569033E+04  0.12521569033E+04  0.50400001928E-02 0. -1.
        1   -1    0    0  501    0  0.00000000000E+00  0.00000000000E+00 -0.11289002835E+04  0.11289002835E+04  0.50400001928E-02 0.  1.
    10030    2    1    2    0    0  0.00000000000E+00  0.00000000000E+00  0.12325661983E+03  0.23810571868E+04  0.23778648263E+04 0.  0.
        3    1    3    3  502    0 -0.10771320272E+04  0.33260890171E+03  0.43991609990E+03  0.12101108506E+04  0.10100000352E+00 0. -1.
       -3    1    3    3    0  502  0.10771320272E+04 -0.33260890171E+03 -0.31665948007E+03  0.11709463361E+04  0.10100000352E+00 0.  1.
</event>
<event>
 5   0  0.6703961E-05  0.2370671E+04  0.7818609E-02  0.8450566E-01
       -2   -1    0    0    0  501  0.00000000000E+00  0.00000000000E+00  0.57001907985E+03  0.57001907986E+03  0.25500000920E-02 0. -1.
        2   -1    0    0  501    0  0.00000000000E+00  0.00000000000E+00 -0.24648654007E+04  0.24648654007E+04  0.25500000920E-02 0.  1.
    10030    2    1    2    0    0  0.00000000000E+00  0.00000000000E+00 -0.18948463208E+04  0.30348844805E+04  0.23706710507E+04 0.  0.
        2    1    3    3  502    0 -0.98316417933E+03  0.65621858162E+03 -0.83446462112E+03  0.14469159735E+04  0.25500000920E-02 0. -1.
       -2    1    3    3    0  502  0.98316417933E+03 -0.65621858162E+03 -0.10603816997E+04  0.15879685071E+04  0.25500000920E-02 0.  1.
</event>
<event>
 5   0  0.6703961E-05  0.2346753E+04  0.7818609E-02  0.8459712E-01
        2   -1    0    0  501    0  0.00000000000E+00  0.00000000000E+00  0.19105528358E+04  0.19105528358E+04  0.25500000920E-02 0. -1.
       -2   -1    0    0    0  501  0.00000000000E+00  0.00000000000E+00 -0.72063578156E+03  0.72063578156E+03  0.25500000920E-02 0.  1.
    10030    2    1    2    0    0  0.00000000000E+00  0.00000000000E+00  0.11899170542E+04  0.26311886173E+04  0.23467532772E+04 0.  0.
        2    1    3    3  502    0 -0.60932479937E+03  0.75072784323E+03 -0.15040482773E+03  0.97851449551E+03  0.25500000920E-02 0.  1.
       -2    1    3    3    0  502  0.60932479937E+03 -0.75072784323E+03  0.13403218819E+04  0.16526741218E+04  0.25500000920E-02 0. -1.
</event>
<event>
 5   0  0.2943123E-05  0.2486949E+04  0.7818609E-02  0.8407650E-01
       -1   -1    0    0    0  501  0.00000000000E+00  0.00000000000E+00  0.14689059384E+04  0.14689059384E+04  0.50400001928E-02 0.  1.
        1   -1    0    0  501    0  0.00000000000E+00  0.00000000000E+00 -0.10526395289E+04  0.10526395289E+04  0.50400001928E-02 0. -1.
    10030    2    1    2    0    0  0.00000000000E+00  0.00000000000E+00  0.41626640949E+03  0.25215454673E+04  0.24869486967E+04 0.  0.
        1    1    3    3  502    0  0.31427415386E+03 -0.89285998177E+03  0.10257389212E+04  0.13957462253E+04  0.50400001928E-02 0.  1.
       -1    1    3    3    0  502 -0.31427415386E+03  0.89285998177E+03 -0.60947251174E+03  0.11257992421E+04  0.50400001928E-02 0. -1.
</event>
<event>
 5   0  0.6714629E-05  0.2343400E+04  0.7818609E-02  0.8461003E-01
       -2   -1    0    0    0  501  0.00000000000E+00  0.00000000000E+00  0.12380410567E+04  0.12380410567E+04  0.25500000920E-02 0. -1.
        2   -1    0    0  501    0  0.00000000000E+00  0.00000000000E+00 -0.11089138624E+04  0.11089138624E+04  0.25500000920E-02 0.  1.
    10030    2    1    2    0    0  0.00000000000E+00  0.00000000000E+00  0.12912719429E+03  0.23469549191E+04  0.23434000000E+04 0.  0.
        3    1    3    3  502    0  0.11626709073E+04  0.99191851917E+02 -0.41607680512E+02  0.11676360183E+04  0.10100000352E+00 0. -1.
       -3    1    3    3    0  502 -0.11626709073E+04 -0.99191851917E+02  0.17073487480E+03  0.11793189008E+04  0.10100000352E+00 0.  1.
</event>
<event>
 5   0  0.6703961E-05  0.2257972E+04  0.7818609E-02  0.8494679E-01
       -2   -1    0    0    0  501  0.00000000000E+00  0.00000000000E+00  0.10217887157E+04  0.10217887157E+04  0.25500000920E-02 0. -1.
        2   -1    0    0  501    0  0.00000000000E+00  0.00000000000E+00 -0.12474291384E+04  0.12474291384E+04  0.25500000920E-02 0.  1.
    10030    2    1    2    0    0  0.00000000000E+00  0.00000000000E+00 -0.22564042271E+03  0.22692178541E+04  0.22579716714E+04 0.  0.
        2    1    3    3  502    0  0.34328801235E+03 -0.21910940190E+03 -0.11710383240E+04  0.12398331927E+04  0.25500000920E-02 0.  1.
       -2    1    3    3    0  502 -0.34328801235E+03  0.21910940190E+03  0.94539790125E+03  0.10293846614E+04  0.25500000920E-02 0. -1.
</event>
<event>
 5   0  0.2943244E-05  0.2429336E+04  0.7818609E-02  0.8428602E-01
       -1   -1    0    0    0  501  0.00000000000E+00  0.00000000000E+00  0.97014707118E+03  0.97014707119E+03  0.50400001928E-02 0. -1.
        1   -1    0    0  501    0  0.00000000000E+00  0.00000000000E+00 -0.15208190515E+04  0.15208190515E+04  0.50400001928E-02 0.  1.
    10030    2    1    2    0    0  0.00000000000E+00  0.00000000000E+00 -0.55067198036E+03  0.24909661227E+04  0.24293358341E+04 0.  0.
        3    1    3    3  502    0  0.94474408848E+03 -0.35247127719E+03 -0.96974697410E+03  0.13989948527E+04  0.10100000352E+00 0.  1.
       -3    1    3    3    0  502 -0.94474408848E+03  0.35247127719E+03  0.41907499374E+03  0.10919712700E+04  0.10100000352E+00 0. -1.
</event>
<event>
 5   0  0.2943244E-05  0.2411081E+04  0.7818609E-02  0.8435366E-01
        1   -1    0    0  501    0  0.00000000000E+00  0.00000000000E+00  0.16963871987E+04  0.16963871987E+04  0.50400001928E-02 0.  1.
       -1   -1    0    0    0  501  0.00000000000E+00  0.00000000000E+00 -0.85671972484E+03  0.85671972486E+03  0.50400001928E-02 0. -1.
    10030    2    1    2    0    0  0.00000000000E+00  0.00000000000E+00  0.83966747385E+03  0.25531069236E+04  0.24110813957E+04 0.  0.
        3    1    3    3  502    0  0.17374909864E+03  0.55664481005E+03 -0.69744243937E+03  0.90910294262E+03  0.10100000352E+00 0. -1.
       -3    1    3    3    0  502 -0.17374909864E+03 -0.55664481005E+03  0.15371099132E+04  0.16440039809E+04  0.10100000352E+00 0.  1.
</event>
<event>
 5   0  0.2901816E-05  0.2441209E+04  0.7818609E-02  0.8424235E-01
       -1   -1    0    0    0  501  0.00000000000E+00  0.00000000000E+00  0.21238922100E+04  0.21238922100E+04  0.50400001928E-02 0. -1.
        1   -1    0    0  501    0  0.00000000000E+00  0.00000000000E+00 -0.70148355001E+03  0.70148355003E+03  0.50400001928E-02 0.  1.
    10030    2    1    2    0    0  0.00000000000E+00  0.00000000000E+00  0.14224086600E+04  0.28253757600E+04  0.24412090835E+04 0.  0.
        4    1    3    3  502    0 -0.97392232074E+02  0.37057627087E+03  0.20524836804E+04  0.20879422623E+04  0.12699999809E+01 0. -1.
       -4    1    3    3    0  502  0.97392232074E+02 -0.37057627087E+03 -0.63007502040E+03  0.73743349777E+03  0.12699999809E+01 0.  1.
</event>
<event>
 5   0  0.6714629E-05  0.2395149E+04  0.7818609E-02  0.8441322E-01
       -2   -1    0    0    0  501  0.00000000000E+00  0.00000000000E+00  0.72825762883E+03  0.72825762883E+03  0.25500000920E-02 0. -1.
        2   -1    0    0  501    0  0.00000000000E+00  0.00000000000E+00 -0.19693375751E+04  0.19693375751E+04  0.25500000920E-02 0.  1.
    10030    2    1    2    0    0  0.00000000000E+00  0.00000000000E+00 -0.12410799463E+04  0.26975952040E+04  0.23951493589E+04 0.  0.
        3    1    3    3  502    0  0.11288097949E+04  0.21575545699E+03 -0.99985058988E+03  0.15233066607E+04  0.10100000352E+00 0.  1.
       -3    1    3    3    0  502 -0.11288097949E+04 -0.21575545699E+03 -0.24122935644E+03  0.11742885433E+04  0.10100000352E+00 0. -1.
</event>
<event>
 5   0  0.6703961E-05  0.2408378E+04  0.7818609E-02  0.8436374E-01
        2   -1    0    0  501    0  0.00000000000E+00  0.00000000000E+00  0.10639973750E+04  0.10639973750E+04  0.25500000920E-02 0. -1.
       -2   -1    0    0    0  501  0.00000000000E+00  0.00000000000E+00 -0.13628519206E+04  0.13628519206E+04  0.25500000920E-02 0.  1.
    10030    2    1    2    0    0  0.00000000000E+00  0.00000000000E+00 -0.29885454554E+03  0.24268492956E+04  0.24083777661E+04 0.  0.
        2    1    3    3  502    0 -0.55129834643E+03 -0.87075663298E+03 -0.77703959150E+03  0.12907120157E+04  0.25500000920E-02 0.  1.
       -2    1    3    3    0  502  0.55129834643E+03  0.87075663298E+03  0.47818504596E+03  0.11361372799E+04  0.25500000920E-02 0. -1.
</event>
<event>
 5   0  0.6978115E-05  0.2416614E+04  0.7818609E-02  0.8433310E-01
       -2   -1    0    0    0  501  0.00000000000E+00  0.00000000000E+00  0.74093419423E+03  0.74093419423E+03  0.25500000920E-02 0. -1.
        2   -1    0    0  501    0  0.00000000000E+00  0.00000000000E+00 -0.19704931174E+04  0.19704931174E+04  0.25500000920E-02 0.  1.
    10030    2    1    2    0    0  0.00000000000E+00  0.00000000000E+00 -0.12295589231E+04  0.27114273116E+04  0.24166139370E+04 0.  0.
        4    1    3    3  502    0 -0.72467799979E+02  0.84022435540E+03  0.35610270306E+03  0.91544486315E+03  0.12699999809E+01 0. -1.
       -4    1    3    3    0  502  0.72467799979E+02 -0.84022435540E+03 -0.15856616262E+04  0.17959824484E+04  0.12699999809E+01 0.  1.
</event>
<event>
 5   0  0.2915546E-05  0.2456096E+04  0.7818609E-02  0.8418796E-01
        1   -1    0    0  501    0  0.00000000000E+00  0.00000000000E+00  0.11806189719E+04  0.11806189719E+04  0.50400001928E-02 0.  1.
       -1   -1    0    0    0  501  0.00000000000E+00  0.00000000000E+00 -0.12773819179E+04  0.12773819179E+04  0.50400001928E-02 0. -1.
    10030    2    1    2    0    0  0.00000000000E+00  0.00000000000E+00 -0.96762946006E+02  0.24580008898E+04  0.24560955410E+04 0.  0.
        2    1    3    3  502    0 -0.63054806027E+03  0.79570861010E+03 -0.73982865064E+03  0.12562203154E+04  0.25500000920E-02 0. -1.
       -2    1    3    3    0  502  0.63054806027E+03 -0.79570861010E+03  0.64306570463E+03  0.12017805744E+04  0.25500000920E-02 0.  1.
</event>
<event>
 5   0  0.2339125E-05  0.2445371E+04  0.7818609E-02  0.8422710E-01
        3   -1    0    0  501    0  0.00000000000E+00  0.00000000000E+00  0.85586662635E+03  0.85586663231E+03  0.10100000352E+00 0. -1.
       -3   -1    0    0    0  501  0.00000000000E+00  0.00000000000E+00 -0.17467206518E+04  0.17467206548E+04  0.10100000352E+00 0.  1.
    10030    2    1    2    0    0  0.00000000000E+00  0.00000000000E+00 -0.89085402550E+03  0.26025872871E+04  0.24453710745E+04 0.  0.
        4    1    3    3  502    0 -0.53302771650E+03 -0.63265312421E+03  0.51278386631E+03  0.97330233153E+03  0.12699999809E+01 0. -1.
       -4    1    3    3    0  502  0.53302771650E+03  0.63265312421E+03 -0.14036378918E+04  0.16292849555E+04  0.12699999809E+01 0.  1.
</event>
<event>
 5   0  0.6337926E-05  0.2351866E+04  0.7818609E-02  0.8457747E-01
       -2   -1    0    0    0  501  0.00000000000E+00  0.00000000000E+00  0.84688868803E+03  0.84688868803E+03  0.25500000920E-02 0.  1.
        2   -1    0    0  501    0  0.00000000000E+00  0.00000000000E+00 -0.16328221671E+04  0.16328221671E+04  0.25500000920E-02 0. -1.
    10030    2    1    2    0    0  0.00000000000E+00  0.00000000000E+00 -0.78593347909E+03  0.24797108552E+04  0.23518661721E+04 0.  0.
        1    1    3    3  502    0 -0.96875789483E+03 -0.46866247766E+03  0.10680629062E+03  0.10814545578E+04  0.50400001928E-02 0.  1.
       -1    1    3    3    0  502  0.96875789483E+03  0.46866247766E+03 -0.89273976971E+03  0.13982562974E+04  0.50400001928E-02 0. -1.
</event>
<event>
 5   0  0.6703961E-05  0.2401435E+04  0.7818609E-02  0.8438967E-01
       -2   -1    0    0    0  501  0.00000000000E+00  0.00000000000E+00  0.90071865824E+03  0.90071865824E+03  0.25500000920E-02 0.  1.
        2   -1    0    0  501    0  0.00000000000E+00  0.00000000000E+00 -0.16006357717E+04  0.16006357717E+04  0.25500000920E-02 0. -1.
    10030    2    1    2    0    0  0.00000000000E+00  0.00000000000E+00 -0.69991711343E+03  0.25013544299E+04  0.24014349915E+04 0.  0.
        2    1    3    3  502    0 -0.10698604734E+04  0.17519616819E+02 -0.91743349809E+03  0.14094653572E+04  0.25500000920E-02 0. -1.
       -2    1    3    3    0  502  0.10698604734E+04 -0.17519616819E+02  0.21751638466E+03  0.10918890728E+04  0.25500000920E-02 0.  1.
</event>
<event>
 5   0  0.2943123E-05  0.1980793E+04  0.7818609E-02  0.8615653E-01
       -1   -1    0    0    0  501  0.00000000000E+00  0.00000000000E+00  0.13339989016E+04  0.13339989016E+04  0.50400001928E-02 0. -1.
        1   -1    0    0  501    0  0.00000000000E+00  0.00000000000E+00 -0.73529707762E+03  0.73529707764E+03  0.50400001928E-02 0.  1.
    10030    2    1    2    0    0  0.00000000000E+00  0.00000000000E+00  0.59870182399E+03  0.20692959792E+04  0.19807932693E+04 0.  0.
        1    1    3    3  502    0  0.46798161334E+03  0.63230834836E+03  0.92795419987E+03  0.12165194758E+04  0.50400001928E-02 0. -1.
       -1    1    3    3    0  502 -0.46798161334E+03 -0.63230834836E+03 -0.32925237589E+03  0.85277650348E+03  0.50400001928E-02 0.  1.
</event>
<event>
 5   0  0.2943244E-05  0.2434781E+04  0.7818609E-02  0.8426596E-01
        1   -1    0    0  501    0  0.00000000000E+00  0.00000000000E+00  0.83144141136E+03  0.83144141138E+03  0.50400001928E-02 0.  1.
       -1   -1    0    0    0  501  0.00000000000E+00  0.00000000000E+00 -0.17824944030E+04  0.17824944030E+04  0.50400001928E-02 0. -1.
    10030    2    1    2    0    0  0.00000000000E+00  0.00000000000E+00 -0.95105299167E+03  0.26139358144E+04  0.24347810269E+04 0.  0.
        3    1    3    3  502    0 -0.88324805066E+01 -0.24062854953E+03 -0.17566738506E+04  0.17730998672E+04  0.10100000352E+00 0. -1.
       -3    1    3    3    0  502  0.88324805066E+01  0.24062854953E+03  0.80562085892E+03  0.84083594720E+03  0.10100000352E+00 0.  1.
</event>
<event>
 5   0  0.2901816E-05  0.2403536E+04  0.7818609E-02  0.8438181E-01
       -1   -1    0    0    0  501  0.00000000000E+00  0.00000000000E+00  0.16938774927E+04  0.16938774927E+04  0.50400001928E-02 0. -1.
        1   -1    0    0  501    0  0.00000000000E+00  0.00000000000E+00 -0.85262722883E+03  0.85262722884E+03  0.50400001928E-02 0.  1.
    10030    2    1    2    0    0  0.00000000000E+00  0.00000000000E+00  0.84125026384E+03  0.25465047215E+04  0.24035357893E+04 0.  0.
        4    1    3    3  502    0  0.71297632831E+03  0.50831024705E+03  0.12927087488E+04  0.15613494401E+04  0.12699999809E+01 0. -1.
       -4    1    3    3    0  502 -0.71297632831E+03 -0.50831024705E+03 -0.45145848495E+03  0.98515528142E+03  0.12699999809E+01 0.  1.
</event>
<event>
 5   0  0.2339125E-05  0.2379992E+04  0.7818609E-02  0.8447032E-01
        3   -1    0    0  501    0  0.00000000000E+00  0.00000000000E+00  0.10946120028E+04  0.10946120074E+04  0.10100000352E+00 0.  1.
       -3   -1    0    0    0  501  0.00000000000E+00  0.00000000000E+00 -0.12936917060E+04  0.12936917099E+04  0.10100000352E+00 0. -1.
    10030    2    1    2    0    0  0.00000000000E+00  0.00000000000E+00 -0.19907970317E+03  0.23883037173E+04  0.23799919996E+04 0.  0.
        5    1    3    3  502    0  0.83711852767E+03 -0.24747586850E+02  0.74880506068E+03  0.11234371283E+04  0.46999998093E+01 0.  1.
       -5    1    3    3    0  502 -0.83711852767E+03  0.24747586850E+02 -0.94788476385E+03  0.12648665890E+04  0.46999998093E+01 0. -1.
</event>
<event>
 5   0  0.2943123E-05  0.2422336E+04  0.7818609E-02  0.8431188E-01
       -1   -1    0    0    0  501  0.00000000000E+00  0.00000000000E+00  0.15632783355E+04  0.15632783355E+04  0.50400001928E-02 0.  1.
        1   -1    0    0  501    0  0.00000000000E+00  0.00000000000E+00 -0.93836648879E+03  0.93836648881E+03  0.50400001928E-02 0. -1.
    10030    2    1    2    0    0  0.00000000000E+00  0.00000000000E+00  0.62491184672E+03  0.25016448243E+04  0.24223360648E+04 0.  0.
        1    1    3    3  502    0  0.11104034346E+04  0.11621313685E+03 -0.17241191253E+03  0.11297022388E+04  0.50400001928E-02 0. -1.
       -1    1    3    3    0  502 -0.11104034346E+04 -0.11621313685E+03  0.79732375925E+03  0.13719425855E+04  0.50400001928E-02 0.  1.
</event>
<event>
 5   0  0.6714629E-05  0.2407965E+04  0.7818609E-02  0.8436528E-01
        2   -1    0    0  501    0  0.00000000000E+00  0.00000000000E+00  0.22240231157E+04  0.22240231157E+04  0.25500000920E-02 0. -1.
       -2   -1    0    0    0  501  0.00000000000E+00  0.00000000000E+00 -0.65177986617E+03  0.65177986618E+03  0.25500000920E-02 0.  1.
    10030    2    1    2    0    0  0.00000000000E+00  0.00000000000E+00  0.15722432495E+04  0.28758029819E+04  0.24079646914E+04 0.  0.
        3    1    3    3  502    0  0.88274012375E+03 -0.44628372873E+02 -0.19024186504E+03  0.90410939335E+03  0.10100000352E+00 0.  1.
       -3    1    3    3    0  502 -0.88274012375E+03  0.44628372873E+02  0.17624851146E+04  0.19716935885E+04  0.10100000352E+00 0. -1.
</event>
<event>
 5   0  0.2915546E-05  0.2004206E+04  0.7818609E-02  0.8604657E-01
        1   -1    0    0  501    0  0.00000000000E+00  0.00000000000E+00  0.13206824072E+04  0.13206824072E+04  0.50400001928E-02 0.  1.
       -1   -1    0    0    0  501  0.00000000000E+00  0.00000000000E+00 -0.76037266136E+03  0.76037266137E+03  0.50400001928E-02 0. -1.
    10030    2    1    2    0    0  0.00000000000E+00  0.00000000000E+00  0.56030974584E+03  0.20810550686E+04  0.20042063734E+04 0.  0.
        2    1    3    3  502    0  0.67555060263E+03 -0.32974294036E+03 -0.40790887142E+03  0.85527110954E+03  0.25500000920E-02 0. -1.
       -2    1    3    3    0  502 -0.67555060263E+03  0.32974294036E+03  0.96821861727E+03  0.12257839590E+04  0.25500000920E-02 0.  1.
</event>
<event>
 5   0  0.6337926E-05  0.2412539E+04  0.7818609E-02  0.8434824E-01
       -2   -1    0    0    0  501  0.00000000000E+00  0.00000000000E+00  0.81107326909E+03  0.81107326909E+03  0.25500000920E-02 0.  1.
        2   -1    0    0  501    0  0.00000000000E+00  0.00000000000E+00 -0.17940256861E+04  0.17940256861E+04  0.25500000920E-02 0. -1.
    10030    2    1    2    0    0  0.00000000000E+00  0.00000000000E+00 -0.98295241698E+03  0.26050989552E+04  0.24125391421E+04 0.  0.
        1    1    3    3  502    0 -0.90041796266E+03  0.78131264847E+03 -0.69024546683E+03  0.13775488255E+04  0.50400001928E-02 0. -1.
       -1    1    3    3    0  502  0.90041796266E+03 -0.78131264847E+03 -0.29270695015E+03  0.12275501297E+04  0.50400001928E-02 0.  1.
</event>
<event>
 5   0  0.2915546E-05  0.2371806E+04  0.7818609E-02  0.8450135E-01
       -1   -1    0    0    0  501  0.00000000000E+00  0.00000000000E+00  0.95917183051E+03  0.95917183053E+03  0.50400001928E-02 0.  1.
        1   -1    0    0  501    0  0.00000000000E+00  0.00000000000E+00 -0.14662294819E+04  0.14662294819E+04  0.50400001928E-02 0. -1.
    10030    2    1    2    0    0  0.00000000000E+00  0.00000000000E+00 -0.50705765141E+03  0.24254013125E+04  0.23718060765E+04 0.  0.
        2    1    3    3  502    0 -0.59568359678E+03 -0.26451657559E+03  0.75959475882E+03  0.10008956808E+04  0.25500000920E-02 0.  1.
       -2    1    3    3    0  502  0.59568359678E+03  0.26451657559E+03 -0.12666524102E+04  0.14245056316E+04  0.25500000920E-02 0. -1.
</event>
<event>
 5   0  0.2943244E-05  0.2512734E+04  0.7818609E-02  0.8398463E-01
        1   -1    0    0  501    0  0.00000000000E+00  0.00000000000E+00  0.16024895079E+04  0.16024895079E+04  0.50400001928E-02 0. -1.
       -1   -1    0    0    0  501  0.00000000000E+00  0.00000000000E+00 -0.98500379603E+03  0.98500379604E+03  0.50400001928E-02 0.  1.
    10030    2    1    2    0    0  0.00000000000E+00  0.00000000000E+00  0.61748571187E+03  0.25874933039E+04  0.25127341669E+04 0.  0.
        3    1    3    3  502    0  0.60806621917E+03  0.23034379683E+03 -0.79825524204E+03  0.10295699264E+04  0.10100000352E+00 0.  1.
       -3    1    3    3    0  502 -0.60806621917E+03 -0.23034379683E+03  0.14157409539E+04  0.15579233776E+04  0.10100000352E+00 0. -1.
</event>
<event>
 5   0  0.6337926E-05  0.2362125E+04  0.7818609E-02  0.8453821E-01
        2   -1    0    0  501    0  0.00000000000E+00  0.00000000000E+00  0.15102233709E+04  0.15102233709E+04  0.25500000920E-02 0. -1.
       -2   -1    0    0    0  501  0.00000000000E+00  0.00000000000E+00 -0.92364385802E+03  0.92364385803E+03  0.25500000920E-02 0.  1.
    10030    2    1    2    0    0  0.00000000000E+00  0.00000000000E+00  0.58657951285E+03  0.24338672289E+04  0.23621249254E+04 0.  0.
        1    1    3    3  502    0 -0.95012663479E+03 -0.10262812628E+03  0.10083674234E+04  0.13892724769E+04  0.50400001928E-02 0. -1.
       -1    1    3    3    0  502  0.95012663479E+03  0.10262812628E+03 -0.42178791054E+03  0.10445947520E+04  0.50400001928E-02 0.  1.
</event>
<event>
 5   0  0.2901816E-05  0.2342800E+04  0.7818609E-02  0.8461234E-01
       -1   -1    0    0    0  501  0.00000000000E+00  0.00000000000E+00  0.91826926812E+03  0.91826926813E+03  0.50400001928E-02 0. -1.
        1   -1    0    0  501    0  0.00000000000E+00  0.00000000000E+00 -0.14943093919E+04  0.14943093919E+04  0.50400001928E-02 0.  1.
    10030    2    1    2    0    0  0.00000000000E+00  0.00000000000E+00 -0.57604012377E+03  0.24125786600E+04  0.23428003685E+04 0.  0.
        4    1    3    3  502    0  0.86774002459E+03  0.12404128279E+03  0.51218104914E+03  0.10152290530E+04  0.12699999809E+01 0. -1.
       -4    1    3    3    0  502 -0.86774002459E+03 -0.12404128279E+03 -0.10882211729E+04  0.13973496070E+04  0.12699999809E+01 0.  1.
</event>
<event>
 5   0  0.6703961E-05  0.2395721E+04  0.7818609E-02  0.8441107E-01
       -2   -1    0    0    0  501  0.00000000000E+00  0.00000000000E+00  0.74813149942E+03  0.74813149942E+03  0.25500000920E-02 0. -1.
        2   -1    0    0  501    0  0.00000000000E+00  0.00000000000E+00 -0.19179380715E+04  0.19179380715E+04  0.25500000920E-02 0.  1.
    10030    2    1    2    0    0  0.00000000000E+00  0.00000000000E+00 -0.11698065721E+04  0.26660695709E+04  0.23957210900E+04 0.  0.
        2    1    3    3  502    0  0.24586206797E+03  0.89527899890E+03 -0.14272164502E+04  0.17026213431E+04  0.25500000920E-02 0.  1.
       -2    1    3    3    0  502 -0.24586206797E+03 -0.89527899890E+03  0.25740987810E+03  0.96344822782E+03  0.25500000920E-02 0. -1.
</event>
<event>
 5   0  0.2847158E-05  0.2488478E+04  0.7818609E-02  0.8407102E-01
        1   -1    0    0  501    0  0.00000000000E+00  0.00000000000E+00  0.17147157690E+04  0.17147157690E+04  0.50400001928E-02 0. -1.
       -1   -1    0    0    0  501  0.00000000000E+00  0.00000000000E+00 -0.90284950103E+03  0.90284950104E+03  0.50400001928E-02 0.  1.
    10030    2    1    2    0    0  0.00000000000E+00  0.00000000000E+00  0.81186626801E+03  0.26175652701E+04  0.24884776684E+04 0.  0.
        5    1    3    3  502    0  0.25112905874E+03  0.12090561261E+04  0.24562784052E+03  0.12590622090E+04  0.46999998093E+01 0.  1.
       -5    1    3    3    0  502 -0.25112905874E+03 -0.12090561261E+04  0.56623842748E+03  0.13585030611E+04  0.46999998093E+01 0. -1.
</event>
<event>
 5   0  0.6714629E-05  0.2358044E+04  0.7818609E-02  0.8455380E-01
        2   -1    0    0  501    0  0.00000000000E+00  0.00000000000E+00  0.17695572581E+04  0.17695572581E+04  0.25500000920E-02 0. -1.
       -2   -1    0    0    0  501  0.00000000000E+00  0.00000000000E+00 -0.78556001749E+03  0.78556001750E+03  0.25500000920E-02 0.  1.
    10030    2    1    2    0    0  0.00000000000E+00  0.00000000000E+00  0.98399724059E+03  0.25551172756E+04  0.23580444700E+04 0.  0.
        3    1    3    3  502    0  0.71138821240E+03 -0.35373229196E+02  0.15100797218E+04  0.16696302676E+04  0.10100000352E+00 0. -1.
       -3    1    3    3    0  502 -0.71138821240E+03  0.35373229196E+02 -0.52608248121E+03  0.88548700799E+03  0.10100000352E+00 0.  1.
</event>
<event>
 5   0  0.2915546E-05  0.2459063E+04  0.7818609E-02  0.8417716E-01
       -1   -1    0    0    0  501  0.00000000000E+00  0.00000000000E+00  0.12308914547E+04  0.12308914548E+04  0.50400001928E-02 0.  1.
        1   -1    0    0  501    0  0.00000000000E+00  0.00000000000E+00 -0.12281732104E+04  0.12281732104E+04  0.50400001928E-02 0. -1.
    10030    2    1    2    0    0  0.00000000000E+00  0.00000000000E+00  0.27182443512E+01  0.24590646652E+04  0.24590631628E+04 0.  0.
        2    1    3    3  502    0 -0.26450069074E+02 -0.70286120295E+03 -0.10071227446E+04  0.12284175591E+04  0.25500000920E-02 0. -1.
       -2    1    3    3    0  502  0.26450069074E+02  0.70286120295E+03  0.10098409889E+04  0.12306471061E+04  0.25500000920E-02 0.  1.
</event>
<event>
 5   0  0.6703961E-05  0.2354895E+04  0.7818609E-02  0.8456586E-01
        2   -1    0    0  501    0  0.00000000000E+00  0.00000000000E+00  0.22419376532E+04  0.22419376532E+04  0.25500000920E-02 0. -1.
       -2   -1    0    0    0  501  0.00000000000E+00  0.00000000000E+00 -0.61838594154E+03  0.61838594154E+03  0.25500000920E-02 0.  1.
    10030    2    1    2    0    0  0.00000000000E+00  0.00000000000E+00  0.16235517116E+04  0.28603235947E+04  0.23548950945E+04 0.  0.
        2    1    3    3  502    0 -0.85926799421E+03  0.20506950327E+03  0.17573063120E+04  0.19668554754E+04  0.25500000920E-02 0. -1.
       -2    1    3    3    0  502  0.85926799421E+03 -0.20506950327E+03 -0.13375460037E+03  0.89346811928E+03  0.25500000920E-02 0.  1.
</event>
<event>
 5   0  0.6337926E-05  0.2291348E+04  0.7818609E-02  0.8481340E-01
        2   -1    0    0  501    0  0.00000000000E+00  0.00000000000E+00  0.12464564774E+04  0.12464564774E+04  0.25500000920E-02 0.  1.
       -2   -1    0    0    0  501  0.00000000000E+00  0.00000000000E+00 -0.10530404109E+04  0.10530404109E+04  0.25500000920E-02 0. -1.
    10030    2    1    2    0    0  0.00000000000E+00  0.00000000000E+00  0.19341606655E+03  0.22994968883E+04  0.22913481107E+04 0.  0.
        1    1    3    3  502    0  0.18230576160E+03  0.10272756866E+04 -0.37830212827E+03  0.11097942274E+04  0.50400001928E-02 0. -1.
       -1    1    3    3    0  502 -0.18230576160E+03 -0.10272756866E+04  0.57171819481E+03  0.11897026609E+04  0.50400001928E-02 0.  1.
</event>
<event>
 5   0  0.2943244E-05  0.2227245E+04  0.7818609E-02  0.8507173E-01
       -1   -1    0    0    0  501  0.00000000000E+00  0.00000000000E+00  0.82141969668E+03  0.82141969670E+03  0.50400001928E-02 0. -1.
        1   -1    0    0  501    0  0.00000000000E+00  0.00000000000E+00 -0.15097699561E+04  0.15097699561E+04  0.50400001928E-02 0.  1.
    10030    2    1    2    0    0  0.00000000000E+00  0.00000000000E+00 -0.68835025941E+03  0.23311896528E+04  0.22272447368E+04 0.  0.
        3    1    3    3  502    0 -0.27649805834E+03 -0.10270184230E+04 -0.68963441966E+03  0.12676015385E+04  0.10100000352E+00 0.  1.
       -3    1    3    3    0  502  0.27649805834E+03  0.10270184230E+04  0.12841602522E+01  0.10635881143E+04  0.10100000352E+00 0. -1.
</event>
<event>
 5   0  0.2901816E-05  0.2423674E+04  0.7818609E-02  0.8430693E-01
       -1   -1    0    0    0  501  0.00000000000E+00  0.00000000000E+00  0.12628332304E+04  0.12628332304E+04  0.50400001928E-02 0.  1.
        1   -1    0    0  501    0  0.00000000000E+00  0.00000000000E+00 -0.11629001342E+04  0.11629001342E+04  0.50400001928E-02 0. -1.
    10030    2    1    2    0    0  0.00000000000E+00  0.00000000000E+00  0.99933096161E+02  0.24257333646E+04  0.24236740153E+04 0.  0.
        4    1    3    3  502    0 -0.86218624002E+03 -0.72013651720E+02  0.89921344711E+03  0.12478531624E+04  0.12699999809E+01 0.  1.
       -4    1    3    3    0  502  0.86218624002E+03  0.72013651720E+02 -0.79928035095E+03  0.11778802022E+04  0.12699999809E+01 0. -1.
</event>
<event>
 5   0  0.6703961E-05  0.2360920E+04  0.7818609E-02  0.8454281E-01
        2   -1    0    0  501    0  0.00000000000E+00  0.00000000000E+00  0.12026792166E+04  0.12026792166E+04  0.25500000920E-02 0.  1.
       -2   -1    0    0    0  501  0.00000000000E+00  0.00000000000E+00 -0.11586512340E+04  0.11586512340E+04  0.25500000920E-02 0. -1.
    10030    2    1    2    0    0  0.00000000000E+00  0.00000000000E+00  0.44027982631E+02  0.23613304506E+04  0.23609199549E+04 0.  0.
        2    1    3    3  502    0 -0.11485554071E+04  0.40984685469E+02 -0.24752589101E+03  0.11756395427E+04  0.25500000920E-02 0. -1.
       -2    1    3    3    0  502  0.11485554071E+04 -0.40984685469E+02  0.29155387364E+03  0.11856909078E+04  0.25500000920E-02 0.  1.
</event>
<event>
 5   0  0.6978115E-05  0.2221501E+04  0.7818609E-02  0.8509532E-01
        2   -1    0    0  501    0  0.00000000000E+00  0.00000000000E+00  0.16562610893E+04  0.16562610893E+04  0.25500000920E-02 0.  1.
       -2   -1    0    0    0  501  0.00000000000E+00  0.00000000000E+00 -0.74491094581E+03  0.74491094581E+03  0.25500000920E-02 0. -1.
    10030    2    1    2    0    0  0.00000000000E+00  0.00000000000E+00  0.91135014347E+03  0.24011720351E+04  0.22215013072E+04 0.  0.
        4    1    3    3  502    0 -0.97756341387E+03  0.88576980565E+02 -0.10626645099E+03  0.98730455338E+03  0.12699999809E+01 0. -1.
       -4    1    3    3    0  502  0.97756341387E+03 -0.88576980565E+02  0.10176165945E+04  0.14138674817E+04  0.12699999809E+01 0.  1.
</event>
<event>
 5   0  0.6714629E-05  0.2439549E+04  0.7818609E-02  0.8424844E-01
        2   -1    0    0  501    0  0.00000000000E+00  0.00000000000E+00  0.19276661130E+04  0.19276661130E+04  0.25500000920E-02 0.  1.
       -2   -1    0    0    0  501  0.00000000000E+00  0.00000000000E+00 -0.77183994671E+03  0.77183994671E+03  0.25500000920E-02 0. -1.
    10030    2    1    2    0    0  0.00000000000E+00  0.00000000000E+00  0.11558261663E+04  0.26995060598E+04  0.24395489009E+04 0.  0.
        3    1    3    3  502    0  0.37680190619E+02 -0.55226861324E+03  0.17806721627E+04  0.18647288755E+04  0.10100000352E+00 0.  1.
       -3    1    3    3    0  502 -0.37680190619E+02  0.55226861324E+03 -0.62484599637E+03  0.83477718424E+03  0.10100000352E+00 0. -1.
</event>
<event>
 5   0  0.6600166E-05  0.2380083E+04  0.7818609E-02  0.8446998E-01
        2   -1    0    0  501    0  0.00000000000E+00  0.00000000000E+00  0.11606820681E+04  0.11606820681E+04  0.25500000920E-02 0. -1.
       -2   -1    0    0    0  501  0.00000000000E+00  0.00000000000E+00 -0.12201440345E+04  0.12201440345E+04  0.25500000920E-02 0.  1.
    10030    2    1    2    0    0  0.00000000000E+00  0.00000000000E+00 -0.59461966413E+02  0.23808261026E+04  0.23800834451E+04 0.  0.
        5    1    3    3  502    0  0.68953803903E+02 -0.10173608514E+04  0.58397449582E+03  0.11750855419E+04  0.46999998093E+01 0. -1.
       -5    1    3    3    0  502 -0.68953803903E+02  0.10173608514E+04 -0.64343646223E+03  0.12057405608E+04  0.46999998093E+01 0.  1.
</event>
<event>
 5   0  0.2901816E-05  0.2342426E+04  0.7818609E-02  0.8461379E-01
        1   -1    0    0  501    0  0.00000000000E+00  0.00000000000E+00  0.83917754009E+03  0.83917754010E+03  0.50400001928E-02 0.  1.
       -1   -1    0    0    0  501  0.00000000000E+00  0.00000000000E+00 -0.16346239130E+04  0.16346239131E+04  0.50400001928E-02 0. -1.
    10030    2    1    2    0    0  0.00000000000E+00  0.00000000000E+00 -0.79544637296E+03  0.24738014532E+04  0.23424258147E+04 0.  0.
        4    1    3    3  502    0 -0.96703397666E+03  0.23296392926E+03  0.25526824260E+03  0.10269325162E+04  0.12699999809E+01 0.  1.
       -4    1    3    3    0  502  0.96703397666E+03 -0.23296392926E+03 -0.10507146156E+04  0.14468689369E+04  0.12699999809E+01 0. -1.
</event>
<event>
 5   0  0.2943244E-05  0.2422260E+04  0.7818609E-02  0.8431217E-01
       -1   -1    0    0    0  501  0.00000000000E+00  0.00000000000E+00  0.12704105200E+04  0.12704105200E+04  0.50400001928E-02 0.  1.
        1   -1    0    0  501    0  0.00000000000E+00  0.00000000000E+00 -0.11546154283E+04  0.11546154283E+04  0.50400001928E-02 0. -1.
    10030    2    1    2    0    0  0.00000000000E+00  0.00000000000E+00  0.11579509169E+03  0.24250259483E+04  0.24222597604E+04 0.  0.
        3    1    3    3  502    0  0.17615036255E+03  0.11982209936E+04  0.49339291187E+02  0.12121043171E+04  0.10100000352E+00 0.  1.
       -3    1    3    3    0  502 -0.17615036255E+03 -0.11982209936E+04  0.66455800507E+02  0.12129216312E+04  0.10100000352E+00 0. -1.
</event>
<event>
 5   0  0.2943123E-05  0.2400002E+04  0.7818609E-02  0.8439503E-01
        1   -1    0    0  501    0  0.00000000000E+00  0.00000000000E+00  0.91579433397E+03  0.91579433398E+03  0.50400001928E-02 0.  1.
       -1   -1    0    0    0  501  0.00000000000E+00  0.00000000000E+00 -0.15724081728E+04  0.15724081729E+04  0.50400001928E-02 0. -1.
    10030    2    1    2    0    0  0.00000000000E+00  0.00000000000E+00 -0.65661383888E+03  0.24882025068E+04  0.24000020795E+04 0.  0.
        1    1    3    3  502    0 -0.23929983496E+02 -0.11448878632E+04  0.43569493556E+02  0.11459664760E+04  0.50400001928E-02 0.  1.
       -1    1    3    3    0  502  0.23929983496E+02  0.11448878632E+04 -0.70018333243E+03  0.13422360308E+04  0.50400001928E-02 0. -1.
</event>
<event>
 5   0  0.6978115E-05  0.2339996E+04  0.7818609E-02  0.8462316E-01
       -2   -1    0    0    0  501  0.00000000000E+00  0.00000000000E+00  0.80219792235E+03  0.80219792236E+03  0.25500000920E-02 0.  1.
        2   -1    0    0  501    0  0.00000000000E+00  0.00000000000E+00 -0.17064313936E+04  0.17064313936E+04  0.25500000920E-02 0. -1.
    10030    2    1    2    0    0  0.00000000000E+00  0.00000000000E+00 -0.90423347128E+03  0.25086293160E+04  0.23399963407E+04 0.  0.
        4    1    3    3  502    0 -0.52656405811E+03 -0.72842048220E+03  0.35087963632E+03  0.96487524492E+03  0.12699999809E+01 0.  1.
       -4    1    3    3    0  502  0.52656405811E+03  0.72842048220E+03 -0.12551131076E+04  0.15437540711E+04  0.12699999809E+01 0. -1.
</event>
<event>
 5   0  0.6978115E-05  0.2479313E+04  0.7818609E-02  0.8410393E-01
       -2   -1    0    0    0  501  0.00000000000E+00  0.00000000000E+00  0.13541081781E+04  0.13541081781E+04  0.25500000920E-02 0. -1.
        2   -1    0    0  501    0  0.00000000000E+00  0.00000000000E+00 -0.11348782928E+04  0.11348782928E+04  0.25500000920E-02 0.  1.
    10030    2    1    2    0    0  0.00000000000E+00  0.00000000000E+00  0.21922988526E+03  0.24889864710E+04  0.24793127899E+04 0.  0.
        4    1    3    3  502    0  0.10681405618E+04 -0.26902154122E+03  0.68056019690E+03  0.12947820836E+04  0.12699999809E+01 0. -1.
       -4    1    3    3    0  502 -0.10681405618E+04  0.26902154122E+03 -0.46133031164E+03  0.11942043874E+04  0.12699999809E+01 0.  1.
</event>
<event>
 5   0  0.2847158E-05  0.2346529E+04  0.7818609E-02  0.8459798E-01
       -1   -1    0    0    0  501  0.00000000000E+00  0.00000000000E+00  0.12227014777E+04  0.12227014777E+04  0.50400001928E-02 0.  1.
        1   -1    0    0  501    0  0.00000000000E+00  0.00000000000E+00 -0.11258263365E+04  0.11258263365E+04  0.50400001928E-02 0. -1.
    10030    2    1    2    0    0  0.00000000000E+00  0.00000000000E+00  0.96875141188E+02  0.23485278142E+04  0.23465289474E+04 0.  0.
        5    1    3    3  502    0  0.15089114448E+03 -0.60437544136E+03 -0.94663750728E+03  0.11332177513E+04  0.46999998093E+01 0. -1.
       -5    1    3    3    0  502 -0.15089114448E+03  0.60437544136E+03  0.10435126485E+04  0.12153100629E+04  0.46999998093E+01 0.  1.
</event>
<event>
 5   0  0.6703961E-05  0.1478248E+04  0.7818609E-02  0.8899048E-01
       -2   -1    0    0    0  501  0.00000000000E+00  0.00000000000E+00  0.42790919949E+03  0.42790919949E+03  0.25500000920E-02 0. -1.
        2   -1    0    0  501    0  0.00000000000E+00  0.00000000000E+00 -0.12766827416E+04  0.12766827416E+04  0.25500000920E-02 0.  1.
    10030    2    1    2    0    0  0.00000000000E+00  0.00000000000E+00 -0.84877354212E+03  0.17045919411E+04  0.14782480035E+04 0.  0.
        2    1    3    3  502    0 -0.45326274908E+02 -0.33034367557E+03 -0.11850266437E+04  0.12310440940E+04  0.25500000920E-02 0.  1.
       -2    1    3    3    0  502  0.45326274908E+02  0.33034367557E+03  0.33625310154E+03  0.47354784710E+03  0.25500000920E-02 0. -1.
</event>
<event>
 5   0  0.2915546E-05  0.2476004E+04  0.7818609E-02  0.8411585E-01
        1   -1    0    0  501    0  0.00000000000E+00  0.00000000000E+00  0.99258652255E+03  0.99258652256E+03  0.50400001928E-02 0.  1.
       -1   -1    0    0    0  501  0.00000000000E+00  0.00000000000E+00 -0.15440957421E+04  0.15440957421E+04  0.50400001928E-02 0. -1.
    10030    2    1    2    0    0  0.00000000000E+00  0.00000000000E+00 -0.55150921953E+03  0.25366822647E+04  0.24760037344E+04 0.  0.
        2    1    3    3  502    0  0.20613459131E+03 -0.89579914870E+03 -0.11253548319E+04  0.14530557739E+04  0.25500000920E-02 0. -1.
       -2    1    3    3    0  502 -0.20613459131E+03  0.89579914870E+03  0.57384561235E+03  0.10836264907E+04  0.25500000920E-02 0.  1.
</event>
<event>
 5   0  0.2943244E-05  0.2306428E+04  0.7818609E-02  0.8475391E-01
        1   -1    0    0  501    0  0.00000000000E+00  0.00000000000E+00  0.17835568395E+04  0.17835568395E+04  0.50400001928E-02 0.  1.
       -1   -1    0    0    0  501  0.00000000000E+00  0.00000000000E+00 -0.74564651839E+03  0.74564651841E+03  0.50400001928E-02 0. -1.
    10030    2    1    2    0    0  0.00000000000E+00  0.00000000000E+00  0.10379103211E+04  0.25292033579E+04  0.23064283624E+04 0.  0.
        3    1    3    3  502    0  0.40986625012E+02  0.10547132912E+04  0.95393432896E+01  0.10555524806E+04  0.10100000352E+00 0.  1.
       -3    1    3    3    0  502 -0.40986625012E+02 -0.10547132912E+04  0.10283709778E+04  0.14736508773E+04  0.10100000352E+00 0. -1.
</event>
<event>
 5   0  0.6600166E-05  0.2436624E+04  0.7818609E-02  0.8425918E-01
       -2   -1    0    0    0  501  0.00000000000E+00  0.00000000000E+00  0.55879796508E+03  0.55879796509E+03  0.25500000920E-02 0. -1.
        2   -1    0    0  501    0  0.00000000000E+00  0.00000000000E+00 -0.26562083401E+04  0.26562083401E+04  0.25500000920E-02 0.  1.
    10030    2    1    2    0    0  0.00000000000E+00  0.00000000000E+00 -0.20974103750E+04  0.32150063052E+04  0.24366237422E+04 0.  0.
        5    1    3    3  502    0 -0.64535914906E+03  0.88051303597E+03 -0.33513929216E+03  0.11419860213E+04  0.46999998093E+01 0. -1.
       -5    1    3    3    0  502  0.64535914906E+03 -0.88051303597E+03 -0.17622710828E+04  0.20730202838E+04  0.46999998093E+01 0.  1.
</event>
<event>
 5   0  0.6337926E-05  0.2176388E+04  0.7818609E-02  0.8528321E-01
       -2   -1    0    0    0  501  0.00000000000E+00  0.00000000000E+00  0.85101078983E+03  0.85101078983E+03  0.25500000920E-02 0.  1.
        2   -1    0    0  501    0  0.00000000000E+00  0.00000000000E+00 -0.13914823673E+04  0.13914823673E+04  0.25500000920E-02 0. -1.
    10030    2    1    2    0    0  0.00000000000E+00  0.00000000000E+00 -0.54047157751E+03  0.22424931572E+04  0.21763883003E+04 0.  0.
        1    1    3    3  502    0  0.49869020639E+03 -0.48656125304E+03  0.59105596358E+03  0.91366346486E+03  0.50400001928E-02 0.  1.
       -1    1    3    3    0  502 -0.49869020639E+03  0.48656125304E+03 -0.11315275411E+04  0.13288296923E+04  0.50400001928E-02 0. -1.
</event>
<event>
 5   0  0.2901816E-05  0.2379652E+04  0.7818609E-02  0.8447161E-01
       -1   -1    0    0    0  501  0.00000000000E+00  0.00000000000E+00  0.13986442457E+04  0.13986442457E+04  0.50400001928E-02 0. -1.
        1   -1    0    0  501    0  0.00000000000E+00  0.00000000000E+00 -0.10121847065E+04  0.10121847065E+04  0.50400001928E-02 0.  1.
    10030    2    1    2    0    0  0.00000000000E+00  0.00000000000E+00  0.38645953926E+03  0.24108289522E+04  0.23796523404E+04 0.  0.
        4    1    3    3  502    0 -0.65491717489E+03  0.37963487002E+03 -0.73675396880E+03  0.10563366717E+04  0.12699999809E+01 0.  1.
       -4    1    3    3    0  502  0.65491717489E+03 -0.37963487002E+03  0.11232135081E+04  0.13544922805E+04  0.12699999809E+01 0. -1.
</event>
<event>
 5   0  0.2901816E-05  0.2379135E+04  0.7818609E-02  0.8447356E-01
        1   -1    0    0  501    0  0.00000000000E+00  0.00000000000E+00  0.18612312142E+04  0.18612312143E+04  0.50400001928E-02 0. -1.
       -1   -1    0    0    0  501  0.00000000000E+00  0.00000000000E+00 -0.76028774285E+03  0.76028774287E+03  0.50400001928E-02 0.  1.
    10030    2    1    2    0    0  0.00000000000E+00  0.00000000000E+00  0.11009434714E+04  0.26215189571E+04  0.23791353714E+04 0.  0.
        4    1    3    3  502    0  0.79367326017E+03  0.69976313289E+03 -0.48492399835E+02  0.10592161308E+04  0.12699999809E+01 0.  1.
       -4    1    3    3    0  502 -0.79367326017E+03 -0.69976313289E+03  0.11494358712E+04  0.15623028263E+04  0.12699999809E+01 0. -1.
</event>
<event>
 5   0  0.2943244E-05  0.2457462E+04  0.7818609E-02  0.8418299E-01
        1   -1    0    0  501    0  0.00000000000E+00  0.00000000000E+00  0.13597865737E+04  0.13597865737E+04  0.50400001928E-02 0.  1.
       -1   -1    0    0    0  501  0.00000000000E+00  0.00000000000E+00 -0.11103064470E+04  0.11103064470E+04  0.50400001928E-02 0. -1.
    10030    2    1    2    0    0  0.00000000000E+00  0.00000000000E+00  0.24948012670E+03  0.24700930207E+04  0.24574619422E+04 0.  0.
        3    1    3    3  502    0  0.89888137282E+03  0.69664721799E+03  0.59239993001E+03  0.12822802954E+04  0.10100000352E+00 0.  1.
       -3    1    3    3    0  502 -0.89888137282E+03 -0.69664721799E+03 -0.34291980331E+03  0.11878127253E+04  0.10100000352E+00 0. -1.
</event>
<event>
 5   0  0.6978115E-05  0.2411181E+04  0.7818609E-02  0.8435329E-01
       -2   -1    0    0    0  501  0.00000000000E+00  0.00000000000E+00  0.91370526231E+03  0.91370526232E+03  0.25500000920E-02 0.  1.
        2   -1    0    0  501    0  0.00000000000E+00  0.00000000000E+00 -0.15907188293E+04  0.15907188293E+04  0.25500000920E-02 0. -1.
    10030    2    1    2    0    0  0.00000000000E+00  0.00000000000E+00 -0.67701356703E+03  0.25044240917E+04  0.24111807607E+04 0.  0.
        4    1    3    3  502    0 -0.44632640434E+02 -0.78381412233E+03  0.61180071154E+03  0.99531822775E+03  0.12699999809E+01 0.  1.
       -4    1    3    3    0  502  0.44632640434E+02  0.78381412233E+03 -0.12888142786E+04  0.15091058639E+04  0.12699999809E+01 0. -1.
</event>
<event>
 5   0  0.2847158E-05  0.2303363E+04  0.7818609E-02  0.8476596E-01
        1   -1    0    0  501    0  0.00000000000E+00  0.00000000000E+00  0.13691439311E+04  0.13691439311E+04  0.50400001928E-02 0.  1.
       -1   -1    0    0    0  501  0.00000000000E+00  0.00000000000E+00 -0.96875878989E+03  0.96875878991E+03  0.50400001928E-02 0. -1.
    10030    2    1    2    0    0  0.00000000000E+00  0.00000000000E+00  0.40038514120E+03  0.23379027210E+04  0.23033629483E+04 0.  0.
        5    1    3    3  502    0  0.39435388367E+03  0.67544012341E+03  0.10582171988E+04  0.13158951614E+04  0.46999998093E+01 0.  1.
       -5    1    3    3    0  502 -0.39435388367E+03 -0.67544012341E+03 -0.65783205762E+03  0.10220075596E+04  0.46999998093E+01 0. -1.
</event>
<event>
 5   0  0.6714629E-05  0.2380737E+04  0.7818609E-02  0.8446751E-01
        2   -1    0    0  501    0  0.00000000000E+00  0.00000000000E+00  0.12712654158E+04  0.12712654158E+04  0.25500000920E-02 0. -1.
       -2   -1    0    0    0  501  0.00000000000E+00  0.00000000000E+00 -0.11146194830E+04  0.11146194830E+04  0.25500000920E-02 0.  1.
    10030    2    1    2    0    0  0.00000000000E+00  0.00000000000E+00  0.15664593279E+03  0.23858848988E+04  0.23807370292E+04 0.  0.
        3    1    3    3  502    0 -0.11825944606E+04  0.38596270675E+02  0.20882689460E+03  0.12015107209E+04  0.10100000352E+00 0.  1.
       -3    1    3    3    0  502  0.11825944606E+04 -0.38596270675E+02 -0.52180961811E+02  0.11843741779E+04  0.10100000352E+00 0. -1.
</event>
<event>
 5   0  0.6714629E-05  0.2561517E+04  0.7818609E-02  0.8381392E-01
        2   -1    0    0  501    0  0.00000000000E+00  0.00000000000E+00  0.19309797972E+04  0.19309797972E+04  0.25500000920E-02 0.  1.
       -2   -1    0    0    0  501  0.00000000000E+00  0.00000000000E+00 -0.84948736397E+03  0.84948736398E+03  0.25500000920E-02 0. -1.
    10030    2    1    2    0    0  0.00000000000E+00  0.00000000000E+00  0.10814924332E+04  0.27804671612E+04  0.25615174704E+04 0.  0.
        3    1    3    3  502    0  0.89628683160E+03  0.61634649811E+03  0.12746518689E+04  0.16756940315E+04  0.10100000352E+00 0.  1.
       -3    1    3    3    0  502 -0.89628683160E+03 -0.61634649811E+03 -0.19315943565E+03  0.11047731297E+04  0.10100000352E+00 0. -1.
</event>
<event>
 5   0  0.2339125E-05  0.2321898E+04  0.7818609E-02  0.8469337E-01
        3   -1    0    0  501    0  0.00000000000E+00  0.00000000000E+00  0.11520790894E+04  0.11520790938E+04  0.10100000352E+00 0. -1.
       -3   -1    0    0    0  501  0.00000000000E+00  0.00000000000E+00 -0.11698873952E+04  0.11698873995E+04  0.10100000352E+00 0.  1.
    10030    2    1    2    0    0  0.00000000000E+00  0.00000000000E+00 -0.17808305747E+02  0.23219664934E+04  0.23218982020E+04 0.  0.
        2    1    3    3  502    0  0.10265387056E+04  0.28821044883E+02  0.53258240769E+03  0.11568303193E+04  0.25500000920E-02 0. -1.
       -2    1    3    3    0  502 -0.10265387056E+04 -0.28821044883E+02 -0.55039071344E+03  0.11651361741E+04  0.25500000920E-02 0.  1.
</event>
<event>
 5   0  0.2847158E-05  0.2445372E+04  0.7818609E-02  0.8422710E-01
        1   -1    0    0  501    0  0.00000000000E+00  0.00000000000E+00  0.20231199078E+04  0.20231199078E+04  0.50400001928E-02 0.  1.
       -1   -1    0    0    0  501  0.00000000000E+00  0.00000000000E+00 -0.73893850174E+03  0.73893850176E+03  0.50400001928E-02 0. -1.
    10030    2    1    2    0    0  0.00000000000E+00  0.00000000000E+00  0.12841814061E+04  0.27620584096E+04  0.24453721136E+04 0.  0.
        5    1    3    3  502    0  0.43081474289E+03  0.32878601857E+03 -0.59585713728E+03  0.80546223173E+03  0.46999998093E+01 0. -1.
       -5    1    3    3    0  502 -0.43081474289E+03 -0.32878601857E+03  0.18800385433E+04  0.19565961778E+04  0.46999998093E+01 0.  1.
</event>
<event>
 5   0  0.6714629E-05  0.2439238E+04  0.7818609E-02  0.8424958E-01
        2   -1    0    0  501    0  0.00000000000E+00  0.00000000000E+00  0.13636497843E+04  0.13636497843E+04  0.25500000920E-02 0.  1.
       -2   -1    0    0    0  501  0.00000000000E+00  0.00000000000E+00 -0.10908011591E+04  0.10908011591E+04  0.25500000920E-02 0. -1.
    10030    2    1    2    0    0  0.00000000000E+00  0.00000000000E+00  0.27284862517E+03  0.24544509434E+04  0.24392382134E+04 0.  0.
        3    1    3    3  502    0 -0.10958904230E+04  0.48799413818E+03 -0.84848612114E+02  0.12026277044E+04  0.10100000352E+00 0.  1.
       -3    1    3    3    0  502  0.10958904230E+04 -0.48799413818E+03  0.35769723728E+03  0.12518232391E+04  0.10100000352E+00 0. -1.
</event>
<event>
 5   0  0.2339125E-05  0.2410704E+04  0.7818609E-02  0.8435507E-01
       -3   -1    0    0    0  501  0.00000000000E+00  0.00000000000E+00  0.16555276769E+04  0.16555276800E+04  0.10100000352E+00 0. -1.
        3   -1    0    0  501    0  0.00000000000E+00  0.00000000000E+00 -0.87758954512E+03  0.87758955093E+03  0.10100000352E+00 0.  1.
    10030    2    1    2    0    0  0.00000000000E+00  0.00000000000E+00  0.77793813180E+03  0.25331172309E+04  0.24107042889E+04 0.  0.
        1    1    3    3  502    0  0.81549973583E+03  0.37739010382E+03 -0.45519997981E+03  0.10073083596E+04  0.50400001928E-02 0.  1.
       -1    1    3    3    0  502 -0.81549973583E+03 -0.37739010382E+03  0.12331381116E+04  0.15258088714E+04  0.50400001928E-02 0. -1.
</event>
<event>
 5   0  0.6703961E-05  0.2489774E+04  0.7818609E-02  0.8406638E-01
        2   -1    0    0  501    0  0.00000000000E+00  0.00000000000E+00  0.25165071872E+04  0.25165071872E+04  0.25500000920E-02 0. -1.
       -2   -1    0    0    0  501  0.00000000000E+00  0.00000000000E+00 -0.61583099862E+03  0.61583099863E+03  0.25500000920E-02 0.  1.
    10030    2    1    2    0    0  0.00000000000E+00  0.00000000000E+00  0.19006761885E+04  0.31323381858E+04  0.24897735914E+04 0.  0.
        2    1    3    3  502    0  0.67074987930E+02 -0.49774097586E+03  0.23833907144E+04  0.24357332429E+04  0.25500000920E-02 0. -1.
       -2    1    3    3    0  502 -0.67074987930E+02  0.49774097586E+03 -0.48271452583E+03  0.69660494293E+03  0.25500000920E-02 0.  1.
</event>
<event>
 5   0  0.6337926E-05  0.2497963E+04  0.7818609E-02  0.8403712E-01
       -2   -1    0    0    0  501  0.00000000000E+00  0.00000000000E+00  0.12175452924E+04  0.12175452924E+04  0.25500000920E-02 0. -1.
        2   -1    0    0  501    0  0.00000000000E+00  0.00000000000E+00 -0.12812291411E+04  0.12812291411E+04  0.25500000920E-02 0.  1.
    10030    2    1    2    0    0  0.00000000000E+00  0.00000000000E+00 -0.63683848705E+02  0.24987744334E+04  0.24979627773E+04 0.  0.
        1    1    3    3  502    0 -0.67948292503E+03 -0.95549215020E+03  0.39875376442E+03  0.12384130406E+04  0.50400001928E-02 0. -1.
       -1    1    3    3    0  502  0.67948292503E+03  0.95549215020E+03 -0.46243761312E+03  0.12603613928E+04  0.50400001928E-02 0.  1.
</event>
<event>
 5   0  0.2943123E-05  0.2413358E+04  0.7818609E-02  0.8434519E-01
       -1   -1    0    0    0  501  0.00000000000E+00  0.00000000000E+00  0.11184881446E+04  0.11184881446E+04  0.50400001928E-02 0.  1.
        1   -1    0    0  501    0  0.00000000000E+00  0.00000000000E+00 -0.13018235776E+04  0.13018235777E+04  0.50400001928E-02 0. -1.
    10030    2    1    2    0    0  0.00000000000E+00  0.00000000000E+00 -0.18333543307E+03  0.24203117222E+04  0.24133580240E+04 0.  0.
        1    1    3    3  502    0  0.70191728822E+03 -0.74432754541E+03 -0.73332594880E+03  0.12587606292E+04  0.50400001928E-02 0.  1.
       -1    1    3    3    0  502 -0.70191728822E+03  0.74432754541E+03  0.54999051573E+03  0.11615510931E+04  0.50400001928E-02 0. -1.
</event>
<event>
 5   0  0.6978115E-05  0.2499870E+04  0.7818609E-02  0.8403032E-01
        2   -1    0    0  501    0  0.00000000000E+00  0.00000000000E+00  0.18079687065E+04  0.18079687065E+04  0.25500000920E-02 0. -1.
       -2   -1    0    0    0  501  0.00000000000E+00  0.00000000000E+00 -0.86413945462E+03  0.86413945463E+03  0.25500000920E-02 0.  1.
    10030    2    1    2    0    0  0.00000000000E+00  0.00000000000E+00  0.94382925186E+03  0.26721081611E+04  0.24998696702E+04 0.  0.
        4    1    3    3  502    0 -0.88577862911E+03 -0.77227169018E+03  0.92708005025E+03  0.14968254326E+04  0.12699999809E+01 0. -1.
       -4    1    3    3    0  502  0.88577862911E+03  0.77227169018E+03  0.16749201608E+02  0.11752827285E+04  0.12699999809E+01 0.  1.
</event>
<event>
 5   0  0.6978115E-05  0.2409174E+04  0.7818609E-02  0.8436077E-01
        2   -1    0    0  501    0  0.00000000000E+00  0.00000000000E+00  0.92958141570E+03  0.92958141571E+03  0.25500000920E-02 0.  1.
       -2   -1    0    0    0  501  0.00000000000E+00  0.00000000000E+00 -0.15609493400E+04  0.15609493400E+04  0.25500000920E-02 0. -1.
    10030    2    1    2    0    0  0.00000000000E+00  0.00000000000E+00 -0.63136792434E+03  0.24905307558E+04  0.24091737151E+04 0.  0.
        4    1    3    3  502    0 -0.47038093532E+03  0.59435930550E+03  0.65215122427E+03  0.99991201641E+03  0.12699999809E+01 0.  1.
       -4    1    3    3    0  502  0.47038093532E+03 -0.59435930550E+03 -0.12835191486E+04  0.14906187393E+04  0.12699999809E+01 0. -1.
</event>
<event>
 5   0  0.6714629E-05  0.2409599E+04  0.7818609E-02  0.8435919E-01
        2   -1    0    0  501    0  0.00000000000E+00  0.00000000000E+00  0.14102853919E+04  0.14102853919E+04  0.25500000920E-02 0. -1.
       -2   -1    0    0    0  501  0.00000000000E+00  0.00000000000E+00 -0.10292539958E+04  0.10292539958E+04  0.25500000920E-02 0.  1.
    10030    2    1    2    0    0  0.00000000000E+00  0.00000000000E+00  0.38103139617E+03  0.24395393877E+04  0.24095990329E+04 0.  0.
        3    1    3    3  502    0  0.26331315178E+03  0.81512941476E+03 -0.66722563117E+03  0.10857991673E+04  0.10100000352E+00 0.  1.
       -3    1    3    3    0  502 -0.26331315178E+03 -0.81512941476E+03  0.10482570273E+04  0.13537402204E+04  0.10100000352E+00 0. -1.
</event>
<event>
 5   0  0.2901816E-05  0.2388590E+04  0.7818609E-02  0.8443788E-01
        1   -1    0    0  501    0  0.00000000000E+00  0.00000000000E+00  0.15473210370E+04  0.15473210370E+04  0.50400001928E-02 0.  1.
       -1   -1    0    0    0  501  0.00000000000E+00  0.00000000000E+00 -0.92181318407E+03  0.92181318408E+03  0.50400001928E-02 0. -1.
    10030    2    1    2    0    0  0.00000000000E+00  0.00000000000E+00  0.62550785294E+03  0.24691342211E+04  0.23885903223E+04 0.  0.
        4    1    3    3  502    0 -0.93522630540E+03  0.29633068645E+03  0.10168071325E+04  0.14129255025E+04  0.12699999809E+01 0.  1.
       -4    1    3    3    0  502  0.93522630540E+03 -0.29633068645E+03 -0.39129927960E+03  0.10562087186E+04  0.12699999809E+01 0. -1.
</event>
<event>
 5   0  0.2915546E-05  0.2384859E+04  0.7818609E-02  0.8445194E-01
       -1   -1    0    0    0  501  0.00000000000E+00  0.00000000000E+00  0.13446162456E+04  0.13446162457E+04  0.50400001928E-02 0.  1.
        1   -1    0    0  501    0  0.00000000000E+00  0.00000000000E+00 -0.10574673560E+04  0.10574673560E+04  0.50400001928E-02 0. -1.
    10030    2    1    2    0    0  0.00000000000E+00  0.00000000000E+00  0.28714888970E+03  0.24020836016E+04  0.23848587263E+04 0.  0.
        2    1    3    3  502    0  0.11277598994E+04 -0.10492044741E+02 -0.24643706630E+03  0.11544192052E+04  0.25500000920E-02 0. -1.
       -2    1    3    3    0  502 -0.11277598994E+04  0.10492044741E+02  0.53358595600E+03  0.12476643964E+04  0.25500000920E-02 0.  1.
</event>
<event>
 5   0  0.6714629E-05  0.1841628E+04  0.7818609E-02  0.8684470E-01
        2   -1    0    0  501    0  0.00000000000E+00  0.00000000000E+00  0.13833055416E+04  0.13833055416E+04  0.25500000920E-02 0. -1.
       -2   -1    0    0    0  501  0.00000000000E+00  0.00000000000E+00 -0.61295096643E+03  0.61295096643E+03  0.25500000920E-02 0.  1.
    10030    2    1    2    0    0  0.00000000000E+00  0.00000000000E+00  0.77035457519E+03  0.19962565081E+04  0.18416280500E+04 0.  0.
        3    1    3    3  502    0  0.17605922794E+03  0.57404666761E+03  0.11419138621E+04  0.12901525906E+04  0.10100000352E+00 0. -1.
       -3    1    3    3    0  502 -0.17605922794E+03 -0.57404666761E+03 -0.37155928693E+03  0.70610391745E+03  0.10100000352E+00 0.  1.
</event>
<event>
 5   0  0.6337926E-05  0.2445428E+04  0.7818609E-02  0.8422689E-01
       -2   -1    0    0    0  501  0.00000000000E+00  0.00000000000E+00  0.65382888542E+03  0.65382888542E+03  0.25500000920E-02 0. -1.
        2   -1    0    0  501    0  0.00000000000E+00  0.00000000000E+00 -0.22865759555E+04  0.22865759555E+04  0.25500000920E-02 0.  1.
    10030    2    1    2    0    0  0.00000000000E+00  0.00000000000E+00 -0.16327470701E+04  0.29404048409E+04  0.24454279040E+04 0.  0.
        1    1    3    3  502    0  0.38791121482E+03 -0.83955831259E+03 -0.17780724584E+04  0.20042142945E+04  0.50400001928E-02 0.  1.
       -1    1    3    3    0  502 -0.38791121482E+03  0.83955831259E+03  0.14532538828E+03  0.93619054649E+03  0.50400001928E-02 0. -1.
</event>
<event>
 5   0  0.6978115E-05  0.2066907E+04  0.7818609E-02  0.8575963E-01
        2   -1    0    0  501    0  0.00000000000E+00  0.00000000000E+00  0.14196070384E+04  0.14196070384E+04  0.25500000920E-02 0.  1.
       -2   -1    0    0    0  501  0.00000000000E+00  0.00000000000E+00 -0.75233933041E+03  0.75233933041E+03  0.25500000920E-02 0. -1.
    10030    2    1    2    0    0  0.00000000000E+00  0.00000000000E+00  0.66726770802E+03  0.21719463689E+04  0.20669070698E+04 0.  0.
        4    1    3    3  502    0  0.11412535060E+03  0.80670061258E+03 -0.33447100671E+03  0.88071728790E+03  0.12699999809E+01 0. -1.
       -4    1    3    3    0  502 -0.11412535060E+03 -0.80670061258E+03  0.10017387147E+04  0.12912290809E+04  0.12699999809E+01 0.  1.
</event>
<event>
 5   0  0.2943244E-05  0.2325505E+04  0.7818609E-02  0.8467932E-01
       -1   -1    0    0    0  501  0.00000000000E+00  0.00000000000E+00  0.80957319527E+03  0.80957319528E+03  0.50400001928E-02 0.  1.
        1   -1    0    0  501    0  0.00000000000E+00  0.00000000000E+00 -0.16700080221E+04  0.16700080221E+04  0.50400001928E-02 0. -1.
    10030    2    1    2    0    0  0.00000000000E+00  0.00000000000E+00 -0.86043482683E+03  0.24795812174E+04  0.23255053048E+04 0.  0.
        3    1    3    3  502    0 -0.91976463939E+03  0.21699515585E+03  0.29211795315E+03  0.98913436817E+03  0.10100000352E+00 0.  1.
       -3    1    3    3    0  502  0.91976463939E+03 -0.21699515585E+03 -0.11525527800E+04  0.14904468492E+04  0.10100000352E+00 0. -1.
</event>
<event>
 5   0  0.2943123E-05  0.2310192E+04  0.7818609E-02  0.8473913E-01
        1   -1    0    0  501    0  0.00000000000E+00  0.00000000000E+00  0.77045127921E+03  0.77045127923E+03  0.50400001928E-02 0. -1.
       -1   -1    0    0    0  501  0.00000000000E+00  0.00000000000E+00 -0.17317728087E+04  0.17317728087E+04  0.50400001928E-02 0.  1.
    10030    2    1    2    0    0  0.00000000000E+00  0.00000000000E+00 -0.96132152947E+03  0.25022240879E+04  0.23101918325E+04 0.  0.
        1    1    3    3  502    0  0.70541082922E+03  0.14098861791E+03  0.49821266993E+03  0.87504176635E+03  0.50400001928E-02 0. -1.
       -1    1    3    3    0  502 -0.70541082922E+03 -0.14098861791E+03 -0.14595341994E+04  0.16271823216E+04  0.50400001928E-02 0.  1.
</event>
<event>
 5   0  0.2915546E-05  0.2405756E+04  0.7818609E-02  0.8437352E-01
        1   -1    0    0  501    0  0.00000000000E+00  0.00000000000E+00  0.87458369505E+03  0.87458369506E+03  0.50400001928E-02 0.  1.
       -1   -1    0    0    0  501  0.00000000000E+00  0.00000000000E+00 -0.16544052529E+04  0.16544052529E+04  0.50400001928E-02 0. -1.
    10030    2    1    2    0    0  0.00000000000E+00  0.00000000000E+00 -0.77982155789E+03  0.25289889480E+04  0.24057563129E+04 0.  0.
        2    1    3    3  502    0  0.11213152452E+04 -0.35936001157E+03 -0.64832458311E+03  0.13441771691E+04  0.25500000920E-02 0.  1.
       -2    1    3    3    0  502 -0.11213152452E+04  0.35936001157E+03 -0.13149697478E+03  0.11848117789E+04  0.25500000920E-02 0. -1.
</event>
<event>
 5   0  0.6337926E-05  0.2427514E+04  0.7818609E-02  0.8429274E-01
       -2   -1    0    0    0  501  0.00000000000E+00  0.00000000000E+00  0.16561125212E+04  0.16561125212E+04  0.25500000920E-02 0.  1.
        2   -1    0    0  501    0  0.00000000000E+00  0.00000000000E+00 -0.88955643230E+03  0.88955643230E+03  0.25500000920E-02 0. -1.
    10030    2    1    2    0    0  0.00000000000E+00  0.00000000000E+00  0.76655608888E+03  0.25456689535E+04  0.24275135805E+04 0.  0.
        1    1    3    3  502    0  0.11678511167E+04  0.32983780899E+03  0.40756416907E+03  0.12801475552E+04  0.50400001928E-02 0. -1.
       -1    1    3    3    0  502 -0.11678511167E+04 -0.32983780899E+03  0.35899191980E+03  0.12655213983E+04  0.50400001928E-02 0.  1.
</event>
<event>
 5   0  0.6978115E-05  0.2430969E+04  0.7818609E-02  0.8427999E-01
        2   -1    0    0  501    0  0.00000000000E+00  0.00000000000E+00  0.94712152554E+03  0.94712152554E+03  0.25500000920E-02 0.  1.
       -2   -1    0    0    0  501  0.00000000000E+00  0.00000000000E+00 -0.15598875689E+04  0.15598875689E+04  0.25500000920E-02 0. -1.
    10030    2    1    2    0    0  0.00000000000E+00  0.00000000000E+00 -0.61276604338E+03  0.25070090945E+04  0.24309694313E+04 0.  0.
        4    1    3    3  502    0  0.91826236108E+03  0.55771688065E+03 -0.89262495237E+03  0.13967944735E+04  0.12699999809E+01 0. -1.
       -4    1    3    3    0  502 -0.91826236108E+03 -0.55771688065E+03  0.27985890899E+03  0.11102146209E+04  0.12699999809E+01 0.  1.
</event>
<event>
 5   0  0.2847158E-05  0.1695367E+04  0.7818609E-02  0.8764011E-01
       -1   -1    0    0    0  501  0.00000000000E+00  0.00000000000E+00  0.84423344453E+03  0.84423344455E+03  0.50400001928E-02 0. -1.
        1   -1    0    0  501    0  0.00000000000E+00  0.00000000000E+00 -0.85114767214E+03  0.85114767215E+03  0.50400001928E-02 0.  1.
    10030    2    1    2    0    0  0.00000000000E+00  0.00000000000E+00 -0.69142276077E+01  0.16953811167E+04  0.16953670176E+04 0.  0.
        5    1    3    3  502    0 -0.72622194061E+03 -0.23298187423E+03  0.36650052807E+03  0.84618176996E+03  0.46999998093E+01 0. -1.
       -5    1    3    3    0  502  0.72622194061E+03  0.23298187423E+03 -0.37341475568E+03  0.84919934674E+03  0.46999998093E+01 0.  1.
</event>
<event>
 5   0  0.6337926E-05  0.2393568E+04  0.7818609E-02  0.8441916E-01
        2   -1    0    0  501    0  0.00000000000E+00  0.00000000000E+00  0.10524544406E+04  0.10524544406E+04  0.25500000920E-02 0.  1.
       -2   -1    0    0    0  501  0.00000000000E+00  0.00000000000E+00 -0.13609058063E+04  0.13609058063E+04  0.25500000920E-02 0. -1.
    10030    2    1    2    0    0  0.00000000000E+00  0.00000000000E+00 -0.30845136563E+03  0.24133602469E+04  0.23935675124E+04 0.  0.
        1    1    3    3  502    0  0.97184006810E+03  0.12171355307E+03  0.53921433970E+03  0.11180516138E+04  0.50400001928E-02 0.  1.
       -1    1    3    3    0  502 -0.97184006810E+03 -0.12171355307E+03 -0.84766570533E+03  0.12953086331E+04  0.50400001928E-02 0. -1.
</event>
<event>
 5   0  0.2943244E-05  0.2371402E+04  0.7818609E-02  0.8450288E-01
       -1   -1    0    0    0  501  0.00000000000E+00  0.00000000000E+00  0.10829854296E+04  0.10829854296E+04  0.50400001928E-02 0.  1.
        1   -1    0    0  501    0  0.00000000000E+00  0.00000000000E+00 -0.12981589852E+04  0.12981589852E+04  0.50400001928E-02 0. -1.
    10030    2    1    2    0    0  0.00000000000E+00  0.00000000000E+00 -0.21517355566E+03  0.23811444148E+04  0.23714023415E+04 0.  0.
        3    1    3    3  502    0  0.24035730338E+03 -0.72950342428E+03  0.79941826956E+03  0.11086101475E+04  0.10100000352E+00 0.  1.
       -3    1    3    3    0  502 -0.24035730338E+03  0.72950342428E+03 -0.10145918252E+04  0.12725342673E+04  0.10100000352E+00 0. -1.
</event>
<event>
 5   0  0.2847158E-05  0.2382890E+04  0.7818609E-02  0.8445937E-01
        1   -1    0    0  501    0  0.00000000000E+00  0.00000000000E+00  0.10222058523E+04  0.10222058523E+04  0.50400001928E-02 0.  1.
       -1   -1    0    0    0  501  0.00000000000E+00  0.00000000000E+00 -0.13887037809E+04  0.13887037809E+04  0.50400001928E-02 0. -1.
    10030    2    1    2    0    0  0.00000000000E+00  0.00000000000E+00 -0.36649792864E+03  0.24109096332E+04  0.23828899529E+04 0.  0.
        5    1    3    3  502    0 -0.16667129409E+03  0.84359162230E+03  0.65112561763E+03  0.10786161530E+04  0.46999998093E+01 0.  1.
       -5    1    3    3    0  502  0.16667129409E+03 -0.84359162230E+03 -0.10176235463E+04  0.13322934802E+04  0.46999998093E+01 0. -1.
</event>
<event>
 5   0  0.2847158E-05  0.2391555E+04  0.7818609E-02  0.8442672E-01
       -1   -1    0    0    0  501  0.00000000000E+00  0.00000000000E+00  0.72826438038E+03  0.72826438040E+03  0.50400001928E-02 0.  1.
        1   -1    0    0  501    0  0.00000000000E+00  0.00000000000E+00 -0.19634132746E+04  0.19634132746E+04  0.50400001928E-02 0. -1.
    10030    2    1    2    0    0  0.00000000000E+00  0.00000000000E+00 -0.12351488942E+04  0.26916776550E+04  0.23915551023E+04 0.  0.
        5    1    3    3  502    0  0.69504206128E+03 -0.82422456745E+03 -0.35538842104E+02  0.10787560910E+04  0.46999998093E+01 0.  1.
       -5    1    3    3    0  502 -0.69504206128E+03  0.82422456745E+03 -0.11996100521E+04  0.16129215640E+04  0.46999998093E+01 0. -1.
</event>
<event>
 5   0  0.6600166E-05  0.2378960E+04  0.7818609E-02  0.8447423E-01
       -2   -1    0    0    0  501  0.00000000000E+00  0.00000000000E+00  0.74268494901E+03  0.74268494901E+03  0.25500000920E-02 0.  1.
        2   -1    0    0  501    0  0.00000000000E+00  0.00000000000E+00 -0.19050647348E+04  0.19050647348E+04  0.25500000920E-02 0. -1.
    10030    2    1    2    0    0  0.00000000000E+00  0.00000000000E+00 -0.11623797858E+04  0.26477496838E+04  0.23789601976E+04 0.  0.
        5    1    3    3  502    0 -0.69679052574E+03 -0.31977980020E+03 -0.15933739220E+04  0.17682303874E+04  0.46999998093E+01 0. -1.
       -5    1    3    3    0  502  0.69679052574E+03  0.31977980020E+03  0.43099413624E+03  0.87951929646E+03  0.46999998093E+01 0.  1.
</event>
<event>
 5   0  0.6600166E-05  0.2376099E+04  0.7818609E-02  0.8448506E-01
        2   -1    0    0  501    0  0.00000000000E+00  0.00000000000E+00  0.21388824703E+04  0.21388824703E+04  0.25500000920E-02 0. -1.
       -2   -1    0    0    0  501  0.00000000000E+00  0.00000000000E+00 -0.65990604178E+03  0.65990604179E+03  0.25500000920E-02 0.  1.
    10030    2    1    2    0    0  0.00000000000E+00  0.00000000000E+00  0.14789764285E+04  0.27987885120E+04  0.23760988740E+04 0.  0.
        5    1    3    3  502    0 -0.61611999903E+03 -0.60805857206E+03  0.16979338069E+04  0.19058699806E+04  0.46999998093E+01 0. -1.
       -5    1    3    3    0  502  0.61611999903E+03  0.60805857206E+03 -0.21895737843E+03  0.89291853146E+03  0.46999998093E+01 0.  1.
</event>
<event>
 5   0  0.6978115E-05  0.2312907E+04  0.7818609E-02  0.8472849E-01
       -2   -1    0    0    0  501  0.00000000000E+00  0.00000000000E+00  0.13560403173E+04  0.13560403174E+04  0.25500000920E-02 0.  1.
        2   -1    0    0  501    0  0.00000000000E+00  0.00000000000E+00 -0.98624252159E+03  0.98624252160E+03  0.25500000920E-02 0. -1.
    10030    2    1    2    0    0  0.00000000000E+00  0.00000000000E+00  0.36979779575E+03  0.23422828389E+04  0.23129069346E+04 0.  0.
        4    1    3    3  502    0 -0.47858174137E+03 -0.59352784402E+03  0.10654638262E+04  0.13101643266E+04  0.12699999809E+01 0.  1.
       -4    1    3    3    0  502  0.47858174137E+03  0.59352784402E+03 -0.69566603044E+03  0.10321185124E+04  0.12699999809E+01 0. -1.
</event>
<event>
 5   0  0.2943123E-05  0.2543475E+04  0.7818609E-02  0.8387659E-01
       -1   -1    0    0    0  501  0.00000000000E+00  0.00000000000E+00  0.69095834199E+03  0.69095834201E+03  0.50400001928E-02 0.  1.
        1   -1    0    0  501    0  0.00000000000E+00  0.00000000000E+00 -0.23406850004E+04  0.23406850004E+04  0.50400001928E-02 0. -1.
    10030    2    1    2    0    0  0.00000000000E+00  0.00000000000E+00 -0.16497266584E+04  0.30316433424E+04  0.25434746525E+04 0.  0.
        1    1    3    3  502    0  0.41334063104E+03  0.98952086637E+03 -0.16396707933E+04  0.19592147235E+04  0.50400001928E-02 0. -1.
       -1    1    3    3    0  502 -0.41334063104E+03 -0.98952086637E+03 -0.10055865099E+02  0.10724286189E+04  0.50400001928E-02 0.  1.
</event>
<event>
 5   0  0.6600166E-05  0.2411395E+04  0.7818609E-02  0.8435250E-01
       -2   -1    0    0    0  501  0.00000000000E+00  0.00000000000E+00  0.10820483003E+04  0.10820483003E+04  0.25500000920E-02 0. -1.
        2   -1    0    0  501    0  0.00000000000E+00  0.00000000000E+00 -0.13434759991E+04  0.13434759991E+04  0.25500000920E-02 0.  1.
    10030    2    1    2    0    0  0.00000000000E+00  0.00000000000E+00 -0.26142769877E+03  0.24255242994E+04  0.24113945519E+04 0.  0.
        5    1    3    3  502    0 -0.35314267847E+03 -0.88995893713E+03 -0.86777434251E+03  0.12922039547E+04  0.46999998093E+01 0.  1.
       -5    1    3    3    0  502  0.35314267847E+03  0.88995893713E+03  0.60634664374E+03  0.11333203446E+04  0.46999998093E+01 0. -1.
</event>
<event>
 5   0  0.2847158E-05  0.2484474E+04  0.7818609E-02  0.8408538E-01
       -1   -1    0    0    0  501  0.00000000000E+00  0.00000000000E+00  0.52408436700E+03  0.52408436702E+03  0.50400001928E-02 0. -1.
        1   -1    0    0  501    0  0.00000000000E+00  0.00000000000E+00 -0.29444735729E+04  0.29444735729E+04  0.50400001928E-02 0.  1.
    10030    2    1    2    0    0  0.00000000000E+00  0.00000000000E+00 -0.24203892059E+04  0.34685579400E+04  0.24844738426E+04 0.  0.
        5    1    3    3  502    0 -0.10585772141E+04 -0.54424028459E+03 -0.17064411084E+04  0.20805639985E+04  0.46999998093E+01 0. -1.
       -5    1    3    3    0  502  0.10585772141E+04  0.54424028459E+03 -0.71394809760E+03  0.13879939415E+04  0.46999998093E+01 0.  1.
</event>
<event>
 5   0  0.6714629E-05  0.2464484E+04  0.7818609E-02  0.8415749E-01
        2   -1    0    0  501    0  0.00000000000E+00  0.00000000000E+00  0.10666307299E+04  0.10666307299E+04  0.25500000920E-02 0. -1.
       -2   -1    0    0    0  501  0.00000000000E+00  0.00000000000E+00 -0.14235670465E+04  0.14235670465E+04  0.25500000920E-02 0.  1.
    10030    2    1    2    0    0  0.00000000000E+00  0.00000000000E+00 -0.35693631657E+03  0.24901977764E+04  0.24644840092E+04 0.  0.
        3    1    3    3  502    0 -0.14586933862E+03 -0.12086874521E+04 -0.37076175996E+03  0.12726615865E+04  0.10100000352E+00 0. -1.
       -3    1    3    3    0  502  0.14586933862E+03  0.12086874521E+04  0.13825443387E+02  0.12175361900E+04  0.10100000352E+00 0.  1.
</event>
<event>
 5   0  0.6600166E-05  0.2427539E+04  0.7818609E-02  0.8429265E-01
        2   -1    0    0  501    0  0.00000000000E+00  0.00000000000E+00  0.20756747500E+04  0.20756747500E+04  0.25500000920E-02 0. -1.
       -2   -1    0    0    0  501  0.00000000000E+00  0.00000000000E+00 -0.70976282274E+03  0.70976282274E+03  0.25500000920E-02 0.  1.
    10030    2    1    2    0    0  0.00000000000E+00  0.00000000000E+00  0.13659119273E+04  0.27854375728E+04  0.24275393053E+04 0.  0.
        5    1    3    3  502    0 -0.28997072271E+03 -0.11736610248E+04  0.80681203705E+03  0.14534548408E+04  0.46999998093E+01 0.  1.
       -5    1    3    3    0  502  0.28997072271E+03  0.11736610248E+04  0.55909989025E+03  0.13319827320E+04  0.46999998093E+01 0. -1.
</event>
<event>
 5   0  0.2901816E-05  0.2348061E+04  0.7818609E-02  0.8459209E-01
        1   -1    0    0  501    0  0.00000000000E+00  0.00000000000E+00  0.11793123392E+04  0.11793123392E+04  0.50400001928E-02 0.  1.
       -1   -1    0    0    0  501  0.00000000000E+00  0.00000000000E+00 -0.11687718533E+04  0.11687718533E+04  0.50400001928E-02 0. -1.
    10030    2    1    2    0    0  0.00000000000E+00  0.00000000000E+00  0.10540485854E+02  0.23480841925E+04  0.23480605344E+04 0.  0.
        4    1    3    3  502    0 -0.11217570518E+04  0.33389681851E+03  0.97572238531E+02  0.11744564374E+04  0.12699999809E+01 0.  1.
       -4    1    3    3    0  502  0.11217570518E+04 -0.33389681851E+03 -0.87031752677E+02  0.11736277551E+04  0.12699999809E+01 0. -1.
</event>
<event>
 5   0  0.6714629E-05  0.2479992E+04  0.7818609E-02  0.8410148E-01
        2   -1    0    0  501    0  0.00000000000E+00  0.00000000000E+00  0.14732452387E+04  0.14732452387E+04  0.25500000920E-02 0. -1.
       -2   -1    0    0    0  501  0.00000000000E+00  0.00000000000E+00 -0.10436758121E+04  0.10436758121E+04  0.25500000920E-02 0.  1.
    10030    2    1    2    0    0  0.00000000000E+00  0.00000000000E+00  0.42956942664E+03  0.25169210508E+04  0.24799922749E+04 0.  0.
        3    1    3    3  502    0  0.11329245462E+04  0.25431070900E+02 -0.29612545278E+03  0.11712621657E+04  0.10100000352E+00 0.  1.
       -3    1    3    3    0  502 -0.11329245462E+04 -0.25431070900E+02  0.72569487942E+03  0.13456588851E+04  0.10100000352E+00 0. -1.
</event>
<event>
 5   0  0.6703961E-05  0.2382584E+04  0.7818609E-02  0.8446053E-01
        2   -1    0    0  501    0  0.00000000000E+00  0.00000000000E+00  0.97722940864E+03  0.97722940864E+03  0.25500000920E-02 0.  1.
       -2   -1    0    0    0  501  0.00000000000E+00  0.00000000000E+00 -0.14522445350E+04  0.14522445350E+04  0.25500000920E-02 0. -1.
    10030    2    1    2    0    0  0.00000000000E+00  0.00000000000E+00 -0.47501512634E+03  0.24294739436E+04  0.23825835290E+04 0.  0.
        2    1    3    3  502    0 -0.10331038979E+04  0.65494103110E+02 -0.83867206540E+03  0.13322777393E+04  0.25500000920E-02 0. -1.
       -2    1    3    3    0  502  0.10331038979E+04 -0.65494103110E+02  0.36365693907E+03  0.10971962043E+04  0.25500000920E-02 0.  1.
</event>
<event>
 5   0  0.6978115E-05  0.1644891E+04  0.7818609E-02  0.8793435E-01
       -2   -1    0    0    0  501  0.00000000000E+00  0.00000000000E+00  0.14418554801E+04  0.14418554801E+04  0.25500000920E-02 0. -1.
        2   -1    0    0  501    0  0.00000000000E+00  0.00000000000E+00 -0.46912907712E+03  0.46912907713E+03  0.25500000920E-02 0.  1.
    10030    2    1    2    0    0  0.00000000000E+00  0.00000000000E+00  0.97272640298E+03  0.19109845572E+04  0.16448906720E+04 0.  0.
        4    1    3    3  502    0  0.18187630944E+03  0.71291030000E+03  0.91337431959E+03  0.11728488174E+04  0.12699999809E+01 0. -1.
       -4    1    3    3    0  502 -0.18187630944E+03 -0.71291030000E+03  0.59352083391E+02  0.73813573988E+03  0.12699999809E+01 0.  1.
</event>
<event>
 5   0  0.6714629E-05  0.2295446E+04  0.7818609E-02  0.8479719E-01
       -2   -1    0    0    0  501  0.00000000000E+00  0.00000000000E+00  0.92374701947E+03  0.92374701948E+03  0.25500000920E-02 0. -1.
        2   -1    0    0  501    0  0.00000000000E+00  0.00000000000E+00 -0.14260055343E+04  0.14260055343E+04  0.25500000920E-02 0.  1.
    10030    2    1    2    0    0  0.00000000000E+00  0.00000000000E+00 -0.50225851482E+03  0.23497525538E+04  0.22954462416E+04 0.  0.
        3    1    3    3  502    0 -0.69980220055E+03 -0.32633381521E+03 -0.11203661253E+04  0.13606752529E+04  0.10100000352E+00 0.  1.
       -3    1    3    3    0  502  0.69980220055E+03  0.32633381521E+03  0.61810761048E+03  0.98907730091E+03  0.10100000352E+00 0. -1.
</event>
<event>
 5   0  0.6337926E-05  0.2410421E+04  0.7818609E-02  0.8435612E-01
       -2   -1    0    0    0  501  0.00000000000E+00  0.00000000000E+00  0.67899587327E+03  0.67899587328E+03  0.25500000920E-02 0.  1.
        2   -1    0    0  501    0  0.00000000000E+00  0.00000000000E+00 -0.21392358913E+04  0.21392358913E+04  0.25500000920E-02 0. -1.
    10030    2    1    2    0    0  0.00000000000E+00  0.00000000000E+00 -0.14602400180E+04  0.28182317646E+04  0.24104209941E+04 0.  0.
        1    1    3    3  502    0 -0.11801886793E+04  0.23539861756E+03 -0.80656115497E+03  0.14487231359E+04  0.50400001928E-02 0. -1.
       -1    1    3    3    0  502  0.11801886793E+04 -0.23539861756E+03 -0.65367886306E+03  0.13695086286E+04  0.50400001928E-02 0.  1.
</event>
<event>
 5   0  0.6337926E-05  0.2413101E+04  0.7818609E-02  0.8434615E-01
        2   -1    0    0  501    0  0.00000000000E+00  0.00000000000E+00  0.83319434026E+03  0.83319434026E+03  0.25500000920E-02 0. -1.
       -2   -1    0    0    0  501  0.00000000000E+00  0.00000000000E+00 -0.17472090729E+04  0.17472090729E+04  0.25500000920E-02 0.  1.
    10030    2    1    2    0    0  0.00000000000E+00  0.00000000000E+00 -0.91401473268E+03  0.25804034132E+04  0.24131014988E+04 0.  0.
        1    1    3    3  502    0  0.25024832019E+03 -0.79421654059E+03 -0.13906748475E+04  0.16209196978E+04  0.50400001928E-02 0.  1.
       -1    1    3    3    0  502 -0.25024832019E+03  0.79421654059E+03  0.47666011482E+03  0.95948371544E+03  0.50400001928E-02 0. -1.
</event>
<event>
 5   0  0.2943123E-05  0.2350538E+04  0.7818609E-02  0.8458257E-01
        1   -1    0    0  501    0  0.00000000000E+00  0.00000000000E+00  0.15129471837E+04  0.15129471838E+04  0.50400001928E-02 0.  1.
       -1   -1    0    0    0  501  0.00000000000E+00  0.00000000000E+00 -0.91295833129E+03  0.91295833130E+03  0.50400001928E-02 0. -1.
    10030    2    1    2    0    0  0.00000000000E+00  0.00000000000E+00  0.59998885246E+03  0.24259055151E+04  0.23505384372E+04 0.  0.
        1    1    3    3  502    0 -0.58335186433E+03  0.29132851172E+03  0.13091427710E+04  0.14625411086E+04  0.50400001928E-02 0.  1.
       -1    1    3    3    0  502  0.58335186433E+03 -0.29132851172E+03 -0.70915391858E+03  0.96336440645E+03  0.50400001928E-02 0. -1.
</event>
<event>
 5   0  0.2915546E-05  0.2141398E+04  0.7818609E-02  0.8543223E-01
       -1   -1    0    0    0  501  0.00000000000E+00  0.00000000000E+00  0.71028001658E+03  0.71028001660E+03  0.50400001928E-02 0. -1.
        1   -1    0    0  501    0  0.00000000000E+00  0.00000000000E+00 -0.16140062454E+04  0.16140062454E+04  0.50400001928E-02 0.  1.
    10030    2    1    2    0    0  0.00000000000E+00  0.00000000000E+00 -0.90372622884E+03  0.23242862620E+04  0.21413980319E+04 0.  0.
        2    1    3    3  502    0  0.15323940279E+03  0.79230477819E+03  0.31191665985E+03  0.86517118468E+03  0.25500000920E-02 0. -1.
       -2    1    3    3    0  502 -0.15323940279E+03 -0.79230477819E+03 -0.12156428887E+04  0.14591150773E+04  0.25500000920E-02 0.  1.
</event>
<event>
 5   0  0.6337926E-05  0.2039619E+04  0.7818609E-02  0.8588318E-01
        2   -1    0    0  501    0  0.00000000000E+00  0.00000000000E+00  0.15786079662E+04  0.15786079662E+04  0.25500000920E-02 0. -1.
       -2   -1    0    0    0  501  0.00000000000E+00  0.00000000000E+00 -0.65881522211E+03  0.65881522211E+03  0.25500000920E-02 0.  1.
    10030    2    1    2    0    0  0.00000000000E+00  0.00000000000E+00  0.91979274413E+03  0.22374231883E+04  0.20396185505E+04 0.  0.
        1    1    3    3  502    0 -0.14286850559E+03 -0.99817743432E+03  0.29266031179E+03  0.10499617414E+04  0.50400001928E-02 0.  1.
       -1    1    3    3    0  502  0.14286850559E+03  0.99817743432E+03  0.62713243233E+03  0.11874614469E+04  0.50400001928E-02 0. -1.
</event>
<event>
 5   0  0.2943244E-05  0.2493275E+04  0.7818609E-02  0.8405385E-01
        1   -1    0    0  501    0  0.00000000000E+00  0.00000000000E+00  0.19138359797E+04  0.19138359797E+04  0.50400001928E-02 0.  1.
       -1   -1    0    0    0  501  0.00000000000E+00  0.00000000000E+00 -0.81203651591E+03  0.81203651592E+03  0.50400001928E-02 0. -1.
    10030    2    1    2    0    0  0.00000000000E+00  0.00000000000E+00  0.11017994638E+04  0.27258724956E+04  0.24932747149E+04 0.  0.
        3    1    3    3  502    0  0.73837288497E+03  0.49558693572E+03 -0.40427781808E+03  0.97685285100E+03  0.10100000352E+00 0. -1.
       -3    1    3    3    0  502 -0.73837288497E+03 -0.49558693572E+03  0.15060772818E+04  0.17490196446E+04  0.10100000352E+00 0.  1.
</event>
<event>
 5   0  0.6600166E-05  0.2382470E+04  0.7818609E-02  0.8446096E-01
       -2   -1    0    0    0  501  0.00000000000E+00  0.00000000000E+00  0.79626403714E+03  0.79626403714E+03  0.25500000920E-02 0.  1.
        2   -1    0    0  501    0  0.00000000000E+00  0.00000000000E+00 -0.17821228208E+04  0.17821228208E+04  0.25500000920E-02 0. -1.
    10030    2    1    2    0    0  0.00000000000E+00  0.00000000000E+00 -0.98585878365E+03  0.25783868579E+04  0.23824695691E+04 0.  0.
        5    1    3    3  502    0  0.34319565097E+03  0.12452866657E+03 -0.17200724542E+04  0.17583975607E+04  0.46999998093E+01 0. -1.
       -5    1    3    3    0  502 -0.34319565097E+03 -0.12452866657E+03  0.73421367054E+03  0.81998929728E+03  0.46999998093E+01 0.  1.
</event>
<event>
 5   0  0.2943244E-05  0.1977163E+04  0.7818609E-02  0.8617373E-01
        1   -1    0    0  501    0  0.00000000000E+00  0.00000000000E+00  0.12471131611E+04  0.12471131611E+04  0.50400001928E-02 0.  1.
       -1   -1    0    0    0  501  0.00000000000E+00  0.00000000000E+00 -0.78364450588E+03  0.78364450590E+03  0.50400001928E-02 0. -1.
    10030    2    1    2    0    0  0.00000000000E+00  0.00000000000E+00  0.46346865519E+03  0.20307576670E+04  0.19771629947E+04 0.  0.
        3    1    3    3  502    0 -0.72079235035E+03  0.43889909354E+03  0.76058898472E+03  0.11360764237E+04  0.10100000352E+00 0.  1.
       -3    1    3    3    0  502  0.72079235035E+03 -0.43889909354E+03 -0.29712032953E+03  0.89468124327E+03  0.10100000352E+00 0. -1.
</event>
<event>
 5   0  0.6703961E-05  0.2372313E+04  0.7818609E-02  0.8449942E-01
       -2   -1    0    0    0  501  0.00000000000E+00  0.00000000000E+00  0.12503703086E+04  0.12503703086E+04  0.25500000920E-02 0. -1.
        2   -1    0    0  501    0  0.00000000000E+00  0.00000000000E+00 -0.11252405909E+04  0.11252405909E+04  0.25500000920E-02 0.  1.
    10030    2    1    2    0    0  0.00000000000E+00  0.00000000000E+00  0.12512971771E+03  0.23756108994E+04  0.23723131537E+04 0.  0.
        2    1    3    3  502    0  0.11541619955E+04 -0.36788437541E+02  0.33409510990E+03  0.12021076672E+04  0.25500000920E-02 0. -1.
       -2    1    3    3    0  502 -0.11541619955E+04  0.36788437541E+02 -0.20896539220E+03  0.11735032323E+04  0.25500000920E-02 0.  1.
</event>
<event>
 5   0  0.2901816E-05  0.2312869E+04  0.7818609E-02  0.8472864E-01
        1   -1    0    0  501    0  0.00000000000E+00  0.00000000000E+00  0.12959727970E+04  0.12959727970E+04  0.50400001928E-02 0. -1.
       -1   -1    0    0    0  501  0.00000000000E+00  0.00000000000E+00 -0.10319200506E+04  0.10319200506E+04  0.50400001928E-02 0.  1.
    10030    2    1    2    0    0  0.00000000000E+00  0.00000000000E+00  0.26405274646E+03  0.23278928476E+04  0.23128686208E+04 0.  0.
        4    1    3    3  502    0 -0.42900702183E+03  0.27503132665E+03  0.11768687465E+04  0.12824628317E+04  0.12699999809E+01 0. -1.
       -4    1    3    3    0  502  0.42900702183E+03 -0.27503132665E+03 -0.91281600001E+03  0.10454300159E+04  0.12699999809E+01 0.  1.
</event>
<event>
 5   0  0.2847158E-05  0.2389682E+04  0.7818609E-02  0.8443377E-01
        1   -1    0    0  501    0  0.00000000000E+00  0.00000000000E+00  0.15297524789E+04  0.15297524789E+04  0.50400001928E-02 0.  1.
       -1   -1    0    0    0  501  0.00000000000E+00  0.00000000000E+00 -0.93325202128E+03  0.93325202129E+03  0.50400001928E-02 0. -1.
    10030    2    1    2    0    0  0.00000000000E+00  0.00000000000E+00  0.59650045762E+03  0.24630045002E+04  0.23896816466E+04 0.  0.
        5    1    3    3  502    0  0.11926734173E+03 -0.11828824332E+04  0.17548659687E+03  0.12017708539E+04  0.46999998093E+01 0. -1.
       -5    1    3    3    0  502 -0.11926734173E+03  0.11828824332E+04  0.42101386075E+03  0.12612336463E+04  0.46999998093E+01 0.  1.
</event>
<event>
 5   0  0.2943123E-05  0.2479380E+04  0.7818609E-02  0.8410369E-01
        1   -1    0    0  501    0  0.00000000000E+00  0.00000000000E+00  0.24838219630E+04  0.24838219630E+04  0.50400001928E-02 0.  1.
       -1   -1    0    0    0  501  0.00000000000E+00  0.00000000000E+00 -0.61873626665E+03  0.61873626667E+03  0.50400001928E-02 0. -1.
    10030    2    1    2    0    0  0.00000000000E+00  0.00000000000E+00  0.18650856963E+04  0.31025582296E+04  0.24793795421E+04 0.  0.
        1    1    3    3  502    0  0.70932607937E+03 -0.36972609460E+03 -0.25259998270E+03  0.83883706594E+03  0.50400001928E-02 0. -1.
       -1    1    3    3    0  502 -0.70932607937E+03  0.36972609460E+03  0.21176856790E+04  0.22637211637E+04  0.50400001928E-02 0.  1.
</event>
<event>
 5   0  0.2915546E-05  0.2401983E+04  0.7818609E-02  0.8438761E-01
        1   -1    0    0  501    0  0.00000000000E+00  0.00000000000E+00  0.12235554372E+04  0.12235554372E+04  0.50400001928E-02 0. -1.
       -1   -1    0    0    0  501  0.00000000000E+00  0.00000000000E+00 -0.11788437742E+04  0.11788437742E+04  0.50400001928E-02 0.  1.
    10030    2    1    2    0    0  0.00000000000E+00  0.00000000000E+00  0.44711662999E+02  0.24023992114E+04  0.24019831053E+04 0.  0.
        2    1    3    3  502    0  0.74558119907E+03  0.22801247668E+03  0.93602363148E+03  0.12182041096E+04  0.25500000920E-02 0. -1.
       -2    1    3    3    0  502 -0.74558119907E+03 -0.22801247668E+03 -0.89131196848E+03  0.11841951018E+04  0.25500000920E-02 0.  1.
</event>
<event>
 5   0  0.6714629E-05  0.2401797E+04  0.7818609E-02  0.8438831E-01
       -2   -1    0    0    0  501  0.00000000000E+00  0.00000000000E+00  0.18138487428E+04  0.18138487428E+04  0.25500000920E-02 0.  1.
        2   -1    0    0  501    0  0.00000000000E+00  0.00000000000E+00 -0.79508143957E+03  0.79508143957E+03  0.25500000920E-02 0. -1.
    10030    2    1    2    0    0  0.00000000000E+00  0.00000000000E+00  0.10187673032E+04  0.26089301824E+04  0.24017972184E+04 0.  0.
        3    1    3    3  502    0 -0.52250100217E+03  0.10778907915E+04  0.41656500169E+03  0.12682201175E+04  0.10100000352E+00 0. -1.
       -3    1    3    3    0  502  0.52250100217E+03 -0.10778907915E+04  0.60220230155E+03  0.13407100648E+04  0.10100000352E+00 0.  1.
</event>
<event>
 5   0  0.6337926E-05  0.2387308E+04  0.7818609E-02  0.8444271E-01
       -2   -1    0    0    0  501  0.00000000000E+00  0.00000000000E+00  0.70251992905E+03  0.70251992906E+03  0.25500000920E-02 0.  1.
        2   -1    0    0  501    0  0.00000000000E+00  0.00000000000E+00 -0.20281417691E+04  0.20281417691E+04  0.25500000920E-02 0. -1.
    10030    2    1    2    0    0  0.00000000000E+00  0.00000000000E+00 -0.13256218400E+04  0.27306616981E+04  0.23873081173E+04 0.  0.
        1    1    3    3  502    0 -0.10406966293E+03  0.98341115063E+03  0.10182706287E+03  0.99413114662E+03  0.50400001928E-02 0.  1.
       -1    1    3    3    0  502  0.10406966293E+03 -0.98341115063E+03 -0.14274489029E+04  0.17365305515E+04  0.50400001928E-02 0. -1.
</event>
<event>
 5   0  0.2915546E-05  0.2406720E+04  0.7818609E-02  0.8436992E-01
        1   -1    0    0  501    0  0.00000000000E+00  0.00000000000E+00  0.10715300008E+04  0.10715300008E+04  0.50400001928E-02 0.  1.
       -1   -1    0    0    0  501  0.00000000000E+00  0.00000000000E+00 -0.13514094508E+04  0.13514094508E+04  0.50400001928E-02 0. -1.
    10030    2    1    2    0    0  0.00000000000E+00  0.00000000000E+00 -0.27987944997E+03  0.24229394516E+04  0.24067203992E+04 0.  0.
        2    1    3    3  502    0  0.11109353142E+04 -0.11009214139E+03 -0.59216420019E+03  0.12637072414E+04  0.25500000920E-02 0. -1.
       -2    1    3    3    0  502 -0.11109353142E+04  0.11009214139E+03  0.31228475022E+03  0.11592322102E+04  0.25500000920E-02 0.  1.
</event>
<event>
 5   0  0.2901816E-05  0.2465177E+04  0.7818609E-02  0.8415497E-01
       -1   -1    0    0    0  501  0.00000000000E+00  0.00000000000E+00  0.74011415718E+03  0.74011415719E+03  0.50400001928E-02 0. -1.
        1   -1    0    0  501    0  0.00000000000E+00  0.00000000000E+00 -0.20527575692E+04  0.20527575692E+04  0.50400001928E-02 0.  1.
    10030    2    1    2    0    0  0.00000000000E+00  0.00000000000E+00 -0.13126434120E+04  0.27928717264E+04  0.24651774283E+04 0.  0.
        4    1    3    3  502    0 -0.14668389512E+03 -0.25472006370E+03 -0.20124692344E+04  0.20338221427E+04  0.12699999809E+01 0.  1.
       -4    1    3    3    0  502  0.14668389512E+03  0.25472006370E+03  0.69982582237E+03  0.75904958368E+03  0.12699999809E+01 0. -1.
</event>
<event>
 5   0  0.2943244E-05  0.2028507E+04  0.7818609E-02  0.8593408E-01
       -1   -1    0    0    0  501  0.00000000000E+00  0.00000000000E+00  0.14767340070E+04  0.14767340070E+04  0.50400001928E-02 0.  1.
        1   -1    0    0  501    0  0.00000000000E+00  0.00000000000E+00 -0.69661162820E+03  0.69661162822E+03  0.50400001928E-02 0. -1.
    10030    2    1    2    0    0  0.00000000000E+00  0.00000000000E+00  0.78012237882E+03  0.21733456352E+04  0.20285069200E+04 0.  0.
        3    1    3    3  502    0 -0.65919553729E+03 -0.77053297655E+03  0.41279527532E+03  0.10948332174E+04  0.10100000352E+00 0.  1.
       -3    1    3    3    0  502  0.65919553729E+03  0.77053297655E+03  0.36732710349E+03  0.10785124179E+04  0.10100000352E+00 0. -1.
</event>
<event>
 5   0  0.2901816E-05  0.2479319E+04  0.7818609E-02  0.8410390E-01
        1   -1    0    0  501    0  0.00000000000E+00  0.00000000000E+00  0.81383020957E+03  0.81383020959E+03  0.50400001928E-02 0. -1.
       -1   -1    0    0    0  501  0.00000000000E+00  0.00000000000E+00 -0.18883000387E+04  0.18883000387E+04  0.50400001928E-02 0.  1.
    10030    2    1    2    0    0  0.00000000000E+00  0.00000000000E+00 -0.10744698292E+04  0.27021302483E+04  0.24793189519E+04 0.  0.
        4    1    3    3  502    0  0.10571828656E+04 -0.57209735750E+03 -0.20697973992E+03  0.12197430973E+04  0.12699999809E+01 0.  1.
       -4    1    3    3    0  502 -0.10571828656E+04  0.57209735750E+03 -0.86749008924E+03  0.14823871510E+04  0.12699999809E+01 0. -1.
</event>
<event>
 5   0  0.6703961E-05  0.2343929E+04  0.7818609E-02  0.8460799E-01
       -2   -1    0    0    0  501  0.00000000000E+00  0.00000000000E+00  0.54658922962E+03  0.54658922963E+03  0.25500000920E-02 0.  1.
        2   -1    0    0  501    0  0.00000000000E+00  0.00000000000E+00 -0.25128583962E+04  0.25128583962E+04  0.25500000920E-02 0. -1.
    10030    2    1    2    0    0  0.00000000000E+00  0.00000000000E+00 -0.19662691666E+04  0.30594476259E+04  0.23439294656E+04 0.  0.
        2    1    3    3  502    0  0.62550095792E+03  0.88323400822E+03 -0.39627695996E+03  0.11525576735E+04  0.25500000920E-02 0.  1.
       -2    1    3    3    0  502 -0.62550095792E+03 -0.88323400822E+03 -0.15699922066E+04  0.19068899524E+04  0.25500000920E-02 0. -1.
</event>
<event>
 5   0  0.6337926E-05  0.2407888E+04  0.7818609E-02  0.8436556E-01
       -2   -1    0    0    0  501  0.00000000000E+00  0.00000000000E+00  0.72304016051E+03  0.72304016052E+03  0.25500000920E-02 0. -1.
        2   -1    0    0  501    0  0.00000000000E+00  0.00000000000E+00 -0.20047037528E+04  0.20047037528E+04  0.25500000920E-02 0.  1.
    10030    2    1    2    0    0  0.00000000000E+00  0.00000000000E+00 -0.12816635922E+04  0.27277439133E+04  0.24078881396E+04 0.  0.
        1    1    3    3  502    0  0.36240158637E+03 -0.10344989787E+04 -0.12049324358E+04  0.16289214903E+04  0.50400001928E-02 0.  1.
       -1    1    3    3    0  502 -0.36240158637E+03  0.10344989787E+04 -0.76731156452E+02  0.10988224230E+04  0.50400001928E-02 0. -1.
</event>
<event>
 5   0  0.2943123E-05  0.2480354E+04  0.7818609E-02  0.8410018E-01
       -1   -1    0    0    0  501  0.00000000000E+00  0.00000000000E+00  0.14712701944E+04  0.14712701944E+04  0.50400001928E-02 0.  1.
        1   -1    0    0  501    0  0.00000000000E+00  0.00000000000E+00 -0.10453820682E+04  0.10453820682E+04  0.50400001928E-02 0. -1.
    10030    2    1    2    0    0  0.00000000000E+00  0.00000000000E+00  0.42588812614E+03  0.25166522626E+04  0.24803543930E+04 0.  0.
        1    1    3    3  502    0  0.85817196491E+03  0.23783752391E+03  0.10887171494E+04  0.14065314929E+04  0.50400001928E-02 0.  1.
       -1    1    3    3    0  502 -0.85817196491E+03 -0.23783752391E+03 -0.66282902330E+03  0.11101207697E+04  0.50400001928E-02 0. -1.
</event>
<event>
 5   0  0.6703961E-05  0.2349938E+04  0.7818609E-02  0.8458487E-01
       -2   -1    0    0    0  501  0.00000000000E+00  0.00000000000E+00  0.59940682774E+03  0.59940682774E+03  0.25500000920E-02 0.  1.
        2   -1    0    0  501    0  0.00000000000E+00  0.00000000000E+00 -0.23031973277E+04  0.23031973277E+04  0.25500000920E-02 0. -1.
    10030    2    1    2    0    0  0.00000000000E+00  0.00000000000E+00 -0.17037905000E+04  0.29026041555E+04  0.23499380450E+04 0.  0.
        2    1    3    3  502    0 -0.84601367136E+03 -0.23693436164E+03 -0.18155560580E+04  0.20169583099E+04  0.25500000920E-02 0. -1.
       -2    1    3    3    0  502  0.84601367136E+03  0.23693436164E+03  0.11176555806E+03  0.88564584560E+03  0.25500000920E-02 0.  1.
</event>
<event>
 5   0  0.2943244E-05  0.2291131E+04  0.7818609E-02  0.8481426E-01
       -1   -1    0    0    0  501  0.00000000000E+00  0.00000000000E+00  0.54178627890E+03  0.54178627892E+03  0.50400001928E-02 0. -1.
        1   -1    0    0  501    0  0.00000000000E+00  0.00000000000E+00 -0.24222092960E+04  0.24222092960E+04  0.50400001928E-02 0.  1.
    10030    2    1    2    0    0  0.00000000000E+00  0.00000000000E+00 -0.18804230171E+04  0.29639955749E+04  0.22911305168E+04 0.  0.
        3    1    3    3  502    0 -0.67477783961E+02 -0.11204923658E+04 -0.12359626135E+04  0.16696286968E+04  0.10100000352E+00 0. -1.
       -3    1    3    3    0  502  0.67477783961E+02  0.11204923658E+04 -0.64446040356E+03  0.12943668781E+04  0.10100000352E+00 0.  1.
</event>
<event>
 5   0  0.6337926E-05  0.2394408E+04  0.7818609E-02  0.8441600E-01
       -2   -1    0    0    0  501  0.00000000000E+00  0.00000000000E+00  0.11780566807E+04  0.11780566807E+04  0.25500000920E-02 0. -1.
        2   -1    0    0  501    0  0.00000000000E+00  0.00000000000E+00 -0.12166620363E+04  0.12166620363E+04  0.25500000920E-02 0.  1.
    10030    2    1    2    0    0  0.00000000000E+00  0.00000000000E+00 -0.38605355623E+02  0.23947187170E+04  0.23944075175E+04 0.  0.
        1    1    3    3  502    0 -0.98632725383E+03  0.45572027488E+03  0.48352943084E+03  0.11892531821E+04  0.50400001928E-02 0. -1.
       -1    1    3    3    0  502  0.98632725383E+03 -0.45572027488E+03 -0.52213478647E+03  0.12054655349E+04  0.50400001928E-02 0.  1.
</event>
<event>
 5   0  0.2943244E-05  0.2289670E+04  0.7818609E-02  0.8482005E-01
        1   -1    0    0  501    0  0.00000000000E+00  0.00000000000E+00  0.96497158185E+03  0.96497158186E+03  0.50400001928E-02 0.  1.
       -1   -1    0    0    0  501  0.00000000000E+00  0.00000000000E+00 -0.13582236818E+04  0.13582236819E+04  0.50400001928E-02 0. -1.
    10030    2    1    2    0    0  0.00000000000E+00  0.00000000000E+00 -0.39325210000E+03  0.23231952637E+04  0.22896700678E+04 0.  0.
        3    1    3    3  502    0  0.67771475522E+02  0.29987812468E+03 -0.13155545618E+04  0.13510009911E+04  0.10100000352E+00 0. -1.
       -3    1    3    3    0  502 -0.67771475522E+02 -0.29987812468E+03  0.92230246180E+03  0.97219427266E+03  0.10100000352E+00 0.  1.
</event>
<event>
 5   0  0.6600166E-05  0.2372570E+04  0.7818609E-02  0.8449845E-01
        2   -1    0    0  501    0  0.00000000000E+00  0.00000000000E+00  0.19987490154E+04  0.19987490154E+04  0.25500000920E-02 0.  1.
       -2   -1    0    0    0  501  0.00000000000E+00  0.00000000000E+00 -0.70407671937E+03  0.70407671938E+03  0.25500000920E-02 0. -1.
    10030    2    1    2    0    0  0.00000000000E+00  0.00000000000E+00  0.12946722960E+04  0.27028257348E+04  0.23725704623E+04 0.  0.
        5    1    3    3  502    0  0.86890988405E+03 -0.12951351281E+02 -0.27258127674E+03  0.91076603281E+03  0.46999998093E+01 0. -1.
       -5    1    3    3    0  502 -0.86890988405E+03  0.12951351281E+02  0.15672535728E+04  0.17920597020E+04  0.46999998093E+01 0.  1.
</event>
<event>
 5   0  0.6337926E-05  0.2192368E+04  0.7818609E-02  0.8521611E-01
        2   -1    0    0  501    0  0.00000000000E+00  0.00000000000E+00  0.11335559746E+04  0.11335559746E+04  0.25500000920E-02 0.  1.
       -2   -1    0    0    0  501  0.00000000000E+00  0.00000000000E+00 -0.10600440526E+04  0.10600440526E+04  0.25500000920E-02 0. -1.
    10030    2    1    2    0    0  0.00000000000E+00  0.00000000000E+00  0.73511921968E+02  0.21936000272E+04  0.21923679154E+04 0.  0.
        1    1    3    3  502    0 -0.50466679290E+03 -0.66632512966E+03  0.74633822151E+03  0.11205795336E+04  0.50400001928E-02 0.  1.
       -1    1    3    3    0  502  0.50466679290E+03  0.66632512966E+03 -0.67282629954E+03  0.10730204936E+04  0.50400001928E-02 0. -1.
</event>
<event>
 5   0  0.2915546E-05  0.2370335E+04  0.7818609E-02  0.8450694E-01
       -1   -1    0    0    0  501  0.00000000000E+00  0.00000000000E+00  0.52315780927E+03  0.52315780929E+03  0.50400001928E-02 0. -1.
        1   -1    0    0  501    0  0.00000000000E+00  0.00000000000E+00 -0.26848905633E+04  0.26848905633E+04  0.50400001928E-02 0.  1.
    10030    2    1    2    0    0  0.00000000000E+00  0.00000000000E+00 -0.21617327540E+04  0.32080483726E+04  0.23703345462E+04 0.  0.
        2    1    3    3  502    0  0.45440656611E+03 -0.10940368817E+04 -0.10336044534E+04  0.15721768959E+04  0.25500000920E-02 0. -1.
       -2    1    3    3    0  502 -0.45440656611E+03  0.10940368817E+04 -0.11281283006E+04  0.16358714767E+04  0.25500000920E-02 0.  1.
</event>
<event>
 5   0  0.6703961E-05  0.2355207E+04  0.7818609E-02  0.8456466E-01
       -2   -1    0    0    0  501  0.00000000000E+00  0.00000000000E+00  0.58103582773E+03  0.58103582774E+03  0.25500000920E-02 0. -1.
        2   -1    0    0  501    0  0.00000000000E+00  0.00000000000E+00 -0.23866863749E+04  0.23866863749E+04  0.25500000920E-02 0.  1.
    10030    2    1    2    0    0  0.00000000000E+00  0.00000000000E+00 -0.18056505472E+04  0.29677222026E+04  0.23552072464E+04 0.  0.
        2    1    3    3  502    0 -0.48863241499E+03 -0.50856261082E+03 -0.20911390651E+04  0.22068665922E+04  0.25500000920E-02 0.  1.
       -2    1    3    3    0  502  0.48863241499E+03  0.50856261082E+03  0.28548851792E+03  0.76085561047E+03  0.25500000920E-02 0. -1.
</event>
<event>
 5   0  0.6337926E-05  0.2402807E+04  0.7818609E-02  0.8438453E-01
        2   -1    0    0  501    0  0.00000000000E+00  0.00000000000E+00  0.14932937938E+04  0.14932937938E+04  0.25500000920E-02 0.  1.
       -2   -1    0    0    0  501  0.00000000000E+00  0.00000000000E+00 -0.96656815347E+03  0.96656815347E+03  0.25500000920E-02 0. -1.
    10030    2    1    2    0    0  0.00000000000E+00  0.00000000000E+00  0.52672564033E+03  0.24598619473E+04  0.24028068793E+04 0.  0.
        1    1    3    3  502    0 -0.42653698852E+03 -0.53520257530E+03 -0.74750175758E+03  0.10134764313E+04  0.50400001928E-02 0. -1.
       -1    1    3    3    0  502  0.42653698852E+03  0.53520257530E+03  0.12742273979E+04  0.14463855160E+04  0.50400001928E-02 0.  1.
</event>
<event>
 5   0  0.2915546E-05  0.2036802E+04  0.7818609E-02  0.8589605E-01
       -1   -1    0    0    0  501  0.00000000000E+00  0.00000000000E+00  0.46774349569E+03  0.46774349572E+03  0.50400001928E-02 0. -1.
        1   -1    0    0  501    0  0.00000000000E+00  0.00000000000E+00 -0.22173267654E+04  0.22173267654E+04  0.50400001928E-02 0.  1.
    10030    2    1    2    0    0  0.00000000000E+00  0.00000000000E+00 -0.17495832697E+04  0.26850702611E+04  0.20368015832E+04 0.  0.
        2    1    3    3  502    0 -0.57057670599E+03  0.80121462714E+03 -0.12226709183E+04  0.15692121688E+04  0.25500000920E-02 0.  1.
       -2    1    3    3    0  502  0.57057670599E+03 -0.80121462714E+03 -0.52691235137E+03  0.11158580923E+04  0.25500000920E-02 0. -1.
</event>
<event>
 5   0  0.2901816E-05  0.2743202E+04  0.7818609E-02  0.8321122E-01
       -1   -1    0    0    0  501  0.00000000000E+00  0.00000000000E+00  0.11332876318E+04  0.11332876319E+04  0.50400001928E-02 0. -1.
        1   -1    0    0  501    0  0.00000000000E+00  0.00000000000E+00 -0.16600280949E+04  0.16600280949E+04  0.50400001928E-02 0.  1.
    10030    2    1    2    0    0  0.00000000000E+00  0.00000000000E+00 -0.52674046307E+03  0.27933157268E+04  0.27432020039E+04 0.  0.
        4    1    3    3  502    0  0.64419101097E+03 -0.11699372610E+04  0.54669450558E+02  0.13366845608E+04  0.12699999809E+01 0. -1.
       -4    1    3    3    0  502 -0.64419101097E+03  0.11699372610E+04 -0.58140991363E+03  0.14566311660E+04  0.12699999809E+01 0.  1.
</event>
<event>
 5   0  0.6600166E-05  0.2375540E+04  0.7818609E-02  0.8448718E-01
       -2   -1    0    0    0  501  0.00000000000E+00  0.00000000000E+00  0.75569839084E+03  0.75569839084E+03  0.25500000920E-02 0.  1.
        2   -1    0    0  501    0  0.00000000000E+00  0.00000000000E+00 -0.18668788362E+04  0.18668788362E+04  0.25500000920E-02 0. -1.
    10030    2    1    2    0    0  0.00000000000E+00  0.00000000000E+00 -0.11111804453E+04  0.26225772270E+04  0.23755397975E+04 0.  0.
        5    1    3    3  502    0  0.10834971709E+03  0.52545198139E+02 -0.18601121740E+04  0.18640118157E+04  0.46999998093E+01 0. -1.
       -5    1    3    3    0  502 -0.10834971709E+03 -0.52545198139E+02  0.74893172869E+03  0.75856541133E+03  0.46999998093E+01 0.  1.
</event>
<event>
 5   0  0.2943244E-05  0.2441467E+04  0.7818609E-02  0.8424140E-01
       -1   -1    0    0    0  501  0.00000000000E+00  0.00000000000E+00  0.80978403911E+03  0.80978403913E+03  0.50400001928E-02 0. -1.
        1   -1    0    0  501    0  0.00000000000E+00  0.00000000000E+00 -0.18402317841E+04  0.18402317841E+04  0.50400001928E-02 0.  1.
    10030    2    1    2    0    0  0.00000000000E+00  0.00000000000E+00 -0.10304477450E+04  0.26500158233E+04  0.24414670402E+04 0.  0.
        3    1    3    3  502    0 -0.11781588828E+04  0.19339678232E+03 -0.79137652910E+03  0.14323887355E+04  0.10100000352E+00 0. -1.
       -3    1    3    3    0  502  0.11781588828E+04 -0.19339678232E+03 -0.23907121591E+03  0.12176270878E+04  0.10100000352E+00 0.  1.
</event>
<event>
 5   0  0.2943244E-05  0.2297749E+04  0.7818609E-02  0.8478809E-01
       -1   -1    0    0    0  501  0.00000000000E+00  0.00000000000E+00  0.87935472605E+03  0.87935472606E+03  0.50400001928E-02 0.  1.
        1   -1    0    0  501    0  0.00000000000E+00  0.00000000000E+00 -0.15010011511E+04  0.15010011511E+04  0.50400001928E-02 0. -1.
    10030    2    1    2    0    0  0.00000000000E+00  0.00000000000E+00 -0.62164642502E+03  0.23803558771E+04  0.22977488601E+04 0.  0.
        3    1    3    3  502    0  0.72375527635E+03  0.31525862831E+03  0.55387207549E+03  0.96435677474E+03  0.10100000352E+00 0.  1.
       -3    1    3    3    0  502 -0.72375527635E+03 -0.31525862831E+03 -0.11755185005E+04  0.14159991024E+04  0.10100000352E+00 0. -1.
</event>
<event>
 5   0  0.6714629E-05  0.2393952E+04  0.7818609E-02  0.8441771E-01
        2   -1    0    0  501    0  0.00000000000E+00  0.00000000000E+00  0.21165704700E+04  0.21165704700E+04  0.25500000920E-02 0. -1.
       -2   -1    0    0    0  501  0.00000000000E+00  0.00000000000E+00 -0.67692125035E+03  0.67692125035E+03  0.25500000920E-02 0.  1.
    10030    2    1    2    0    0  0.00000000000E+00  0.00000000000E+00  0.14396492196E+04  0.27934917203E+04  0.23939519870E+04 0.  0.
        3    1    3    3  502    0 -0.32621355962E+03 -0.91040546769E+03  0.15428773650E+04  0.18209129512E+04  0.10100000352E+00 0. -1.
       -3    1    3    3    0  502  0.32621355962E+03  0.91040546769E+03 -0.10322814534E+03  0.97257876919E+03  0.10100000352E+00 0.  1.
</event>
<event>
 5   0  0.6600166E-05  0.2232289E+04  0.7818609E-02  0.8505108E-01
       -2   -1    0    0    0  501  0.00000000000E+00  0.00000000000E+00  0.73199306031E+03  0.73199306032E+03  0.25500000920E-02 0. -1.
        2   -1    0    0  501    0  0.00000000000E+00  0.00000000000E+00 -0.17018998906E+04  0.17018998906E+04  0.25500000920E-02 0.  1.
    10030    2    1    2    0    0  0.00000000000E+00  0.00000000000E+00 -0.96990683028E+03  0.24338929509E+04  0.22322893265E+04 0.  0.
        5    1    3    3  502    0 -0.42038118882E+03 -0.35106000851E+03  0.57539628343E+03  0.79439690739E+03  0.46999998093E+01 0. -1.
       -5    1    3    3    0  502  0.42038118882E+03  0.35106000851E+03 -0.15453031137E+04  0.16394960435E+04  0.46999998093E+01 0.  1.
</event>
<event>
 5   0  0.2847158E-05  0.1484345E+04  0.7818609E-02  0.8894931E-01
        1   -1    0    0  501    0  0.00000000000E+00  0.00000000000E+00  0.14983169225E+04  0.14983169226E+04  0.50400001928E-02 0. -1.
       -1   -1    0    0    0  501  0.00000000000E+00  0.00000000000E+00 -0.36762564792E+03  0.36762564795E+03  0.50400001928E-02 0.  1.
    10030    2    1    2    0    0  0.00000000000E+00  0.00000000000E+00  0.11306912746E+04  0.18659425705E+04  0.14843446089E+04 0.  0.
        5    1    3    3  502    0 -0.64689362785E+03  0.18312559206E+03  0.17023123128E+03  0.69354676145E+03  0.46999998093E+01 0.  1.
       -5    1    3    3    0  502  0.64689362785E+03 -0.18312559206E+03  0.96046004335E+03  0.11723958091E+04  0.46999998093E+01 0. -1.
</event>
<event>
 5   0  0.2915546E-05  0.2473710E+04  0.7818609E-02  0.8412412E-01
       -1   -1    0    0    0  501  0.00000000000E+00  0.00000000000E+00  0.57259148424E+03  0.57259148426E+03  0.50400001928E-02 0.  1.
        1   -1    0    0  501    0  0.00000000000E+00  0.00000000000E+00 -0.26717306322E+04  0.26717306322E+04  0.50400001928E-02 0. -1.
    10030    2    1    2    0    0  0.00000000000E+00  0.00000000000E+00 -0.20991391479E+04  0.32443221164E+04  0.24737099330E+04 0.  0.
        2    1    3    3  502    0 -0.48217595267E+03  0.81195558937E+03 -0.19569092201E+01  0.94433540543E+03  0.25500000920E-02 0.  1.
       -2    1    3    3    0  502  0.48217595267E+03 -0.81195558937E+03 -0.20971822387E+04  0.22999867110E+04  0.25500000920E-02 0. -1.
</event>
<event>
 5   0  0.6978115E-05  0.2410024E+04  0.7818609E-02  0.8435760E-01
       -2   -1    0    0    0  501  0.00000000000E+00  0.00000000000E+00  0.72899966311E+03  0.72899966312E+03  0.25500000920E-02 0. -1.
        2   -1    0    0  501    0  0.00000000000E+00  0.00000000000E+00 -0.19918439368E+04  0.19918439368E+04  0.25500000920E-02 0.  1.
    10030    2    1    2    0    0  0.00000000000E+00  0.00000000000E+00 -0.12628442737E+04  0.27208435999E+04  0.24100237002E+04 0.  0.
        4    1    3    3  502    0 -0.11955905247E+03  0.61156333193E+03 -0.17958205813E+04  0.19008622383E+04  0.12699999809E+01 0.  1.
       -4    1    3    3    0  502  0.11955905247E+03 -0.61156333193E+03  0.53297630761E+03  0.81998136159E+03  0.12699999809E+01 0. -1.
</event>
<event>
 5   0  0.6600166E-05  0.2395202E+04  0.7818609E-02  0.8441302E-01
       -2   -1    0    0    0  501  0.00000000000E+00  0.00000000000E+00  0.88203221167E+03  0.88203221167E+03  0.25500000920E-02 0.  1.
        2   -1    0    0  501    0  0.00000000000E+00  0.00000000000E+00 -0.16260724700E+04  0.16260724700E+04  0.25500000920E-02 0. -1.
    10030    2    1    2    0    0  0.00000000000E+00  0.00000000000E+00 -0.74404025834E+03  0.25081046817E+04  0.23952021185E+04 0.  0.
        5    1    3    3  502    0 -0.99976890158E+02 -0.20507002012E+03 -0.16030974785E+04  0.16192568380E+04  0.46999998093E+01 0. -1.
       -5    1    3    3    0  502  0.99976890158E+02  0.20507002012E+03  0.85905722018E+03  0.88884784370E+03  0.46999998093E+01 0.  1.
</event>
<event>
 5   0  0.2943123E-05  0.1778816E+04  0.7818609E-02  0.8717647E-01
        1   -1    0    0  501    0  0.00000000000E+00  0.00000000000E+00  0.69621983148E+03  0.69621983150E+03  0.50400001928E-02 0. -1.
       -1   -1    0    0    0  501  0.00000000000E+00  0.00000000000E+00 -0.11362022187E+04  0.11362022187E+04  0.50400001928E-02 0.  1.
    10030    2    1    2    0    0  0.00000000000E+00  0.00000000000E+00 -0.43998238718E+03  0.18324220502E+04  0.17788159177E+04 0.  0.
        1    1    3    3  502    0  0.41390360706E+03  0.31625683623E+03  0.52264454811E+03  0.73789694815E+03  0.50400001928E-02 0. -1.
       -1    1    3    3    0  502 -0.41390360706E+03 -0.31625683623E+03 -0.96262693528E+03  0.10945251020E+04  0.50400001928E-02 0.  1.
</event>
<event>
 5   0  0.6703961E-05  0.2393933E+04  0.7818609E-02  0.8441778E-01
        2   -1    0    0  501    0  0.00000000000E+00  0.00000000000E+00  0.22833762539E+04  0.22833762539E+04  0.25500000920E-02 0.  1.
       -2   -1    0    0    0  501  0.00000000000E+00  0.00000000000E+00 -0.62746086332E+03  0.62746086333E+03  0.25500000920E-02 0. -1.
    10030    2    1    2    0    0  0.00000000000E+00  0.00000000000E+00  0.16559153906E+04  0.29108371173E+04  0.23939333621E+04 0.  0.
        2    1    3    3  502    0 -0.23304045707E+03  0.30657289230E+03 -0.55008228727E+03  0.67147994438E+03  0.25500000920E-02 0. -1.
       -2    1    3    3    0  502  0.23304045707E+03 -0.30657289230E+03  0.22059976779E+04  0.22393571729E+04  0.25500000920E-02 0.  1.
</event>
<event>
 5   0  0.2915546E-05  0.2462976E+04  0.7818609E-02  0.8416295E-01
       -1   -1    0    0    0  501  0.00000000000E+00  0.00000000000E+00  0.11953955563E+04  0.11953955563E+04  0.50400001928E-02 0.  1.
        1   -1    0    0  501    0  0.00000000000E+00  0.00000000000E+00 -0.12686702491E+04  0.12686702491E+04  0.50400001928E-02 0. -1.
    10030    2    1    2    0    0  0.00000000000E+00  0.00000000000E+00 -0.73274692862E+02  0.24640658054E+04  0.24629760683E+04 0.  0.
        2    1    3    3  502    0 -0.90343725500E+03 -0.82307753305E+03  0.11478112697E+03  0.12275301244E+04  0.25500000920E-02 0.  1.
       -2    1    3    3    0  502  0.90343725500E+03  0.82307753305E+03 -0.18805581983E+03  0.12365356811E+04  0.25500000920E-02 0. -1.
</event>
<event>
 5   0  0.6337926E-05  0.1962306E+04  0.7818609E-02  0.8624450E-01
       -2   -1    0    0    0  501  0.00000000000E+00  0.00000000000E+00  0.82068709471E+03  0.82068709471E+03  0.25500000920E-02 0. -1.
        2   -1    0    0  501    0  0.00000000000E+00  0.00000000000E+00 -0.11729937558E+04  0.11729937558E+04  0.25500000920E-02 0.  1.
    10030    2    1    2    0    0  0.00000000000E+00  0.00000000000E+00 -0.35230666109E+03  0.19936808505E+04  0.19623056210E+04 0.  0.
        1    1    3    3  502    0 -0.56066549066E+03 -0.53942794156E+03 -0.78348408441E+03  0.11041628535E+04  0.50400001928E-02 0.  1.
       -1    1    3    3    0  502  0.56066549066E+03  0.53942794156E+03  0.43117742332E+03  0.88951799698E+03  0.50400001928E-02 0. -1.
</event>
<event>
 5   0  0.2943244E-05  0.2394509E+04  0.7818609E-02  0.8441562E-01
        1   -1    0    0  501    0  0.00000000000E+00  0.00000000000E+00  0.75509144432E+03  0.75509144434E+03  0.50400001928E-02 0.  1.
       -1   -1    0    0    0  501  0.00000000000E+00  0.00000000000E+00 -0.18983366446E+04  0.18983366446E+04  0.50400001928E-02 0. -1.
    10030    2    1    2    0    0  0.00000000000E+00  0.00000000000E+00 -0.11432452003E+04  0.26534280890E+04  0.23945085165E+04 0.  0.
        3    1    3    3  502    0 -0.57710198890E+03  0.70054719038E+03  0.29357455229E+03  0.95393872943E+03  0.10100000352E+00 0.  1.
       -3    1    3    3    0  502  0.57710198890E+03 -0.70054719038E+03 -0.14368197526E+04  0.16994893596E+04  0.10100000352E+00 0. -1.
</event>
<event>
 5   0  0.2943244E-05  0.2094046E+04  0.7818609E-02  0.8563871E-01
        1   -1    0    0  501    0  0.00000000000E+00  0.00000000000E+00  0.11269338428E+04  0.11269338428E+04  0.50400001928E-02 0. -1.
       -1   -1    0    0    0  501  0.00000000000E+00  0.00000000000E+00 -0.97277841623E+03  0.97277841625E+03  0.50400001928E-02 0.  1.
    10030    2    1    2    0    0  0.00000000000E+00  0.00000000000E+00  0.15415542659E+03  0.20997122591E+04  0.20940457673E+04 0.  0.
        3    1    3    3  502    0 -0.45485701921E+03 -0.72019973255E+03 -0.53340009234E+03  0.10050364329E+04  0.10100000352E+00 0.  1.
       -3    1    3    3    0  502  0.45485701921E+03  0.72019973255E+03  0.68755551894E+03  0.10946758262E+04  0.10100000352E+00 0. -1.
</event>
<event>
 5   0  0.6978115E-05  0.2404557E+04  0.7818609E-02  0.8437799E-01
        2   -1    0    0  501    0  0.00000000000E+00  0.00000000000E+00  0.11529350448E+04  0.11529350448E+04  0.25500000920E-02 0. -1.
       -2   -1    0    0    0  501  0.00000000000E+00  0.00000000000E+00 -0.12537339374E+04  0.12537339374E+04  0.25500000920E-02 0.  1.
    10030    2    1    2    0    0  0.00000000000E+00  0.00000000000E+00 -0.10079889252E+03  0.24066689822E+04  0.24045571678E+04 0.  0.
        4    1    3    3  502    0  0.10225560609E+04 -0.41563798336E+03  0.42656535503E+03  0.11833576999E+04  0.12699999809E+01 0. -1.
       -4    1    3    3    0  502 -0.10225560609E+04  0.41563798336E+03 -0.52736424754E+03  0.12233112823E+04  0.12699999809E+01 0.  1.
</event>
<event>
 5   0  0.6337926E-05  0.2387970E+04  0.7818609E-02  0.8444021E-01
       -2   -1    0    0    0  501  0.00000000000E+00  0.00000000000E+00  0.10295380416E+04  0.10295380416E+04  0.25500000920E-02 0.  1.
        2   -1    0    0  501    0  0.00000000000E+00  0.00000000000E+00 -0.13846990630E+04  0.13846990630E+04  0.25500000920E-02 0. -1.
    10030    2    1    2    0    0  0.00000000000E+00  0.00000000000E+00 -0.35516102142E+03  0.24142371046E+04  0.23879701519E+04 0.  0.
        1    1    3    3  502    0 -0.18668650215E+03 -0.10291292637E+04  0.40463723985E+03  0.11214678718E+04  0.50400001928E-02 0.  1.
       -1    1    3    3    0  502  0.18668650215E+03  0.10291292637E+04 -0.75979826127E+03  0.12927692328E+04  0.50400001928E-02 0. -1.
</event>
<event>
 5   0  0.6600166E-05  0.2390613E+04  0.7818609E-02  0.8443026E-01
        2   -1    0    0  501    0  0.00000000000E+00  0.00000000000E+00  0.19397535537E+04  0.19397535537E+04  0.25500000920E-02 0. -1.
       -2   -1    0    0    0  501  0.00000000000E+00  0.00000000000E+00 -0.73656678747E+03  0.73656678748E+03  0.25500000920E-02 0.  1.
    10030    2    1    2    0    0  0.00000000000E+00  0.00000000000E+00  0.12031867662E+04  0.26763203412E+04  0.23906133469E+04 0.  0.
        5    1    3    3  502    0  0.33550053576E+03  0.22255848546E+03 -0.65836406984E+03  0.77172419128E+03  0.46999998093E+01 0.  1.
       -5    1    3    3    0  502 -0.33550053576E+03 -0.22255848546E+03  0.18615508361E+04  0.19045961499E+04  0.46999998093E+01 0. -1.
</event>
<event>
 5   0  0.2901816E-05  0.2472106E+04  0.7818609E-02  0.8412991E-01
        1   -1    0    0  501    0  0.00000000000E+00  0.00000000000E+00  0.26184669916E+04  0.26184669916E+04  0.50400001928E-02 0.  1.
       -1   -1    0    0    0  501  0.00000000000E+00  0.00000000000E+00 -0.58348136006E+03  0.58348136008E+03  0.50400001928E-02 0. -1.
    10030    2    1    2    0    0  0.00000000000E+00  0.00000000000E+00  0.20349856316E+04  0.32019483517E+04  0.24721057272E+04 0.  0.
        4    1    3    3  502    0 -0.64321914710E+02 -0.31952042287E+03  0.25618051591E+04  0.25824557877E+04  0.12699999809E+01 0.  1.
       -4    1    3    3    0  502  0.64321914710E+02  0.31952042287E+03 -0.52681952755E+03  0.61949256400E+03  0.12699999809E+01 0. -1.
</event>
<event>
 5   0  0.2847158E-05  0.2411147E+04  0.7818609E-02  0.8435342E-01
        1   -1    0    0  501    0  0.00000000000E+00  0.00000000000E+00  0.17167210029E+04  0.17167210029E+04  0.50400001928E-02 0. -1.
       -1   -1    0    0    0  501  0.00000000000E+00  0.00000000000E+00 -0.84661812664E+03  0.84661812666E+03  0.50400001928E-02 0.  1.
    10030    2    1    2    0    0  0.00000000000E+00  0.00000000000E+00  0.87010287621E+03  0.25633391295E+04  0.24111467143E+04 0.  0.
        5    1    3    3  502    0  0.49365714036E+03 -0.90486820154E+03 -0.22963363960E+03  0.10560480732E+04  0.46999998093E+01 0. -1.
       -5    1    3    3    0  502 -0.49365714036E+03  0.90486820154E+03  0.10997365158E+04  0.15072910564E+04  0.46999998093E+01 0.  1.
</event>
<event>
 5   0  0.6703961E-05  0.2405351E+04  0.7818609E-02  0.8437503E-01
       -2   -1    0    0    0  501  0.00000000000E+00  0.00000000000E+00  0.99177384826E+03  0.99177384827E+03  0.25500000920E-02 0.  1.
        2   -1    0    0  501    0  0.00000000000E+00  0.00000000000E+00 -0.14584261143E+04  0.14584261143E+04  0.25500000920E-02 0. -1.
    10030    2    1    2    0    0  0.00000000000E+00  0.00000000000E+00 -0.46665226608E+03  0.24501999626E+04  0.24053514336E+04 0.  0.
        2    1    3    3  502    0 -0.79670379681E+03  0.19688757702E+03  0.66222892804E+03  0.10545372497E+04  0.25500000920E-02 0.  1.
       -2    1    3    3    0  502  0.79670379681E+03 -0.19688757702E+03 -0.11288811941E+04  0.13956627129E+04  0.25500000920E-02 0. -1.
</event>
<event>
 5   0  0.2901816E-05  0.2439248E+04  0.7818609E-02  0.8424954E-01
        1   -1    0    0  501    0  0.00000000000E+00  0.00000000000E+00  0.18323227495E+04  0.18323227495E+04  0.50400001928E-02 0.  1.
       -1   -1    0    0    0  501  0.00000000000E+00  0.00000000000E+00 -0.81180142659E+03  0.81180142660E+03  0.50400001928E-02 0. -1.
    10030    2    1    2    0    0  0.00000000000E+00  0.00000000000E+00  0.10205213229E+04  0.26441241761E+04  0.24392476070E+04 0.  0.
        4    1    3    3  502    0  0.82344927443E+03  0.22311769567E+03 -0.43451158393E+03  0.95741952307E+03  0.12699999809E+01 0. -1.
       -4    1    3    3    0  502 -0.82344927443E+03 -0.22311769567E+03  0.14550329068E+04  0.16867046530E+04  0.12699999809E+01 0.  1.
</event>
<event>
 5   0  0.6600166E-05  0.2373620E+04  0.7818609E-02  0.8449446E-01
        2   -1    0    0  501    0  0.00000000000E+00  0.00000000000E+00  0.11364426871E+04  0.11364426871E+04  0.25500000920E-02 0. -1.
       -2   -1    0    0    0  501  0.00000000000E+00  0.00000000000E+00 -0.12394095157E+04  0.12394095157E+04  0.25500000920E-02 0.  1.
    10030    2    1    2    0    0  0.00000000000E+00  0.00000000000E+00 -0.10296682866E+03  0.23758522028E+04  0.23736199194E+04 0.  0.
        5    1    3    3  502    0 -0.24323402313E+03  0.10946666536E+04  0.33751805149E+03  0.11710672045E+04  0.46999998093E+01 0.  1.
       -5    1    3    3    0  502  0.24323402313E+03 -0.10946666536E+04 -0.44048488015E+03  0.12047849983E+04  0.46999998093E+01 0. -1.
</event>
<event>
 5   0  0.2847158E-05  0.2418362E+04  0.7818609E-02  0.8432661E-01
        1   -1    0    0  501    0  0.00000000000E+00  0.00000000000E+00  0.20022886573E+04  0.20022886573E+04  0.50400001928E-02 0. -1.
       -1   -1    0    0    0  501  0.00000000000E+00  0.00000000000E+00 -0.73022395804E+03  0.73022395806E+03  0.50400001928E-02 0.  1.
    10030    2    1    2    0    0  0.00000000000E+00  0.00000000000E+00  0.12720646993E+04  0.27325126154E+04  0.24183623786E+04 0.  0.
        5    1    3    3  502    0  0.11799967635E+04 -0.18420016752E+03  0.42231952342E+03  0.12667667242E+04  0.46999998093E+01 0.  1.
       -5    1    3    3    0  502 -0.11799967635E+04  0.18420016752E+03  0.84974517584E+03  0.14657458912E+04  0.46999998093E+01 0. -1.
</event>
<event>
 5   0  0.2943123E-05  0.2350966E+04  0.7818609E-02  0.8458093E-01
        1   -1    0    0  501    0  0.00000000000E+00  0.00000000000E+00  0.15097171341E+04  0.15097171341E+04  0.50400001928E-02 0.  1.
       -1   -1    0    0    0  501  0.00000000000E+00  0.00000000000E+00 -0.91524438193E+03  0.91524438194E+03  0.50400001928E-02 0. -1.
    10030    2    1    2    0    0  0.00000000000E+00  0.00000000000E+00  0.59447275218E+03  0.24249615161E+04  0.23509658656E+04 0.  0.
        1    1    3    3  502    0  0.73638302376E+03 -0.85342599180E+03 -0.46670680300E+02  0.11281728740E+04  0.50400001928E-02 0. -1.
       -1    1    3    3    0  502 -0.73638302376E+03  0.85342599180E+03  0.64114343248E+03  0.12967886421E+04  0.50400001928E-02 0.  1.
</event>
<event>
 5   0  0.6703961E-05  0.2384644E+04  0.7818609E-02  0.8445275E-01
       -2   -1    0    0    0  501  0.00000000000E+00  0.00000000000E+00  0.21698115127E+04  0.21698115127E+04  0.25500000920E-02 0. -1.
        2   -1    0    0  501    0  0.00000000000E+00  0.00000000000E+00 -0.65518658248E+03  0.65518658249E+03  0.25500000920E-02 0.  1.
    10030    2    1    2    0    0  0.00000000000E+00  0.00000000000E+00  0.15146249302E+04  0.28249980952E+04  0.23846436963E+04 0.  0.
        2    1    3    3  502    0 -0.28770786187E+03  0.11499624776E+04  0.60540806815E+03  0.13310553868E+04  0.25500000920E-02 0.  1.
       -2    1    3    3    0  502  0.28770786187E+03 -0.11499624776E+04  0.90921686203E+03  0.14939427084E+04  0.25500000920E-02 0. -1.
</event>
<event>
 5   0  0.2847158E-05  0.2401246E+04  0.7818609E-02  0.8439037E-01
        1   -1    0    0  501    0  0.00000000000E+00  0.00000000000E+00  0.10661850150E+04  0.10661850150E+04  0.50400001928E-02 0. -1.
       -1   -1    0    0    0  501  0.00000000000E+00  0.00000000000E+00 -0.13520122935E+04  0.13520122935E+04  0.50400001928E-02 0.  1.
    10030    2    1    2    0    0  0.00000000000E+00  0.00000000000E+00 -0.28582727853E+03  0.24181973085E+04  0.24012457162E+04 0.  0.
        5    1    3    3  502    0  0.21914513798E+03  0.26112154405E+03 -0.13022417005E+04  0.13461294844E+04  0.46999998093E+01 0.  1.
       -5    1    3    3    0  502 -0.21914513798E+03 -0.26112154405E+03  0.10164144220E+04  0.10720678241E+04  0.46999998093E+01 0. -1.
</event>
<event>
 5   0  0.6337926E-05  0.2471893E+04  0.7818609E-02  0.8413068E-01
        2   -1    0    0  501    0  0.00000000000E+00  0.00000000000E+00  0.12127006037E+04  0.12127006037E+04  0.25500000920E-02 0. -1.
       -2   -1    0    0    0  501  0.00000000000E+00  0.00000000000E+00 -0.12596377893E+04  0.12596377893E+04  0.25500000920E-02 0.  1.
    10030    2    1    2    0    0  0.00000000000E+00  0.00000000000E+00 -0.46937185529E+02  0.24723383930E+04  0.24718928031E+04 0.  0.
        1    1    3    3  502    0 -0.22307652418E+02 -0.12306854497E+04 -0.13519907035E+03  0.12382903924E+04  0.50400001928E-02 0. -1.
       -1    1    3    3    0  502  0.22307652418E+02  0.12306854497E+04  0.88261884819E+02  0.12340480006E+04  0.50400001928E-02 0.  1.
</event>
<event>
 5   0  0.2943123E-05  0.2330494E+04  0.7818609E-02  0.8465994E-01
       -1   -1    0    0    0  501  0.00000000000E+00  0.00000000000E+00  0.11839511723E+04  0.11839511723E+04  0.50400001928E-02 0. -1.
        1   -1    0    0  501    0  0.00000000000E+00  0.00000000000E+00 -0.11468387007E+04  0.11468387007E+04  0.50400001928E-02 0.  1.
    10030    2    1    2    0    0  0.00000000000E+00  0.00000000000E+00  0.37112471611E+02  0.23307898729E+04  0.23304943888E+04 0.  0.
        1    1    3    3  502    0  0.59680218594E+03 -0.43894065303E+03 -0.88097943743E+03  0.11510718984E+04  0.50400001928E-02 0.  1.
       -1    1    3    3    0  502 -0.59680218594E+03  0.43894065303E+03  0.91809190904E+03  0.11797179746E+04  0.50400001928E-02 0. -1.
</event>
<event>
 5   0  0.2915546E-05  0.1737001E+04  0.7818609E-02  0.8740538E-01
       -1   -1    0    0    0  501  0.00000000000E+00  0.00000000000E+00  0.73878551018E+03  0.73878551020E+03  0.50400001928E-02 0.  1.
        1   -1    0    0  501    0  0.00000000000E+00  0.00000000000E+00 -0.10209907323E+04  0.10209907323E+04  0.50400001928E-02 0. -1.
    10030    2    1    2    0    0  0.00000000000E+00  0.00000000000E+00 -0.28220522212E+03  0.17597762425E+04  0.17370010467E+04 0.  0.
        2    1    3    3  502    0 -0.54442058469E+03  0.62479347705E+03 -0.40438012864E+03  0.92210842662E+03  0.25500000920E-02 0. -1.
       -2    1    3    3    0  502  0.54442058469E+03 -0.62479347705E+03  0.12217490653E+03  0.83766781589E+03  0.25500000920E-02 0.  1.
</event>
<event>
 5   0  0.6978115E-05  0.2390329E+04  0.7818609E-02  0.8443133E-01
       -2   -1    0    0    0  501  0.00000000000E+00  0.00000000000E+00  0.95187333314E+03  0.95187333314E+03  0.25500000920E-02 0.  1.
        2   -1    0    0  501    0  0.00000000000E+00  0.00000000000E+00 -0.15006392147E+04  0.15006392147E+04  0.25500000920E-02 0. -1.
    10030    2    1    2    0    0  0.00000000000E+00  0.00000000000E+00 -0.54876588160E+03  0.24525125479E+04  0.23903292252E+04 0.  0.
        4    1    3    3  502    0 -0.11017088045E+04  0.41053239479E+03 -0.49471989538E+03  0.12755581229E+04  0.12699999809E+01 0.  1.
       -4    1    3    3    0  502  0.11017088045E+04 -0.41053239479E+03 -0.54045986217E+02  0.11769544250E+04  0.12699999809E+01 0. -1.
</event>
<event>
 5   0  0.6703961E-05  0.2364164E+04  0.7818609E-02  0.8453043E-01
        2   -1    0    0  501    0  0.00000000000E+00  0.00000000000E+00  0.11804672847E+04  0.11804672847E+04  0.25500000920E-02 0. -1.
       -2   -1    0    0    0  501  0.00000000000E+00  0.00000000000E+00 -0.11836986843E+04  0.11836986843E+04  0.25500000920E-02 0.  1.
    10030    2    1    2    0    0  0.00000000000E+00  0.00000000000E+00 -0.32313995391E+01  0.23641659690E+04  0.23641637606E+04 0.  0.
        2    1    3    3  502    0 -0.97593232238E+03 -0.96853973620E+02 -0.66153523676E+03  0.11829849786E+04  0.25500000920E-02 0.  1.
       -2    1    3    3    0  502  0.97593232238E+03  0.96853973620E+02  0.65830383722E+03  0.11811809904E+04  0.25500000920E-02 0. -1.
</event>
<event>
 5   0  0.6978115E-05  0.2123335E+04  0.7818609E-02  0.8551033E-01
       -2   -1    0    0    0  501  0.00000000000E+00  0.00000000000E+00  0.12017677495E+04  0.12017677495E+04  0.25500000920E-02 0. -1.
        2   -1    0    0  501    0  0.00000000000E+00  0.00000000000E+00 -0.93789951779E+03  0.93789951780E+03  0.25500000920E-02 0.  1.
    10030    2    1    2    0    0  0.00000000000E+00  0.00000000000E+00  0.26386823171E+03  0.21396672673E+04  0.21233345405E+04 0.  0.
        4    1    3    3  502    0 -0.29408487262E+02  0.10414371758E+04  0.33766013499E+03  0.10952041956E+04  0.12699999809E+01 0. -1.
       -4    1    3    3    0  502  0.29408487262E+02 -0.10414371758E+04 -0.73791903276E+02  0.10444630717E+04  0.12699999809E+01 0.  1.
</event>
<event>
 5   0  0.2915546E-05  0.2391630E+04  0.7818609E-02  0.8442644E-01
        1   -1    0    0  501    0  0.00000000000E+00  0.00000000000E+00  0.16456128555E+04  0.16456128555E+04  0.50400001928E-02 0. -1.
       -1   -1    0    0    0  501  0.00000000000E+00  0.00000000000E+00 -0.86896128295E+03  0.86896128296E+03  0.50400001928E-02 0.  1.
    10030    2    1    2    0    0  0.00000000000E+00  0.00000000000E+00  0.77665157254E+03  0.25145741385E+04  0.23916302876E+04 0.  0.
        2    1    3    3  502    0  0.94397257149E+03 -0.20155696098E+03  0.11304905721E+04  0.14865121452E+04  0.25500000920E-02 0. -1.
       -2    1    3    3    0  502 -0.94397257149E+03  0.20155696098E+03 -0.35383899961E+03  0.10280619932E+04  0.25500000920E-02 0.  1.
</event>
<event>
 5   0  0.6337926E-05  0.2368730E+04  0.7818609E-02  0.8451304E-01
       -2   -1    0    0    0  501  0.00000000000E+00  0.00000000000E+00  0.12184322506E+04  0.12184322506E+04  0.25500000920E-02 0.  1.
        2   -1    0    0  501    0  0.00000000000E+00  0.00000000000E+00 -0.11512504750E+04  0.11512504750E+04  0.25500000920E-02 0. -1.
    10030    2    1    2    0    0  0.00000000000E+00  0.00000000000E+00  0.67181775625E+02  0.23696827256E+04  0.23687302145E+04 0.  0.
        1    1    3    3  502    0 -0.55050475687E+03  0.62750042233E+03 -0.80693054098E+03  0.11610121297E+04  0.50400001928E-02 0. -1.
       -1    1    3    3    0  502  0.55050475687E+03 -0.62750042233E+03  0.87411231660E+03  0.12086705959E+04  0.50400001928E-02 0.  1.
</event>
<event>
 5   0  0.2901816E-05  0.2428543E+04  0.7818609E-02  0.8428894E-01
        1   -1    0    0  501    0  0.00000000000E+00  0.00000000000E+00  0.34996527441E+04  0.34996527441E+04  0.50400001928E-02 0. -1.
       -1   -1    0    0    0  501  0.00000000000E+00  0.00000000000E+00 -0.42131456788E+03  0.42131456791E+03  0.50400001928E-02 0.  1.
    10030    2    1    2    0    0  0.00000000000E+00  0.00000000000E+00  0.30783381763E+04  0.39209673120E+04  0.24285425124E+04 0.  0.
        4    1    3    3  502    0 -0.70081330514E+03  0.79521663056E+02  0.31350210066E+04  0.32133816001E+04  0.12699999809E+01 0. -1.
       -4    1    3    3    0  502  0.70081330514E+03 -0.79521663056E+02 -0.56682830306E+02  0.70758571191E+03  0.12699999809E+01 0.  1.
</event>
<event>
 5   0  0.2915546E-05  0.2118642E+04  0.7818609E-02  0.8553076E-01
       -1   -1    0    0    0  501  0.00000000000E+00  0.00000000000E+00  0.64672432405E+03  0.64672432407E+03  0.50400001928E-02 0. -1.
        1   -1    0    0  501    0  0.00000000000E+00  0.00000000000E+00 -0.17351453502E+04  0.17351453502E+04  0.50400001928E-02 0.  1.
    10030    2    1    2    0    0  0.00000000000E+00  0.00000000000E+00 -0.10884210262E+04  0.23818696743E+04  0.21186417383E+04 0.  0.
        2    1    3    3  502    0  0.78249148752E+03  0.24343462339E+03 -0.12988849018E+04  0.15357914351E+04  0.25500000920E-02 0.  1.
       -2    1    3    3    0  502 -0.78249148752E+03 -0.24343462339E+03  0.21046387565E+03  0.84607823921E+03  0.25500000920E-02 0. -1.
</event>
<event>
 5   0  0.2943123E-05  0.2335936E+04  0.7818609E-02  0.8463885E-01
        1   -1    0    0  501    0  0.00000000000E+00  0.00000000000E+00  0.14501706189E+04  0.14501706189E+04  0.50400001928E-02 0. -1.
       -1   -1    0    0    0  501  0.00000000000E+00  0.00000000000E+00 -0.94068173962E+03  0.94068173963E+03  0.50400001928E-02 0.  1.
    10030    2    1    2    0    0  0.00000000000E+00  0.00000000000E+00  0.50948887926E+03  0.23908523585E+04  0.23359358044E+04 0.  0.
        1    1    3    3  502    0  0.99574436659E+03  0.57178679319E+03  0.35938227470E+02  0.11487987364E+04  0.50400001928E-02 0.  1.
       -1    1    3    3    0  502 -0.99574436659E+03 -0.57178679319E+03  0.47355065179E+03  0.12420536222E+04  0.50400001928E-02 0. -1.
</event>
<event>
 5   0  0.6337926E-05  0.2367401E+04  0.7818609E-02  0.8451810E-01
       -2   -1    0    0    0  501  0.00000000000E+00  0.00000000000E+00  0.12964592242E+04  0.12964592242E+04  0.25500000920E-02 0.  1.
        2   -1    0    0  501    0  0.00000000000E+00  0.00000000000E+00 -0.10807490375E+04  0.10807490375E+04  0.25500000920E-02 0. -1.
    10030    2    1    2    0    0  0.00000000000E+00  0.00000000000E+00  0.21571018674E+03  0.23772082617E+04  0.23674011563E+04 0.  0.
        1    1    3    3  502    0  0.44457248369E+03  0.10264619297E+04 -0.28088981574E+03  0.11533290402E+04  0.50400001928E-02 0. -1.
       -1    1    3    3    0  502 -0.44457248369E+03 -0.10264619297E+04  0.49660000248E+03  0.12238792215E+04  0.50400001928E-02 0.  1.
</event>
<event>
 5   0  0.2943244E-05  0.2340161E+04  0.7818609E-02  0.8462252E-01
        1   -1    0    0  501    0  0.00000000000E+00  0.00000000000E+00  0.86785696337E+03  0.86785696338E+03  0.50400001928E-02 0. -1.
       -1   -1    0    0    0  501  0.00000000000E+00  0.00000000000E+00 -0.15775505795E+04  0.15775505795E+04  0.50400001928E-02 0.  1.
    10030    2    1    2    0    0  0.00000000000E+00  0.00000000000E+00 -0.70969361617E+03  0.24454075429E+04  0.23401608966E+04 0.  0.
        3    1    3    3  502    0 -0.23697676995E+03  0.32170922016E+03  0.79435556556E+03  0.88918816151E+03  0.10100000352E+00 0. -1.
       -3    1    3    3    0  502  0.23697676995E+03 -0.32170922016E+03 -0.15040491817E+04  0.15562193814E+04  0.10100000352E+00 0.  1.
</event>
<event>
 5   0  0.2847158E-05  0.2434979E+04  0.7818609E-02  0.8426523E-01
       -1   -1    0    0    0  501  0.00000000000E+00  0.00000000000E+00  0.60965944370E+03  0.60965944372E+03  0.50400001928E-02 0. -1.
        1   -1    0    0  501    0  0.00000000000E+00  0.00000000000E+00 -0.24313263162E+04  0.24313263162E+04  0.50400001928E-02 0.  1.
    10030    2    1    2    0    0  0.00000000000E+00  0.00000000000E+00 -0.18216668725E+04  0.30409857599E+04  0.24349793013E+04 0.  0.
        5    1    3    3  502    0  0.33303147551E+02 -0.85868206386E+02 -0.24269581528E+04  0.24287096192E+04  0.46999998093E+01 0.  1.
       -5    1    3    3    0  502 -0.33303147551E+02  0.85868206386E+02  0.60529128034E+03  0.61227614077E+03  0.46999998093E+01 0. -1.
</event>
<event>
 5   0  0.2943244E-05  0.2386429E+04  0.7818609E-02  0.8444602E-01
       -1   -1    0    0    0  501  0.00000000000E+00  0.00000000000E+00  0.10258120861E+04  0.10258120861E+04  0.50400001928E-02 0. -1.
        1   -1    0    0  501    0  0.00000000000E+00  0.00000000000E+00 -0.13879353006E+04  0.13879353006E+04  0.50400001928E-02 0.  1.
    10030    2    1    2    0    0  0.00000000000E+00  0.00000000000E+00 -0.36212321455E+03  0.24137473867E+04  0.23864289691E+04 0.  0.
        3    1    3    3  502    0  0.54660798406E+03 -0.10102911215E+04  0.14557852793E+03  0.11578694039E+04  0.10100000352E+00 0. -1.
       -3    1    3    3    0  502 -0.54660798406E+03  0.10102911215E+04 -0.50770174248E+03  0.12558779829E+04  0.10100000352E+00 0.  1.
</event>
<event>
 5   0  0.6703961E-05  0.2391927E+04  0.7818609E-02  0.8442532E-01
        2   -1    0    0  501    0  0.00000000000E+00  0.00000000000E+00  0.94454320952E+03  0.94454320953E+03  0.25500000920E-02 0.  1.
       -2   -1    0    0    0  501  0.00000000000E+00  0.00000000000E+00 -0.15143070173E+04  0.15143070173E+04  0.25500000920E-02 0. -1.
    10030    2    1    2    0    0  0.00000000000E+00  0.00000000000E+00 -0.56976380773E+03  0.24588502268E+04  0.23919267633E+04 0.  0.
        2    1    3    3  502    0 -0.28847886860E+03 -0.97270475887E+03 -0.93580752645E+03  0.13802573427E+04  0.25500000920E-02 0.  1.
       -2    1    3    3    0  502  0.28847886860E+03  0.97270475887E+03  0.36604371871E+03  0.10785928841E+04  0.25500000920E-02 0. -1.
</event>
<event>
 5   0  0.6703961E-05  0.2397836E+04  0.7818609E-02  0.8440314E-01
       -2   -1    0    0    0  501  0.00000000000E+00  0.00000000000E+00  0.50389203857E+03  0.50389203857E+03  0.25500000920E-02 0. -1.
        2   -1    0    0  501    0  0.00000000000E+00  0.00000000000E+00 -0.28526029764E+04  0.28526029764E+04  0.25500000920E-02 0.  1.
    10030    2    1    2    0    0  0.00000000000E+00  0.00000000000E+00 -0.23487109379E+04  0.33564950150E+04  0.23978356316E+04 0.  0.
        2    1    3    3  502    0 -0.82123812082E+02 -0.55578109470E+03 -0.26569347402E+04  0.27156839211E+04  0.25500000920E-02 0.  1.
       -2    1    3    3    0  502  0.82123812082E+02  0.55578109470E+03  0.30822380232E+03  0.64081109390E+03  0.25500000920E-02 0. -1.
</event>
<event>
 5   0  0.6978115E-05  0.2329532E+04  0.7818609E-02  0.8466367E-01
       -2   -1    0    0    0  501  0.00000000000E+00  0.00000000000E+00  0.79520954369E+03  0.79520954369E+03  0.25500000920E-02 0.  1.
        2   -1    0    0  501    0  0.00000000000E+00  0.00000000000E+00 -0.17060659026E+04  0.17060659026E+04  0.25500000920E-02 0. -1.
    10030    2    1    2    0    0  0.00000000000E+00  0.00000000000E+00 -0.91085635893E+03  0.25012754463E+04  0.23295320456E+04 0.  0.
        4    1    3    3  502    0 -0.86388428623E+03 -0.60068351191E+02 -0.12918133333E+04  0.15552130297E+04  0.12699999809E+01 0. -1.
       -4    1    3    3    0  502  0.86388428623E+03  0.60068351191E+02  0.38095697439E+03  0.94606241657E+03  0.12699999809E+01 0.  1.
</event>
<event>
 5   0  0.2339125E-05  0.1837970E+04  0.7818609E-02  0.8686364E-01
        3   -1    0    0  501    0  0.00000000000E+00  0.00000000000E+00  0.10502335164E+04  0.10502335212E+04  0.10100000352E+00 0. -1.
       -3   -1    0    0    0  501  0.00000000000E+00  0.00000000000E+00 -0.80413890178E+03  0.80413890812E+03  0.10100000352E+00 0.  1.
    10030    2    1    2    0    0  0.00000000000E+00  0.00000000000E+00  0.24609461460E+03  0.18543724294E+04  0.18379702248E+04 0.  0.
        2    1    3    3  502    0  0.44917549078E+02 -0.16839443334E+03  0.10334073795E+04  0.10480005169E+04  0.25500000920E-02 0. -1.
       -2    1    3    3    0  502 -0.44917549078E+02  0.16839443334E+03 -0.78731276491E+03  0.80637191246E+03  0.25500000920E-02 0.  1.
</event>
<event>
 5   0  0.2943244E-05  0.2384245E+04  0.7818609E-02  0.8445426E-01
        1   -1    0    0  501    0  0.00000000000E+00  0.00000000000E+00  0.14287244135E+04  0.14287244135E+04  0.50400001928E-02 0.  1.
       -1   -1    0    0    0  501  0.00000000000E+00  0.00000000000E+00 -0.99470282466E+03  0.99470282468E+03  0.50400001928E-02 0. -1.
    10030    2    1    2    0    0  0.00000000000E+00  0.00000000000E+00  0.43402158886E+03  0.24234272382E+04  0.23842451299E+04 0.  0.
        3    1    3    3  502    0 -0.22659788413E+03 -0.34808985838E+03  0.13528012964E+04  0.14151270291E+04  0.10100000352E+00 0.  1.
       -3    1    3    3    0  502  0.22659788413E+03  0.34808985838E+03 -0.91877970754E+03  0.10083002092E+04  0.10100000352E+00 0. -1.
</event>
<event>
 5   0  0.2901816E-05  0.2271784E+04  0.7818609E-02  0.8489130E-01
       -1   -1    0    0    0  501  0.00000000000E+00  0.00000000000E+00  0.62588436919E+03  0.62588436921E+03  0.50400001928E-02 0. -1.
        1   -1    0    0  501    0  0.00000000000E+00  0.00000000000E+00 -0.20614833108E+04  0.20614833108E+04  0.50400001928E-02 0.  1.
    10030    2    1    2    0    0  0.00000000000E+00  0.00000000000E+00 -0.14355989417E+04  0.26873676801E+04  0.22717836003E+04 0.  0.
        4    1    3    3  502    0  0.78110131270E+03 -0.14096476823E+03 -0.16790067373E+04  0.18571633109E+04  0.12699999809E+01 0.  1.
       -4    1    3    3    0  502 -0.78110131270E+03  0.14096476823E+03  0.24340779569E+03  0.83020436911E+03  0.12699999809E+01 0. -1.
</event>
<event>
 5   0  0.6600166E-05  0.1811396E+04  0.7818609E-02  0.8700263E-01
        2   -1    0    0  501    0  0.00000000000E+00  0.00000000000E+00  0.10270678419E+04  0.10270678419E+04  0.25500000920E-02 0.  1.
       -2   -1    0    0    0  501  0.00000000000E+00  0.00000000000E+00 -0.79867021444E+03  0.79867021444E+03  0.25500000920E-02 0. -1.
    10030    2    1    2    0    0  0.00000000000E+00  0.00000000000E+00  0.22839762750E+03  0.18257380564E+04  0.18113955875E+04 0.  0.
        5    1    3    3  502    0  0.47523329180E+03  0.77057719811E+03  0.88890164117E+02  0.90970294666E+03  0.46999998093E+01 0. -1.
       -5    1    3    3    0  502 -0.47523329180E+03 -0.77057719811E+03  0.13950746338E+03  0.91603510971E+03  0.46999998093E+01 0.  1.
</event>
<event>
 5   0  0.2943244E-05  0.2403037E+04  0.7818609E-02  0.8438368E-01
        1   -1    0    0  501    0  0.00000000000E+00  0.00000000000E+00  0.11482825174E+04  0.11482825174E+04  0.50400001928E-02 0. -1.
       -1   -1    0    0    0  501  0.00000000000E+00  0.00000000000E+00 -0.12572220990E+04  0.12572220990E+04  0.50400001928E-02 0.  1.
    10030    2    1    2    0    0  0.00000000000E+00  0.00000000000E+00 -0.10893958160E+03  0.24055046163E+04  0.24030365430E+04 0.  0.
        3    1    3    3  502    0 -0.66632970362E+03  0.52901067642E+02  0.94498059034E+03  0.11574895780E+04  0.10100000352E+00 0. -1.
       -3    1    3    3    0  502  0.66632970362E+03 -0.52901067642E+02 -0.10539201719E+04  0.12480150383E+04  0.10100000352E+00 0.  1.
</event>
<event>
 5   0  0.2915546E-05  0.1683635E+04  0.7818609E-02  0.8770753E-01
        1   -1    0    0  501    0  0.00000000000E+00  0.00000000000E+00  0.63799252674E+03  0.63799252676E+03  0.50400001928E-02 0.  1.
       -1   -1    0    0    0  501  0.00000000000E+00  0.00000000000E+00 -0.11107605375E+04  0.11107605375E+04  0.50400001928E-02 0. -1.
    10030    2    1    2    0    0  0.00000000000E+00  0.00000000000E+00 -0.47276801075E+03  0.17487530643E+04  0.16836352597E+04 0.  0.
        2    1    3    3  502    0 -0.10470963199E+03  0.43726951506E+03  0.50282140345E+03  0.67453546949E+03  0.25500000920E-02 0.  1.
       -2    1    3    3    0  502  0.10470963199E+03 -0.43726951506E+03 -0.97558941419E+03  0.10742175948E+04  0.25500000920E-02 0. -1.
</event>
<event>
 5   0  0.6714629E-05  0.2439347E+04  0.7818609E-02  0.8424918E-01
       -2   -1    0    0    0  501  0.00000000000E+00  0.00000000000E+00  0.12152194813E+04  0.12152194814E+04  0.25500000920E-02 0.  1.
        2   -1    0    0  501    0  0.00000000000E+00  0.00000000000E+00 -0.12241438058E+04  0.12241438058E+04  0.25500000920E-02 0. -1.
    10030    2    1    2    0    0  0.00000000000E+00  0.00000000000E+00 -0.89243244443E+01  0.24393632871E+04  0.24393469624E+04 0.  0.
        3    1    3    3  502    0  0.43098334510E+03  0.11076591754E+04 -0.27823013161E+03  0.12206832140E+04  0.10100000352E+00 0. -1.
       -3    1    3    3    0  502 -0.43098334510E+03 -0.11076591754E+04  0.26930580717E+03  0.12186800731E+04  0.10100000352E+00 0.  1.
</event>
<event>
 5   0  0.2943244E-05  0.2397611E+04  0.7818609E-02  0.8440398E-01
        1   -1    0    0  501    0  0.00000000000E+00  0.00000000000E+00  0.17717882611E+04  0.17717882611E+04  0.50400001928E-02 0. -1.
       -1   -1    0    0    0  501  0.00000000000E+00  0.00000000000E+00 -0.81112113868E+03  0.81112113870E+03  0.50400001928E-02 0.  1.
    10030    2    1    2    0    0  0.00000000000E+00  0.00000000000E+00  0.96066712238E+03  0.25829093998E+04  0.23976112378E+04 0.  0.
        3    1    3    3  502    0  0.12727369209E+03 -0.11672746903E+04  0.21998239083E+03  0.11946217217E+04  0.10100000352E+00 0. -1.
       -3    1    3    3    0  502 -0.12727369209E+03  0.11672746903E+04  0.74068473155E+03  0.13882876781E+04  0.10100000352E+00 0.  1.
</event>
<event>
 5   0  0.2943244E-05  0.2079119E+04  0.7818609E-02  0.8570498E-01
        1   -1    0    0  501    0  0.00000000000E+00  0.00000000000E+00  0.13197992392E+04  0.13197992392E+04  0.50400001928E-02 0.  1.
       -1   -1    0    0    0  501  0.00000000000E+00  0.00000000000E+00 -0.81882427377E+03  0.81882427379E+03  0.50400001928E-02 0. -1.
    10030    2    1    2    0    0  0.00000000000E+00  0.00000000000E+00  0.50097496546E+03  0.21386235130E+04  0.20791187110E+04 0.  0.
        3    1    3    3  502    0  0.54075868357E+03 -0.79877190835E+02  0.11600363258E+04  0.12823745969E+04  0.10100000352E+00 0.  1.
       -3    1    3    3    0  502 -0.54075868357E+03  0.79877190835E+02 -0.65906136032E+03  0.85624891612E+03  0.10100000352E+00 0. -1.
</event>
<event>
 5   0  0.2943244E-05  0.2388559E+04  0.7818609E-02  0.8443799E-01
        1   -1    0    0  501    0  0.00000000000E+00  0.00000000000E+00  0.16006852183E+04  0.16006852183E+04  0.50400001928E-02 0. -1.
       -1   -1    0    0    0  501  0.00000000000E+00  0.00000000000E+00 -0.89105844294E+03  0.89105844295E+03  0.50400001928E-02 0.  1.
    10030    2    1    2    0    0  0.00000000000E+00  0.00000000000E+00  0.70962677537E+03  0.24917436613E+04  0.23885594640E+04 0.  0.
        3    1    3    3  502    0 -0.24940315346E+03 -0.11672286385E+04  0.39756471702E+03  0.12580470349E+04  0.10100000352E+00 0.  1.
       -3    1    3    3    0  502  0.24940315346E+03  0.11672286385E+04  0.31206205836E+03  0.12336966264E+04  0.10100000352E+00 0. -1.
</event>
<event>
 5   0  0.2339125E-05  0.2347271E+04  0.7818609E-02  0.8459513E-01
       -4   -1    0    0    0  501  0.00000000000E+00  0.00000000000E+00  0.10933971278E+04  0.10933978653E+04  0.12699999809E+01 0. -1.
        4   -1    0    0  501    0  0.00000000000E+00  0.00000000000E+00 -0.12597602972E+04  0.12597609373E+04  0.12699999809E+01 0.  1.
    10030    2    1    2    0    0  0.00000000000E+00  0.00000000000E+00 -0.16636316940E+03  0.23531588027E+04  0.23472706803E+04 0.  0.
        2    1    3    3  502    0 -0.11642130533E+04  0.38861495056E+01 -0.23192079469E+03  0.11870949375E+04  0.25500000920E-02 0. -1.
       -2    1    3    3    0  502  0.11642130533E+04 -0.38861495056E+01  0.65557625292E+02  0.11660638652E+04  0.25500000920E-02 0.  1.
</event>
<event>
 5   0  0.2901816E-05  0.2423370E+04  0.7818609E-02  0.8430806E-01
        1   -1    0    0  501    0  0.00000000000E+00  0.00000000000E+00  0.10815800728E+04  0.10815800728E+04  0.50400001928E-02 0. -1.
       -1   -1    0    0    0  501  0.00000000000E+00  0.00000000000E+00 -0.13574404566E+04  0.13574404566E+04  0.50400001928E-02 0.  1.
    10030    2    1    2    0    0  0.00000000000E+00  0.00000000000E+00 -0.27586038381E+03  0.24390205295E+04  0.24233700072E+04 0.  0.
        4    1    3    3  502    0 -0.91127503809E+03 -0.10712680447E+03  0.65855957877E+03  0.11294249329E+04  0.12699999809E+01 0. -1.
       -4    1    3    3    0  502  0.91127503809E+03  0.10712680447E+03 -0.93441996258E+03  0.13095955966E+04  0.12699999809E+01 0.  1.
</event>
<event>
 5   0  0.2901816E-05  0.1990335E+04  0.7818609E-02  0.8611153E-01
       -1   -1    0    0    0  501  0.00000000000E+00  0.00000000000E+00  0.90710150840E+03  0.90710150842E+03  0.50400001928E-02 0. -1.
        1   -1    0    0  501    0  0.00000000000E+00  0.00000000000E+00 -0.10917838098E+04  0.10917838098E+04  0.50400001928E-02 0.  1.
    10030    2    1    2    0    0  0.00000000000E+00  0.00000000000E+00 -0.18468230140E+03  0.19988853182E+04  0.19903353896E+04 0.  0.
        4    1    3    3  502    0  0.34130065833E+03  0.83665174691E+03  0.32644515959E+03  0.96074988426E+03  0.12699999809E+01 0. -1.
       -4    1    3    3    0  502 -0.34130065833E+03 -0.83665174691E+03 -0.51112746100E+03  0.10381354340E+04  0.12699999809E+01 0.  1.
</event>
<event>
 5   0  0.6714629E-05  0.2389159E+04  0.7818609E-02  0.8443573E-01
       -2   -1    0    0    0  501  0.00000000000E+00  0.00000000000E+00  0.71470589461E+03  0.71470589461E+03  0.25500000920E-02 0.  1.
        2   -1    0    0  501    0  0.00000000000E+00  0.00000000000E+00 -0.19966537259E+04  0.19966537259E+04  0.25500000920E-02 0. -1.
    10030    2    1    2    0    0  0.00000000000E+00  0.00000000000E+00 -0.12819478313E+04  0.27113596206E+04  0.23891590047E+04 0.  0.
        3    1    3    3  502    0 -0.80938473487E+03 -0.46415241049E+03 -0.14875509566E+04  0.17559467441E+04  0.10100000352E+00 0. -1.
       -3    1    3    3    0  502  0.80938473487E+03  0.46415241049E+03  0.20560312531E+03  0.95541287648E+03  0.10100000352E+00 0.  1.
</event>
<event>
 5   0  0.6978115E-05  0.2482145E+04  0.7818609E-02  0.8409374E-01
        2   -1    0    0  501    0  0.00000000000E+00  0.00000000000E+00  0.13081503736E+04  0.13081503736E+04  0.25500000920E-02 0.  1.
       -2   -1    0    0    0  501  0.00000000000E+00  0.00000000000E+00 -0.11774341665E+04  0.11774341665E+04  0.25500000920E-02 0. -1.
    10030    2    1    2    0    0  0.00000000000E+00  0.00000000000E+00  0.13071620709E+03  0.24855845402E+04  0.24821449957E+04 0.  0.
        4    1    3    3  502    0  0.52611239099E+03  0.19993067154E+03  0.11730069575E+04  0.13010432186E+04  0.12699999809E+01 0.  1.
       -4    1    3    3    0  502 -0.52611239099E+03 -0.19993067154E+03 -0.10422907504E+04  0.11845413216E+04  0.12699999809E+01 0. -1.
</event>
<event>
 5   0  0.6978115E-05  0.2371525E+04  0.7818609E-02  0.8450242E-01
        2   -1    0    0  501    0  0.00000000000E+00  0.00000000000E+00  0.19545681024E+04  0.19545681024E+04  0.25500000920E-02 0. -1.
       -2   -1    0    0    0  501  0.00000000000E+00  0.00000000000E+00 -0.71935753577E+03  0.71935753577E+03  0.25500000920E-02 0.  1.
    10030    2    1    2    0    0  0.00000000000E+00  0.00000000000E+00  0.12352105667E+04  0.26739256382E+04  0.23715254953E+04 0.  0.
        4    1    3    3  502    0  0.40936665271E+02 -0.37914032335E+03  0.18835409634E+04  0.19217573648E+04  0.12699999809E+01 0. -1.
       -4    1    3    3    0  502 -0.40936665271E+02  0.37914032335E+03 -0.64833039673E+03  0.75216827344E+03  0.12699999809E+01 0.  1.
</event>
<event>
 5   0  0.2847158E-05  0.2387165E+04  0.7818609E-02  0.8444324E-01
        1   -1    0    0  501    0  0.00000000000E+00  0.00000000000E+00  0.23519592872E+04  0.23519592872E+04  0.50400001928E-02 0.  1.
       -1   -1    0    0    0  501  0.00000000000E+00  0.00000000000E+00 -0.60572444150E+03  0.60572444152E+03  0.50400001928E-02 0. -1.
    10030    2    1    2    0    0  0.00000000000E+00  0.00000000000E+00  0.17462348457E+04  0.29576837287E+04  0.23871650347E+04 0.  0.
        5    1    3    3  502    0 -0.50200229994E+03  0.74588796786E+03 -0.99522227751E+02  0.90458937290E+03  0.46999998093E+01 0. -1.
       -5    1    3    3    0  502  0.50200229994E+03 -0.74588796786E+03  0.18457570735E+04  0.20530943558E+04  0.46999998093E+01 0.  1.
</event>
<event>
 5   0  0.2943244E-05  0.2386558E+04  0.7818609E-02  0.8444553E-01
       -1   -1    0    0    0  501  0.00000000000E+00  0.00000000000E+00  0.20793587435E+04  0.20793587435E+04  0.50400001928E-02 0. -1.
        1   -1    0    0  501    0  0.00000000000E+00  0.00000000000E+00 -0.68478560557E+03  0.68478560558E+03  0.50400001928E-02 0.  1.
    10030    2    1    2    0    0  0.00000000000E+00  0.00000000000E+00  0.13945731379E+04  0.27641443491E+04  0.23865581379E+04 0.  0.
        3    1    3    3  502    0 -0.68694336885E+03  0.88381615258E+03  0.21849057241E+03  0.11405088005E+04  0.10100000352E+00 0.  1.
       -3    1    3    3    0  502  0.68694336885E+03 -0.88381615258E+03  0.11760825655E+04  0.16236355486E+04  0.10100000352E+00 0. -1.
</event>
<event>
 5   0  0.6978115E-05  0.2423976E+04  0.7818609E-02  0.8430582E-01
        2   -1    0    0  501    0  0.00000000000E+00  0.00000000000E+00  0.89076248303E+03  0.89076248303E+03  0.25500000920E-02 0. -1.
       -2   -1    0    0    0  501  0.00000000000E+00  0.00000000000E+00 -0.16490531756E+04  0.16490531756E+04  0.25500000920E-02 0.  1.
    10030    2    1    2    0    0  0.00000000000E+00  0.00000000000E+00 -0.75829069260E+03  0.25398156587E+04  0.24239758261E+04 0.  0.
        4    1    3    3  502    0 -0.10855238812E+04  0.41787782519E+03 -0.73590043154E+03  0.13764210953E+04  0.12699999809E+01 0.  1.
       -4    1    3    3    0  502  0.10855238812E+04 -0.41787782519E+03 -0.22390261055E+02  0.11633945634E+04  0.12699999809E+01 0. -1.
</event>
<event>
 5   0  0.6600166E-05  0.2324528E+04  0.7818609E-02  0.8468313E-01
       -2   -1    0    0    0  501  0.00000000000E+00  0.00000000000E+00  0.12571671996E+04  0.12571671996E+04  0.25500000920E-02 0. -1.
        2   -1    0    0  501    0  0.00000000000E+00  0.00000000000E+00 -0.10745247246E+04  0.10745247246E+04  0.25500000920E-02 0.  1.
    10030    2    1    2    0    0  0.00000000000E+00  0.00000000000E+00  0.18264247500E+03  0.23316919242E+04  0.23245276844E+04 0.  0.
        5    1    3    3  502    0 -0.74837546129E+03  0.88606253293E+03  0.16680277994E+03  0.11717584652E+04  0.46999998093E+01 0. -1.
       -5    1    3    3    0  502  0.74837546129E+03 -0.88606253293E+03  0.15839695064E+02  0.11599334590E+04  0.46999998093E+01 0.  1.
</event>
<event>
 5   0  0.2847158E-05  0.1672535E+04  0.7818609E-02  0.8777185E-01
        1   -1    0    0  501    0  0.00000000000E+00  0.00000000000E+00  0.13077519158E+04  0.13077519159E+04  0.50400001928E-02 0. -1.
       -1   -1    0    0    0  501  0.00000000000E+00  0.00000000000E+00 -0.53476771361E+03  0.53476771364E+03  0.50400001928E-02 0.  1.
    10030    2    1    2    0    0  0.00000000000E+00  0.00000000000E+00  0.77298420224E+03  0.18425196295E+04  0.16725352039E+04 0.  0.
        5    1    3    3  502    0 -0.10325552475E+03  0.82015959521E+02  0.12962120920E+04  0.13029106640E+04  0.46999998093E+01 0. -1.
       -5    1    3    3    0  502  0.10325552475E+03 -0.82015959521E+02 -0.52322788975E+03  0.53960896547E+03  0.46999998093E+01 0.  1.
</event>
<event>
 5   0  0.2943244E-05  0.2419411E+04  0.7818609E-02  0.8432272E-01
       -1   -1    0    0    0  501  0.00000000000E+00  0.00000000000E+00  0.12605799221E+04  0.12605799221E+04  0.50400001928E-02 0. -1.
        1   -1    0    0  501    0  0.00000000000E+00  0.00000000000E+00 -0.11608845210E+04  0.11608845211E+04  0.50400001928E-02 0.  1.
    10030    2    1    2    0    0  0.00000000000E+00  0.00000000000E+00  0.99695401023E+02  0.24214644431E+04  0.24194112665E+04 0.  0.
        3    1    3    3  502    0 -0.10609287911E+04 -0.49104322796E+03 -0.26137334929E+03  0.11979187741E+04  0.10100000352E+00 0. -1.
       -3    1    3    3    0  502  0.10609287911E+04  0.49104322796E+03  0.36106875032E+03  0.12235456690E+04  0.10100000352E+00 0.  1.
</event>
<event>
 5   0  0.6703961E-05  0.2328819E+04  0.7818609E-02  0.8466644E-01
        2   -1    0    0  501    0  0.00000000000E+00  0.00000000000E+00  0.25688466066E+04  0.25688466066E+04  0.25500000920E-02 0. -1.
       -2   -1    0    0    0  501  0.00000000000E+00  0.00000000000E+00 -0.52780463283E+03  0.52780463283E+03  0.25500000920E-02 0.  1.
    10030    2    1    2    0    0  0.00000000000E+00  0.00000000000E+00  0.20410419738E+04  0.30966512394E+04  0.23288187048E+04 0.  0.
        2    1    3    3  502    0 -0.16160655604E+03 -0.22195552599E+03  0.25251901294E+04  0.25400720707E+04  0.25500000920E-02 0. -1.
       -2    1    3    3    0  502  0.16160655604E+03  0.22195552599E+03 -0.48414815565E+03  0.55657916876E+03  0.25500000920E-02 0.  1.
</event>
<event>
 5   0  0.6600166E-05  0.2424423E+04  0.7818609E-02  0.8430416E-01
        2   -1    0    0  501    0  0.00000000000E+00  0.00000000000E+00  0.84033851346E+03  0.84033851346E+03  0.25500000920E-02 0. -1.
       -2   -1    0    0    0  501  0.00000000000E+00  0.00000000000E+00 -0.17486489481E+04  0.17486489481E+04  0.25500000920E-02 0.  1.
    10030    2    1    2    0    0  0.00000000000E+00  0.00000000000E+00 -0.90831043460E+03  0.25889874615E+04  0.24244232779E+04 0.  0.
        5    1    3    3  502    0 -0.90070877288E+03  0.34043580842E+03  0.33221334269E+03  0.10186072002E+04  0.46999998093E+01 0.  1.
       -5    1    3    3    0  502  0.90070877288E+03 -0.34043580842E+03 -0.12405237773E+04  0.15703802613E+04  0.46999998093E+01 0. -1.
</event>
<event>
 5   0  0.6337926E-05  0.2394326E+04  0.7818609E-02  0.8441631E-01
       -2   -1    0    0    0  501  0.00000000000E+00  0.00000000000E+00  0.90013518021E+03  0.90013518021E+03  0.25500000920E-02 0.  1.
        2   -1    0    0  501    0  0.00000000000E+00  0.00000000000E+00 -0.15922051042E+04  0.15922051042E+04  0.25500000920E-02 0. -1.
    10030    2    1    2    0    0  0.00000000000E+00  0.00000000000E+00 -0.69206992397E+03  0.24923402844E+04  0.23943264843E+04 0.  0.
        1    1    3    3  502    0 -0.95397329926E+03  0.90723875148E+02  0.40090738160E+03  0.10387601291E+04  0.50400001928E-02 0. -1.
       -1    1    3    3    0  502  0.95397329926E+03 -0.90723875148E+02 -0.10929773056E+04  0.14535801553E+04  0.50400001928E-02 0.  1.
</event>
<event>
 5   0  0.6978115E-05  0.2967387E+04  0.7818609E-02  0.8253105E-01
       -2   -1    0    0    0  501  0.00000000000E+00  0.00000000000E+00  0.95762312114E+03  0.95762312115E+03  0.25500000920E-02 0.  1.
        2   -1    0    0  501    0  0.00000000000E+00  0.00000000000E+00 -0.22987614708E+04  0.22987614708E+04  0.25500000920E-02 0. -1.
    10030    2    1    2    0    0  0.00000000000E+00  0.00000000000E+00 -0.13411383496E+04  0.32563845919E+04  0.29673874937E+04 0.  0.
        4    1    3    3  502    0 -0.66802842488E+03 -0.34404773052E+02  0.78275944312E+03  0.10296405312E+04  0.12699999809E+01 0.  1.
       -4    1    3    3    0  502  0.66802842488E+03  0.34404773052E+02 -0.21238977928E+04  0.22267440607E+04  0.12699999809E+01 0. -1.
</event>
<event>
 5   0  0.6600166E-05  0.2393233E+04  0.7818609E-02  0.8442041E-01
       -2   -1    0    0    0  501  0.00000000000E+00  0.00000000000E+00  0.13805040193E+04  0.13805040193E+04  0.25500000920E-02 0. -1.
        2   -1    0    0  501    0  0.00000000000E+00  0.00000000000E+00 -0.10372231082E+04  0.10372231082E+04  0.25500000920E-02 0.  1.
    10030    2    1    2    0    0  0.00000000000E+00  0.00000000000E+00  0.34328091110E+03  0.24177271276E+04  0.23932326839E+04 0.  0.
        5    1    3    3  502    0  0.40869763629E+03  0.10755109382E+04  0.50380814699E+03  0.12560263831E+04  0.46999998093E+01 0. -1.
       -5    1    3    3    0  502 -0.40869763629E+03 -0.10755109382E+04 -0.16052723589E+03  0.11617007444E+04  0.46999998093E+01 0.  1.
</event>
<event>
 5   0  0.6714629E-05  0.2412215E+04  0.7818609E-02  0.8434945E-01
       -2   -1    0    0    0  501  0.00000000000E+00  0.00000000000E+00  0.78366773515E+03  0.78366773515E+03  0.25500000920E-02 0.  1.
        2   -1    0    0  501    0  0.00000000000E+00  0.00000000000E+00 -0.18562649392E+04  0.18562649392E+04  0.25500000920E-02 0. -1.
    10030    2    1    2    0    0  0.00000000000E+00  0.00000000000E+00 -0.10725972040E+04  0.26399326743E+04  0.24122147008E+04 0.  0.
        3    1    3    3  502    0 -0.86547452929E+03  0.47546841903E+03 -0.12941896330E+04  0.16278953267E+04  0.10100000352E+00 0. -1.
       -3    1    3    3    0  502  0.86547452929E+03 -0.47546841903E+03  0.22159242891E+03  0.10120373477E+04  0.10100000352E+00 0.  1.
</event>
<event>
 5   0  0.2915546E-05  0.2363708E+04  0.7818609E-02  0.8453217E-01
       -1   -1    0    0    0  501  0.00000000000E+00  0.00000000000E+00  0.58536138387E+03  0.58536138389E+03  0.50400001928E-02 0.  1.
        1   -1    0    0  501    0  0.00000000000E+00  0.00000000000E+00 -0.23861816012E+04  0.23861816012E+04  0.50400001928E-02 0. -1.
    10030    2    1    2    0    0  0.00000000000E+00  0.00000000000E+00 -0.18008202173E+04  0.29715429851E+04  0.23637077351E+04 0.  0.
        2    1    3    3  502    0 -0.36209156963E+03 -0.11150658033E+03 -0.23077675664E+04  0.23386609764E+04  0.25500000920E-02 0. -1.
       -2    1    3    3    0  502  0.36209156963E+03  0.11150658033E+03  0.50694734901E+03  0.63288200870E+03  0.25500000920E-02 0.  1.
</event>
<event>
 5   0  0.6600166E-05  0.1999035E+04  0.7818609E-02  0.8607072E-01
        2   -1    0    0  501    0  0.00000000000E+00  0.00000000000E+00  0.18626108179E+04  0.18626108179E+04  0.25500000920E-02 0. -1.
       -2   -1    0    0    0  501  0.00000000000E+00  0.00000000000E+00 -0.53636276232E+03  0.53636276232E+03  0.25500000920E-02 0.  1.
    10030    2    1    2    0    0  0.00000000000E+00  0.00000000000E+00  0.13262480556E+04  0.23989735802E+04  0.19990348505E+04 0.  0.
        5    1    3    3  502    0  0.15889467453E+03 -0.10394730043E+03  0.18407552768E+04  0.18505282051E+04  0.46999998093E+01 0. -1.
       -5    1    3    3    0  502 -0.15889467453E+03  0.10394730043E+03 -0.51450722119E+03  0.54844537514E+03  0.46999998093E+01 0.  1.
</event>
<event>
 5   0  0.2847158E-05  0.2384951E+04  0.7818609E-02  0.8445159E-01
       -1   -1    0    0    0  501  0.00000000000E+00  0.00000000000E+00  0.13978265799E+04  0.13978265799E+04  0.50400001928E-02 0. -1.
        1   -1    0    0  501    0  0.00000000000E+00  0.00000000000E+00 -0.10172918140E+04  0.10172918141E+04  0.50400001928E-02 0.  1.
    10030    2    1    2    0    0  0.00000000000E+00  0.00000000000E+00  0.38053476586E+03  0.24151183940E+04  0.23849507644E+04 0.  0.
        5    1    3    3  502    0 -0.11871296726E+04 -0.54800051503E+02  0.28997883745E+03  0.12232700934E+04  0.46999998093E+01 0.  1.
       -5    1    3    3    0  502  0.11871296726E+04  0.54800051503E+02  0.90555928403E+02  0.11918483005E+04  0.46999998093E+01 0. -1.
</event>
<event>
 5   0  0.2847158E-05  0.2282282E+04  0.7818609E-02  0.8484940E-01
       -1   -1    0    0    0  501  0.00000000000E+00  0.00000000000E+00  0.12007836644E+04  0.12007836644E+04  0.50400001928E-02 0. -1.
        1   -1    0    0  501    0  0.00000000000E+00  0.00000000000E+00 -0.10844604560E+04  0.10844604560E+04  0.50400001928E-02 0.  1.
    10030    2    1    2    0    0  0.00000000000E+00  0.00000000000E+00  0.11632320837E+03  0.22852441204E+04  0.22822816656E+04 0.  0.
        5    1    3    3  502    0 -0.42638437554E+03 -0.99643413575E+03  0.41569046625E+03  0.11608209493E+04  0.46999998093E+01 0. -1.
       -5    1    3    3    0  502  0.42638437554E+03  0.99643413575E+03 -0.29936725789E+03  0.11244231711E+04  0.46999998093E+01 0.  1.
</event>
<event>
 5   0  0.2847158E-05  0.2405775E+04  0.7818609E-02  0.8437345E-01
       -1   -1    0    0    0  501  0.00000000000E+00  0.00000000000E+00  0.72325139207E+03  0.72325139208E+03  0.50400001928E-02 0.  1.
        1   -1    0    0  501    0  0.00000000000E+00  0.00000000000E+00 -0.20006025068E+04  0.20006025068E+04  0.50400001928E-02 0. -1.
    10030    2    1    2    0    0  0.00000000000E+00  0.00000000000E+00 -0.12773511147E+04  0.27238538989E+04  0.24057751749E+04 0.  0.
        5    1    3    3  502    0 -0.94734924891E+03  0.44487347338E+03  0.32617412811E+02  0.10471241533E+04  0.46999998093E+01 0. -1.
       -5    1    3    3    0  502  0.94734924891E+03 -0.44487347338E+03 -0.13099685275E+04  0.16767297456E+04  0.46999998093E+01 0.  1.
</event>
<event>
 5   0  0.2943123E-05  0.1804880E+04  0.7818609E-02  0.8703709E-01
       -1   -1    0    0    0  501  0.00000000000E+00  0.00000000000E+00  0.13220392901E+04  0.13220392901E+04  0.50400001928E-02 0.  1.
        1   -1    0    0  501    0  0.00000000000E+00  0.00000000000E+00 -0.61601638314E+03  0.61601638316E+03  0.50400001928E-02 0. -1.
    10030    2    1    2    0    0  0.00000000000E+00  0.00000000000E+00  0.70602290698E+03  0.19380556733E+04  0.18048798984E+04 0.  0.
        1    1    3    3  502    0  0.20548962907E+03 -0.78815043247E+02 -0.58675730578E+03  0.62667530237E+03  0.50400001928E-02 0. -1.
       -1    1    3    3    0  502 -0.20548962907E+03  0.78815043247E+02  0.12927802128E+04  0.13113803709E+04  0.50400001928E-02 0.  1.
</event>
<event>
 5   0  0.6714629E-05  0.2423110E+04  0.7818609E-02  0.8430902E-01
        2   -1    0    0  501    0  0.00000000000E+00  0.00000000000E+00  0.14335915869E+04  0.14335915869E+04  0.25500000920E-02 0. -1.
       -2   -1    0    0    0  501  0.00000000000E+00  0.00000000000E+00 -0.10239076492E+04  0.10239076492E+04  0.25500000920E-02 0.  1.
    10030    2    1    2    0    0  0.00000000000E+00  0.00000000000E+00  0.40968393775E+03  0.24574992361E+04  0.24231098957E+04 0.  0.
        3    1    3    3  502    0 -0.80536214276E+03 -0.44034295866E+03  0.10068591842E+04  0.13624520283E+04  0.10100000352E+00 0. -1.
       -3    1    3    3    0  502  0.80536214276E+03  0.44034295866E+03 -0.59717524648E+03  0.10950472079E+04  0.10100000352E+00 0.  1.
</event>
<event>
 5   0  0.6600166E-05  0.2297603E+04  0.7818609E-02  0.8478867E-01
        2   -1    0    0  501    0  0.00000000000E+00  0.00000000000E+00  0.13350229831E+04  0.13350229831E+04  0.25500000920E-02 0.  1.
       -2   -1    0    0    0  501  0.00000000000E+00  0.00000000000E+00 -0.98855551526E+03  0.98855551526E+03  0.25500000920E-02 0. -1.
    10030    2    1    2    0    0  0.00000000000E+00  0.00000000000E+00  0.34646746787E+03  0.23235784984E+04  0.22976025182E+04 0.  0.
        5    1    3    3  502    0  0.50126957941E+03  0.10323485644E+04  0.22585558894E+03  0.11696356641E+04  0.46999998093E+01 0.  1.
       -5    1    3    3    0  502 -0.50126957941E+03 -0.10323485644E+04  0.12061187893E+03  0.11539428343E+04  0.46999998093E+01 0. -1.
</event>
<event>
 5   0  0.2901816E-05  0.2404080E+04  0.7818609E-02  0.8437978E-01
       -1   -1    0    0    0  501  0.00000000000E+00  0.00000000000E+00  0.81979006896E+03  0.81979006898E+03  0.50400001928E-02 0. -1.
        1   -1    0    0  501    0  0.00000000000E+00  0.00000000000E+00 -0.17625248516E+04  0.17625248516E+04  0.50400001928E-02 0.  1.
    10030    2    1    2    0    0  0.00000000000E+00  0.00000000000E+00 -0.94273478259E+03  0.25823149205E+04  0.24040801731E+04 0.  0.
        4    1    3    3  502    0  0.44367225958E+03 -0.25971989353E+03 -0.16384766413E+04  0.17172381355E+04  0.12699999809E+01 0.  1.
       -4    1    3    3    0  502 -0.44367225958E+03  0.25971989353E+03  0.69574185876E+03  0.86507678500E+03  0.12699999809E+01 0. -1.
</event>
<event>
 5   0  0.6703961E-05  0.2239417E+04  0.7818609E-02  0.8502199E-01
       -2   -1    0    0    0  501  0.00000000000E+00  0.00000000000E+00  0.85376668357E+03  0.85376668358E+03  0.25500000920E-02 0. -1.
        2   -1    0    0  501    0  0.00000000000E+00  0.00000000000E+00 -0.14684886926E+04  0.14684886926E+04  0.25500000920E-02 0.  1.
    10030    2    1    2    0    0  0.00000000000E+00  0.00000000000E+00 -0.61472200900E+03  0.23222553762E+04  0.22394166392E+04 0.  0.
        2    1    3    3  502    0 -0.55198073923E+02 -0.80770955275E+03 -0.11094756661E+04  0.13734546962E+04  0.25500000920E-02 0.  1.
       -2    1    3    3    0  502  0.55198073923E+02  0.80770955275E+03  0.49475365710E+03  0.94880067991E+03  0.25500000920E-02 0. -1.
</event>
<event>
 5   0  0.6703961E-05  0.2608201E+04  0.7818609E-02  0.8365421E-01
       -2   -1    0    0    0  501  0.00000000000E+00  0.00000000000E+00  0.72295097805E+03  0.72295097806E+03  0.25500000920E-02 0. -1.
        2   -1    0    0  501    0  0.00000000000E+00  0.00000000000E+00 -0.23524120490E+04  0.23524120490E+04  0.25500000920E-02 0.  1.
    10030    2    1    2    0    0  0.00000000000E+00  0.00000000000E+00 -0.16294610710E+04  0.30753630271E+04  0.26082013662E+04 0.  0.
        2    1    3    3  502    0 -0.10066419912E+04  0.71917892346E+03 -0.13010800543E+04  0.17953706386E+04  0.25500000920E-02 0.  1.
       -2    1    3    3    0  502  0.10066419912E+04 -0.71917892346E+03 -0.32838101665E+03  0.12799923884E+04  0.25500000920E-02 0. -1.
</event>
<event>
 5   0  0.2943123E-05  0.2450281E+04  0.7818609E-02  0.8420915E-01
       -1   -1    0    0    0  501  0.00000000000E+00  0.00000000000E+00  0.65498428539E+03  0.65498428541E+03  0.50400001928E-02 0. -1.
        1   -1    0    0  501    0  0.00000000000E+00  0.00000000000E+00 -0.22916108533E+04  0.22916108533E+04  0.50400001928E-02 0.  1.
    10030    2    1    2    0    0  0.00000000000E+00  0.00000000000E+00 -0.16366265679E+04  0.29465951387E+04  0.24502808796E+04 0.  0.
        1    1    3    3  502    0 -0.11142915509E+04 -0.31262558604E+03 -0.13017170874E+04  0.17417944176E+04  0.50400001928E-02 0.  1.
       -1    1    3    3    0  502  0.11142915509E+04  0.31262558604E+03 -0.33490948050E+03  0.12048007211E+04  0.50400001928E-02 0. -1.
</event>
<event>
 5   0  0.6600166E-05  0.2342449E+04  0.7818609E-02  0.8461370E-01
        2   -1    0    0  501    0  0.00000000000E+00  0.00000000000E+00  0.17792553534E+04  0.17792553534E+04  0.25500000920E-02 0.  1.
       -2   -1    0    0    0  501  0.00000000000E+00  0.00000000000E+00 -0.77097813919E+03  0.77097813920E+03  0.25500000920E-02 0. -1.
    10030    2    1    2    0    0  0.00000000000E+00  0.00000000000E+00  0.10082772142E+04  0.25502334926E+04  0.23424491299E+04 0.  0.
        5    1    3    3  502    0  0.77067164748E+03 -0.66416241736E+03  0.11358668515E+04  0.15248810115E+04  0.46999998093E+01 0.  1.
       -5    1    3    3    0  502 -0.77067164748E+03  0.66416241736E+03 -0.12758963735E+03  0.10253524811E+04  0.46999998093E+01 0. -1.
</event>
<event>
 5   0  0.2943244E-05  0.1693964E+04  0.7818609E-02  0.8764814E-01
        1   -1    0    0  501    0  0.00000000000E+00  0.00000000000E+00  0.55228050764E+03  0.55228050766E+03  0.50400001928E-02 0. -1.
       -1   -1    0    0    0  501  0.00000000000E+00  0.00000000000E+00 -0.12989384818E+04  0.12989384818E+04  0.50400001928E-02 0.  1.
    10030    2    1    2    0    0  0.00000000000E+00  0.00000000000E+00 -0.74665797414E+03  0.18512189895E+04  0.16939638770E+04 0.  0.
        3    1    3    3  502    0 -0.10139691624E+03  0.72811675445E+03 -0.83302465130E+03  0.11110199920E+04  0.10100000352E+00 0.  1.
       -3    1    3    3    0  502  0.10139691624E+03 -0.72811675445E+03  0.86366677157E+02  0.74019899747E+03  0.10100000352E+00 0. -1.
</event>
<event>
 5   0  0.6978115E-05  0.2406886E+04  0.7818609E-02  0.8436930E-01
       -2   -1    0    0    0  501  0.00000000000E+00  0.00000000000E+00  0.10293527546E+04  0.10293527546E+04  0.25500000920E-02 0. -1.
        2   -1    0    0  501    0  0.00000000000E+00  0.00000000000E+00 -0.14069758828E+04  0.14069758828E+04  0.25500000920E-02 0.  1.
    10030    2    1    2    0    0  0.00000000000E+00  0.00000000000E+00 -0.37762312825E+03  0.24363286374E+04  0.24068855399E+04 0.  0.
        4    1    3    3  502    0 -0.38367706140E+03 -0.71695605872E+03 -0.10868160510E+04  0.13573521353E+04  0.12699999809E+01 0.  1.
       -4    1    3    3    0  502  0.38367706140E+03  0.71695605872E+03  0.70919292272E+03  0.10789765021E+04  0.12699999809E+01 0. -1.
</event>
<event>
 5   0  0.2339125E-05  0.2379077E+04  0.7818609E-02  0.8447379E-01
        3   -1    0    0  501    0  0.00000000000E+00  0.00000000000E+00  0.16220785633E+04  0.16220785665E+04  0.10100000352E+00 0. -1.
       -3   -1    0    0    0  501  0.00000000000E+00  0.00000000000E+00 -0.87233859697E+03  0.87233860282E+03  0.10100000352E+00 0.  1.
    10030    2    1    2    0    0  0.00000000000E+00  0.00000000000E+00  0.74973996634E+03  0.24944171693E+04  0.23790769213E+04 0.  0.
        3    1    3    3  502    0 -0.25318235815E+03  0.98621762995E+03 -0.26998869510E+03  0.10533852219E+04  0.10100000352E+00 0.  1.
       -3    1    3    3    0  502  0.25318235815E+03 -0.98621762995E+03  0.10197286614E+04  0.14410319473E+04  0.10100000352E+00 0. -1.
</event>
<event>
 5   0  0.6600166E-05  0.2335080E+04  0.7818609E-02  0.8464217E-01
        2   -1    0    0  501    0  0.00000000000E+00  0.00000000000E+00  0.17409738728E+04  0.17409738728E+04  0.25500000920E-02 0. -1.
       -2   -1    0    0    0  501  0.00000000000E+00  0.00000000000E+00 -0.78298125936E+03  0.78298125937E+03  0.25500000920E-02 0.  1.
    10030    2    1    2    0    0  0.00000000000E+00  0.00000000000E+00  0.95799261348E+03  0.25239551322E+04  0.23350802260E+04 0.  0.
        5    1    3    3  502    0  0.79774165040E+03  0.62564940567E+03 -0.14689063728E+03  0.10244158672E+04  0.46999998093E+01 0. -1.
       -5    1    3    3    0  502 -0.79774165040E+03 -0.62564940567E+03  0.11048832508E+04  0.14995392650E+04  0.46999998093E+01 0.  1.
</event>
<event>
 5   0  0.2943123E-05  0.2813470E+04  0.7818609E-02  0.8299099E-01
       -1   -1    0    0    0  501  0.00000000000E+00  0.00000000000E+00  0.85779194307E+03  0.85779194308E+03  0.50400001928E-02 0. -1.
        1   -1    0    0  501    0  0.00000000000E+00  0.00000000000E+00 -0.23069728823E+04  0.23069728823E+04  0.50400001928E-02 0.  1.
    10030    2    1    2    0    0  0.00000000000E+00  0.00000000000E+00 -0.14491809392E+04  0.31647648254E+04  0.28134695672E+04 0.  0.
        1    1    3    3  502    0  0.26437044654E+03  0.14817383424E+03 -0.22698148852E+04  0.22899578230E+04  0.50400001928E-02 0.  1.
       -1    1    3    3    0  502 -0.26437044654E+03 -0.14817383424E+03  0.82063394594E+03  0.87480700238E+03  0.50400001928E-02 0. -1.
</event>
<event>
 5   0  0.2943123E-05  0.2132957E+04  0.7818609E-02  0.8546863E-01
       -1   -1    0    0    0  501  0.00000000000E+00  0.00000000000E+00  0.94245587076E+03  0.94245587077E+03  0.50400001928E-02 0.  1.
        1   -1    0    0  501    0  0.00000000000E+00  0.00000000000E+00 -0.12068216748E+04  0.12068216748E+04  0.50400001928E-02 0. -1.
    10030    2    1    2    0    0  0.00000000000E+00  0.00000000000E+00 -0.26436580406E+03  0.21492775456E+04  0.21329567951E+04 0.  0.
        1    1    3    3  502    0 -0.74589120065E+03  0.26743973717E+03  0.58707043855E+03  0.98616905046E+03  0.50400001928E-02 0.  1.
       -1    1    3    3    0  502  0.74589120065E+03 -0.26743973717E+03 -0.85143624262E+03  0.11631084952E+04  0.50400001928E-02 0. -1.
</event>
<event>
 5   0  0.2943244E-05  0.2414112E+04  0.7818609E-02  0.8434239E-01
        1   -1    0    0  501    0  0.00000000000E+00  0.00000000000E+00  0.13171942212E+04  0.13171942212E+04  0.50400001928E-02 0.  1.
       -1   -1    0    0    0  501  0.00000000000E+00  0.00000000000E+00 -0.11061271793E+04  0.11061271793E+04  0.50400001928E-02 0. -1.
    10030    2    1    2    0    0  0.00000000000E+00  0.00000000000E+00  0.21106704184E+03  0.24233214005E+04  0.24141121171E+04 0.  0.
        3    1    3    3  502    0  0.70622643091E+03  0.65434288575E+02 -0.87489442620E+03  0.11262671464E+04  0.10100000352E+00 0. -1.
       -3    1    3    3    0  502 -0.70622643091E+03 -0.65434288575E+02  0.10859614680E+04  0.12970542541E+04  0.10100000352E+00 0.  1.
</event>
<event>
 5   0  0.6978115E-05  0.2398384E+04  0.7818609E-02  0.8440109E-01
        2   -1    0    0  501    0  0.00000000000E+00  0.00000000000E+00  0.28577762735E+04  0.28577762735E+04  0.25500000920E-02 0. -1.
       -2   -1    0    0    0  501  0.00000000000E+00  0.00000000000E+00 -0.50321001683E+03  0.50321001684E+03  0.25500000920E-02 0.  1.
    10030    2    1    2    0    0  0.00000000000E+00  0.00000000000E+00  0.23545662566E+04  0.33609862903E+04  0.23983841616E+04 0.  0.
        4    1    3    3  502    0 -0.11602781390E+04  0.16052768038E+03  0.15374217795E+04  0.19327912037E+04  0.12699999809E+01 0. -1.
       -4    1    3    3    0  502  0.11602781390E+04 -0.16052768038E+03  0.81714447716E+03  0.14281950866E+04  0.12699999809E+01 0.  1.
</event>
<event>
 5   0  0.6337926E-05  0.2410497E+04  0.7818609E-02  0.8435584E-01
       -2   -1    0    0    0  501  0.00000000000E+00  0.00000000000E+00  0.88776793110E+03  0.88776793110E+03  0.25500000920E-02 0. -1.
        2   -1    0    0  501    0  0.00000000000E+00  0.00000000000E+00 -0.16362648241E+04  0.16362648241E+04  0.25500000920E-02 0.  1.
    10030    2    1    2    0    0  0.00000000000E+00  0.00000000000E+00 -0.74849689303E+03  0.25240327552E+04  0.24104965776E+04 0.  0.
        1    1    3    3  502    0  0.78593725803E+03  0.90140947186E+03 -0.21757814125E+03  0.12155561102E+04  0.50400001928E-02 0. -1.
       -1    1    3    3    0  502 -0.78593725803E+03 -0.90140947186E+03 -0.53091875179E+03  0.13084766450E+04  0.50400001928E-02 0.  1.
</event>
<event>
 5   0  0.6600166E-05  0.2387000E+04  0.7818609E-02  0.8444387E-01
       -2   -1    0    0    0  501  0.00000000000E+00  0.00000000000E+00  0.11191358153E+04  0.11191358153E+04  0.25500000920E-02 0. -1.
        2   -1    0    0  501    0  0.00000000000E+00  0.00000000000E+00 -0.12728051176E+04  0.12728051176E+04  0.25500000920E-02 0.  1.
    10030    2    1    2    0    0  0.00000000000E+00  0.00000000000E+00 -0.15366930224E+03  0.23919409329E+04  0.23869996171E+04 0.  0.
        5    1    3    3  502    0  0.68168103476E+03  0.43703813121E+03 -0.95542119621E+03  0.12524149127E+04  0.46999998093E+01 0. -1.
       -5    1    3    3    0  502 -0.68168103476E+03 -0.43703813121E+03  0.80175189397E+03  0.11395260202E+04  0.46999998093E+01 0.  1.
</event>
<event>
 5   0  0.2915546E-05  0.2358798E+04  0.7818609E-02  0.8455092E-01
       -1   -1    0    0    0  501  0.00000000000E+00  0.00000000000E+00  0.11176468798E+04  0.11176468798E+04  0.50400001928E-02 0. -1.
        1   -1    0    0  501    0  0.00000000000E+00  0.00000000000E+00 -0.12445626893E+04  0.12445626893E+04  0.50400001928E-02 0.  1.
    10030    2    1    2    0    0  0.00000000000E+00  0.00000000000E+00 -0.12691580948E+03  0.23622095691E+04  0.23587976653E+04 0.  0.
        2    1    3    3  502    0  0.45394730347E+03  0.46021516497E+03  0.92443512238E+03  0.11280276805E+04  0.25500000920E-02 0. -1.
       -2    1    3    3    0  502 -0.45394730347E+03 -0.46021516497E+03 -0.10513509319E+04  0.12341818887E+04  0.25500000920E-02 0.  1.
</event>
<event>
 5   0  0.2847158E-05  0.2335657E+04  0.7818609E-02  0.8463993E-01
       -1   -1    0    0    0  501  0.00000000000E+00  0.00000000000E+00  0.79390352107E+03  0.79390352109E+03  0.50400001928E-02 0. -1.
        1   -1    0    0  501    0  0.00000000000E+00  0.00000000000E+00 -0.17178701915E+04  0.17178701915E+04  0.50400001928E-02 0.  1.
    10030    2    1    2    0    0  0.00000000000E+00  0.00000000000E+00 -0.92396667045E+03  0.25117737126E+04  0.23356568188E+04 0.  0.
        5    1    3    3  502    0 -0.30969837796E+03  0.17778964576E+03  0.73373723579E+03  0.81603594568E+03  0.46999998093E+01 0. -1.
       -5    1    3    3    0  502  0.30969837796E+03 -0.17778964576E+03 -0.16577039062E+04  0.16957377669E+04  0.46999998093E+01 0.  1.
</event>
<event>
 5   0  0.6978115E-05  0.2443530E+04  0.7818609E-02  0.8423384E-01
       -2   -1    0    0    0  501  0.00000000000E+00  0.00000000000E+00  0.79275567172E+03  0.79275567173E+03  0.25500000920E-02 0. -1.
        2   -1    0    0  501    0  0.00000000000E+00  0.00000000000E+00 -0.18829384733E+04  0.18829384733E+04  0.25500000920E-02 0.  1.
    10030    2    1    2    0    0  0.00000000000E+00  0.00000000000E+00 -0.10901828016E+04  0.26756941450E+04  0.24435303593E+04 0.  0.
        4    1    3    3  502    0  0.56833812298E+03 -0.47504498947E+03 -0.16090193548E+04  0.17713330745E+04  0.12699999809E+01 0.  1.
       -4    1    3    3    0  502 -0.56833812298E+03  0.47504498947E+03  0.51883655317E+03  0.90436107051E+03  0.12699999809E+01 0. -1.
</event>
<event>
 5   0  0.2943244E-05  0.2363812E+04  0.7818609E-02  0.8453177E-01
        1   -1    0    0  501    0  0.00000000000E+00  0.00000000000E+00  0.20035940346E+04  0.20035940346E+04  0.50400001928E-02 0.  1.
       -1   -1    0    0    0  501  0.00000000000E+00  0.00000000000E+00 -0.69719826580E+03  0.69719826581E+03  0.50400001928E-02 0. -1.
    10030    2    1    2    0    0  0.00000000000E+00  0.00000000000E+00  0.13063957688E+04  0.27007923004E+04  0.23638124175E+04 0.  0.
        3    1    3    3  502    0 -0.11804040161E+04 -0.13102971138E+02  0.58680213016E+03  0.13182799699E+04  0.10100000352E+00 0. -1.
       -3    1    3    3    0  502  0.11804040161E+04  0.13102971138E+02  0.71959363867E+03  0.13825123305E+04  0.10100000352E+00 0.  1.
</event>
<event>
 5   0  0.6978115E-05  0.2391005E+04  0.7818609E-02  0.8442879E-01
        2   -1    0    0  501    0  0.00000000000E+00  0.00000000000E+00  0.16894595488E+04  0.16894595488E+04  0.25500000920E-02 0. -1.
       -2   -1    0    0    0  501  0.00000000000E+00  0.00000000000E+00 -0.84596630612E+03  0.84596630612E+03  0.25500000920E-02 0.  1.
    10030    2    1    2    0    0  0.00000000000E+00  0.00000000000E+00  0.84349324269E+03  0.25354258549E+04  0.23910046874E+04 0.  0.
        4    1    3    3  502    0 -0.57242682032E+03  0.10123072420E+04  0.12790655573E+03  0.11699573140E+04  0.12699999809E+01 0.  1.
       -4    1    3    3    0  502  0.57242682032E+03 -0.10123072420E+04  0.71558668695E+03  0.13654685409E+04  0.12699999809E+01 0. -1.
</event>
<event>
 5   0  0.2943123E-05  0.2396220E+04  0.7818609E-02  0.8440920E-01
        1   -1    0    0  501    0  0.00000000000E+00  0.00000000000E+00  0.10075841367E+04  0.10075841367E+04  0.50400001928E-02 0. -1.
       -1   -1    0    0    0  501  0.00000000000E+00  0.00000000000E+00 -0.14246624933E+04  0.14246624933E+04  0.50400001928E-02 0.  1.
    10030    2    1    2    0    0  0.00000000000E+00  0.00000000000E+00 -0.41707835662E+03  0.24322466301E+04  0.23962197967E+04 0.  0.
        1    1    3    3  502    0 -0.39516841433E+03 -0.10871910137E+04 -0.52519906992E+03  0.12704237242E+04  0.50400001928E-02 0.  1.
       -1    1    3    3    0  502  0.39516841433E+03  0.10871910137E+04  0.10812071331E+03  0.11618229059E+04  0.50400001928E-02 0. -1.
</event>
<event>
 5   0  0.2943123E-05  0.2385768E+04  0.7818609E-02  0.8444851E-01
        1   -1    0    0  501    0  0.00000000000E+00  0.00000000000E+00  0.95081964420E+03  0.95081964422E+03  0.50400001928E-02 0. -1.
       -1   -1    0    0    0  501  0.00000000000E+00  0.00000000000E+00 -0.14965745095E+04  0.14965745095E+04  0.50400001928E-02 0.  1.
    10030    2    1    2    0    0  0.00000000000E+00  0.00000000000E+00 -0.54575486528E+03  0.24473941537E+04  0.23857681720E+04 0.  0.
        1    1    3    3  502    0  0.52452734200E+03 -0.10689815864E+04 -0.19946150359E+03  0.12073257456E+04  0.50400001928E-02 0.  1.
       -1    1    3    3    0  502 -0.52452734200E+03  0.10689815864E+04 -0.34629336169E+03  0.12400684081E+04  0.50400001928E-02 0. -1.
</event>
<event>
 5   0  0.6978115E-05  0.2327904E+04  0.7818609E-02  0.8466999E-01
       -2   -1    0    0    0  501  0.00000000000E+00  0.00000000000E+00  0.10851676427E+04  0.10851676427E+04  0.25500000920E-02 0.  1.
        2   -1    0    0  501    0  0.00000000000E+00  0.00000000000E+00 -0.12484563726E+04  0.12484563726E+04  0.25500000920E-02 0. -1.
    10030    2    1    2    0    0  0.00000000000E+00  0.00000000000E+00 -0.16328872996E+03  0.23336240153E+04  0.23279041723E+04 0.  0.
        4    1    3    3  502    0 -0.28978060122E+03  0.97074773522E+03  0.49287714474E+03  0.11266114925E+04  0.12699999809E+01 0.  1.
       -4    1    3    3    0  502  0.28978060122E+03 -0.97074773522E+03 -0.65616587470E+03  0.12070125228E+04  0.12699999809E+01 0. -1.
</event>
<event>
 5   0  0.6337926E-05  0.2422615E+04  0.7818609E-02  0.8431085E-01
        2   -1    0    0  501    0  0.00000000000E+00  0.00000000000E+00  0.23655958807E+04  0.23655958807E+04  0.25500000920E-02 0. -1.
       -2   -1    0    0    0  501  0.00000000000E+00  0.00000000000E+00 -0.62025208883E+03  0.62025208883E+03  0.25500000920E-02 0.  1.
    10030    2    1    2    0    0  0.00000000000E+00  0.00000000000E+00  0.17453437919E+04  0.29858479696E+04  0.24226149396E+04 0.  0.
        1    1    3    3  502    0  0.31136484235E+03 -0.62039129849E+03  0.20961514309E+04  0.22080951631E+04  0.50400001928E-02 0. -1.
       -1    1    3    3    0  502 -0.31136484235E+03  0.62039129849E+03 -0.35080763898E+03  0.77775280641E+03  0.50400001928E-02 0.  1.
</event>
<event>
 5   0  0.6703961E-05  0.2422928E+04  0.7818609E-02  0.8430969E-01
        2   -1    0    0  501    0  0.00000000000E+00  0.00000000000E+00  0.15517189601E+04  0.15517189601E+04  0.25500000920E-02 0.  1.
       -2   -1    0    0    0  501  0.00000000000E+00  0.00000000000E+00 -0.94581853116E+03  0.94581853116E+03  0.25500000920E-02 0. -1.
    10030    2    1    2    0    0  0.00000000000E+00  0.00000000000E+00  0.60590042895E+03  0.24975374913E+04  0.24229276074E+04 0.  0.
        2    1    3    3  502    0 -0.61281747466E+03 -0.67142742181E+03 -0.52251153192E+03  0.10485124420E+04  0.25500000920E-02 0. -1.
       -2    1    3    3    0  502  0.61281747466E+03  0.67142742181E+03  0.11284119609E+04  0.14490250493E+04  0.25500000920E-02 0.  1.
</event>
<event>
 5   0  0.6978115E-05  0.2161129E+04  0.7818609E-02  0.8534784E-01
       -2   -1    0    0    0  501  0.00000000000E+00  0.00000000000E+00  0.61543202052E+03  0.61543202053E+03  0.25500000920E-02 0.  1.
        2   -1    0    0  501    0  0.00000000000E+00  0.00000000000E+00 -0.18972348865E+04  0.18972348865E+04  0.25500000920E-02 0. -1.
    10030    2    1    2    0    0  0.00000000000E+00  0.00000000000E+00 -0.12818028659E+04  0.25126669070E+04  0.21611285011E+04 0.  0.
        4    1    3    3  502    0 -0.66299258181E+03 -0.80465332615E+03 -0.31083714404E+03  0.10879556433E+04  0.12699999809E+01 0.  1.
       -4    1    3    3    0  502  0.66299258181E+03  0.80465332615E+03 -0.97096572189E+03  0.14247112637E+04  0.12699999809E+01 0. -1.
</event>
<event>
 5   0  0.2943123E-05  0.2331151E+04  0.7818609E-02  0.8465739E-01
        1   -1    0    0  501    0  0.00000000000E+00  0.00000000000E+00  0.90272639590E+03  0.90272639592E+03  0.50400001928E-02 0. -1.
       -1   -1    0    0    0  501  0.00000000000E+00  0.00000000000E+00 -0.15049585500E+04  0.15049585500E+04  0.50400001928E-02 0.  1.
    10030    2    1    2    0    0  0.00000000000E+00  0.00000000000E+00 -0.60223215408E+03  0.24076849459E+04  0.23311506239E+04 0.  0.
        1    1    3    3  502    0 -0.70461390447E+03 -0.81131173847E+03  0.16521411928E+03  0.10871997041E+04  0.50400001928E-02 0. -1.
       -1    1    3    3    0  502  0.70461390447E+03  0.81131173847E+03 -0.76744627336E+03  0.13204852418E+04  0.50400001928E-02 0.  1.
</event>
<event>
 5   0  0.2943244E-05  0.2325117E+04  0.7818609E-02  0.8468083E-01
        1   -1    0    0  501    0  0.00000000000E+00  0.00000000000E+00  0.23464464783E+04  0.23464464783E+04  0.50400001928E-02 0.  1.
       -1   -1    0    0    0  501  0.00000000000E+00  0.00000000000E+00 -0.57599544319E+03  0.57599544321E+03  0.50400001928E-02 0. -1.
    10030    2    1    2    0    0  0.00000000000E+00  0.00000000000E+00  0.17704510351E+04  0.29224419215E+04  0.23251171835E+04 0.  0.
        3    1    3    3  502    0  0.66287086814E+03  0.14947704471E+01  0.20856431788E+04  0.21884486518E+04  0.10100000352E+00 0.  1.
       -3    1    3    3    0  502 -0.66287086814E+03 -0.14947704471E+01 -0.31519214376E+03  0.73399326963E+03  0.10100000352E+00 0. -1.
</event>
<event>
 5   0  0.6703961E-05  0.2337584E+04  0.7818609E-02  0.8463248E-01
       -2   -1    0    0    0  501  0.00000000000E+00  0.00000000000E+00  0.78877009121E+03  0.78877009121E+03  0.25500000920E-02 0.  1.
        2   -1    0    0  501    0  0.00000000000E+00  0.00000000000E+00 -0.17319044100E+04  0.17319044100E+04  0.25500000920E-02 0. -1.
    10030    2    1    2    0    0  0.00000000000E+00  0.00000000000E+00 -0.94313431877E+03  0.25206745012E+04  0.23375837092E+04 0.  0.
        2    1    3    3  502    0 -0.83154506461E+03  0.16335716537E+03 -0.13395493998E+04  0.15851010543E+04  0.25500000920E-02 0. -1.
       -2    1    3    3    0  502  0.83154506461E+03 -0.16335716537E+03  0.39641508104E+03  0.93557344684E+03  0.25500000920E-02 0.  1.
</event>
<event>
 5   0  0.2915546E-05  0.2550875E+04  0.7818609E-02  0.8385082E-01
        1   -1    0    0  501    0  0.00000000000E+00  0.00000000000E+00  0.16835801883E+04  0.16835801883E+04  0.50400001928E-02 0.  1.
       -1   -1    0    0    0  501  0.00000000000E+00  0.00000000000E+00 -0.96623893065E+03  0.96623893067E+03  0.50400001928E-02 0. -1.
    10030    2    1    2    0    0  0.00000000000E+00  0.00000000000E+00  0.71734125766E+03  0.26498191190E+04  0.25508749251E+04 0.  0.
        2    1    3    3  502    0 -0.98449437046E+03 -0.60730560587E+03 -0.19947050506E+03  0.11738133356E+04  0.25500000920E-02 0. -1.
       -2    1    3    3    0  502  0.98449437046E+03  0.60730560587E+03  0.91681176272E+03  0.14760057834E+04  0.25500000920E-02 0.  1.
</event>
<event>
 5   0  0.2901816E-05  0.2302909E+04  0.7818609E-02  0.8476775E-01
        1   -1    0    0  501    0  0.00000000000E+00  0.00000000000E+00  0.10769635574E+04  0.10769635574E+04  0.50400001928E-02 0. -1.
       -1   -1    0    0    0  501  0.00000000000E+00  0.00000000000E+00 -0.12310976922E+04  0.12310976922E+04  0.50400001928E-02 0.  1.
    10030    2    1    2    0    0  0.00000000000E+00  0.00000000000E+00 -0.15413413484E+03  0.23080612496E+04  0.23029088997E+04 0.  0.
        4    1    3    3  502    0  0.90730325718E+03  0.67147955473E+03  0.15095402553E+03  0.11388031979E+04  0.12699999809E+01 0.  1.
       -4    1    3    3    0  502 -0.90730325718E+03 -0.67147955473E+03 -0.30508816036E+03  0.11692580517E+04  0.12699999809E+01 0. -1.
</event>
<event>
 5   0  0.2901816E-05  0.2314994E+04  0.7818609E-02  0.8472033E-01
        1   -1    0    0  501    0  0.00000000000E+00  0.00000000000E+00  0.12900327267E+04  0.12900327267E+04  0.50400001928E-02 0. -1.
       -1   -1    0    0    0  501  0.00000000000E+00  0.00000000000E+00 -0.10385773862E+04  0.10385773863E+04  0.50400001928E-02 0.  1.
    10030    2    1    2    0    0  0.00000000000E+00  0.00000000000E+00  0.25145534043E+03  0.23286101129E+04  0.23149935788E+04 0.  0.
        4    1    3    3  502    0  0.56704274722E+01 -0.36220472626E+03  0.12315450061E+04  0.12837169207E+04  0.12699999809E+01 0. -1.
       -4    1    3    3    0  502 -0.56704274722E+01  0.36220472626E+03 -0.98008966570E+03  0.10448931922E+04  0.12699999809E+01 0.  1.
</event>
<event>
 5   0  0.6703961E-05  0.1679648E+04  0.7818609E-02  0.8773058E-01
       -2   -1    0    0    0  501  0.00000000000E+00  0.00000000000E+00  0.52012432537E+03  0.52012432538E+03  0.25500000920E-02 0. -1.
        2   -1    0    0  501    0  0.00000000000E+00  0.00000000000E+00 -0.13560296119E+04  0.13560296119E+04  0.25500000920E-02 0.  1.
    10030    2    1    2    0    0  0.00000000000E+00  0.00000000000E+00 -0.83590528651E+03  0.18761539373E+04  0.16796475667E+04 0.  0.
        2    1    3    3  502    0 -0.51301343878E+03 -0.65544035909E+03 -0.29297352547E+03  0.88239352860E+03  0.25500000920E-02 0. -1.
       -2    1    3    3    0  502  0.51301343878E+03  0.65544035909E+03 -0.54293176104E+03  0.99376040867E+03  0.25500000920E-02 0.  1.
</event>
<event>
 5   0  0.2943123E-05  0.2371584E+04  0.7818609E-02  0.8450219E-01
        1   -1    0    0  501    0  0.00000000000E+00  0.00000000000E+00  0.26797819079E+04  0.26797819079E+04  0.50400001928E-02 0.  1.
       -1   -1    0    0    0  501  0.00000000000E+00  0.00000000000E+00 -0.52470775676E+03  0.52470775678E+03  0.50400001928E-02 0. -1.
    10030    2    1    2    0    0  0.00000000000E+00  0.00000000000E+00  0.21550741511E+04  0.32044896646E+04  0.23715837354E+04 0.  0.
        1    1    3    3  502    0 -0.10042112208E+04 -0.59993829156E+03  0.81505501191E+03  0.14257211516E+04  0.50400001928E-02 0. -1.
       -1    1    3    3    0  502  0.10042112208E+04  0.59993829156E+03  0.13400191392E+04  0.17787685131E+04  0.50400001928E-02 0.  1.
</event>
<event>
 5   0  0.6703961E-05  0.2378544E+04  0.7818609E-02  0.8447580E-01
       -2   -1    0    0    0  501  0.00000000000E+00  0.00000000000E+00  0.84796071307E+03  0.84796071307E+03  0.25500000920E-02 0.  1.
        2   -1    0    0  501    0  0.00000000000E+00  0.00000000000E+00 -0.16679633982E+04  0.16679633982E+04  0.25500000920E-02 0. -1.
    10030    2    1    2    0    0  0.00000000000E+00  0.00000000000E+00 -0.82000268508E+03  0.25159241112E+04  0.23785436153E+04 0.  0.
        2    1    3    3  502    0 -0.48816926627E+03 -0.10288587598E+04 -0.47407969811E+02  0.11397837934E+04  0.25500000920E-02 0. -1.
       -2    1    3    3    0  502  0.48816926627E+03  0.10288587598E+04 -0.77259471527E+03  0.13761403178E+04  0.25500000920E-02 0.  1.
</event>
<event>
 5   0  0.6703961E-05  0.2394186E+04  0.7818609E-02  0.8441683E-01
        2   -1    0    0  501    0  0.00000000000E+00  0.00000000000E+00  0.15474240493E+04  0.15474240493E+04  0.25500000920E-02 0. -1.
       -2   -1    0    0    0  501  0.00000000000E+00  0.00000000000E+00 -0.92607550514E+03  0.92607550514E+03  0.25500000920E-02 0.  1.
    10030    2    1    2    0    0  0.00000000000E+00  0.00000000000E+00  0.62134854419E+03  0.24734995545E+04  0.23941858810E+04 0.  0.
        2    1    3    3  502    0  0.17082582388E+03  0.43834821144E+03  0.14479131151E+04  0.15224266832E+04  0.25500000920E-02 0. -1.
       -2    1    3    3    0  502 -0.17082582388E+03 -0.43834821144E+03 -0.82656457096E+03  0.95107287131E+03  0.25500000920E-02 0.  1.
</event>
<event>
 5   0  0.6703961E-05  0.2413069E+04  0.7818609E-02  0.8434627E-01
       -2   -1    0    0    0  501  0.00000000000E+00  0.00000000000E+00  0.93608343752E+03  0.93608343752E+03  0.25500000920E-02 0.  1.
        2   -1    0    0  501    0  0.00000000000E+00  0.00000000000E+00 -0.15551239604E+04  0.15551239604E+04  0.25500000920E-02 0. -1.
    10030    2    1    2    0    0  0.00000000000E+00  0.00000000000E+00 -0.61904052290E+03  0.24912073979E+04  0.24130692345E+04 0.  0.
        2    1    3    3  502    0 -0.95679143411E+03  0.24353844300E+03 -0.10254935526E+04  0.14235160161E+04  0.25500000920E-02 0. -1.
       -2    1    3    3    0  502  0.95679143411E+03 -0.24353844300E+03  0.40645302967E+03  0.10676913819E+04  0.25500000920E-02 0.  1.
</event>
<event>
 5   0  0.6337926E-05  0.2323816E+04  0.7818609E-02  0.8468590E-01
        2   -1    0    0  501    0  0.00000000000E+00  0.00000000000E+00  0.11273103216E+04  0.11273103216E+04  0.25500000920E-02 0. -1.
       -2   -1    0    0    0  501  0.00000000000E+00  0.00000000000E+00 -0.11975673639E+04  0.11975673639E+04  0.25500000920E-02 0.  1.
    10030    2    1    2    0    0  0.00000000000E+00  0.00000000000E+00 -0.70257042304E+02  0.23248776855E+04  0.23238158706E+04 0.  0.
        1    1    3    3  502    0 -0.95604488577E+03 -0.57999106571E+03  0.28063982417E+03  0.11528964268E+04  0.50400001928E-02 0. -1.
       -1    1    3    3    0  502  0.95604488577E+03  0.57999106571E+03 -0.35089686647E+03  0.11719812587E+04  0.50400001928E-02 0.  1.
</event>
<event>
 5   0  0.2915546E-05  0.2483235E+04  0.7818609E-02  0.8408983E-01
       -1   -1    0    0    0  501  0.00000000000E+00  0.00000000000E+00  0.14779836657E+04  0.14779836657E+04  0.50400001928E-02 0. -1.
        1   -1    0    0  501    0  0.00000000000E+00  0.00000000000E+00 -0.10430519965E+04  0.10430519966E+04  0.50400001928E-02 0.  1.
    10030    2    1    2    0    0  0.00000000000E+00  0.00000000000E+00  0.43493166913E+03  0.25210356622E+04  0.24832348366E+04 0.  0.
        2    1    3    3  502    0 -0.57865632064E+03 -0.79365107011E+03  0.98855960773E+03  0.13935477231E+04  0.25500000920E-02 0. -1.
       -2    1    3    3    0  502  0.57865632064E+03  0.79365107011E+03 -0.55362793861E+03  0.11274879391E+04  0.25500000920E-02 0.  1.
</event>
<event>
 5   0  0.6978115E-05  0.2093481E+04  0.7818609E-02  0.8564120E-01
       -2   -1    0    0    0  501  0.00000000000E+00  0.00000000000E+00  0.83711510672E+03  0.83711510672E+03  0.25500000920E-02 0.  1.
        2   -1    0    0  501    0  0.00000000000E+00  0.00000000000E+00 -0.13088590422E+04  0.13088590422E+04  0.25500000920E-02 0. -1.
    10030    2    1    2    0    0  0.00000000000E+00  0.00000000000E+00 -0.47174393549E+03  0.21459741489E+04  0.20934810024E+04 0.  0.
        4    1    3    3  502    0  0.63934147951E+03  0.24620821451E+03 -0.10470992071E+04  0.12513170561E+04  0.12699999809E+01 0. -1.
       -4    1    3    3    0  502 -0.63934147951E+03 -0.24620821451E+03  0.57535527164E+03  0.89465709287E+03  0.12699999809E+01 0.  1.
</event>
<event>
 5   0  0.6600166E-05  0.2454385E+04  0.7818609E-02  0.8419419E-01
       -2   -1    0    0    0  501  0.00000000000E+00  0.00000000000E+00  0.86377891596E+03  0.86377891596E+03  0.25500000920E-02 0. -1.
        2   -1    0    0  501    0  0.00000000000E+00  0.00000000000E+00 -0.17435038382E+04  0.17435038382E+04  0.25500000920E-02 0.  1.
    10030    2    1    2    0    0  0.00000000000E+00  0.00000000000E+00 -0.87972492221E+03  0.26072827541E+04  0.24543853449E+04 0.  0.
        5    1    3    3  502    0  0.70040682101E+03  0.81506519549E+03  0.18956787677E+03  0.10912648889E+04  0.46999998093E+01 0. -1.
       -5    1    3    3    0  502 -0.70040682101E+03 -0.81506519549E+03 -0.10692927990E+04  0.15160178652E+04  0.46999998093E+01 0.  1.
</event>
<event>
 5   0  0.2943244E-05  0.2426477E+04  0.7818609E-02  0.8429657E-01
        1   -1    0    0  501    0  0.00000000000E+00  0.00000000000E+00  0.10233802688E+04  0.10233802688E+04  0.50400001928E-02 0. -1.
       -1   -1    0    0    0  501  0.00000000000E+00  0.00000000000E+00 -0.14383197366E+04  0.14383197366E+04  0.50400001928E-02 0.  1.
    10030    2    1    2    0    0  0.00000000000E+00  0.00000000000E+00 -0.41493946778E+03  0.24617000054E+04  0.24264773139E+04 0.  0.
        3    1    3    3  502    0 -0.74281684276E+02  0.30219299698E+03  0.98220313291E+03  0.10303210085E+04  0.10100000352E+00 0. -1.
       -3    1    3    3    0  502  0.74281684276E+02 -0.30219299698E+03 -0.13971426007E+04  0.14313789969E+04  0.10100000352E+00 0.  1.
</event>
<event>
 5   0  0.6600166E-05  0.2314272E+04  0.7818609E-02  0.8472315E-01
        2   -1    0    0  501    0  0.00000000000E+00  0.00000000000E+00  0.11065090869E+04  0.11065090869E+04  0.25500000920E-02 0. -1.
       -2   -1    0    0    0  501  0.00000000000E+00  0.00000000000E+00 -0.12100795968E+04  0.12100795968E+04  0.25500000920E-02 0.  1.
    10030    2    1    2    0    0  0.00000000000E+00  0.00000000000E+00 -0.10357050986E+03  0.23165886836E+04  0.23142723000E+04 0.  0.
        5    1    3    3  502    0  0.12904797131E+03  0.70251597638E+03  0.85948845035E+03  0.11175529349E+04  0.46999998093E+01 0. -1.
       -5    1    3    3    0  502 -0.12904797131E+03 -0.70251597638E+03 -0.96305896022E+03  0.11990357488E+04  0.46999998093E+01 0.  1.
</event>
<event>
 5   0  0.2847158E-05  0.2437662E+04  0.7818609E-02  0.8425537E-01
        1   -1    0    0  501    0  0.00000000000E+00  0.00000000000E+00  0.13803398947E+04  0.13803398948E+04  0.50400001928E-02 0. -1.
       -1   -1    0    0    0  501  0.00000000000E+00  0.00000000000E+00 -0.10762196530E+04  0.10762196530E+04  0.50400001928E-02 0.  1.
    10030    2    1    2    0    0  0.00000000000E+00  0.00000000000E+00  0.30412024173E+03  0.24565595478E+04  0.24376619311E+04 0.  0.
        5    1    3    3  502    0  0.16918488455E+03 -0.98614751925E+03  0.85345603226E+03  0.13151120651E+04  0.46999998093E+01 0. -1.
       -5    1    3    3    0  502 -0.16918488455E+03  0.98614751925E+03 -0.54933579053E+03  0.11414474826E+04  0.46999998093E+01 0.  1.
</event>
<event>
 5   0  0.6600166E-05  0.2436274E+04  0.7818609E-02  0.8426047E-01
       -2   -1    0    0    0  501  0.00000000000E+00  0.00000000000E+00  0.61919418805E+03  0.61919418805E+03  0.25500000920E-02 0. -1.
        2   -1    0    0  501    0  0.00000000000E+00  0.00000000000E+00 -0.23964339619E+04  0.23964339619E+04  0.25500000920E-02 0.  1.
    10030    2    1    2    0    0  0.00000000000E+00  0.00000000000E+00 -0.17772397739E+04  0.30156281500E+04  0.24362741892E+04 0.  0.
        5    1    3    3  502    0  0.17101890535E+03 -0.14889115602E+03 -0.23700691753E+04  0.23808960557E+04  0.46999998093E+01 0.  1.
       -5    1    3    3    0  502 -0.17101890535E+03  0.14889115602E+03  0.59282940142E+03  0.63473209429E+03  0.46999998093E+01 0. -1.
</event>
<event>
 5   0  0.6703961E-05  0.2152866E+04  0.7818609E-02  0.8538306E-01
        2   -1    0    0  501    0  0.00000000000E+00  0.00000000000E+00  0.19648546404E+04  0.19648546404E+04  0.25500000920E-02 0. -1.
       -2   -1    0    0    0  501  0.00000000000E+00  0.00000000000E+00 -0.58971707616E+03  0.58971707616E+03  0.25500000920E-02 0.  1.
    10030    2    1    2    0    0  0.00000000000E+00  0.00000000000E+00  0.13751375642E+04  0.25545717166E+04  0.21528663067E+04 0.  0.
        2    1    3    3  502    0  0.85882399776E+03  0.24213521292E+03 -0.26853796772E+02  0.89270893738E+03  0.25500000920E-02 0.  1.
       -2    1    3    3    0  502 -0.85882399776E+03 -0.24213521292E+03  0.14019913610E+04  0.16618627792E+04  0.25500000920E-02 0. -1.
</event>
<event>
 5   0  0.2943123E-05  0.1576241E+04  0.7818609E-02  0.8835278E-01
       -1   -1    0    0    0  501  0.00000000000E+00  0.00000000000E+00  0.42753759323E+03  0.42753759326E+03  0.50400001928E-02 0. -1.
        1   -1    0    0  501    0  0.00000000000E+00  0.00000000000E+00 -0.14528178497E+04  0.14528178497E+04  0.50400001928E-02 0.  1.
    10030    2    1    2    0    0  0.00000000000E+00  0.00000000000E+00 -0.10252802564E+04  0.18803554429E+04  0.15762414116E+04 0.  0.
        1    1    3    3  502    0  0.57149982277E+03 -0.20989778910E+03  0.84382570531E+02  0.61464587164E+03  0.50400001928E-02 0. -1.
       -1    1    3    3    0  502 -0.57149982277E+03  0.20989778910E+03 -0.11096628270E+04  0.12657095713E+04  0.50400001928E-02 0.  1.
</event>
<event>
 5   0  0.2943244E-05  0.2421239E+04  0.7818609E-02  0.8431594E-01
        1   -1    0    0  501    0  0.00000000000E+00  0.00000000000E+00  0.90918398653E+03  0.90918398655E+03  0.50400001928E-02 0. -1.
       -1   -1    0    0    0  501  0.00000000000E+00  0.00000000000E+00 -0.16119947519E+04  0.16119947519E+04  0.50400001928E-02 0.  1.
    10030    2    1    2    0    0  0.00000000000E+00  0.00000000000E+00 -0.70281076539E+03  0.25211787385E+04  0.24212391991E+04 0.  0.
        3    1    3    3  502    0  0.11885323056E+04  0.83272562863E+02 -0.57487121983E+03  0.13228833247E+04  0.10100000352E+00 0. -1.
       -3    1    3    3    0  502 -0.11885323056E+04 -0.83272562863E+02 -0.12793954556E+03  0.11982954138E+04  0.10100000352E+00 0.  1.
</event>
<event>
 5   0  0.6978115E-05  0.2402944E+04  0.7818609E-02  0.8438402E-01
       -2   -1    0    0    0  501  0.00000000000E+00  0.00000000000E+00  0.11326049653E+04  0.11326049653E+04  0.25500000920E-02 0. -1.
        2   -1    0    0  501    0  0.00000000000E+00  0.00000000000E+00 -0.12745259495E+04  0.12745259495E+04  0.25500000920E-02 0.  1.
    10030    2    1    2    0    0  0.00000000000E+00  0.00000000000E+00 -0.14192098426E+03  0.24071309148E+04  0.24029435439E+04 0.  0.
        4    1    3    3  502    0 -0.41132887692E+03  0.63853085022E+03 -0.10035068395E+04  0.12585470517E+04  0.12699999809E+01 0.  1.
       -4    1    3    3    0  502  0.41132887692E+03 -0.63853085022E+03  0.86158585520E+03  0.11485838631E+04  0.12699999809E+01 0. -1.
</event>
<event>
 5   0  0.6978115E-05  0.2634844E+04  0.7818609E-02  0.8356461E-01
        2   -1    0    0  501    0  0.00000000000E+00  0.00000000000E+00  0.26491586481E+04  0.26491586481E+04  0.25500000920E-02 0. -1.
       -2   -1    0    0    0  501  0.00000000000E+00  0.00000000000E+00 -0.65515148890E+03  0.65515148890E+03  0.25500000920E-02 0.  1.
    10030    2    1    2    0    0  0.00000000000E+00  0.00000000000E+00  0.19940071592E+04  0.33043101370E+04  0.26348436255E+04 0.  0.
        4    1    3    3  502    0 -0.20846724681E+03  0.93164439314E+03  0.21355130932E+04  0.23391959414E+04  0.12699999809E+01 0. -1.
       -4    1    3    3    0  502  0.20846724681E+03 -0.93164439314E+03 -0.14150593399E+03  0.96511419558E+03  0.12699999809E+01 0.  1.
</event>
<event>
 5   0  0.6337926E-05  0.1524318E+04  0.7818609E-02  0.8868441E-01
       -2   -1    0    0    0  501  0.00000000000E+00  0.00000000000E+00  0.56977879028E+03  0.56977879028E+03  0.25500000920E-02 0. -1.
        2   -1    0    0  501    0  0.00000000000E+00  0.00000000000E+00 -0.10194949846E+04  0.10194949846E+04  0.25500000920E-02 0.  1.
    10030    2    1    2    0    0  0.00000000000E+00  0.00000000000E+00 -0.44971619431E+03  0.15892737749E+04  0.15243183644E+04 0.  0.
        1    1    3    3  502    0  0.46020328407E+03  0.33455935760E+02 -0.85732134533E+03  0.97360477171E+03  0.50400001928E-02 0.  1.
       -1    1    3    3    0  502 -0.46020328407E+03 -0.33455935760E+02  0.40760515101E+03  0.61566900317E+03  0.50400001928E-02 0. -1.
</event>
<event>
 5   0  0.6600166E-05  0.2115602E+04  0.7818609E-02  0.8554401E-01
       -2   -1    0    0    0  501  0.00000000000E+00  0.00000000000E+00  0.95954319741E+03  0.95954319741E+03  0.25500000920E-02 0. -1.
        2   -1    0    0  501    0  0.00000000000E+00  0.00000000000E+00 -0.11661206586E+04  0.11661206586E+04  0.25500000920E-02 0.  1.
    10030    2    1    2    0    0  0.00000000000E+00  0.00000000000E+00 -0.20657746119E+03  0.21256638560E+04  0.21156021793E+04 0.  0.
        5    1    3    3  502    0 -0.32450378619E+03 -0.72401212438E+03 -0.80620495021E+03  0.11311431277E+04  0.46999998093E+01 0.  1.
       -5    1    3    3    0  502  0.32450378619E+03  0.72401212438E+03  0.59962748903E+03  0.99452072834E+03  0.46999998093E+01 0. -1.
</event>
<event>
 5   0  0.2943244E-05  0.2387629E+04  0.7818609E-02  0.8444150E-01
        1   -1    0    0  501    0  0.00000000000E+00  0.00000000000E+00  0.23017282412E+04  0.23017282412E+04  0.50400001928E-02 0.  1.
       -1   -1    0    0    0  501  0.00000000000E+00  0.00000000000E+00 -0.61918381682E+03  0.61918381684E+03  0.50400001928E-02 0. -1.
    10030    2    1    2    0    0  0.00000000000E+00  0.00000000000E+00  0.16825444244E+04  0.29209120581E+04  0.23876288470E+04 0.  0.
        3    1    3    3  502    0  0.40991507784E+03  0.56012797398E+03  0.20295117738E+04  0.21449223223E+04  0.10100000352E+00 0.  1.
       -3    1    3    3    0  502 -0.40991507784E+03 -0.56012797398E+03 -0.34696734943E+03  0.77598973579E+03  0.10100000352E+00 0. -1.
</event>
<event>
 5   0  0.2943123E-05  0.2439106E+04  0.7818609E-02  0.8425006E-01
       -1   -1    0    0    0  501  0.00000000000E+00  0.00000000000E+00  0.99211103739E+03  0.99211103741E+03  0.50400001928E-02 0.  1.
        1   -1    0    0  501    0  0.00000000000E+00  0.00000000000E+00 -0.14991359404E+04  0.14991359404E+04  0.50400001928E-02 0. -1.
    10030    2    1    2    0    0  0.00000000000E+00  0.00000000000E+00 -0.50702490300E+03  0.24912469778E+04  0.24391058305E+04 0.  0.
        1    1    3    3  502    0 -0.30745367571E+03 -0.11517502342E+03  0.94612372252E+03  0.10014704924E+04  0.50400001928E-02 0.  1.
       -1    1    3    3    0  502  0.30745367571E+03  0.11517502342E+03 -0.14531486255E+04  0.14897764855E+04  0.50400001928E-02 0. -1.
</event>
<event>
 5   0  0.6703961E-05  0.2399848E+04  0.7818609E-02  0.8439560E-01
        2   -1    0    0  501    0  0.00000000000E+00  0.00000000000E+00  0.18015624808E+04  0.18015624808E+04  0.25500000920E-02 0. -1.
       -2   -1    0    0    0  501  0.00000000000E+00  0.00000000000E+00 -0.79920517869E+03  0.79920517870E+03  0.25500000920E-02 0.  1.
    10030    2    1    2    0    0  0.00000000000E+00  0.00000000000E+00  0.10023573021E+04  0.26007676595E+04  0.23998483822E+04 0.  0.
        2    1    3    3  502    0  0.54295430012E+03 -0.64655306438E+03  0.14251985436E+04  0.16565087159E+04  0.25500000920E-02 0. -1.
       -2    1    3    3    0  502 -0.54295430012E+03  0.64655306438E+03 -0.42284124151E+03  0.94425894362E+03  0.25500000920E-02 0.  1.
</event>
<event>
 5   0  0.2847158E-05  0.2365515E+04  0.7818609E-02  0.8452528E-01
       -1   -1    0    0    0  501  0.00000000000E+00  0.00000000000E+00  0.95003243410E+03  0.95003243412E+03  0.50400001928E-02 0.  1.
        1   -1    0    0  501    0  0.00000000000E+00  0.00000000000E+00 -0.14724918307E+04  0.14724918307E+04  0.50400001928E-02 0. -1.
    10030    2    1    2    0    0  0.00000000000E+00  0.00000000000E+00 -0.52245939659E+03  0.24225242648E+04  0.23655147416E+04 0.  0.
        5    1    3    3  502    0 -0.10545119504E+03 -0.37968331614E+03 -0.14032799047E+04  0.14575650778E+04  0.46999998093E+01 0. -1.
       -5    1    3    3    0  502  0.10545119504E+03  0.37968331614E+03  0.88082050811E+03  0.96495918701E+03  0.46999998093E+01 0.  1.
</event>
<event>
 5   0  0.2943123E-05  0.2447235E+04  0.7818609E-02  0.8422028E-01
       -1   -1    0    0    0  501  0.00000000000E+00  0.00000000000E+00  0.84299605661E+03  0.84299605663E+03  0.50400001928E-02 0.  1.
        1   -1    0    0  501    0  0.00000000000E+00  0.00000000000E+00 -0.17760939802E+04  0.17760939802E+04  0.50400001928E-02 0. -1.
    10030    2    1    2    0    0  0.00000000000E+00  0.00000000000E+00 -0.93309792355E+03  0.26190900368E+04  0.24472353556E+04 0.  0.
        1    1    3    3  502    0 -0.75335194618E+03 -0.84999213449E+03 -0.95372362794E+03  0.14831097539E+04  0.50400001928E-02 0. -1.
       -1    1    3    3    0  502  0.75335194618E+03  0.84999213449E+03  0.20625704385E+02  0.11359802829E+04  0.50400001928E-02 0.  1.
</event>
<event>
 5   0  0.2915546E-05  0.2047484E+04  0.7818609E-02  0.8584737E-01
       -1   -1    0    0    0  501  0.00000000000E+00  0.00000000000E+00  0.10550955041E+04  0.10550955041E+04  0.50400001928E-02 0. -1.
        1   -1    0    0  501    0  0.00000000000E+00  0.00000000000E+00 -0.99332033574E+03  0.99332033575E+03  0.50400001928E-02 0.  1.
    10030    2    1    2    0    0  0.00000000000E+00  0.00000000000E+00  0.61775168384E+02  0.20484158399E+04  0.20474841347E+04 0.  0.
        2    1    3    3  502    0 -0.67701302589E+03 -0.17528865623E+03  0.77887415346E+03  0.10467653496E+04  0.25500000920E-02 0. -1.
       -2    1    3    3    0  502  0.67701302589E+03  0.17528865623E+03 -0.71709898508E+03  0.10016504903E+04  0.25500000920E-02 0.  1.
</event>
<event>
 5   0  0.6703961E-05  0.2412243E+04  0.7818609E-02  0.8434934E-01
       -2   -1    0    0    0  501  0.00000000000E+00  0.00000000000E+00  0.70729579776E+03  0.70729579776E+03  0.25500000920E-02 0. -1.
        2   -1    0    0  501    0  0.00000000000E+00  0.00000000000E+00 -0.20567482470E+04  0.20567482470E+04  0.25500000920E-02 0.  1.
    10030    2    1    2    0    0  0.00000000000E+00  0.00000000000E+00 -0.13494524493E+04  0.27640440448E+04  0.24122432648E+04 0.  0.
        2    1    3    3  502    0  0.83289227754E+03  0.76036032802E+03 -0.11647278099E+04  0.16212489771E+04  0.25500000920E-02 0.  1.
       -2    1    3    3    0  502 -0.83289227754E+03 -0.76036032802E+03 -0.18472463933E+03  0.11427950677E+04  0.25500000920E-02 0. -1.
</event>
<event>
 5   0  0.6714629E-05  0.2326170E+04  0.7818609E-02  0.8467673E-01
       -2   -1    0    0    0  501  0.00000000000E+00  0.00000000000E+00  0.49133576596E+03  0.49133576597E+03  0.25500000920E-02 0.  1.
        2   -1    0    0  501    0  0.00000000000E+00  0.00000000000E+00 -0.27532439097E+04  0.27532439097E+04  0.25500000920E-02 0. -1.
    10030    2    1    2    0    0  0.00000000000E+00  0.00000000000E+00 -0.22619081438E+04  0.32445796757E+04  0.23261704196E+04 0.  0.
        3    1    3    3  502    0  0.19699187157E+03 -0.23100877566E+03 -0.26970015918E+04  0.27140354545E+04  0.10100000352E+00 0. -1.
       -3    1    3    3    0  502 -0.19699187157E+03  0.23100877566E+03  0.43509344805E+03  0.53054422119E+03  0.10100000352E+00 0.  1.
</event>
<event>
 5   0  0.2847158E-05  0.2424196E+04  0.7818609E-02  0.8430500E-01
       -1   -1    0    0    0  501  0.00000000000E+00  0.00000000000E+00  0.98633868620E+03  0.98633868621E+03  0.50400001928E-02 0.  1.
        1   -1    0    0  501    0  0.00000000000E+00  0.00000000000E+00 -0.14895302234E+04  0.14895302235E+04  0.50400001928E-02 0. -1.
    10030    2    1    2    0    0  0.00000000000E+00  0.00000000000E+00 -0.50319153725E+03  0.24758689097E+04  0.24241957707E+04 0.  0.
        5    1    3    3  502    0  0.67962875805E+03  0.11708397463E+03 -0.12696149866E+04  0.14448350113E+04  0.46999998093E+01 0. -1.
       -5    1    3    3    0  502 -0.67962875805E+03 -0.11708397463E+03  0.76642344931E+03  0.10310338983E+04  0.46999998093E+01 0.  1.
</event>
<event>
 5   0  0.2943123E-05  0.2391636E+04  0.7818609E-02  0.8442642E-01
        1   -1    0    0  501    0  0.00000000000E+00  0.00000000000E+00  0.88359284851E+03  0.88359284853E+03  0.50400001928E-02 0. -1.
       -1   -1    0    0    0  501  0.00000000000E+00  0.00000000000E+00 -0.16183706001E+04  0.16183706001E+04  0.50400001928E-02 0.  1.
    10030    2    1    2    0    0  0.00000000000E+00  0.00000000000E+00 -0.73477775156E+03  0.25019634486E+04  0.23916359995E+04 0.  0.
        1    1    3    3  502    0 -0.15101830041E+03 -0.10452347016E+04  0.21943215247E+03  0.10786438606E+04  0.50400001928E-02 0. -1.
       -1    1    3    3    0  502  0.15101830041E+03  0.10452347016E+04 -0.95420990403E+03  0.14233195880E+04  0.50400001928E-02 0.  1.
</event>
<event>
 5   0  0.2943244E-05  0.2453201E+04  0.7818609E-02  0.8419850E-01
        1   -1    0    0  501    0  0.00000000000E+00  0.00000000000E+00  0.10164444806E+04  0.10164444807E+04  0.50400001928E-02 0. -1.
       -1   -1    0    0    0  501  0.00000000000E+00  0.00000000000E+00 -0.14802070229E+04  0.14802070229E+04  0.50400001928E-02 0.  1.
    10030    2    1    2    0    0  0.00000000000E+00  0.00000000000E+00 -0.46376254226E+03  0.24966515036E+04  0.24532005696E+04 0.  0.
        3    1    3    3  502    0 -0.39295585932E+03  0.78063229427E+03  0.64402949956E+03  0.10856219843E+04  0.10100000352E+00 0. -1.
       -3    1    3    3    0  502  0.39295585932E+03 -0.78063229427E+03 -0.11077920418E+04  0.14110295193E+04  0.10100000352E+00 0.  1.
</event>
<event>
 5   0  0.6600166E-05  0.2373021E+04  0.7818609E-02  0.8449674E-01
       -2   -1    0    0    0  501  0.00000000000E+00  0.00000000000E+00  0.10005279455E+04  0.10005279455E+04  0.25500000920E-02 0. -1.
        2   -1    0    0  501    0  0.00000000000E+00  0.00000000000E+00 -0.14070637635E+04  0.14070637635E+04  0.25500000920E-02 0.  1.
    10030    2    1    2    0    0  0.00000000000E+00  0.00000000000E+00 -0.40653581802E+03  0.24075917090E+04  0.23730205364E+04 0.  0.
        5    1    3    3  502    0 -0.79060308021E+03 -0.26379930182E+00 -0.11008778887E+04  0.13553625035E+04  0.46999998093E+01 0.  1.
       -5    1    3    3    0  502  0.79060308021E+03  0.26379930182E+00  0.69434207064E+03  0.10522292056E+04  0.46999998093E+01 0. -1.
</event>
<event>
 5   0  0.2339125E-05  0.2360293E+04  0.7818609E-02  0.8454521E-01
        3   -1    0    0  501    0  0.00000000000E+00  0.00000000000E+00  0.10076338447E+04  0.10076338498E+04  0.10100000352E+00 0. -1.
       -3   -1    0    0    0  501  0.00000000000E+00  0.00000000000E+00 -0.13821943264E+04  0.13821943301E+04  0.10100000352E+00 0.  1.
    10030    2    1    2    0    0  0.00000000000E+00  0.00000000000E+00 -0.37456048167E+03  0.23898281799E+04  0.23602930274E+04 0.  0.
        2    1    3    3  502    0  0.10760142616E+04  0.40510087519E+03  0.82193643320E+02  0.11526791424E+04  0.25500000920E-02 0. -1.
       -2    1    3    3    0  502 -0.10760142616E+04 -0.40510087519E+03 -0.45675412499E+03  0.12371490375E+04  0.25500000920E-02 0.  1.
</event>
<event>
 5   0  0.6703961E-05  0.2358855E+04  0.7818609E-02  0.8455070E-01
        2   -1    0    0  501    0  0.00000000000E+00  0.00000000000E+00  0.12394207031E+04  0.12394207031E+04  0.25500000920E-02 0. -1.
       -2   -1    0    0    0  501  0.00000000000E+00  0.00000000000E+00 -0.11223382036E+04  0.11223382036E+04  0.25500000920E-02 0.  1.
    10030    2    1    2    0    0  0.00000000000E+00  0.00000000000E+00  0.11708249948E+03  0.23617589068E+04  0.23588549811E+04 0.  0.
        2    1    3    3  502    0 -0.76824005088E+03  0.55021224051E+03 -0.64810585287E+03  0.11458479314E+04  0.25500000920E-02 0.  1.
       -2    1    3    3    0  502  0.76824005088E+03 -0.55021224051E+03  0.76518835234E+03  0.12159109753E+04  0.25500000920E-02 0. -1.
</event>
<event>
 5   0  0.6703961E-05  0.2467370E+04  0.7818609E-02  0.8414703E-01
       -2   -1    0    0    0  501  0.00000000000E+00  0.00000000000E+00  0.19491175122E+04  0.19491175122E+04  0.25500000920E-02 0. -1.
        2   -1    0    0  501    0  0.00000000000E+00  0.00000000000E+00 -0.78085533364E+03  0.78085533365E+03  0.25500000920E-02 0.  1.
    10030    2    1    2    0    0  0.00000000000E+00  0.00000000000E+00  0.11682621785E+04  0.27299728458E+04  0.24673701022E+04 0.  0.
        2    1    3    3  502    0 -0.87684915819E+03 -0.36870445698E+03 -0.28508332442E+03  0.99301557122E+03  0.25500000920E-02 0.  1.
       -2    1    3    3    0  502  0.87684915819E+03  0.36870445698E+03  0.14533455029E+04  0.17369572746E+04  0.25500000920E-02 0. -1.
</event>
<event>
 5   0  0.6600166E-05  0.2382769E+04  0.7818609E-02  0.8445983E-01
       -2   -1    0    0    0  501  0.00000000000E+00  0.00000000000E+00  0.87575217280E+03  0.87575217281E+03  0.25500000920E-02 0.  1.
        2   -1    0    0  501    0  0.00000000000E+00  0.00000000000E+00 -0.16207750061E+04  0.16207750061E+04  0.25500000920E-02 0. -1.
    10030    2    1    2    0    0  0.00000000000E+00  0.00000000000E+00 -0.74502283333E+03  0.24965271789E+04  0.23827691733E+04 0.  0.
        5    1    3    3  502    0  0.52612687471E+03  0.55782502123E+03  0.58282982444E+03  0.96316713859E+03  0.46999998093E+01 0.  1.
       -5    1    3    3    0  502 -0.52612687471E+03 -0.55782502123E+03 -0.13278526578E+04  0.15333600404E+04  0.46999998093E+01 0. -1.
</event>
<event>
 5   0  0.6337926E-05  0.2413360E+04  0.7818609E-02  0.8434519E-01
       -2   -1    0    0    0  501  0.00000000000E+00  0.00000000000E+00  0.85428245255E+03  0.85428245255E+03  0.25500000920E-02 0. -1.
        2   -1    0    0  501    0  0.00000000000E+00  0.00000000000E+00 -0.17044442931E+04  0.17044442931E+04  0.25500000920E-02 0.  1.
    10030    2    1    2    0    0  0.00000000000E+00  0.00000000000E+00 -0.85016184050E+03  0.25587267456E+04  0.24133601894E+04 0.  0.
        1    1    3    3  502    0  0.10917941815E+03  0.10522814449E+04 -0.10404374127E+04  0.14838215507E+04  0.50400001928E-02 0.  1.
       -1    1    3    3    0  502 -0.10917941815E+03 -0.10522814449E+04  0.19027557220E+03  0.10749051949E+04  0.50400001928E-02 0. -1.
</event>
<event>
 5   0  0.6703961E-05  0.2404320E+04  0.7818609E-02  0.8437888E-01
        2   -1    0    0  501    0  0.00000000000E+00  0.00000000000E+00  0.15450881743E+04  0.15450881743E+04  0.25500000920E-02 0. -1.
       -2   -1    0    0    0  501  0.00000000000E+00  0.00000000000E+00 -0.93534356696E+03  0.93534356696E+03  0.25500000920E-02 0.  1.
    10030    2    1    2    0    0  0.00000000000E+00  0.00000000000E+00  0.60974460738E+03  0.24804317413E+04  0.24043196828E+04 0.  0.
        2    1    3    3  502    0  0.31155991492E+03 -0.15063559429E+03 -0.88284498145E+03  0.94824887247E+03  0.25500000920E-02 0.  1.
       -2    1    3    3    0  502 -0.31155991492E+03  0.15063559429E+03  0.14925895888E+04  0.15321828688E+04  0.25500000920E-02 0. -1.
</event>
<event>
 5   0  0.6337926E-05  0.2428073E+04  0.7818609E-02  0.8429068E-01
       -2   -1    0    0    0  501  0.00000000000E+00  0.00000000000E+00  0.97174340634E+03  0.97174340634E+03  0.25500000920E-02 0.  1.
        2   -1    0    0  501    0  0.00000000000E+00  0.00000000000E+00 -0.15167423055E+04  0.15167423055E+04  0.25500000920E-02 0. -1.
    10030    2    1    2    0    0  0.00000000000E+00  0.00000000000E+00 -0.54499889920E+03  0.24884857119E+04  0.24280727621E+04 0.  0.
        1    1    3    3  502    0 -0.92856376786E+03 -0.83406346722E+01  0.52899689589E+03  0.10687085445E+04  0.50400001928E-02 0.  1.
       -1    1    3    3    0  502  0.92856376786E+03  0.83406346722E+01 -0.10739957951E+04  0.14197771674E+04  0.50400001928E-02 0. -1.
</event>
<event>
 5   0  0.2901816E-05  0.2322798E+04  0.7818609E-02  0.8468986E-01
        1   -1    0    0  501    0  0.00000000000E+00  0.00000000000E+00  0.17665759418E+04  0.17665759418E+04  0.50400001928E-02 0. -1.
       -1   -1    0    0    0  501  0.00000000000E+00  0.00000000000E+00 -0.76353755265E+03  0.76353755267E+03  0.50400001928E-02 0.  1.
    10030    2    1    2    0    0  0.00000000000E+00  0.00000000000E+00  0.10030383891E+04  0.25301134944E+04  0.23227975126E+04 0.  0.
        4    1    3    3  502    0  0.98724538097E+03 -0.33356056869E+03 -0.57012979199E+02  0.10436322091E+04  0.12699999809E+01 0.  1.
       -4    1    3    3    0  502 -0.98724538097E+03  0.33356056869E+03  0.10600513683E+04  0.14864812853E+04  0.12699999809E+01 0. -1.
</event>
<event>
 5   0  0.2901816E-05  0.2315805E+04  0.7818609E-02  0.8471715E-01
        1   -1    0    0  501    0  0.00000000000E+00  0.00000000000E+00  0.96815596038E+03  0.96815596040E+03  0.50400001928E-02 0. -1.
       -1   -1    0    0    0  501  0.00000000000E+00  0.00000000000E+00 -0.13848372563E+04  0.13848372563E+04  0.50400001928E-02 0.  1.
    10030    2    1    2    0    0  0.00000000000E+00  0.00000000000E+00 -0.41668129594E+03  0.23529932167E+04  0.23158052111E+04 0.  0.
        4    1    3    3  502    0  0.47048936981E+02 -0.74236076088E+03 -0.11099593207E+04  0.13361603228E+04  0.12699999809E+01 0.  1.
       -4    1    3    3    0  502 -0.47048936981E+02  0.74236076088E+03  0.69327802472E+03  0.10168328939E+04  0.12699999809E+01 0. -1.
</event>
<event>
 5   0  0.2901816E-05  0.2376419E+04  0.7818609E-02  0.8448385E-01
       -1   -1    0    0    0  501  0.00000000000E+00  0.00000000000E+00  0.70622977981E+03  0.70622977983E+03  0.50400001928E-02 0.  1.
        1   -1    0    0  501    0  0.00000000000E+00  0.00000000000E+00 -0.19991245943E+04  0.19991245943E+04  0.50400001928E-02 0. -1.
    10030    2    1    2    0    0  0.00000000000E+00  0.00000000000E+00 -0.12928948145E+04  0.27053543741E+04  0.23764185844E+04 0.  0.
        4    1    3    3  502    0 -0.80173798549E+03  0.59459589852E+03 -0.13802729305E+04  0.17033740210E+04  0.12699999809E+01 0. -1.
       -4    1    3    3    0  502  0.80173798549E+03 -0.59459589852E+03  0.87378116045E+02  0.10019803531E+04  0.12699999809E+01 0.  1.
</event>
<event>
 5   0  0.6978115E-05  0.2499633E+04  0.7818609E-02  0.8403116E-01
       -2   -1    0    0    0  501  0.00000000000E+00  0.00000000000E+00  0.92123389186E+03  0.92123389186E+03  0.25500000920E-02 0. -1.
        2   -1    0    0  501    0  0.00000000000E+00  0.00000000000E+00 -0.16955963386E+04  0.16955963386E+04  0.25500000920E-02 0.  1.
    10030    2    1    2    0    0  0.00000000000E+00  0.00000000000E+00 -0.77436244676E+03  0.26168302305E+04  0.24996326243E+04 0.  0.
        4    1    3    3  502    0  0.91596200919E+03 -0.47203860812E+03 -0.11276133458E+04  0.15275209721E+04  0.12699999809E+01 0.  1.
       -4    1    3    3    0  502 -0.91596200919E+03  0.47203860812E+03  0.35325089900E+03  0.10893092584E+04  0.12699999809E+01 0. -1.
</event>
<event>
 5   0  0.2847158E-05  0.2394606E+04  0.7818609E-02  0.8441526E-01
        1   -1    0    0  501    0  0.00000000000E+00  0.00000000000E+00  0.15879451031E+04  0.15879451031E+04  0.50400001928E-02 0.  1.
       -1   -1    0    0    0  501  0.00000000000E+00  0.00000000000E+00 -0.90276087450E+03  0.90276087451E+03  0.50400001928E-02 0. -1.
    10030    2    1    2    0    0  0.00000000000E+00  0.00000000000E+00  0.68518422862E+03  0.24907059776E+04  0.23946061972E+04 0.  0.
        5    1    3    3  502    0  0.49154649690E+03 -0.18689108806E+03  0.14613825138E+04  0.15531281914E+04  0.46999998093E+01 0.  1.
       -5    1    3    3    0  502 -0.49154649690E+03  0.18689108806E+03 -0.77619828513E+03  0.93757778624E+03  0.46999998093E+01 0. -1.
</event>
<event>
 5   0  0.2915546E-05  0.2391831E+04  0.7818609E-02  0.8442568E-01
        1   -1    0    0  501    0  0.00000000000E+00  0.00000000000E+00  0.12226748949E+04  0.12226748949E+04  0.50400001928E-02 0. -1.
       -1   -1    0    0    0  501  0.00000000000E+00  0.00000000000E+00 -0.11697413547E+04  0.11697413547E+04  0.50400001928E-02 0.  1.
    10030    2    1    2    0    0  0.00000000000E+00  0.00000000000E+00  0.52933540169E+02  0.23924162496E+04  0.23918305859E+04 0.  0.
        2    1    3    3  502    0  0.34904352627E+03  0.10486237553E+04  0.48349245412E+03  0.12063200722E+04  0.25500000920E-02 0. -1.
       -2    1    3    3    0  502 -0.34904352627E+03 -0.10486237553E+04 -0.43055891395E+03  0.11860961773E+04  0.25500000920E-02 0.  1.
</event>
<event>
 5   0  0.2901816E-05  0.2442748E+04  0.7818609E-02  0.8423671E-01
        1   -1    0    0  501    0  0.00000000000E+00  0.00000000000E+00  0.20405096060E+04  0.20405096060E+04  0.50400001928E-02 0. -1.
       -1   -1    0    0    0  501  0.00000000000E+00  0.00000000000E+00 -0.73106957281E+03  0.73106957283E+03  0.50400001928E-02 0.  1.
    10030    2    1    2    0    0  0.00000000000E+00  0.00000000000E+00  0.13094400332E+04  0.27715791788E+04  0.24427480312E+04 0.  0.
        4    1    3    3  502    0  0.64245271701E+02  0.11614521966E+04  0.10772087709E+04  0.15853955371E+04  0.12699999809E+01 0. -1.
       -4    1    3    3    0  502 -0.64245271701E+02 -0.11614521966E+04  0.23223126227E+03  0.11861836418E+04  0.12699999809E+01 0.  1.
</event>
<event>
 5   0  0.2901816E-05  0.2354247E+04  0.7818609E-02  0.8456834E-01
       -1   -1    0    0    0  501  0.00000000000E+00  0.00000000000E+00  0.49414063672E+03  0.49414063675E+03  0.50400001928E-02 0.  1.
        1   -1    0    0  501    0  0.00000000000E+00  0.00000000000E+00 -0.28041003848E+04  0.28041003848E+04  0.50400001928E-02 0. -1.
    10030    2    1    2    0    0  0.00000000000E+00  0.00000000000E+00 -0.23099597481E+04  0.32982410216E+04  0.23542471830E+04 0.  0.
        4    1    3    3  502    0  0.11154229331E+04 -0.25980511530E+03 -0.77399889640E+03  0.13822962498E+04  0.12699999809E+01 0. -1.
       -4    1    3    3    0  502 -0.11154229331E+04  0.25980511530E+03 -0.15359608517E+04  0.19159447718E+04  0.12699999809E+01 0.  1.
</event>
<event>
 5   0  0.6714629E-05  0.2402891E+04  0.7818609E-02  0.8438422E-01
        2   -1    0    0  501    0  0.00000000000E+00  0.00000000000E+00  0.21701933508E+04  0.21701933508E+04  0.25500000920E-02 0.  1.
       -2   -1    0    0    0  501  0.00000000000E+00  0.00000000000E+00 -0.66513515201E+03  0.66513515201E+03  0.25500000920E-02 0. -1.
    10030    2    1    2    0    0  0.00000000000E+00  0.00000000000E+00  0.15050581988E+04  0.28353285029E+04  0.24028914951E+04 0.  0.
        3    1    3    3  502    0  0.10635603673E+04  0.55423467770E+03  0.66797290583E+03  0.13727798607E+04  0.10100000352E+00 0.  1.
       -3    1    3    3    0  502 -0.10635603673E+04 -0.55423467770E+03  0.83708529300E+03  0.14625486422E+04  0.10100000352E+00 0. -1.
</event>
<event>
 5   0  0.2915546E-05  0.2449549E+04  0.7818609E-02  0.8421183E-01
        1   -1    0    0  501    0  0.00000000000E+00  0.00000000000E+00  0.10963398613E+04  0.10963398613E+04  0.50400001928E-02 0. -1.
       -1   -1    0    0    0  501  0.00000000000E+00  0.00000000000E+00 -0.13682550111E+04  0.13682550111E+04  0.50400001928E-02 0.  1.
    10030    2    1    2    0    0  0.00000000000E+00  0.00000000000E+00 -0.27191514977E+03  0.24645948724E+04  0.24495489455E+04 0.  0.
        2    1    3    3  502    0 -0.23825010537E+03  0.45474594612E+03 -0.12547749567E+04  0.13557349226E+04  0.25500000920E-02 0.  1.
       -2    1    3    3    0  502  0.23825010537E+03 -0.45474594612E+03  0.98285980695E+03  0.11088599498E+04  0.25500000920E-02 0. -1.
</event>
<event>
 5   0  0.6714629E-05  0.2428299E+04  0.7818609E-02  0.8428984E-01
        2   -1    0    0  501    0  0.00000000000E+00  0.00000000000E+00  0.15435370083E+04  0.15435370083E+04  0.25500000920E-02 0.  1.
       -2   -1    0    0    0  501  0.00000000000E+00  0.00000000000E+00 -0.95505284672E+03  0.95505284673E+03  0.25500000920E-02 0. -1.
    10030    2    1    2    0    0  0.00000000000E+00  0.00000000000E+00  0.58848416162E+03  0.24985898551E+04  0.24282993340E+04 0.  0.
        3    1    3    3  502    0 -0.58944157097E+02  0.35245470086E+03  0.14882015611E+04  0.15305040433E+04  0.10100000352E+00 0.  1.
       -3    1    3    3    0  502  0.58944157097E+02 -0.35245470086E+03 -0.89971739950E+03  0.96808581178E+03  0.10100000352E+00 0. -1.
</event>
<event>
 5   0  0.2847158E-05  0.2371409E+04  0.7818609E-02  0.8450286E-01
        1   -1    0    0  501    0  0.00000000000E+00  0.00000000000E+00  0.22764915167E+04  0.22764915167E+04  0.50400001928E-02 0. -1.
       -1   -1    0    0    0  501  0.00000000000E+00  0.00000000000E+00 -0.61757078705E+03  0.61757078707E+03  0.50400001928E-02 0.  1.
    10030    2    1    2    0    0  0.00000000000E+00  0.00000000000E+00  0.16589207297E+04  0.28940623038E+04  0.23714085753E+04 0.  0.
        5    1    3    3  502    0  0.11666688901E+04 -0.13811245116E+03  0.10250335513E+04  0.15591366904E+04  0.46999998093E+01 0. -1.
       -5    1    3    3    0  502 -0.11666688901E+04  0.13811245116E+03  0.63388717838E+03  0.13349256133E+04  0.46999998093E+01 0.  1.
</event>
<event>
 5   0  0.6714629E-05  0.2388905E+04  0.7818609E-02  0.8443669E-01
       -2   -1    0    0    0  501  0.00000000000E+00  0.00000000000E+00  0.68066507058E+03  0.68066507058E+03  0.25500000920E-02 0. -1.
        2   -1    0    0  501    0  0.00000000000E+00  0.00000000000E+00 -0.20960636006E+04  0.20960636006E+04  0.25500000920E-02 0.  1.
    10030    2    1    2    0    0  0.00000000000E+00  0.00000000000E+00 -0.14153985300E+04  0.27767286712E+04  0.23889054218E+04 0.  0.
        3    1    3    3  502    0 -0.95785339296E+03  0.69487812509E+03 -0.89648094365E+03  0.14845931509E+04  0.10100000352E+00 0.  1.
       -3    1    3    3    0  502  0.95785339296E+03 -0.69487812509E+03 -0.51891758635E+03  0.12921355203E+04  0.10100000352E+00 0. -1.
</event>
<event>
 5   0  0.2943244E-05  0.2218342E+04  0.7818609E-02  0.8510832E-01
        1   -1    0    0  501    0  0.00000000000E+00  0.00000000000E+00  0.13862523028E+04  0.13862523028E+04  0.50400001928E-02 0. -1.
       -1   -1    0    0    0  501  0.00000000000E+00  0.00000000000E+00 -0.88747254204E+03  0.88747254205E+03  0.50400001928E-02 0.  1.
    10030    2    1    2    0    0  0.00000000000E+00  0.00000000000E+00  0.49877976074E+03  0.22737248448E+04  0.22183424939E+04 0.  0.
        3    1    3    3  502    0 -0.71777753382E+03  0.12583409473E+03  0.11064610029E+04  0.13248753785E+04  0.10100000352E+00 0. -1.
       -3    1    3    3    0  502  0.71777753382E+03 -0.12583409473E+03 -0.60768124217E+03  0.94884946632E+03  0.10100000352E+00 0.  1.
</event>
<event>
 5   0  0.2847158E-05  0.2325809E+04  0.7818609E-02  0.8467814E-01
       -1   -1    0    0    0  501  0.00000000000E+00  0.00000000000E+00  0.45830239839E+03  0.45830239842E+03  0.50400001928E-02 0.  1.
        1   -1    0    0  501    0  0.00000000000E+00  0.00000000000E+00 -0.29507742436E+04  0.29507742436E+04  0.50400001928E-02 0. -1.
    10030    2    1    2    0    0  0.00000000000E+00  0.00000000000E+00 -0.24924718452E+04  0.34090766420E+04  0.23258090317E+04 0.  0.
        5    1    3    3  502    0 -0.47335231969E+01 -0.70363842285E+03 -0.26033070944E+04  0.26967312351E+04  0.46999998093E+01 0. -1.
       -5    1    3    3    0  502  0.47335231969E+01  0.70363842285E+03  0.11083524921E+03  0.71234540696E+03  0.46999998093E+01 0.  1.
</event>
<event>
 5   0  0.6600166E-05  0.2425245E+04  0.7818609E-02  0.8430112E-01
        2   -1    0    0  501    0  0.00000000000E+00  0.00000000000E+00  0.26131731031E+04  0.26131731031E+04  0.25500000920E-02 0. -1.
       -2   -1    0    0    0  501  0.00000000000E+00  0.00000000000E+00 -0.56270819262E+03  0.56270819263E+03  0.25500000920E-02 0.  1.
    10030    2    1    2    0    0  0.00000000000E+00  0.00000000000E+00  0.20504649104E+04  0.31758812957E+04  0.24252454835E+04 0.  0.
        5    1    3    3  502    0  0.69060458947E+03 -0.72956883341E+03  0.13589689954E+03  0.10137531450E+04  0.46999998093E+01 0.  1.
       -5    1    3    3    0  502 -0.69060458947E+03  0.72956883341E+03  0.19145680109E+04  0.21621281507E+04  0.46999998093E+01 0. -1.
</event>
<event>
 5   0  0.2943123E-05  0.2382112E+04  0.7818609E-02  0.8446231E-01
       -1   -1    0    0    0  501  0.00000000000E+00  0.00000000000E+00  0.98751262277E+03  0.98751262278E+03  0.50400001928E-02 0. -1.
        1   -1    0    0  501    0  0.00000000000E+00  0.00000000000E+00 -0.14365532345E+04  0.14365532346E+04  0.50400001928E-02 0.  1.
    10030    2    1    2    0    0  0.00000000000E+00  0.00000000000E+00 -0.44904061177E+03  0.24240658573E+04  0.23821120481E+04 0.  0.
        1    1    3    3  502    0  0.11156687431E+04 -0.40646853036E+03 -0.12970724718E+03  0.11944694975E+04  0.50400001928E-02 0.  1.
       -1    1    3    3    0  502 -0.11156687431E+04  0.40646853036E+03 -0.31933336459E+03  0.12295963599E+04  0.50400001928E-02 0. -1.
</event>
<event>
 5   0  0.2915546E-05  0.2451086E+04  0.7818609E-02  0.8420622E-01
        1   -1    0    0  501    0  0.00000000000E+00  0.00000000000E+00  0.15872117293E+04  0.15872117293E+04  0.50400001928E-02 0.  1.
       -1   -1    0    0    0  501  0.00000000000E+00  0.00000000000E+00 -0.94628566861E+03  0.94628566862E+03  0.50400001928E-02 0. -1.
    10030    2    1    2    0    0  0.00000000000E+00  0.00000000000E+00  0.64092606070E+03  0.25334973979E+04  0.24510860552E+04 0.  0.
        2    1    3    3  502    0  0.30529631790E+03  0.13992042515E+03 -0.89779683434E+03  0.95855241007E+03  0.25500000920E-02 0. -1.
       -2    1    3    3    0  502 -0.30529631790E+03 -0.13992042515E+03  0.15387228950E+04  0.15749449879E+04  0.25500000920E-02 0.  1.
</event>
<event>
 5   0  0.6703961E-05  0.2396613E+04  0.7818609E-02  0.8440773E-01
        2   -1    0    0  501    0  0.00000000000E+00  0.00000000000E+00  0.14602457754E+04  0.14602457754E+04  0.25500000920E-02 0. -1.
       -2   -1    0    0    0  501  0.00000000000E+00  0.00000000000E+00 -0.98335426058E+03  0.98335426058E+03  0.25500000920E-02 0.  1.
    10030    2    1    2    0    0  0.00000000000E+00  0.00000000000E+00  0.47689151485E+03  0.24436000360E+04  0.23966133645E+04 0.  0.
        2    1    3    3  502    0  0.98565505128E+02  0.12067351027E+03  0.14498733305E+04  0.14582214953E+04  0.25500000920E-02 0. -1.
       -2    1    3    3    0  502 -0.98565505128E+02 -0.12067351027E+03 -0.97298181565E+03  0.98537854070E+03  0.25500000920E-02 0.  1.
</event>
<event>
 5   0  0.6703961E-05  0.2145577E+04  0.7818609E-02  0.8541428E-01
        2   -1    0    0  501    0  0.00000000000E+00  0.00000000000E+00  0.84644885236E+03  0.84644885237E+03  0.25500000920E-02 0. -1.
       -2   -1    0    0    0  501  0.00000000000E+00  0.00000000000E+00 -0.13596510548E+04  0.13596510548E+04  0.25500000920E-02 0.  1.
    10030    2    1    2    0    0  0.00000000000E+00  0.00000000000E+00 -0.51320220241E+03  0.22060999071E+04  0.21455769154E+04 0.  0.
        2    1    3    3  502    0  0.49785479828E+03  0.60885175792E+03  0.49357897714E+03  0.92853652054E+03  0.25500000920E-02 0. -1.
       -2    1    3    3    0  502 -0.49785479828E+03 -0.60885175792E+03 -0.10067811795E+04  0.12775633866E+04  0.25500000920E-02 0.  1.
</event>
<event>
 5   0  0.6978115E-05  0.2406245E+04  0.7818609E-02  0.8437169E-01
        2   -1    0    0  501    0  0.00000000000E+00  0.00000000000E+00  0.20193233906E+04  0.20193233906E+04  0.25500000920E-02 0.  1.
       -2   -1    0    0    0  501  0.00000000000E+00  0.00000000000E+00 -0.71682591804E+03  0.71682591804E+03  0.25500000920E-02 0. -1.
    10030    2    1    2    0    0  0.00000000000E+00  0.00000000000E+00  0.13024974726E+04  0.27361493087E+04  0.24062446620E+04 0.  0.
        4    1    3    3  502    0 -0.91973896058E+03  0.22371838946E+03 -0.19322352633E+03  0.96607795618E+03  0.12699999809E+01 0.  1.
       -4    1    3    3    0  502  0.91973896058E+03 -0.22371838946E+03  0.14957209989E+04  0.17700713525E+04  0.12699999809E+01 0. -1.
</event>
<event>
 5   0  0.6337926E-05  0.2363711E+04  0.7818609E-02  0.8453216E-01
       -2   -1    0    0    0  501  0.00000000000E+00  0.00000000000E+00  0.56693539702E+03  0.56693539702E+03  0.25500000920E-02 0.  1.
        2   -1    0    0  501    0  0.00000000000E+00  0.00000000000E+00 -0.24637411528E+04  0.24637411528E+04  0.25500000920E-02 0. -1.
    10030    2    1    2    0    0  0.00000000000E+00  0.00000000000E+00 -0.18968057558E+04  0.30306765498E+04  0.23637107003E+04 0.  0.
        1    1    3    3  502    0 -0.35885680454E+03 -0.87331409994E+03 -0.36956259850E+02  0.94489231581E+03  0.50400001928E-02 0.  1.
       -1    1    3    3    0  502  0.35885680454E+03  0.87331409994E+03 -0.18598494960E+04  0.20857842340E+04  0.50400001928E-02 0. -1.
</event>
<event>
 5   0  0.6600166E-05  0.2397408E+04  0.7818609E-02  0.8440474E-01
       -2   -1    0    0    0  501  0.00000000000E+00  0.00000000000E+00  0.11089396973E+04  0.11089396973E+04  0.25500000920E-02 0.  1.
        2   -1    0    0  501    0  0.00000000000E+00  0.00000000000E+00 -0.12957348642E+04  0.12957348643E+04  0.25500000920E-02 0. -1.
    10030    2    1    2    0    0  0.00000000000E+00  0.00000000000E+00 -0.18679516696E+03  0.24046745615E+04  0.23974084576E+04 0.  0.
        5    1    3    3  502    0  0.51977720714E+03  0.28357536301E+03 -0.11388070982E+04  0.12835447123E+04  0.46999998093E+01 0. -1.
       -5    1    3    3    0  502 -0.51977720714E+03 -0.28357536301E+03  0.95201193126E+03  0.11211298492E+04  0.46999998093E+01 0.  1.
</event>
<event>
 5   0  0.6703961E-05  0.2475249E+04  0.7818609E-02  0.8411857E-01
        2   -1    0    0  501    0  0.00000000000E+00  0.00000000000E+00  0.15227048118E+04  0.15227048118E+04  0.25500000920E-02 0. -1.
       -2   -1    0    0    0  501  0.00000000000E+00  0.00000000000E+00 -0.10059169128E+04  0.10059169128E+04  0.25500000920E-02 0.  1.
    10030    2    1    2    0    0  0.00000000000E+00  0.00000000000E+00  0.51678789896E+03  0.25286217246E+04  0.24752490973E+04 0.  0.
        2    1    3    3  502    0  0.71080864999E+03  0.99066175069E+03  0.47523219444E+03  0.13086272501E+04  0.25500000920E-02 0. -1.
       -2    1    3    3    0  502 -0.71080864999E+03 -0.99066175069E+03  0.41555704523E+02  0.12199944745E+04  0.25500000920E-02 0.  1.
</event>
<event>
 5   0  0.6337926E-05  0.2374015E+04  0.7818609E-02  0.8449296E-01
       -2   -1    0    0    0  501  0.00000000000E+00  0.00000000000E+00  0.67519411287E+03  0.67519411288E+03  0.25500000920E-02 0.  1.
        2   -1    0    0  501    0  0.00000000000E+00  0.00000000000E+00 -0.20867883614E+04  0.20867883614E+04  0.25500000920E-02 0. -1.
    10030    2    1    2    0    0  0.00000000000E+00  0.00000000000E+00 -0.14115942485E+04  0.27619824743E+04  0.23740153466E+04 0.  0.
        1    1    3    3  502    0 -0.10427307231E+03 -0.47997014724E+03 -0.19630164053E+04  0.20235309791E+04  0.50400001928E-02 0. -1.
       -1    1    3    3    0  502  0.10427307231E+03  0.47997014724E+03  0.55142215673E+03  0.73845149523E+03  0.50400001928E-02 0.  1.
</event>
<event>
 5   0  0.2339125E-05  0.2372994E+04  0.7818609E-02  0.8449684E-01
       -3   -1    0    0    0  501  0.00000000000E+00  0.00000000000E+00  0.15742902409E+04  0.15742902442E+04  0.10100000352E+00 0. -1.
        3   -1    0    0  501    0  0.00000000000E+00  0.00000000000E+00 -0.89422824453E+03  0.89422825023E+03  0.10100000352E+00 0.  1.
    10030    2    1    2    0    0  0.00000000000E+00  0.00000000000E+00  0.68006199642E+03  0.24685184944E+04  0.23729937291E+04 0.  0.
        4    1    3    3  502    0  0.86781873198E+03 -0.52785396229E+03 -0.29787013683E+03  0.10585213217E+04  0.12699999809E+01 0.  1.
       -4    1    3    3    0  502 -0.86781873198E+03  0.52785396229E+03  0.97793213325E+03  0.14099971728E+04  0.12699999809E+01 0. -1.
</event>
<event>
 5   0  0.2339125E-05  0.2408111E+04  0.7818609E-02  0.8436473E-01
        3   -1    0    0  501    0  0.00000000000E+00  0.00000000000E+00  0.10564719407E+04  0.10564719455E+04  0.10100000352E+00 0.  1.
       -3   -1    0    0    0  501  0.00000000000E+00  0.00000000000E+00 -0.13722555000E+04  0.13722555038E+04  0.10100000352E+00 0. -1.
    10030    2    1    2    0    0  0.00000000000E+00  0.00000000000E+00 -0.31578355937E+03  0.24287274493E+04  0.24081108294E+04 0.  0.
        4    1    3    3  502    0 -0.85944530716E+03  0.39357128275E+03  0.59428351859E+03  0.11165657634E+04  0.12699999809E+01 0.  1.
       -4    1    3    3    0  502  0.85944530716E+03 -0.39357128275E+03 -0.91006707797E+03  0.13121616859E+04  0.12699999809E+01 0. -1.
</event>
<event>
 5   0  0.2943244E-05  0.2388135E+04  0.7818609E-02  0.8443959E-01
       -1   -1    0    0    0  501  0.00000000000E+00  0.00000000000E+00  0.94422158655E+03  0.94422158656E+03  0.50400001928E-02 0. -1.
        1   -1    0    0  501    0  0.00000000000E+00  0.00000000000E+00 -0.15100237254E+04  0.15100237254E+04  0.50400001928E-02 0.  1.
    10030    2    1    2    0    0  0.00000000000E+00  0.00000000000E+00 -0.56580213889E+03  0.24542453120E+04  0.23881348352E+04 0.  0.
        3    1    3    3  502    0 -0.33803210507E+03  0.11336545396E+04 -0.11605312561E+03  0.11886575022E+04  0.10100000352E+00 0. -1.
       -3    1    3    3    0  502  0.33803210507E+03 -0.11336545396E+04 -0.44974901328E+03  0.12655878098E+04  0.10100000352E+00 0.  1.
</event>
<event>
 5   0  0.6600166E-05  0.2366913E+04  0.7818609E-02  0.8451996E-01
       -2   -1    0    0    0  501  0.00000000000E+00  0.00000000000E+00  0.13476581548E+04  0.13476581548E+04  0.25500000920E-02 0.  1.
        2   -1    0    0  501    0  0.00000000000E+00  0.00000000000E+00 -0.10392611011E+04  0.10392611011E+04  0.25500000920E-02 0. -1.
    10030    2    1    2    0    0  0.00000000000E+00  0.00000000000E+00  0.30839705369E+03  0.23869192560E+04  0.23669125019E+04 0.  0.
        5    1    3    3  502    0 -0.62049405967E+03 -0.73404591598E+03  0.85047673466E+03  0.12834208394E+04  0.46999998093E+01 0.  1.
       -5    1    3    3    0  502  0.62049405967E+03  0.73404591598E+03 -0.54207968097E+03  0.11034984166E+04  0.46999998093E+01 0. -1.
</event>
<event>
 5   0  0.2901816E-05  0.2095315E+04  0.7818609E-02  0.8563310E-01
       -1   -1    0    0    0  501  0.00000000000E+00  0.00000000000E+00  0.68173510692E+03  0.68173510694E+03  0.50400001928E-02 0.  1.
        1   -1    0    0  501    0  0.00000000000E+00  0.00000000000E+00 -0.16099894875E+04  0.16099894875E+04  0.50400001928E-02 0. -1.
    10030    2    1    2    0    0  0.00000000000E+00  0.00000000000E+00 -0.92825438059E+03  0.22917245945E+04  0.20953151128E+04 0.  0.
        4    1    3    3  502    0 -0.50548295493E+03  0.45638731028E+03 -0.13348564722E+04  0.14985479001E+04  0.12699999809E+01 0. -1.
       -4    1    3    3    0  502  0.50548295493E+03 -0.45638731028E+03  0.40660209157E+03  0.79317669436E+03  0.12699999809E+01 0.  1.
</event>
<event>
 5   0  0.6337926E-05  0.2385160E+04  0.7818609E-02  0.8445081E-01
        2   -1    0    0  501    0  0.00000000000E+00  0.00000000000E+00  0.14595984601E+04  0.14595984601E+04  0.25500000920E-02 0. -1.
       -2   -1    0    0    0  501  0.00000000000E+00  0.00000000000E+00 -0.97440946887E+03  0.97440946887E+03  0.25500000920E-02 0.  1.
    10030    2    1    2    0    0  0.00000000000E+00  0.00000000000E+00  0.48518899121E+03  0.24340079290E+04  0.23851595840E+04 0.  0.
        1    1    3    3  502    0 -0.13258274192E+03 -0.48545620952E+03 -0.86075200620E+03  0.99706566033E+03  0.50400001928E-02 0.  1.
       -1    1    3    3    0  502  0.13258274192E+03  0.48545620952E+03  0.13459409974E+04  0.14369422686E+04  0.50400001928E-02 0. -1.
</event>
<event>
 5   0  0.6703961E-05  0.2356363E+04  0.7818609E-02  0.8456024E-01
       -2   -1    0    0    0  501  0.00000000000E+00  0.00000000000E+00  0.56445657880E+03  0.56445657881E+03  0.25500000920E-02 0.  1.
        2   -1    0    0  501    0  0.00000000000E+00  0.00000000000E+00 -0.24591991603E+04  0.24591991603E+04  0.25500000920E-02 0. -1.
    10030    2    1    2    0    0  0.00000000000E+00  0.00000000000E+00 -0.18947425815E+04  0.30236557392E+04  0.23563625737E+04 0.  0.
        2    1    3    3  502    0  0.83797997833E+03  0.82184874232E+03 -0.10786417510E+04  0.15940871451E+04  0.25500000920E-02 0. -1.
       -2    1    3    3    0  502 -0.83797997833E+03 -0.82184874232E+03 -0.81610083057E+03  0.14295685940E+04  0.25500000920E-02 0.  1.
</event>
<event>
 5   0  0.2847158E-05  0.2527498E+04  0.7818609E-02  0.8393254E-01
        1   -1    0    0  501    0  0.00000000000E+00  0.00000000000E+00  0.17518932706E+04  0.17518932706E+04  0.50400001928E-02 0. -1.
       -1   -1    0    0    0  501  0.00000000000E+00  0.00000000000E+00 -0.91162003758E+03  0.91162003759E+03  0.50400001928E-02 0.  1.
    10030    2    1    2    0    0  0.00000000000E+00  0.00000000000E+00  0.84027323300E+03  0.26635133082E+04  0.25274975839E+04 0.  0.
        5    1    3    3  502    0 -0.96953696576E+03  0.67382653295E+03 -0.54658860119E+02  0.11819703065E+04  0.46999998093E+01 0.  1.
       -5    1    3    3    0  502  0.96953696576E+03 -0.67382653295E+03  0.89493209311E+03  0.14815430017E+04  0.46999998093E+01 0. -1.
</event>
<event>
 5   0  0.6978115E-05  0.2393031E+04  0.7818609E-02  0.8442117E-01
        2   -1    0    0  501    0  0.00000000000E+00  0.00000000000E+00  0.28208676375E+04  0.28208676375E+04  0.25500000920E-02 0. -1.
       -2   -1    0    0    0  501  0.00000000000E+00  0.00000000000E+00 -0.50752111587E+03  0.50752111587E+03  0.25500000920E-02 0.  1.
    10030    2    1    2    0    0  0.00000000000E+00  0.00000000000E+00  0.23133465216E+04  0.33283887534E+04  0.23930314591E+04 0.  0.
        4    1    3    3  502    0 -0.46668382898E+03  0.71618735948E+03 -0.77825379932E+01  0.85485689499E+03  0.12699999809E+01 0.  1.
       -4    1    3    3    0  502  0.46668382898E+03 -0.71618735948E+03  0.23211290596E+04  0.24735318584E+04  0.12699999809E+01 0. -1.
</event>
<event>
 5   0  0.6600166E-05  0.1479426E+04  0.7818609E-02  0.8898251E-01
       -2   -1    0    0    0  501  0.00000000000E+00  0.00000000000E+00  0.71864352731E+03  0.71864352731E+03  0.25500000920E-02 0. -1.
        2   -1    0    0  501    0  0.00000000000E+00  0.00000000000E+00 -0.76140005742E+03  0.76140005743E+03  0.25500000920E-02 0.  1.
    10030    2    1    2    0    0  0.00000000000E+00  0.00000000000E+00 -0.42756530115E+02  0.14800435847E+04  0.14794258656E+04 0.  0.
        5    1    3    3  502    0  0.26866512352E+03  0.40916473339E+03 -0.57618750524E+03  0.75604950819E+03  0.46999998093E+01 0.  1.
       -5    1    3    3    0  502 -0.26866512352E+03 -0.40916473339E+03  0.53343097513E+03  0.72399407654E+03  0.46999998093E+01 0. -1.
</event>
<event>
 5   0  0.2901816E-05  0.2378461E+04  0.7818609E-02  0.8447612E-01
        1   -1    0    0  501    0  0.00000000000E+00  0.00000000000E+00  0.11707512071E+04  0.11707512071E+04  0.50400001928E-02 0. -1.
       -1   -1    0    0    0  501  0.00000000000E+00  0.00000000000E+00 -0.12080011828E+04  0.12080011828E+04  0.50400001928E-02 0.  1.
    10030    2    1    2    0    0  0.00000000000E+00  0.00000000000E+00 -0.37249975740E+02  0.23787523899E+04  0.23784607148E+04 0.  0.
        4    1    3    3  502    0 -0.35782649150E+03  0.10503323160E+04 -0.44649687442E+03  0.11960764373E+04  0.12699999809E+01 0.  1.
       -4    1    3    3    0  502  0.35782649150E+03 -0.10503323160E+04  0.40924689868E+03  0.11826759526E+04  0.12699999809E+01 0. -1.
</event>
<event>
 5   0  0.6337926E-05  0.2399087E+04  0.7818609E-02  0.8439846E-01
        2   -1    0    0  501    0  0.00000000000E+00  0.00000000000E+00  0.11865542125E+04  0.11865542125E+04  0.25500000920E-02 0. -1.
       -2   -1    0    0    0  501  0.00000000000E+00  0.00000000000E+00 -0.12126747406E+04  0.12126747406E+04  0.25500000920E-02 0.  1.
    10030    2    1    2    0    0  0.00000000000E+00  0.00000000000E+00 -0.26120528108E+02  0.23992289532E+04  0.23990867612E+04 0.  0.
        1    1    3    3  502    0  0.85028507957E+03 -0.44730207340E+03 -0.73132317501E+03  0.12074342416E+04  0.50400001928E-02 0.  1.
       -1    1    3    3    0  502 -0.85028507957E+03  0.44730207340E+03  0.70520264690E+03  0.11917947116E+04  0.50400001928E-02 0. -1.
</event>
<event>
 5   0  0.2847158E-05  0.2056898E+04  0.7818609E-02  0.8580471E-01
       -1   -1    0    0    0  501  0.00000000000E+00  0.00000000000E+00  0.15193920903E+04  0.15193920904E+04  0.50400001928E-02 0. -1.
        1   -1    0    0  501    0  0.00000000000E+00  0.00000000000E+00 -0.69613851623E+03  0.69613851625E+03  0.50400001928E-02 0.  1.
    10030    2    1    2    0    0  0.00000000000E+00  0.00000000000E+00  0.82325357411E+03  0.22155306066E+04  0.20568980095E+04 0.  0.
        5    1    3    3  502    0  0.65497552627E+03 -0.56877987725E+03 -0.18341065564E+03  0.88665948785E+03  0.46999998093E+01 0.  1.
       -5    1    3    3    0  502 -0.65497552627E+03  0.56877987725E+03  0.10066642298E+04  0.13288711188E+04  0.46999998093E+01 0. -1.
</event>
<event>
 5   0  0.2943244E-05  0.2389044E+04  0.7818609E-02  0.8443617E-01
        1   -1    0    0  501    0  0.00000000000E+00  0.00000000000E+00  0.22969278675E+04  0.22969278675E+04  0.50400001928E-02 0.  1.
       -1   -1    0    0    0  501  0.00000000000E+00  0.00000000000E+00 -0.62121356299E+03  0.62121356301E+03  0.50400001928E-02 0. -1.
    10030    2    1    2    0    0  0.00000000000E+00  0.00000000000E+00  0.16757143045E+04  0.29181414306E+04  0.23890439465E+04 0.  0.
        3    1    3    3  502    0 -0.12834122581E+03 -0.85520732839E+03  0.18443883008E+04  0.20370614274E+04  0.10100000352E+00 0.  1.
       -3    1    3    3    0  502  0.12834122581E+03  0.85520732839E+03 -0.16867399622E+03  0.88108000317E+03  0.10100000352E+00 0. -1.
</event>
<event>
 5   0  0.2943244E-05  0.2406038E+04  0.7818609E-02  0.8437247E-01
        1   -1    0    0  501    0  0.00000000000E+00  0.00000000000E+00  0.20587705589E+04  0.20587705590E+04  0.50400001928E-02 0.  1.
       -1   -1    0    0    0  501  0.00000000000E+00  0.00000000000E+00 -0.70297019646E+03  0.70297019648E+03  0.50400001928E-02 0. -1.
    10030    2    1    2    0    0  0.00000000000E+00  0.00000000000E+00  0.13558003625E+04  0.27617407554E+04  0.24060376924E+04 0.  0.
        3    1    3    3  502    0  0.90556957517E+03  0.68140973981E+03  0.21465295989E+03  0.11534519463E+04  0.10100000352E+00 0. -1.
       -3    1    3    3    0  502 -0.90556957517E+03 -0.68140973981E+03  0.11411474026E+04  0.16082888092E+04  0.10100000352E+00 0.  1.
</event>
<event>
 5   0  0.2901816E-05  0.2414515E+04  0.7818609E-02  0.8434089E-01
       -1   -1    0    0    0  501  0.00000000000E+00  0.00000000000E+00  0.13668320910E+04  0.13668320910E+04  0.50400001928E-02 0.  1.
        1   -1    0    0  501    0  0.00000000000E+00  0.00000000000E+00 -0.10663126549E+04  0.10663126549E+04  0.50400001928E-02 0. -1.
    10030    2    1    2    0    0  0.00000000000E+00  0.00000000000E+00  0.30051943612E+03  0.24331447460E+04  0.24145147387E+04 0.  0.
        4    1    3    3  502    0  0.10637130461E+03  0.66713653206E+03 -0.85800151861E+03  0.10920413113E+04  0.12699999809E+01 0. -1.
       -4    1    3    3    0  502 -0.10637130461E+03 -0.66713653206E+03  0.11585209547E+04  0.13411034346E+04  0.12699999809E+01 0.  1.
</event>
<event>
 5   0  0.6714629E-05  0.2408392E+04  0.7818609E-02  0.8436368E-01
       -2   -1    0    0    0  501  0.00000000000E+00  0.00000000000E+00  0.98526785471E+03  0.98526785472E+03  0.25500000920E-02 0. -1.
        2   -1    0    0  501    0  0.00000000000E+00  0.00000000000E+00 -0.14717705763E+04  0.14717705763E+04  0.25500000920E-02 0.  1.
    10030    2    1    2    0    0  0.00000000000E+00  0.00000000000E+00 -0.48650272160E+03  0.24570384310E+04  0.24083921926E+04 0.  0.
        3    1    3    3  502    0  0.46623784241E+02 -0.10585634835E+04  0.34045723251E+03  0.11129427493E+04  0.10100000352E+00 0. -1.
       -3    1    3    3    0  502 -0.46623784241E+02  0.10585634835E+04 -0.82695995411E+03  0.13440956818E+04  0.10100000352E+00 0.  1.
</event>
<event>
 5   0  0.2847158E-05  0.2421045E+04  0.7818609E-02  0.8431666E-01
        1   -1    0    0  501    0  0.00000000000E+00  0.00000000000E+00  0.13817419061E+04  0.13817419061E+04  0.50400001928E-02 0.  1.
       -1   -1    0    0    0  501  0.00000000000E+00  0.00000000000E+00 -0.10605197344E+04  0.10605197344E+04  0.50400001928E-02 0. -1.
    10030    2    1    2    0    0  0.00000000000E+00  0.00000000000E+00  0.32122217167E+03  0.24422616405E+04  0.24210448647E+04 0.  0.
        5    1    3    3  502    0  0.96511072625E+03  0.63485461880E+03  0.52553170073E+03  0.12691275584E+04  0.46999998093E+01 0.  1.
       -5    1    3    3    0  502 -0.96511072625E+03 -0.63485461880E+03 -0.20430952906E+03  0.11731340821E+04  0.46999998093E+01 0. -1.
</event>
<event>
 5   0  0.6714629E-05  0.2422601E+04  0.7818609E-02  0.8431090E-01
       -2   -1    0    0    0  501  0.00000000000E+00  0.00000000000E+00  0.12383802068E+04  0.12383802068E+04  0.25500000920E-02 0. -1.
        2   -1    0    0  501    0  0.00000000000E+00  0.00000000000E+00 -0.11848128662E+04  0.11848128662E+04  0.25500000920E-02 0.  1.
    10030    2    1    2    0    0  0.00000000000E+00  0.00000000000E+00  0.53567340602E+02  0.24231930730E+04  0.24226009182E+04 0.  0.
        3    1    3    3  502    0 -0.11490560710E+03  0.30677622065E+03  0.11932307290E+04  0.12373821281E+04  0.10100000352E+00 0. -1.
       -3    1    3    3    0  502  0.11490560710E+03 -0.30677622065E+03 -0.11396633884E+04  0.11858109449E+04  0.10100000352E+00 0.  1.
</event>
<event>
 5   0  0.6600166E-05  0.2094510E+04  0.7818609E-02  0.8563666E-01
       -2   -1    0    0    0  501  0.00000000000E+00  0.00000000000E+00  0.50311981434E+03  0.50311981435E+03  0.25500000920E-02 0.  1.
        2   -1    0    0  501    0  0.00000000000E+00  0.00000000000E+00 -0.21798846527E+04  0.21798846527E+04  0.25500000920E-02 0. -1.
    10030    2    1    2    0    0  0.00000000000E+00  0.00000000000E+00 -0.16767648383E+04  0.26830044670E+04  0.20945101210E+04 0.  0.
        5    1    3    3  502    0 -0.30310921373E+03 -0.38453845768E+03 -0.20242147178E+04  0.20825974970E+04  0.46999998093E+01 0. -1.
       -5    1    3    3    0  502  0.30310921373E+03  0.38453845768E+03  0.34744987946E+03  0.60040696999E+03  0.46999998093E+01 0.  1.
</event>
<event>
 5   0  0.2915546E-05  0.2423814E+04  0.7818609E-02  0.8430641E-01
       -1   -1    0    0    0  501  0.00000000000E+00  0.00000000000E+00  0.80283572487E+03  0.80283572488E+03  0.50400001928E-02 0.  1.
        1   -1    0    0  501    0  0.00000000000E+00  0.00000000000E+00 -0.18294132651E+04  0.18294132651E+04  0.50400001928E-02 0. -1.
    10030    2    1    2    0    0  0.00000000000E+00  0.00000000000E+00 -0.10265775402E+04  0.26322489900E+04  0.24238137922E+04 0.  0.
        2    1    3    3  502    0 -0.12147536119E+03 -0.46071471868E+03  0.69685440833E+03  0.84416845582E+03  0.25500000920E-02 0.  1.
       -2    1    3    3    0  502  0.12147536119E+03  0.46071471868E+03 -0.17234319485E+04  0.17880805342E+04  0.25500000920E-02 0. -1.
</event>
<event>
 5   0  0.2901816E-05  0.2482247E+04  0.7818609E-02  0.8409338E-01
       -1   -1    0    0    0  501  0.00000000000E+00  0.00000000000E+00  0.23701949469E+04  0.23701949469E+04  0.50400001928E-02 0. -1.
        1   -1    0    0  501    0  0.00000000000E+00  0.00000000000E+00 -0.64989895030E+03  0.64989895032E+03  0.50400001928E-02 0.  1.
    10030    2    1    2    0    0  0.00000000000E+00  0.00000000000E+00  0.17202959966E+04  0.30200938973E+04  0.24822467307E+04 0.  0.
        4    1    3    3  502    0 -0.17881410006E+03 -0.60361329437E+03  0.21615165226E+04  0.22513282262E+04  0.12699999809E+01 0. -1.
       -4    1    3    3    0  502  0.17881410006E+03  0.60361329437E+03 -0.44122052601E+03  0.76876567106E+03  0.12699999809E+01 0.  1.
</event>
<event>
 5   0  0.6703961E-05  0.2425550E+04  0.7818609E-02  0.8430000E-01
        2   -1    0    0  501    0  0.00000000000E+00  0.00000000000E+00  0.11251393416E+04  0.11251393416E+04  0.25500000920E-02 0. -1.
       -2   -1    0    0    0  501  0.00000000000E+00  0.00000000000E+00 -0.13072362045E+04  0.13072362045E+04  0.25500000920E-02 0.  1.
    10030    2    1    2    0    0  0.00000000000E+00  0.00000000000E+00 -0.18209686292E+03  0.24323755462E+04  0.24255497377E+04 0.  0.
        2    1    3    3  502    0 -0.95304819836E+03  0.22718496999E+03 -0.80783890062E+03  0.12698494274E+04  0.25500000920E-02 0. -1.
       -2    1    3    3    0  502  0.95304819836E+03 -0.22718496999E+03  0.62574203769E+03  0.11625261187E+04  0.25500000920E-02 0.  1.
</event>
<event>
 5   0  0.6714629E-05  0.2260700E+04  0.7818609E-02  0.8493580E-01
        2   -1    0    0  501    0  0.00000000000E+00  0.00000000000E+00  0.65187712796E+03  0.65187712796E+03  0.25500000920E-02 0. -1.
       -2   -1    0    0    0  501  0.00000000000E+00  0.00000000000E+00 -0.19600183656E+04  0.19600183656E+04  0.25500000920E-02 0.  1.
    10030    2    1    2    0    0  0.00000000000E+00  0.00000000000E+00 -0.13081412377E+04  0.26118954936E+04  0.22607000181E+04 0.  0.
        3    1    3    3  502    0  0.19150066736E+03 -0.10617984327E+04 -0.10434807215E+04  0.15009798278E+04  0.10100000352E+00 0.  1.
       -3    1    3    3    0  502 -0.19150066736E+03  0.10617984327E+04 -0.26466051620E+03  0.11109156657E+04  0.10100000352E+00 0. -1.
</event>
<event>
 5   0  0.2943123E-05  0.2365851E+04  0.7818609E-02  0.8452400E-01
        1   -1    0    0  501    0  0.00000000000E+00  0.00000000000E+00  0.16683565866E+04  0.16683565866E+04  0.50400001928E-02 0.  1.
       -1   -1    0    0    0  501  0.00000000000E+00  0.00000000000E+00 -0.83873708011E+03  0.83873708012E+03  0.50400001928E-02 0. -1.
    10030    2    1    2    0    0  0.00000000000E+00  0.00000000000E+00  0.82961950649E+03  0.25070936667E+04  0.23658508254E+04 0.  0.
        1    1    3    3  502    0 -0.19699734679E+03  0.11956921611E+03 -0.81472058807E+03  0.84668435012E+03  0.50400001928E-02 0. -1.
       -1    1    3    3    0  502  0.19699734679E+03 -0.11956921611E+03  0.16443400946E+04  0.16604093166E+04  0.50400001928E-02 0.  1.
</event>
<event>
 5   0  0.6600166E-05  0.2378879E+04  0.7818609E-02  0.8447453E-01
       -2   -1    0    0    0  501  0.00000000000E+00  0.00000000000E+00  0.77216237048E+03  0.77216237049E+03  0.25500000920E-02 0. -1.
        2   -1    0    0  501    0  0.00000000000E+00  0.00000000000E+00 -0.18322137513E+04  0.18322137513E+04  0.25500000920E-02 0.  1.
    10030    2    1    2    0    0  0.00000000000E+00  0.00000000000E+00 -0.10600513808E+04  0.26043761218E+04  0.23788791592E+04 0.  0.
        5    1    3    3  502    0  0.71900410524E+03 -0.81739373756E+03 -0.10546637806E+04  0.15157299250E+04  0.46999998093E+01 0.  1.
       -5    1    3    3    0  502 -0.71900410524E+03  0.81739373756E+03 -0.53876002625E+01  0.10886461968E+04  0.46999998093E+01 0. -1.
</event>
<event>
 5   0  0.2901816E-05  0.2396172E+04  0.7818609E-02  0.8440938E-01
        1   -1    0    0  501    0  0.00000000000E+00  0.00000000000E+00  0.13687623276E+04  0.13687623276E+04  0.50400001928E-02 0.  1.
       -1   -1    0    0    0  501  0.00000000000E+00  0.00000000000E+00 -0.10486916325E+04  0.10486916325E+04  0.50400001928E-02 0. -1.
    10030    2    1    2    0    0  0.00000000000E+00  0.00000000000E+00  0.32007069509E+03  0.24174539602E+04  0.23961716132E+04 0.  0.
        4    1    3    3  502    0  0.47272689275E+03  0.10308477244E+04 -0.22977736883E+03  0.11571158102E+04  0.12699999809E+01 0. -1.
       -4    1    3    3    0  502 -0.47272689275E+03 -0.10308477244E+04  0.54984806393E+03  0.12603381500E+04  0.12699999809E+01 0.  1.
</event>
<event>
 5   0  0.2847158E-05  0.2207393E+04  0.7818609E-02  0.8515357E-01
        1   -1    0    0  501    0  0.00000000000E+00  0.00000000000E+00  0.20193635842E+04  0.20193635842E+04  0.50400001928E-02 0.  1.
       -1   -1    0    0    0  501  0.00000000000E+00  0.00000000000E+00 -0.60323268238E+03  0.60323268241E+03  0.50400001928E-02 0. -1.
    10030    2    1    2    0    0  0.00000000000E+00  0.00000000000E+00  0.14161309018E+04  0.26225962666E+04  0.22073931337E+04 0.  0.
        5    1    3    3  502    0 -0.65659134292E+03  0.48417869168E+03  0.15912479251E+04  0.17881927318E+04  0.46999998093E+01 0.  1.
       -5    1    3    3    0  502  0.65659134292E+03 -0.48417869168E+03 -0.17511702324E+03  0.83440353481E+03  0.46999998093E+01 0. -1.
</event>
<event>
 5   0  0.6703961E-05  0.2373512E+04  0.7818609E-02  0.8449487E-01
        2   -1    0    0  501    0  0.00000000000E+00  0.00000000000E+00  0.10297691491E+04  0.10297691491E+04  0.25500000920E-02 0.  1.
       -2   -1    0    0    0  501  0.00000000000E+00  0.00000000000E+00 -0.13676752373E+04  0.13676752373E+04  0.25500000920E-02 0. -1.
    10030    2    1    2    0    0  0.00000000000E+00  0.00000000000E+00 -0.33790608822E+03  0.23974443864E+04  0.23735119679E+04 0.  0.
        2    1    3    3  502    0  0.29066588151E+03 -0.24481047256E+03 -0.13045537685E+04  0.13587786269E+04  0.25500000920E-02 0. -1.
       -2    1    3    3    0  502 -0.29066588151E+03  0.24481047256E+03  0.96664768027E+03  0.10386657595E+04  0.25500000920E-02 0.  1.
</event>
<event>
 5   0  0.2943123E-05  0.1479795E+04  0.7818609E-02  0.8898001E-01
        1   -1    0    0  501    0  0.00000000000E+00  0.00000000000E+00  0.11747052181E+04  0.11747052181E+04  0.50400001928E-02 0. -1.
       -1   -1    0    0    0  501  0.00000000000E+00  0.00000000000E+00 -0.46603021263E+03  0.46603021266E+03  0.50400001928E-02 0.  1.
    10030    2    1    2    0    0  0.00000000000E+00  0.00000000000E+00  0.70867500545E+03  0.16407354307E+04  0.14797947460E+04 0.  0.
        1    1    3    3  502    0 -0.38306491430E+03 -0.48371007982E+03 -0.98402739062E+02  0.62481778861E+03  0.50400001928E-02 0.  1.
       -1    1    3    3    0  502  0.38306491430E+03  0.48371007982E+03  0.80707774451E+03  0.10159176421E+04  0.50400001928E-02 0. -1.
</event>
<event>
 5   0  0.2915546E-05  0.2100686E+04  0.7818609E-02  0.8560941E-01
       -1   -1    0    0    0  501  0.00000000000E+00  0.00000000000E+00  0.95796713731E+03  0.95796713732E+03  0.50400001928E-02 0.  1.
        1   -1    0    0  501    0  0.00000000000E+00  0.00000000000E+00 -0.11516260580E+04  0.11516260580E+04  0.50400001928E-02 0. -1.
    10030    2    1    2    0    0  0.00000000000E+00  0.00000000000E+00 -0.19365892069E+03  0.21095931953E+04  0.21006855243E+04 0.  0.
        2    1    3    3  502    0  0.57361607086E+03 -0.22276689358E+03 -0.95164947167E+03  0.11332683718E+04  0.25500000920E-02 0. -1.
       -2    1    3    3    0  502 -0.57361607086E+03  0.22276689358E+03  0.75799055098E+03  0.97632482351E+03  0.25500000920E-02 0.  1.
</event>
<event>
 5   0  0.6600166E-05  0.2171310E+04  0.7818609E-02  0.8530465E-01
        2   -1    0    0  501    0  0.00000000000E+00  0.00000000000E+00  0.18378055133E+04  0.18378055133E+04  0.25500000920E-02 0. -1.
       -2   -1    0    0    0  501  0.00000000000E+00  0.00000000000E+00 -0.64133360632E+03  0.64133360633E+03  0.25500000920E-02 0.  1.
    10030    2    1    2    0    0  0.00000000000E+00  0.00000000000E+00  0.11964719070E+04  0.24791391196E+04  0.21713096855E+04 0.  0.
        5    1    3    3  502    0  0.69049032926E+03  0.21987695892E+03  0.15212375416E+04  0.16850247832E+04  0.46999998093E+01 0. -1.
       -5    1    3    3    0  502 -0.69049032926E+03 -0.21987695892E+03 -0.32476563468E+03  0.79411433643E+03  0.46999998093E+01 0.  1.
</event>
<event>
 5   0  0.6978115E-05  0.2176771E+04  0.7818609E-02  0.8528159E-01
       -2   -1    0    0    0  501  0.00000000000E+00  0.00000000000E+00  0.86259573604E+03  0.86259573605E+03  0.25500000920E-02 0.  1.
        2   -1    0    0  501    0  0.00000000000E+00  0.00000000000E+00 -0.13732775290E+04  0.13732775290E+04  0.25500000920E-02 0. -1.
    10030    2    1    2    0    0  0.00000000000E+00  0.00000000000E+00 -0.51068179294E+03  0.22358732650E+04  0.21767713163E+04 0.  0.
        4    1    3    3  502    0  0.11885703945E+03 -0.25869385177E+03 -0.13343544167E+04  0.13643873450E+04  0.12699999809E+01 0. -1.
       -4    1    3    3    0  502 -0.11885703945E+03  0.25869385177E+03  0.82367262379E+03  0.87148592006E+03  0.12699999809E+01 0.  1.
</event>
<event>
 5   0  0.2915546E-05  0.1746091E+04  0.7818609E-02  0.8735505E-01
       -1   -1    0    0    0  501  0.00000000000E+00  0.00000000000E+00  0.76984058075E+03  0.76984058077E+03  0.50400001928E-02 0. -1.
        1   -1    0    0  501    0  0.00000000000E+00  0.00000000000E+00 -0.99008603194E+03  0.99008603196E+03  0.50400001928E-02 0.  1.
    10030    2    1    2    0    0  0.00000000000E+00  0.00000000000E+00 -0.22024545119E+03  0.17599266127E+04  0.17460909551E+04 0.  0.
        2    1    3    3  502    0 -0.43312442361E+03 -0.62403955856E+03 -0.54386533381E+03  0.93424388588E+03  0.25500000920E-02 0.  1.
       -2    1    3    3    0  502  0.43312442361E+03  0.62403955856E+03  0.32361988262E+03  0.82568272684E+03  0.25500000920E-02 0. -1.
</event>
<event>
 5   0  0.2943244E-05  0.2191389E+04  0.7818609E-02  0.8522021E-01
        1   -1    0    0  501    0  0.00000000000E+00  0.00000000000E+00  0.11178181125E+04  0.11178181125E+04  0.50400001928E-02 0. -1.
       -1   -1    0    0    0  501  0.00000000000E+00  0.00000000000E+00 -0.10740087891E+04  0.10740087891E+04  0.50400001928E-02 0.  1.
    10030    2    1    2    0    0  0.00000000000E+00  0.00000000000E+00  0.43809323371E+02  0.21918269017E+04  0.21913890367E+04 0.  0.
        3    1    3    3  502    0 -0.45792499974E+03  0.90521629799E+03 -0.39222470440E+03  0.10876360055E+04  0.10100000352E+00 0.  1.
       -3    1    3    3    0  502  0.45792499974E+03 -0.90521629799E+03  0.43603402778E+03  0.11041908961E+04  0.10100000352E+00 0. -1.
</event>
<event>
 5   0  0.2915546E-05  0.2339981E+04  0.7818609E-02  0.8462322E-01
       -1   -1    0    0    0  501  0.00000000000E+00  0.00000000000E+00  0.12096399947E+04  0.12096399947E+04  0.50400001928E-02 0. -1.
        1   -1    0    0  501    0  0.00000000000E+00  0.00000000000E+00 -0.11316405029E+04  0.11316405029E+04  0.50400001928E-02 0.  1.
    10030    2    1    2    0    0  0.00000000000E+00  0.00000000000E+00  0.77999491864E+02  0.23412804976E+04  0.23399808648E+04 0.  0.
        2    1    3    3  502    0 -0.18864629722E+03 -0.11455379608E+04  0.18410776386E+03  0.11754745058E+04  0.25500000920E-02 0. -1.
       -2    1    3    3    0  502  0.18864629722E+03  0.11455379608E+04 -0.10610827200E+03  0.11658059918E+04  0.25500000920E-02 0.  1.
</event>
<event>
 5   0  0.6714629E-05  0.2388483E+04  0.7818609E-02  0.8443828E-01
       -2   -1    0    0    0  501  0.00000000000E+00  0.00000000000E+00  0.59021559899E+03  0.59021559899E+03  0.25500000920E-02 0. -1.
        2   -1    0    0  501    0  0.00000000000E+00  0.00000000000E+00 -0.24164265851E+04  0.24164265851E+04  0.25500000920E-02 0.  1.
    10030    2    1    2    0    0  0.00000000000E+00  0.00000000000E+00 -0.18262109862E+04  0.30066421841E+04  0.23884829197E+04 0.  0.
        3    1    3    3  502    0  0.15935249728E+03  0.11805359044E+04 -0.80663073926E+03  0.14386491580E+04  0.10100000352E+00 0. -1.
       -3    1    3    3    0  502 -0.15935249728E+03 -0.11805359044E+04 -0.10195802469E+04  0.15679930262E+04  0.10100000352E+00 0.  1.
</event>
<event>
 5   0  0.2847158E-05  0.2387952E+04  0.7818609E-02  0.8444028E-01
       -1   -1    0    0    0  501  0.00000000000E+00  0.00000000000E+00  0.10694313480E+04  0.10694313480E+04  0.50400001928E-02 0.  1.
        1   -1    0    0  501    0  0.00000000000E+00  0.00000000000E+00 -0.13330252970E+04  0.13330252971E+04  0.50400001928E-02 0. -1.
    10030    2    1    2    0    0  0.00000000000E+00  0.00000000000E+00 -0.26359394904E+03  0.24024566451E+04  0.23879522946E+04 0.  0.
        5    1    3    3  502    0  0.88991076646E+03  0.53071925760E+03  0.46506258550E+03  0.11357417845E+04  0.46999998093E+01 0.  1.
       -5    1    3    3    0  502 -0.88991076646E+03 -0.53071925760E+03 -0.72865653454E+03  0.12667148606E+04  0.46999998093E+01 0. -1.
</event>
<event>
 5   0  0.2901816E-05  0.2422237E+04  0.7818609E-02  0.8431225E-01
       -1   -1    0    0    0  501  0.00000000000E+00  0.00000000000E+00  0.78058397729E+03  0.78058397730E+03  0.50400001928E-02 0. -1.
        1   -1    0    0  501    0  0.00000000000E+00  0.00000000000E+00 -0.18791168607E+04  0.18791168608E+04  0.50400001928E-02 0.  1.
    10030    2    1    2    0    0  0.00000000000E+00  0.00000000000E+00 -0.10985328835E+04  0.26597008381E+04  0.24222374062E+04 0.  0.
        4    1    3    3  502    0  0.55389209923E+03  0.93028194213E+03  0.46700402266E+02  0.10836989849E+04  0.12699999809E+01 0. -1.
       -4    1    3    3    0  502 -0.55389209923E+03 -0.93028194213E+03 -0.11452332857E+04  0.15760018531E+04  0.12699999809E+01 0.  1.
</event>
<event>
 5   0  0.2943244E-05  0.2416286E+04  0.7818609E-02  0.8433432E-01
       -1   -1    0    0    0  501  0.00000000000E+00  0.00000000000E+00  0.10515710275E+04  0.10515710275E+04  0.50400001928E-02 0.  1.
        1   -1    0    0  501    0  0.00000000000E+00  0.00000000000E+00 -0.13880271066E+04  0.13880271066E+04  0.50400001928E-02 0. -1.
    10030    2    1    2    0    0  0.00000000000E+00  0.00000000000E+00 -0.33645607912E+03  0.24395981342E+04  0.24162856543E+04 0.  0.
        3    1    3    3  502    0  0.10635081096E+04  0.14466668055E+03 -0.72822434212E+03  0.12970307052E+04  0.10100000352E+00 0. -1.
       -3    1    3    3    0  502 -0.10635081096E+04 -0.14466668055E+03  0.39176826301E+03  0.11425674290E+04  0.10100000352E+00 0.  1.
</event>
<event>
 5   0  0.6337926E-05  0.2388282E+04  0.7818609E-02  0.8443904E-01
        2   -1    0    0  501    0  0.00000000000E+00  0.00000000000E+00  0.10627437724E+04  0.10627437724E+04  0.25500000920E-02 0. -1.
       -2   -1    0    0    0  501  0.00000000000E+00  0.00000000000E+00 -0.13417840303E+04  0.13417840303E+04  0.25500000920E-02 0.  1.
    10030    2    1    2    0    0  0.00000000000E+00  0.00000000000E+00 -0.27904025786E+03  0.24045278027E+04  0.23882819114E+04 0.  0.
        1    1    3    3  502    0  0.39472274556E+03  0.10555934405E+04  0.25799351463E+03  0.11561333016E+04  0.50400001928E-02 0. -1.
       -1    1    3    3    0  502 -0.39472274556E+03 -0.10555934405E+04 -0.53703377249E+03  0.12483945011E+04  0.50400001928E-02 0.  1.
</event>
<event>
 5   0  0.2943123E-05  0.2077135E+04  0.7818609E-02  0.8571383E-01
        1   -1    0    0  501    0  0.00000000000E+00  0.00000000000E+00  0.83396743242E+03  0.83396743244E+03  0.50400001928E-02 0.  1.
       -1   -1    0    0    0  501  0.00000000000E+00  0.00000000000E+00 -0.12933625263E+04  0.12933625263E+04  0.50400001928E-02 0. -1.
    10030    2    1    2    0    0  0.00000000000E+00  0.00000000000E+00 -0.45939509384E+03  0.21273299587E+04  0.20771347816E+04 0.  0.
        1    1    3    3  502    0  0.46526129643E+03 -0.48667039276E+03  0.58017467631E+03  0.88877376210E+03  0.50400001928E-02 0.  1.
       -1    1    3    3    0  502 -0.46526129643E+03  0.48667039276E+03 -0.10395697701E+04  0.12385561966E+04  0.50400001928E-02 0. -1.
</event>
<event>
 5   0  0.6714629E-05  0.2265601E+04  0.7818609E-02  0.8491609E-01
       -2   -1    0    0    0  501  0.00000000000E+00  0.00000000000E+00  0.10985893963E+04  0.10985893963E+04  0.25500000920E-02 0. -1.
        2   -1    0    0  501    0  0.00000000000E+00  0.00000000000E+00 -0.11680771791E+04  0.11680771791E+04  0.25500000920E-02 0.  1.
    10030    2    1    2    0    0  0.00000000000E+00  0.00000000000E+00 -0.69487782855E+02  0.22666665754E+04  0.22656012032E+04 0.  0.
        3    1    3    3  502    0  0.51164885830E+03 -0.60424778530E+03  0.77578350931E+03  0.11084854549E+04  0.10100000352E+00 0. -1.
       -3    1    3    3    0  502 -0.51164885830E+03  0.60424778530E+03 -0.84527129216E+03  0.11581811205E+04  0.10100000352E+00 0.  1.
</event>
<event>
 5   0  0.6714629E-05  0.1685866E+04  0.7818609E-02  0.8769467E-01
       -2   -1    0    0    0  501  0.00000000000E+00  0.00000000000E+00  0.84174520067E+03  0.84174520068E+03  0.25500000920E-02 0. -1.
        2   -1    0    0  501    0  0.00000000000E+00  0.00000000000E+00 -0.84412276710E+03  0.84412276710E+03  0.25500000920E-02 0.  1.
    10030    2    1    2    0    0  0.00000000000E+00  0.00000000000E+00 -0.23775664282E+01  0.16858679678E+04  0.16858662912E+04 0.  0.
        3    1    3    3  502    0 -0.42946587161E+03  0.71290598827E+03 -0.13483170416E+03  0.84312245946E+03  0.10100000352E+00 0.  1.
       -3    1    3    3    0  502  0.42946587161E+03 -0.71290598827E+03  0.13245413773E+03  0.84274550832E+03  0.10100000352E+00 0. -1.
</event>
<event>
 5   0  0.6978115E-05  0.2432739E+04  0.7818609E-02  0.8427347E-01
       -2   -1    0    0    0  501  0.00000000000E+00  0.00000000000E+00  0.79659314856E+03  0.79659314856E+03  0.25500000920E-02 0.  1.
        2   -1    0    0  501    0  0.00000000000E+00  0.00000000000E+00 -0.18573533409E+04  0.18573533409E+04  0.25500000920E-02 0. -1.
    10030    2    1    2    0    0  0.00000000000E+00  0.00000000000E+00 -0.10607601923E+04  0.26539464895E+04  0.24327391523E+04 0.  0.
        4    1    3    3  502    0  0.11322842007E+04  0.42300625935E+03 -0.67896902137E+03  0.13863629941E+04  0.12699999809E+01 0. -1.
       -4    1    3    3    0  502 -0.11322842007E+04 -0.42300625935E+03 -0.38179117098E+03  0.12675834954E+04  0.12699999809E+01 0.  1.
</event>
<event>
 5   0  0.2943244E-05  0.2336531E+04  0.7818609E-02  0.8463655E-01
        1   -1    0    0  501    0  0.00000000000E+00  0.00000000000E+00  0.81203402472E+03  0.81203402473E+03  0.50400001928E-02 0.  1.
       -1   -1    0    0    0  501  0.00000000000E+00  0.00000000000E+00 -0.16807715994E+04  0.16807715994E+04  0.50400001928E-02 0. -1.
    10030    2    1    2    0    0  0.00000000000E+00  0.00000000000E+00 -0.86873757468E+03  0.24928056241E+04  0.23365305275E+04 0.  0.
        3    1    3    3  502    0  0.39003734580E+03  0.55955726101E+03 -0.14462840710E+04  0.15990531835E+04  0.10100000352E+00 0. -1.
       -3    1    3    3    0  502 -0.39003734580E+03 -0.55955726101E+03  0.57754649634E+03  0.89375244061E+03  0.10100000352E+00 0.  1.
</event>
<event>
 5   0  0.6978115E-05  0.2438211E+04  0.7818609E-02  0.8425335E-01
        2   -1    0    0  501    0  0.00000000000E+00  0.00000000000E+00  0.23380542512E+04  0.23380542512E+04  0.25500000920E-02 0. -1.
       -2   -1    0    0    0  501  0.00000000000E+00  0.00000000000E+00 -0.63566448453E+03  0.63566448454E+03  0.25500000920E-02 0.  1.
    10030    2    1    2    0    0  0.00000000000E+00  0.00000000000E+00  0.17023897666E+04  0.29737187357E+04  0.24382108608E+04 0.  0.
        4    1    3    3  502    0 -0.26430719156E+03  0.10393020662E+04  0.14400908871E+03  0.10820107702E+04  0.12699999809E+01 0.  1.
       -4    1    3    3    0  502  0.26430719156E+03 -0.10393020662E+04  0.15583806779E+04  0.18917079655E+04  0.12699999809E+01 0. -1.
</event>
<event>
 5   0  0.2847158E-05  0.2430758E+04  0.7818609E-02  0.8428077E-01
       -1   -1    0    0    0  501  0.00000000000E+00  0.00000000000E+00  0.89674773224E+03  0.89674773226E+03  0.50400001928E-02 0. -1.
        1   -1    0    0  501    0  0.00000000000E+00  0.00000000000E+00 -0.16472257507E+04  0.16472257507E+04  0.50400001928E-02 0.  1.
    10030    2    1    2    0    0  0.00000000000E+00  0.00000000000E+00 -0.75047801841E+03  0.25439734829E+04  0.24307578706E+04 0.  0.
        5    1    3    3  502    0  0.83987797865E+03  0.76711284394E+02  0.54064631637E+03  0.10017984675E+04  0.46999998093E+01 0. -1.
       -5    1    3    3    0  502 -0.83987797865E+03 -0.76711284394E+02 -0.12911243348E+04  0.15421750154E+04  0.46999998093E+01 0.  1.
</event>
<event>
 5   0  0.6337926E-05  0.2431496E+04  0.7818609E-02  0.8427805E-01
        2   -1    0    0  501    0  0.00000000000E+00  0.00000000000E+00  0.19332599669E+04  0.19332599669E+04  0.25500000920E-02 0.  1.
       -2   -1    0    0    0  501  0.00000000000E+00  0.00000000000E+00 -0.76453393431E+03  0.76453393432E+03  0.25500000920E-02 0. -1.
    10030    2    1    2    0    0  0.00000000000E+00  0.00000000000E+00  0.11687260326E+04  0.26977939012E+04  0.24314957113E+04 0.  0.
        1    1    3    3  502    0 -0.10148371290E+04  0.54554929073E+03  0.10148289066E+04  0.15353814304E+04  0.50400001928E-02 0.  1.
       -1    1    3    3    0  502  0.10148371290E+04 -0.54554929073E+03  0.15389712603E+03  0.11624124709E+04  0.50400001928E-02 0. -1.
</event>
<event>
 5   0  0.2915546E-05  0.2416629E+04  0.7818609E-02  0.8433304E-01
        1   -1    0    0  501    0  0.00000000000E+00  0.00000000000E+00  0.55371001234E+03  0.55371001237E+03  0.50400001928E-02 0. -1.
       -1   -1    0    0    0  501  0.00000000000E+00  0.00000000000E+00 -0.26368017725E+04  0.26368017725E+04  0.50400001928E-02 0.  1.
    10030    2    1    2    0    0  0.00000000000E+00  0.00000000000E+00 -0.20830917601E+04  0.31905117848E+04  0.24166286782E+04 0.  0.
        2    1    3    3  502    0  0.48532386213E+03 -0.65813561934E+03 -0.22159903322E+04  0.23620531105E+04  0.25500000920E-02 0.  1.
       -2    1    3    3    0  502 -0.48532386213E+03  0.65813561934E+03  0.13289857205E+03  0.82845867432E+03  0.25500000920E-02 0. -1.
</event>
<event>
 5   0  0.6600166E-05  0.2368532E+04  0.7818609E-02  0.8451380E-01
        2   -1    0    0  501    0  0.00000000000E+00  0.00000000000E+00  0.17230775937E+04  0.17230775937E+04  0.25500000920E-02 0. -1.
       -2   -1    0    0    0  501  0.00000000000E+00  0.00000000000E+00 -0.81394218985E+03  0.81394218985E+03  0.25500000920E-02 0.  1.
    10030    2    1    2    0    0  0.00000000000E+00  0.00000000000E+00  0.90913540382E+03  0.25370197835E+04  0.23685316547E+04 0.  0.
        5    1    3    3  502    0 -0.78256561651E+03  0.64384939575E+03 -0.20181457046E+03  0.10332967625E+04  0.46999998093E+01 0.  1.
       -5    1    3    3    0  502  0.78256561651E+03 -0.64384939575E+03  0.11109499743E+04  0.15037230210E+04  0.46999998093E+01 0. -1.
</event>
<event>
 5   0  0.2943244E-05  0.2514104E+04  0.7818609E-02  0.8397978E-01
        1   -1    0    0  501    0  0.00000000000E+00  0.00000000000E+00  0.11910185958E+04  0.11910185958E+04  0.50400001928E-02 0. -1.
       -1   -1    0    0    0  501  0.00000000000E+00  0.00000000000E+00 -0.13267469070E+04  0.13267469070E+04  0.50400001928E-02 0.  1.
    10030    2    1    2    0    0  0.00000000000E+00  0.00000000000E+00 -0.13572831120E+03  0.25177655029E+04  0.25141044038E+04 0.  0.
        3    1    3    3  502    0  0.28471225310E+03 -0.93842452367E+03  0.71971515632E+03  0.12164257356E+04  0.10100000352E+00 0. -1.
       -3    1    3    3    0  502 -0.28471225310E+03  0.93842452367E+03 -0.85544346753E+03  0.13013397673E+04  0.10100000352E+00 0.  1.
</event>
<event>
 5   0  0.2943244E-05  0.2394795E+04  0.7818609E-02  0.8441455E-01
        1   -1    0    0  501    0  0.00000000000E+00  0.00000000000E+00  0.11050617124E+04  0.11050617124E+04  0.50400001928E-02 0. -1.
       -1   -1    0    0    0  501  0.00000000000E+00  0.00000000000E+00 -0.12974484076E+04  0.12974484076E+04  0.50400001928E-02 0.  1.
    10030    2    1    2    0    0  0.00000000000E+00  0.00000000000E+00 -0.19238669513E+03  0.24025101200E+04  0.23947948213E+04 0.  0.
        3    1    3    3  502    0 -0.11697798878E+04 -0.94765062240E+02  0.14204835174E+03  0.11821772910E+04  0.10100000352E+00 0.  1.
       -3    1    3    3    0  502  0.11697798878E+04  0.94765062240E+02 -0.33443504688E+03  0.12203328290E+04  0.10100000352E+00 0. -1.
</event>
<event>
 5   0  0.2339125E-05  0.2397117E+04  0.7818609E-02  0.8440584E-01
       -3   -1    0    0    0  501  0.00000000000E+00  0.00000000000E+00  0.16175696585E+04  0.16175696616E+04  0.10100000352E+00 0. -1.
        3   -1    0    0  501    0  0.00000000000E+00  0.00000000000E+00 -0.88808661911E+03  0.88808662485E+03  0.10100000352E+00 0.  1.
    10030    2    1    2    0    0  0.00000000000E+00  0.00000000000E+00  0.72948303939E+03  0.25056562865E+04  0.23971165848E+04 0.  0.
        4    1    3    3  502    0  0.83354048867E+03  0.73701678475E+03  0.83051505618E+03  0.13884308981E+04  0.12699999809E+01 0. -1.
       -4    1    3    3    0  502 -0.83354048867E+03 -0.73701678475E+03 -0.10103201680E+03  0.11172253884E+04  0.12699999809E+01 0.  1.
</event>
<event>
 5   0  0.2943123E-05  0.2410187E+04  0.7818609E-02  0.8435700E-01
        1   -1    0    0  501    0  0.00000000000E+00  0.00000000000E+00  0.11400828490E+04  0.11400828490E+04  0.50400001928E-02 0. -1.
       -1   -1    0    0    0  501  0.00000000000E+00  0.00000000000E+00 -0.12738113235E+04  0.12738113235E+04  0.50400001928E-02 0.  1.
    10030    2    1    2    0    0  0.00000000000E+00  0.00000000000E+00 -0.13372847449E+03  0.24138941725E+04  0.24101870821E+04 0.  0.
        1    1    3    3  502    0  0.34087214527E+03  0.15116815224E+03  0.10808498301E+04  0.11433643272E+04  0.50400001928E-02 0. -1.
       -1    1    3    3    0  502 -0.34087214527E+03 -0.15116815224E+03 -0.12145783045E+04  0.12705298452E+04  0.50400001928E-02 0.  1.
</event>
<event>
 5   0  0.2915546E-05  0.2308128E+04  0.7818609E-02  0.8474723E-01
       -1   -1    0    0    0  501  0.00000000000E+00  0.00000000000E+00  0.10525489096E+04  0.10525489096E+04  0.50400001928E-02 0. -1.
        1   -1    0    0  501    0  0.00000000000E+00  0.00000000000E+00 -0.12653699098E+04  0.12653699099E+04  0.50400001928E-02 0.  1.
    10030    2    1    2    0    0  0.00000000000E+00  0.00000000000E+00 -0.21282100029E+03  0.23179188194E+04  0.23081280024E+04 0.  0.
        2    1    3    3  502    0 -0.73142472899E+03  0.63274041512E+03  0.52595986761E+03  0.11008979741E+04  0.25500000920E-02 0. -1.
       -2    1    3    3    0  502  0.73142472899E+03 -0.63274041512E+03 -0.73878086790E+03  0.12170208453E+04  0.25500000920E-02 0.  1.
</event>
<event>
 5   0  0.2847158E-05  0.2415367E+04  0.7818609E-02  0.8433773E-01
       -1   -1    0    0    0  501  0.00000000000E+00  0.00000000000E+00  0.10416789744E+04  0.10416789744E+04  0.50400001928E-02 0. -1.
        1   -1    0    0  501    0  0.00000000000E+00  0.00000000000E+00 -0.14001427272E+04  0.14001427272E+04  0.50400001928E-02 0.  1.
    10030    2    1    2    0    0  0.00000000000E+00  0.00000000000E+00 -0.35846375283E+03  0.24418217016E+04  0.24153668377E+04 0.  0.
        5    1    3    3  502    0  0.11354114558E+04 -0.13093082955E+03  0.21513700569E+03  0.11630168001E+04  0.46999998093E+01 0. -1.
       -5    1    3    3    0  502 -0.11354114558E+04  0.13093082955E+03 -0.57360075852E+03  0.12788049016E+04  0.46999998093E+01 0.  1.
</event>
<event>
 5   0  0.6600166E-05  0.2406148E+04  0.7818609E-02  0.8437205E-01
       -2   -1    0    0    0  501  0.00000000000E+00  0.00000000000E+00  0.10296970665E+04  0.10296970665E+04  0.25500000920E-02 0. -1.
        2   -1    0    0  501    0  0.00000000000E+00  0.00000000000E+00 -0.14056441351E+04  0.14056441351E+04  0.25500000920E-02 0.  1.
    10030    2    1    2    0    0  0.00000000000E+00  0.00000000000E+00 -0.37594706864E+03  0.24353412016E+04  0.24061484929E+04 0.  0.
        5    1    3    3  502    0  0.28505570267E+03 -0.52117520312E+03 -0.12468427891E+04  0.13811297465E+04  0.46999998093E+01 0.  1.
       -5    1    3    3    0  502 -0.28505570267E+03  0.52117520312E+03  0.87089572048E+03  0.10542114550E+04  0.46999998093E+01 0. -1.
</event>
<event>
 5   0  0.2847158E-05  0.2550533E+04  0.7818609E-02  0.8385201E-01
       -1   -1    0    0    0  501  0.00000000000E+00  0.00000000000E+00  0.58261271638E+03  0.58261271640E+03  0.50400001928E-02 0. -1.
        1   -1    0    0  501    0  0.00000000000E+00  0.00000000000E+00 -0.27913987574E+04  0.27913987574E+04  0.50400001928E-02 0.  1.
    10030    2    1    2    0    0  0.00000000000E+00  0.00000000000E+00 -0.22087860410E+04  0.33740114738E+04  0.25505328169E+04 0.  0.
        5    1    3    3  502    0  0.52019454182E+03  0.88416665782E+02  0.43142029026E+03  0.68159036449E+03  0.46999998093E+01 0. -1.
       -5    1    3    3    0  502 -0.52019454182E+03 -0.88416665782E+02 -0.26402063313E+04  0.26924211093E+04  0.46999998093E+01 0.  1.
</event>
<event>
 5   0  0.6337926E-05  0.2407016E+04  0.7818609E-02  0.8436881E-01
        2   -1    0    0  501    0  0.00000000000E+00  0.00000000000E+00  0.13610723745E+04  0.13610723745E+04  0.25500000920E-02 0. -1.
       -2   -1    0    0    0  501  0.00000000000E+00  0.00000000000E+00 -0.10641841855E+04  0.10641841855E+04  0.25500000920E-02 0.  1.
    10030    2    1    2    0    0  0.00000000000E+00  0.00000000000E+00  0.29688818897E+03  0.24252565600E+04  0.24070161580E+04 0.  0.
        1    1    3    3  502    0 -0.30573705425E+03  0.63162818151E+03 -0.83671908423E+03  0.10920293641E+04  0.50400001928E-02 0.  1.
       -1    1    3    3    0  502  0.30573705425E+03 -0.63162818151E+03  0.11336072732E+04  0.13332271959E+04  0.50400001928E-02 0. -1.
</event>
<event>
 5   0  0.2943123E-05  0.2385929E+04  0.7818609E-02  0.8444790E-01
        1   -1    0    0  501    0  0.00000000000E+00  0.00000000000E+00  0.13130519930E+04  0.13130519930E+04  0.50400001928E-02 0. -1.
       -1   -1    0    0    0  501  0.00000000000E+00  0.00000000000E+00 -0.10838601122E+04  0.10838601122E+04  0.50400001928E-02 0.  1.
    10030    2    1    2    0    0  0.00000000000E+00  0.00000000000E+00  0.22919188079E+03  0.23969121052E+04  0.23859293204E+04 0.  0.
        1    1    3    3  502    0 -0.61304117799E+02 -0.73381824499E+03  0.10574882561E+04  0.12886150796E+04  0.50400001928E-02 0. -1.
       -1    1    3    3    0  502  0.61304117799E+02  0.73381824499E+03 -0.82829637531E+03  0.11082970256E+04  0.50400001928E-02 0.  1.
</event>
<event>
 5   0  0.6978115E-05  0.2415360E+04  0.7818609E-02  0.8433775E-01
        2   -1    0    0  501    0  0.00000000000E+00  0.00000000000E+00  0.99911675098E+03  0.99911675098E+03  0.25500000920E-02 0.  1.
       -2   -1    0    0    0  501  0.00000000000E+00  0.00000000000E+00 -0.14597805224E+04  0.14597805224E+04  0.25500000920E-02 0. -1.
    10030    2    1    2    0    0  0.00000000000E+00  0.00000000000E+00 -0.46066377145E+03  0.24588972734E+04  0.24153601576E+04 0.  0.
        4    1    3    3  502    0  0.77271927849E+03  0.26604716336E+03 -0.11355235961E+04  0.13990323894E+04  0.12699999809E+01 0. -1.
       -4    1    3    3    0  502 -0.77271927849E+03 -0.26604716336E+03  0.67485982464E+03  0.10598648840E+04  0.12699999809E+01 0.  1.
</event>
<event>
 5   0  0.6714629E-05  0.2195339E+04  0.7818609E-02  0.8520371E-01
       -2   -1    0    0    0  501  0.00000000000E+00  0.00000000000E+00  0.62632512827E+03  0.62632512827E+03  0.25500000920E-02 0.  1.
        2   -1    0    0  501    0  0.00000000000E+00  0.00000000000E+00 -0.19237265971E+04  0.19237265971E+04  0.25500000920E-02 0. -1.
    10030    2    1    2    0    0  0.00000000000E+00  0.00000000000E+00 -0.12974014689E+04  0.25500517254E+04  0.21953389786E+04 0.  0.
        3    1    3    3  502    0  0.69100593389E+03  0.45757824937E+03 -0.14847213638E+04  0.17003718985E+04  0.10100000352E+00 0. -1.
       -3    1    3    3    0  502 -0.69100593389E+03 -0.45757824937E+03  0.18731989494E+03  0.84967982688E+03  0.10100000352E+00 0.  1.
</event>
<event>
 5   0  0.2943244E-05  0.2364944E+04  0.7818609E-02  0.8452746E-01
        1   -1    0    0  501    0  0.00000000000E+00  0.00000000000E+00  0.14874893656E+04  0.14874893656E+04  0.50400001928E-02 0.  1.
       -1   -1    0    0    0  501  0.00000000000E+00  0.00000000000E+00 -0.93999988205E+03  0.93999988207E+03  0.50400001928E-02 0. -1.
    10030    2    1    2    0    0  0.00000000000E+00  0.00000000000E+00  0.54748948352E+03  0.24274892476E+04  0.23649438287E+04 0.  0.
        3    1    3    3  502    0  0.28684946137E+03  0.10700736106E+04 -0.15058854379E+03  0.11180416206E+04  0.10100000352E+00 0.  1.
       -3    1    3    3    0  502 -0.28684946137E+03 -0.10700736106E+04  0.69807802731E+03  0.13094476271E+04  0.10100000352E+00 0. -1.
</event>
<event>
 5   0  0.2847158E-05  0.2347512E+04  0.7818609E-02  0.8459420E-01
        1   -1    0    0  501    0  0.00000000000E+00  0.00000000000E+00  0.14791688002E+04  0.14791688002E+04  0.50400001928E-02 0.  1.
       -1   -1    0    0    0  501  0.00000000000E+00  0.00000000000E+00 -0.93140387543E+03  0.93140387544E+03  0.50400001928E-02 0. -1.
    10030    2    1    2    0    0  0.00000000000E+00  0.00000000000E+00  0.54776492480E+03  0.24105726757E+04  0.23475123454E+04 0.  0.
        5    1    3    3  502    0 -0.76136889068E+03  0.48230996531E+03 -0.49823081106E+03  0.10298356769E+04  0.46999998093E+01 0. -1.
       -5    1    3    3    0  502  0.76136889068E+03 -0.48230996531E+03  0.10459957359E+04  0.13807369988E+04  0.46999998093E+01 0.  1.
</event>
<event>
 5   0  0.2339125E-05  0.2399210E+04  0.7818609E-02  0.8439800E-01
        3   -1    0    0  501    0  0.00000000000E+00  0.00000000000E+00  0.14014243323E+04  0.14014243360E+04  0.10100000352E+00 0.  1.
       -3   -1    0    0    0  501  0.00000000000E+00  0.00000000000E+00 -0.10268493316E+04  0.10268493366E+04  0.10100000352E+00 0. -1.
    10030    2    1    2    0    0  0.00000000000E+00  0.00000000000E+00  0.37457500070E+03  0.24282736726E+04  0.23992095777E+04 0.  0.
        3    1    3    3  502    0 -0.10682910244E+04 -0.40693088365E+03 -0.18072860436E+03  0.11573682627E+04  0.10100000352E+00 0. -1.
       -3    1    3    3    0  502  0.10682910244E+04  0.40693088365E+03  0.55530360506E+03  0.12709054099E+04  0.10100000352E+00 0.  1.
</event>
<event>
 5   0  0.2915546E-05  0.2426651E+04  0.7818609E-02  0.8429593E-01
        1   -1    0    0  501    0  0.00000000000E+00  0.00000000000E+00  0.27766610287E+04  0.27766610287E+04  0.50400001928E-02 0.  1.
       -1   -1    0    0    0  501  0.00000000000E+00  0.00000000000E+00 -0.53019019670E+03  0.53019019673E+03  0.50400001928E-02 0. -1.
    10030    2    1    2    0    0  0.00000000000E+00  0.00000000000E+00  0.22464708320E+04  0.33068512255E+04  0.24266507429E+04 0.  0.
        2    1    3    3  502    0  0.82733579902E+03  0.69748480861E+03  0.18711066769E+04  0.21614832359E+04  0.25500000920E-02 0.  1.
       -2    1    3    3    0  502 -0.82733579902E+03 -0.69748480861E+03  0.37536415510E+03  0.11453679896E+04  0.25500000920E-02 0. -1.
</event>
<event>
 5   0  0.6714629E-05  0.2406023E+04  0.7818609E-02  0.8437252E-01
       -2   -1    0    0    0  501  0.00000000000E+00  0.00000000000E+00  0.17304284048E+04  0.17304284048E+04  0.25500000920E-02 0.  1.
        2   -1    0    0  501    0  0.00000000000E+00  0.00000000000E+00 -0.83634567033E+03  0.83634567034E+03  0.25500000920E-02 0. -1.
    10030    2    1    2    0    0  0.00000000000E+00  0.00000000000E+00  0.89408273446E+03  0.25667740751E+04  0.24060226966E+04 0.  0.
        3    1    3    3  502    0 -0.27970404615E+03  0.43089616380E+02  0.16944112369E+04  0.17178825683E+04  0.10100000352E+00 0.  1.
       -3    1    3    3    0  502  0.27970404615E+03 -0.43089616380E+02 -0.80032850241E+03  0.84889150688E+03  0.10100000352E+00 0. -1.
</event>
<event>
 5   0  0.6703961E-05  0.2379640E+04  0.7818609E-02  0.8447166E-01
       -2   -1    0    0    0  501  0.00000000000E+00  0.00000000000E+00  0.16562105086E+04  0.16562105086E+04  0.25500000920E-02 0. -1.
        2   -1    0    0  501    0  0.00000000000E+00  0.00000000000E+00 -0.85476530018E+03  0.85476530018E+03  0.25500000920E-02 0.  1.
    10030    2    1    2    0    0  0.00000000000E+00  0.00000000000E+00  0.80144520844E+03  0.25109758088E+04  0.23796396976E+04 0.  0.
        2    1    3    3  502    0 -0.27455902935E+03  0.84124520301E+03  0.12399781933E+04  0.15233588127E+04  0.25500000920E-02 0. -1.
       -2    1    3    3    0  502  0.27455902935E+03 -0.84124520301E+03 -0.43853298490E+03  0.98761699613E+03  0.25500000920E-02 0.  1.
</event>
<event>
 5   0  0.6714629E-05  0.2410630E+04  0.7818609E-02  0.8435535E-01
       -2   -1    0    0    0  501  0.00000000000E+00  0.00000000000E+00  0.46151898483E+03  0.46151898484E+03  0.25500000920E-02 0. -1.
        2   -1    0    0  501    0  0.00000000000E+00  0.00000000000E+00 -0.31478307620E+04  0.31478307620E+04  0.25500000920E-02 0.  1.
    10030    2    1    2    0    0  0.00000000000E+00  0.00000000000E+00 -0.26863117771E+04  0.36093497468E+04  0.24106295092E+04 0.  0.
        3    1    3    3  502    0 -0.11730583523E+04  0.27177200101E+03 -0.14231962469E+04  0.18642460905E+04  0.10100000352E+00 0.  1.
       -3    1    3    3    0  502  0.11730583523E+04 -0.27177200101E+03 -0.12631155302E+04  0.17451036563E+04  0.10100000352E+00 0. -1.
</event>
<event>
 5   0  0.6703961E-05  0.2382271E+04  0.7818609E-02  0.8446171E-01
        2   -1    0    0  501    0  0.00000000000E+00  0.00000000000E+00  0.19701697053E+04  0.19701697053E+04  0.25500000920E-02 0. -1.
       -2   -1    0    0    0  501  0.00000000000E+00  0.00000000000E+00 -0.72014270698E+03  0.72014270699E+03  0.25500000920E-02 0.  1.
    10030    2    1    2    0    0  0.00000000000E+00  0.00000000000E+00  0.12500269983E+04  0.26903124123E+04  0.23822706351E+04 0.  0.
        2    1    3    3  502    0 -0.36597117803E+03  0.19236271970E+03 -0.63651023079E+03  0.75900170816E+03  0.25500000920E-02 0.  1.
       -2    1    3    3    0  502  0.36597117803E+03 -0.19236271970E+03  0.18865372291E+04  0.19313107041E+04  0.25500000920E-02 0. -1.
</event>
<event>
 5   0  0.6714629E-05  0.2471629E+04  0.7818609E-02  0.8413163E-01
        2   -1    0    0  501    0  0.00000000000E+00  0.00000000000E+00  0.16692095197E+04  0.16692095197E+04  0.25500000920E-02 0.  1.
       -2   -1    0    0    0  501  0.00000000000E+00  0.00000000000E+00 -0.91494683724E+03  0.91494683724E+03  0.25500000920E-02 0. -1.
    10030    2    1    2    0    0  0.00000000000E+00  0.00000000000E+00  0.75426268248E+03  0.25841563570E+04  0.24716293984E+04 0.  0.
        3    1    3    3  502    0  0.11657759533E+04  0.39241594849E+03  0.50178220197E+03  0.13284612295E+04  0.10100000352E+00 0.  1.
       -3    1    3    3    0  502 -0.11657759533E+04 -0.39241594849E+03  0.25248048050E+03  0.12556951275E+04  0.10100000352E+00 0. -1.
</event>
<event>
 5   0  0.6600166E-05  0.2596968E+04  0.7818609E-02  0.8369232E-01
        2   -1    0    0  501    0  0.00000000000E+00  0.00000000000E+00  0.17238277957E+04  0.17238277957E+04  0.25500000920E-02 0.  1.
       -2   -1    0    0    0  501  0.00000000000E+00  0.00000000000E+00 -0.97809135232E+03  0.97809135232E+03  0.25500000920E-02 0. -1.
    10030    2    1    2    0    0  0.00000000000E+00  0.00000000000E+00  0.74573644338E+03  0.27019191480E+04  0.25969682785E+04 0.  0.
        5    1    3    3  502    0 -0.36937838932E+03  0.87936846232E+03 -0.54382328134E+03  0.10979504262E+04  0.46999998093E+01 0. -1.
       -5    1    3    3    0  502  0.36937838932E+03 -0.87936846232E+03  0.12895597247E+04  0.16039687218E+04  0.46999998093E+01 0.  1.
</event>
<event>
 5   0  0.6978115E-05  0.2433779E+04  0.7818609E-02  0.8426965E-01
       -2   -1    0    0    0  501  0.00000000000E+00  0.00000000000E+00  0.88449940017E+03  0.88449940017E+03  0.25500000920E-02 0. -1.
        2   -1    0    0  501    0  0.00000000000E+00  0.00000000000E+00 -0.16741895512E+04  0.16741895512E+04  0.25500000920E-02 0.  1.
    10030    2    1    2    0    0  0.00000000000E+00  0.00000000000E+00 -0.78969015102E+03  0.25586889514E+04  0.24337786701E+04 0.  0.
        4    1    3    3  502    0  0.64464254511E+02 -0.25379655303E+03 -0.16442182026E+04  0.16649394707E+04  0.12699999809E+01 0.  1.
       -4    1    3    3    0  502 -0.64464254511E+02  0.25379655303E+03  0.85452805155E+03  0.89374948069E+03  0.12699999809E+01 0. -1.
</event>
<event>
 5   0  0.6978115E-05  0.2388172E+04  0.7818609E-02  0.8443945E-01
       -2   -1    0    0    0  501  0.00000000000E+00  0.00000000000E+00  0.10128145871E+04  0.10128145871E+04  0.25500000920E-02 0.  1.
        2   -1    0    0  501    0  0.00000000000E+00  0.00000000000E+00 -0.14078014354E+04  0.14078014354E+04  0.25500000920E-02 0. -1.
    10030    2    1    2    0    0  0.00000000000E+00  0.00000000000E+00 -0.39498684825E+03  0.24206160225E+04  0.23881723803E+04 0.  0.
        4    1    3    3  502    0  0.68254493746E+03 -0.95315468979E+03  0.32455877339E+02  0.11727857653E+04  0.12699999809E+01 0.  1.
       -4    1    3    3    0  502 -0.68254493746E+03  0.95315468979E+03 -0.42744272559E+03  0.12478302572E+04  0.12699999809E+01 0. -1.
</event>
<event>
 5   0  0.2943123E-05  0.2361371E+04  0.7818609E-02  0.8454109E-01
       -1   -1    0    0    0  501  0.00000000000E+00  0.00000000000E+00  0.19998141375E+04  0.19998141375E+04  0.50400001928E-02 0.  1.
        1   -1    0    0  501    0  0.00000000000E+00  0.00000000000E+00 -0.69707419534E+03  0.69707419536E+03  0.50400001928E-02 0. -1.
    10030    2    1    2    0    0  0.00000000000E+00  0.00000000000E+00  0.13027399421E+04  0.26968883329E+04  0.23613714920E+04 0.  0.
        1    1    3    3  502    0  0.73104967827E+03  0.46452263948E+03  0.15677496619E+04  0.17911041056E+04  0.50400001928E-02 0.  1.
       -1    1    3    3    0  502 -0.73104967827E+03 -0.46452263948E+03 -0.26500971979E+03  0.90578422723E+03  0.50400001928E-02 0. -1.
</event>
<event>
 5   0  0.6703961E-05  0.2370744E+04  0.7818609E-02  0.8450539E-01
        2   -1    0    0  501    0  0.00000000000E+00  0.00000000000E+00  0.17055672080E+04  0.17055672080E+04  0.25500000920E-02 0.  1.
       -2   -1    0    0    0  501  0.00000000000E+00  0.00000000000E+00 -0.82383521401E+03  0.82383521401E+03  0.25500000920E-02 0. -1.
    10030    2    1    2    0    0  0.00000000000E+00  0.00000000000E+00  0.88173199397E+03  0.25294024220E+04  0.23707436182E+04 0.  0.
        2    1    3    3  502    0 -0.49774664627E+03 -0.72233985162E+03  0.12914522562E+04  0.15612096321E+04  0.25500000920E-02 0.  1.
       -2    1    3    3    0  502  0.49774664627E+03  0.72233985162E+03 -0.40972026228E+03  0.96819278992E+03  0.25500000920E-02 0. -1.
</event>
<event>
 5   0  0.2847158E-05  0.2462601E+04  0.7818609E-02  0.8416432E-01
        1   -1    0    0  501    0  0.00000000000E+00  0.00000000000E+00  0.98029680833E+03  0.98029680834E+03  0.50400001928E-02 0.  1.
       -1   -1    0    0    0  501  0.00000000000E+00  0.00000000000E+00 -0.15465734947E+04  0.15465734947E+04  0.50400001928E-02 0. -1.
    10030    2    1    2    0    0  0.00000000000E+00  0.00000000000E+00 -0.56627668633E+03  0.25268703030E+04  0.24626011132E+04 0.  0.
        5    1    3    3  502    0 -0.11170542255E+04 -0.23711451527E+03 -0.75564011958E+03  0.13693237442E+04  0.46999998093E+01 0. -1.
       -5    1    3    3    0  502  0.11170542255E+04  0.23711451527E+03  0.18936343325E+03  0.11575465588E+04  0.46999998093E+01 0.  1.
</event>
<event>
 5   0  0.2901816E-05  0.1981478E+04  0.7818609E-02  0.8615330E-01
       -1   -1    0    0    0  501  0.00000000000E+00  0.00000000000E+00  0.55352512378E+03  0.55352512381E+03  0.50400001928E-02 0. -1.
        1   -1    0    0  501    0  0.00000000000E+00  0.00000000000E+00 -0.17732956511E+04  0.17732956511E+04  0.50400001928E-02 0.  1.
    10030    2    1    2    0    0  0.00000000000E+00  0.00000000000E+00 -0.12197705273E+04  0.23268207749E+04  0.19814779280E+04 0.  0.
        4    1    3    3  502    0 -0.85179077112E+03  0.28195848002E+03 -0.11032444817E+04  0.14220401195E+04  0.12699999809E+01 0.  1.
       -4    1    3    3    0  502  0.85179077112E+03 -0.28195848002E+03 -0.11652604566E+03  0.90478065543E+03  0.12699999809E+01 0. -1.
</event>
<event>
 5   0  0.2847158E-05  0.2401847E+04  0.7818609E-02  0.8438812E-01
        1   -1    0    0  501    0  0.00000000000E+00  0.00000000000E+00  0.18170771599E+04  0.18170771599E+04  0.50400001928E-02 0. -1.
       -1   -1    0    0    0  501  0.00000000000E+00  0.00000000000E+00 -0.79370194081E+03  0.79370194083E+03  0.50400001928E-02 0.  1.
    10030    2    1    2    0    0  0.00000000000E+00  0.00000000000E+00  0.10233752191E+04  0.26107791007E+04  0.24018473461E+04 0.  0.
        5    1    3    3  502    0  0.43016930705E+03 -0.10920317450E+04  0.78799774942E+03  0.14136978135E+04  0.46999998093E+01 0. -1.
       -5    1    3    3    0  502 -0.43016930705E+03  0.10920317450E+04  0.23537746966E+03  0.11970812872E+04  0.46999998093E+01 0.  1.
</event>
<event>
 5   0  0.6337926E-05  0.2725015E+04  0.7818609E-02  0.8326934E-01
        2   -1    0    0  501    0  0.00000000000E+00  0.00000000000E+00  0.12224962482E+04  0.12224962482E+04  0.25500000920E-02 0.  1.
       -2   -1    0    0    0  501  0.00000000000E+00  0.00000000000E+00 -0.15185539037E+04  0.15185539037E+04  0.25500000920E-02 0. -1.
    10030    2    1    2    0    0  0.00000000000E+00  0.00000000000E+00 -0.29605765550E+03  0.27410501519E+04  0.27250148256E+04 0.  0.
        1    1    3    3  502    0 -0.14093808481E+02  0.10926609947E+04 -0.96664811002E+03  0.14589431975E+04  0.50400001928E-02 0. -1.
       -1    1    3    3    0  502  0.14093808481E+02 -0.10926609947E+04  0.67059045451E+03  0.12821069544E+04  0.50400001928E-02 0.  1.
</event>
<event>
 5   0  0.6714629E-05  0.2424194E+04  0.7818609E-02  0.8430501E-01
       -2   -1    0    0    0  501  0.00000000000E+00  0.00000000000E+00  0.73783301249E+03  0.73783301249E+03  0.25500000920E-02 0.  1.
        2   -1    0    0  501    0  0.00000000000E+00  0.00000000000E+00 -0.19912079567E+04  0.19912079567E+04  0.25500000920E-02 0. -1.
    10030    2    1    2    0    0  0.00000000000E+00  0.00000000000E+00 -0.12533749442E+04  0.27290409692E+04  0.24241938579E+04 0.  0.
        3    1    3    3  502    0  0.64433751769E+03 -0.34431061059E+03 -0.17155045656E+04  0.18645848219E+04  0.10100000352E+00 0. -1.
       -3    1    3    3    0  502 -0.64433751769E+03  0.34431061059E+03  0.46212962145E+03  0.86445614724E+03  0.10100000352E+00 0.  1.
</event>
<event>
 5   0  0.6600166E-05  0.2415721E+04  0.7818609E-02  0.8433641E-01
       -2   -1    0    0    0  501  0.00000000000E+00  0.00000000000E+00  0.62510982346E+03  0.62510982347E+03  0.25500000920E-02 0.  1.
        2   -1    0    0  501    0  0.00000000000E+00  0.00000000000E+00 -0.23338722376E+04  0.23338722376E+04  0.25500000920E-02 0. -1.
    10030    2    1    2    0    0  0.00000000000E+00  0.00000000000E+00 -0.17087624141E+04  0.29589820610E+04  0.24157205653E+04 0.  0.
        5    1    3    3  502    0 -0.78095083434E+03  0.73441335141E+03 -0.15359916320E+04  0.18731095964E+04  0.46999998093E+01 0. -1.
       -5    1    3    3    0  502  0.78095083434E+03 -0.73441335141E+03 -0.17277078210E+03  0.10858724647E+04  0.46999998093E+01 0.  1.
</event>
<event>
 5   0  0.2847158E-05  0.2494226E+04  0.7818609E-02  0.8405046E-01
        1   -1    0    0  501    0  0.00000000000E+00  0.00000000000E+00  0.21867406459E+04  0.21867406459E+04  0.50400001928E-02 0.  1.
       -1   -1    0    0    0  501  0.00000000000E+00  0.00000000000E+00 -0.71123682464E+03  0.71123682466E+03  0.50400001928E-02 0. -1.
    10030    2    1    2    0    0  0.00000000000E+00  0.00000000000E+00  0.14755038212E+04  0.28979774705E+04  0.24942257102E+04 0.  0.
        5    1    3    3  502    0 -0.10380478333E+04 -0.60911814079E+03  0.11172781508E+04  0.16422243361E+04  0.46999998093E+01 0. -1.
       -5    1    3    3    0  502  0.10380478333E+04  0.60911814079E+03  0.35822567041E+03  0.12557531344E+04  0.46999998093E+01 0.  1.
</event>
<event>
 5   0  0.6714629E-05  0.2406124E+04  0.7818609E-02  0.8437214E-01
       -2   -1    0    0    0  501  0.00000000000E+00  0.00000000000E+00  0.11992349099E+04  0.11992349099E+04  0.25500000920E-02 0. -1.
        2   -1    0    0  501    0  0.00000000000E+00  0.00000000000E+00 -0.12069013523E+04  0.12069013523E+04  0.25500000920E-02 0.  1.
    10030    2    1    2    0    0  0.00000000000E+00  0.00000000000E+00 -0.76664423911E+01  0.24061362621E+04  0.24061240487E+04 0.  0.
        3    1    3    3  502    0 -0.95754530449E+03 -0.55519631811E+03 -0.47524017745E+03  0.12045701301E+04  0.10100000352E+00 0.  1.
       -3    1    3    3    0  502  0.95754530449E+03  0.55519631811E+03  0.46757373506E+03  0.12015661321E+04  0.10100000352E+00 0. -1.
</event>
<event>
 5   0  0.6978115E-05  0.2292396E+04  0.7818609E-02  0.8480925E-01
        2   -1    0    0  501    0  0.00000000000E+00  0.00000000000E+00  0.10506753045E+04  0.10506753045E+04  0.25500000920E-02 0.  1.
       -2   -1    0    0    0  501  0.00000000000E+00  0.00000000000E+00 -0.12504055433E+04  0.12504055433E+04  0.25500000920E-02 0. -1.
    10030    2    1    2    0    0  0.00000000000E+00  0.00000000000E+00 -0.19973023885E+03  0.23010808479E+04  0.22923963226E+04 0.  0.
        4    1    3    3  502    0  0.23053831960E+03  0.82837715686E+02  0.10240904368E+04  0.10529828297E+04  0.12699999809E+01 0.  1.
       -4    1    3    3    0  502 -0.23053831960E+03 -0.82837715686E+02 -0.12238206756E+04  0.12480980182E+04  0.12699999809E+01 0. -1.
</event>
<event>
 5   0  0.6600166E-05  0.2292481E+04  0.7818609E-02  0.8480891E-01
       -2   -1    0    0    0  501  0.00000000000E+00  0.00000000000E+00  0.67083356992E+03  0.67083356992E+03  0.25500000920E-02 0. -1.
        2   -1    0    0  501    0  0.00000000000E+00  0.00000000000E+00 -0.19585599765E+04  0.19585599765E+04  0.25500000920E-02 0.  1.
    10030    2    1    2    0    0  0.00000000000E+00  0.00000000000E+00 -0.12877264066E+04  0.26293935465E+04  0.22924814337E+04 0.  0.
        5    1    3    3  502    0  0.59024595927E+03  0.95985350712E+03 -0.40290072759E+03  0.11966871495E+04  0.46999998093E+01 0. -1.
       -5    1    3    3    0  502 -0.59024595927E+03 -0.95985350712E+03 -0.88482567902E+03  0.14327063969E+04  0.46999998093E+01 0.  1.
</event>
<event>
 5   0  0.2847158E-05  0.2410848E+04  0.7818609E-02  0.8435453E-01
        1   -1    0    0  501    0  0.00000000000E+00  0.00000000000E+00  0.15057860399E+04  0.15057860399E+04  0.50400001928E-02 0. -1.
       -1   -1    0    0    0  501  0.00000000000E+00  0.00000000000E+00 -0.96497573683E+03  0.96497573684E+03  0.50400001928E-02 0.  1.
    10030    2    1    2    0    0  0.00000000000E+00  0.00000000000E+00  0.54081030308E+03  0.24707617767E+04  0.24108479781E+04 0.  0.
        5    1    3    3  502    0  0.96684536724E+03  0.15697492883E+03  0.99042737499E+03  0.13929822567E+04  0.46999998093E+01 0. -1.
       -5    1    3    3    0  502 -0.96684536724E+03 -0.15697492883E+03 -0.44961707191E+03  0.10777795200E+04  0.46999998093E+01 0.  1.
</event>
<event>
 5   0  0.6714629E-05  0.2323151E+04  0.7818609E-02  0.8468849E-01
       -2   -1    0    0    0  501  0.00000000000E+00  0.00000000000E+00  0.11177439822E+04  0.11177439822E+04  0.25500000920E-02 0. -1.
        2   -1    0    0  501    0  0.00000000000E+00  0.00000000000E+00 -0.12071259658E+04  0.12071259658E+04  0.25500000920E-02 0.  1.
    10030    2    1    2    0    0  0.00000000000E+00  0.00000000000E+00 -0.89381983667E+02  0.23248699480E+04  0.23231511221E+04 0.  0.
        3    1    3    3  502    0  0.11023565156E+04 -0.95655864026E+02  0.30900768766E+03  0.11488366694E+04  0.10100000352E+00 0. -1.
       -3    1    3    3    0  502 -0.11023565156E+04  0.95655864026E+02 -0.39838967133E+03  0.11760332786E+04  0.10100000352E+00 0.  1.
</event>
<event>
 5   0  0.6337926E-05  0.2394234E+04  0.7818609E-02  0.8441665E-01
       -2   -1    0    0    0  501  0.00000000000E+00  0.00000000000E+00  0.15851579857E+04  0.15851579857E+04  0.25500000920E-02 0.  1.
        2   -1    0    0  501    0  0.00000000000E+00  0.00000000000E+00 -0.90406717302E+03  0.90406717302E+03  0.25500000920E-02 0. -1.
    10030    2    1    2    0    0  0.00000000000E+00  0.00000000000E+00  0.68109081272E+03  0.24892251588E+04  0.23942341564E+04 0.  0.
        1    1    3    3  502    0 -0.93610695594E+02  0.50310668291E+03  0.14657071202E+04  0.15524743666E+04  0.50400001928E-02 0.  1.
       -1    1    3    3    0  502  0.93610695594E+02 -0.50310668291E+03 -0.78461630745E+03  0.93675079219E+03  0.50400001928E-02 0. -1.
</event>
<event>
 5   0  0.6978115E-05  0.2409404E+04  0.7818609E-02  0.8435991E-01
       -2   -1    0    0    0  501  0.00000000000E+00  0.00000000000E+00  0.13418328009E+04  0.13418328009E+04  0.25500000920E-02 0. -1.
        2   -1    0    0  501    0  0.00000000000E+00  0.00000000000E+00 -0.10815857803E+04  0.10815857803E+04  0.25500000920E-02 0.  1.
    10030    2    1    2    0    0  0.00000000000E+00  0.00000000000E+00  0.26024702056E+03  0.24234185812E+04  0.24094043057E+04 0.  0.
        4    1    3    3  502    0  0.12192646923E+03  0.10514011596E+04 -0.44854466777E+03  0.11495670464E+04  0.12699999809E+01 0.  1.
       -4    1    3    3    0  502 -0.12192646923E+03 -0.10514011596E+04  0.70879168834E+03  0.12738515348E+04  0.12699999809E+01 0. -1.
</event>
<event>
 5   0  0.6337926E-05  0.2434866E+04  0.7818609E-02  0.8426564E-01
        2   -1    0    0  501    0  0.00000000000E+00  0.00000000000E+00  0.12955732452E+04  0.12955732452E+04  0.25500000920E-02 0. -1.
       -2   -1    0    0    0  501  0.00000000000E+00  0.00000000000E+00 -0.11440057335E+04  0.11440057335E+04  0.25500000920E-02 0.  1.
    10030    2    1    2    0    0  0.00000000000E+00  0.00000000000E+00  0.15156751167E+03  0.24395789787E+04  0.24348660913E+04 0.  0.
        1    1    3    3  502    0  0.43265455864E+03 -0.58008069368E+03  0.10566882319E+04  0.12807316650E+04  0.50400001928E-02 0. -1.
       -1    1    3    3    0  502 -0.43265455864E+03  0.58008069368E+03 -0.90512072019E+03  0.11588473137E+04  0.50400001928E-02 0.  1.
</event>
<event>
 5   0  0.6714629E-05  0.2115852E+04  0.7818609E-02  0.8554292E-01
       -2   -1    0    0    0  501  0.00000000000E+00  0.00000000000E+00  0.10564579052E+04  0.10564579052E+04  0.25500000920E-02 0. -1.
        2   -1    0    0  501    0  0.00000000000E+00  0.00000000000E+00 -0.10593965219E+04  0.10593965219E+04  0.25500000920E-02 0.  1.
    10030    2    1    2    0    0  0.00000000000E+00  0.00000000000E+00 -0.29386167301E+01  0.21158544271E+04  0.21158523865E+04 0.  0.
        3    1    3    3  502    0 -0.95458852391E+03  0.28811918241E+03 -0.35496067731E+03  0.10584181621E+04  0.10100000352E+00 0.  1.
       -3    1    3    3    0  502  0.95458852391E+03 -0.28811918241E+03  0.35202206058E+03  0.10574362650E+04  0.10100000352E+00 0. -1.
</event>
<event>
 5   0  0.6703961E-05  0.2419057E+04  0.7818609E-02  0.8432403E-01
        2   -1    0    0  501    0  0.00000000000E+00  0.00000000000E+00  0.16795902025E+04  0.16795902025E+04  0.25500000920E-02 0. -1.
       -2   -1    0    0    0  501  0.00000000000E+00  0.00000000000E+00 -0.87102179844E+03  0.87102179844E+03  0.25500000920E-02 0.  1.
    10030    2    1    2    0    0  0.00000000000E+00  0.00000000000E+00  0.80856840405E+03  0.25506120009E+04  0.24190574022E+04 0.  0.
        2    1    3    3  502    0 -0.20701557656E+03  0.96487931769E+03  0.11416830292E+04  0.15090684828E+04  0.25500000920E-02 0. -1.
       -2    1    3    3    0  502  0.20701557656E+03 -0.96487931769E+03 -0.33311462515E+03  0.10415435181E+04  0.25500000920E-02 0.  1.
</event>
<event>
 5   0  0.6337926E-05  0.2371335E+04  0.7818609E-02  0.8450314E-01
       -2   -1    0    0    0  501  0.00000000000E+00  0.00000000000E+00  0.59143411935E+03  0.59143411935E+03  0.25500000920E-02 0.  1.
        2   -1    0    0  501    0  0.00000000000E+00  0.00000000000E+00 -0.23769461326E+04  0.23769461326E+04  0.25500000920E-02 0. -1.
    10030    2    1    2    0    0  0.00000000000E+00  0.00000000000E+00 -0.17855120133E+04  0.29683802520E+04  0.23713346813E+04 0.  0.
        1    1    3    3  502    0  0.42117247762E+03  0.96987763258E+02 -0.22748292396E+04  0.23155217450E+04  0.50400001928E-02 0. -1.
       -1    1    3    3    0  502 -0.42117247762E+03 -0.96987763258E+02  0.48931722633E+03  0.65285850699E+03  0.50400001928E-02 0.  1.
</event>
<event>
 5   0  0.6703961E-05  0.2261378E+04  0.7818609E-02  0.8493307E-01
        2   -1    0    0  501    0  0.00000000000E+00  0.00000000000E+00  0.16258744298E+04  0.16258744298E+04  0.25500000920E-02 0.  1.
       -2   -1    0    0    0  501  0.00000000000E+00  0.00000000000E+00 -0.78632025439E+03  0.78632025439E+03  0.25500000920E-02 0. -1.
    10030    2    1    2    0    0  0.00000000000E+00  0.00000000000E+00  0.83955417543E+03  0.24121946842E+04  0.22613783366E+04 0.  0.
        2    1    3    3  502    0 -0.77445500910E+03 -0.34254972692E+03  0.12189688693E+04  0.14842526675E+04  0.25500000920E-02 0.  1.
       -2    1    3    3    0  502  0.77445500910E+03  0.34254972692E+03 -0.37941469386E+03  0.92794201675E+03  0.25500000920E-02 0. -1.
</event>
<event>
 5   0  0.2943123E-05  0.2372926E+04  0.7818609E-02  0.8449710E-01
       -1   -1    0    0    0  501  0.00000000000E+00  0.00000000000E+00  0.75201791039E+03  0.75201791041E+03  0.50400001928E-02 0. -1.
        1   -1    0    0  501    0  0.00000000000E+00  0.00000000000E+00 -0.18718903134E+04  0.18718903134E+04  0.50400001928E-02 0.  1.
    10030    2    1    2    0    0  0.00000000000E+00  0.00000000000E+00 -0.11198724030E+04  0.26239082238E+04  0.23729264987E+04 0.  0.
        1    1    3    3  502    0  0.55431118272E+03  0.10469420345E+04 -0.63283758096E+03  0.13430680976E+04  0.50400001928E-02 0.  1.
       -1    1    3    3    0  502 -0.55431118272E+03 -0.10469420345E+04 -0.48703482206E+03  0.12808401262E+04  0.50400001928E-02 0. -1.
</event>
<event>
 5   0  0.2915546E-05  0.2351987E+04  0.7818609E-02  0.8457701E-01
        1   -1    0    0  501    0  0.00000000000E+00  0.00000000000E+00  0.74829718465E+03  0.74829718467E+03  0.50400001928E-02 0. -1.
       -1   -1    0    0    0  501  0.00000000000E+00  0.00000000000E+00 -0.18481433893E+04  0.18481433893E+04  0.50400001928E-02 0.  1.
    10030    2    1    2    0    0  0.00000000000E+00  0.00000000000E+00 -0.10998462047E+04  0.25964405740E+04  0.23519868155E+04 0.  0.
        2    1    3    3  502    0  0.82945098302E+03  0.11725749516E+03  0.36122277359E+03  0.91226100737E+03  0.25500000920E-02 0. -1.
       -2    1    3    3    0  502 -0.82945098302E+03 -0.11725749516E+03 -0.14610689782E+04  0.16841795666E+04  0.25500000920E-02 0.  1.
</event>
<event>
 5   0  0.2901816E-05  0.2184392E+04  0.7818609E-02  0.8524953E-01
       -1   -1    0    0    0  501  0.00000000000E+00  0.00000000000E+00  0.15927389462E+04  0.15927389462E+04  0.50400001928E-02 0.  1.
        1   -1    0    0  501    0  0.00000000000E+00  0.00000000000E+00 -0.74895623706E+03  0.74895623707E+03  0.50400001928E-02 0. -1.
    10030    2    1    2    0    0  0.00000000000E+00  0.00000000000E+00  0.84378270911E+03  0.23416951833E+04  0.21843916936E+04 0.  0.
        4    1    3    3  502    0  0.49825940224E+03  0.85000001457E+03 -0.83352691435E+02  0.98879307277E+03  0.12699999809E+01 0. -1.
       -4    1    3    3    0  502 -0.49825940224E+03 -0.85000001457E+03  0.92713540055E+03  0.13529021105E+04  0.12699999809E+01 0.  1.
</event>
<event>
 5   0  0.2847158E-05  0.2373077E+04  0.7818609E-02  0.8449652E-01
        1   -1    0    0  501    0  0.00000000000E+00  0.00000000000E+00  0.93517446760E+03  0.93517446761E+03  0.50400001928E-02 0. -1.
       -1   -1    0    0    0  501  0.00000000000E+00  0.00000000000E+00 -0.15054663674E+04  0.15054663674E+04  0.50400001928E-02 0.  1.
    10030    2    1    2    0    0  0.00000000000E+00  0.00000000000E+00 -0.57029189977E+03  0.24406408350E+04  0.23730770814E+04 0.  0.
        5    1    3    3  502    0 -0.73701995734E+03  0.47265162787E+03 -0.11087281464E+04  0.14127626027E+04  0.46999998093E+01 0.  1.
       -5    1    3    3    0  502  0.73701995734E+03 -0.47265162787E+03  0.53843624662E+03  0.10278782323E+04  0.46999998093E+01 0. -1.
</event>
<event>
 5   0  0.6714629E-05  0.2363954E+04  0.7818609E-02  0.8453123E-01
       -2   -1    0    0    0  501  0.00000000000E+00  0.00000000000E+00  0.59284158808E+03  0.59284158808E+03  0.25500000920E-02 0. -1.
        2   -1    0    0  501    0  0.00000000000E+00  0.00000000000E+00 -0.23565639257E+04  0.23565639257E+04  0.25500000920E-02 0.  1.
    10030    2    1    2    0    0  0.00000000000E+00  0.00000000000E+00 -0.17637223377E+04  0.29494055138E+04  0.23639535530E+04 0.  0.
        3    1    3    3  502    0 -0.38071443183E+03 -0.53045802413E+03 -0.21111303340E+04  0.22097964819E+04  0.10100000352E+00 0.  1.
       -3    1    3    3    0  502  0.38071443183E+03  0.53045802413E+03  0.34740799636E+03  0.73960903193E+03  0.10100000352E+00 0. -1.
</event>
<event>
 5   0  0.2339125E-05  0.2269570E+04  0.7818609E-02  0.8490017E-01
       -3   -1    0    0    0  501  0.00000000000E+00  0.00000000000E+00  0.15579403345E+04  0.15579403378E+04  0.10100000352E+00 0.  1.
        3   -1    0    0  501    0  0.00000000000E+00  0.00000000000E+00 -0.82656405019E+03  0.82656405636E+03  0.10100000352E+00 0. -1.
    10030    2    1    2    0    0  0.00000000000E+00  0.00000000000E+00  0.73137628434E+03  0.23845043942E+04  0.22695704299E+04 0.  0.
        3    1    3    3  502    0 -0.98270860207E+03 -0.39135990443E+03 -0.66045793204E+02  0.10598305659E+04  0.10100000352E+00 0. -1.
       -3    1    3    3    0  502  0.98270860207E+03  0.39135990443E+03  0.79742207754E+03  0.13246738283E+04  0.10100000352E+00 0.  1.
</event>
<event>
 5   0  0.6714629E-05  0.2399565E+04  0.7818609E-02  0.8439666E-01
        2   -1    0    0  501    0  0.00000000000E+00  0.00000000000E+00  0.15886992484E+04  0.15886992484E+04  0.25500000920E-02 0. -1.
       -2   -1    0    0    0  501  0.00000000000E+00  0.00000000000E+00 -0.90607372174E+03  0.90607372174E+03  0.25500000920E-02 0.  1.
    10030    2    1    2    0    0  0.00000000000E+00  0.00000000000E+00  0.68262552671E+03  0.24947729702E+04  0.23995654946E+04 0.  0.
        3    1    3    3  502    0 -0.45094955993E+03 -0.10397713994E+04  0.75063209494E+03  0.13593853835E+04  0.10100000352E+00 0. -1.
       -3    1    3    3    0  502  0.45094955993E+03  0.10397713994E+04 -0.68006568235E+02  0.11353875867E+04  0.10100000352E+00 0.  1.
</event>
<event>
 5   0  0.2943244E-05  0.2437580E+04  0.7818609E-02  0.8425567E-01
        1   -1    0    0  501    0  0.00000000000E+00  0.00000000000E+00  0.18677593296E+04  0.18677593296E+04  0.50400001928E-02 0.  1.
       -1   -1    0    0    0  501  0.00000000000E+00  0.00000000000E+00 -0.79531096761E+03  0.79531096763E+03  0.50400001928E-02 0. -1.
    10030    2    1    2    0    0  0.00000000000E+00  0.00000000000E+00  0.10724483620E+04  0.26630702972E+04  0.24375803410E+04 0.  0.
        3    1    3    3  502    0  0.74082052314E+03 -0.73414320297E+03  0.12251684830E+04  0.16089807680E+04  0.10100000352E+00 0.  1.
       -3    1    3    3    0  502 -0.74082052314E+03  0.73414320297E+03 -0.15272012102E+03  0.10540895292E+04  0.10100000352E+00 0. -1.
</event>
<event>
 5   0  0.2901816E-05  0.2066109E+04  0.7818609E-02  0.8576321E-01
       -1   -1    0    0    0  501  0.00000000000E+00  0.00000000000E+00  0.73555713113E+03  0.73555713115E+03  0.50400001928E-02 0.  1.
        1   -1    0    0  501    0  0.00000000000E+00  0.00000000000E+00 -0.14508746927E+04  0.14508746927E+04  0.50400001928E-02 0. -1.
    10030    2    1    2    0    0  0.00000000000E+00  0.00000000000E+00 -0.71531756160E+03  0.21864318239E+04  0.20661086386E+04 0.  0.
        4    1    3    3  502    0 -0.27762165976E+03 -0.62278239278E+03  0.46359550983E+03  0.82453265815E+03  0.12699999809E+01 0.  1.
       -4    1    3    3    0  502  0.27762165976E+03  0.62278239278E+03 -0.11789130714E+04  0.13618991657E+04  0.12699999809E+01 0. -1.
</event>
<event>
 5   0  0.2847158E-05  0.2337071E+04  0.7818609E-02  0.8463446E-01
       -1   -1    0    0    0  501  0.00000000000E+00  0.00000000000E+00  0.65339596577E+03  0.65339596578E+03  0.50400001928E-02 0.  1.
        1   -1    0    0  501    0  0.00000000000E+00  0.00000000000E+00 -0.20898123819E+04  0.20898123819E+04  0.50400001928E-02 0. -1.
    10030    2    1    2    0    0  0.00000000000E+00  0.00000000000E+00 -0.14364164161E+04  0.27432083477E+04  0.23370707987E+04 0.  0.
        5    1    3    3  502    0  0.53986380713E+03 -0.15383378802E+03 -0.19211673288E+04  0.20015053734E+04  0.46999998093E+01 0. -1.
       -5    1    3    3    0  502 -0.53986380713E+03  0.15383378802E+03  0.48475091272E+03  0.74170297422E+03  0.46999998093E+01 0.  1.
</event>
<event>
 5   0  0.6978115E-05  0.2389953E+04  0.7818609E-02  0.8443275E-01
       -2   -1    0    0    0  501  0.00000000000E+00  0.00000000000E+00  0.98671674506E+03  0.98671674506E+03  0.25500000920E-02 0.  1.
        2   -1    0    0  501    0  0.00000000000E+00  0.00000000000E+00 -0.14471922420E+04  0.14471922420E+04  0.25500000920E-02 0. -1.
    10030    2    1    2    0    0  0.00000000000E+00  0.00000000000E+00 -0.46047549698E+03  0.24339089871E+04  0.23899529858E+04 0.  0.
        4    1    3    3  502    0  0.77466299808E+03  0.90624756857E+03 -0.31284553330E+03  0.12325832048E+04  0.12699999809E+01 0.  1.
       -4    1    3    3    0  502 -0.77466299808E+03 -0.90624756857E+03 -0.14762996367E+03  0.12013257823E+04  0.12699999809E+01 0. -1.
</event>
<event>
 5   0  0.6978115E-05  0.2403118E+04  0.7818609E-02  0.8438337E-01
       -2   -1    0    0    0  501  0.00000000000E+00  0.00000000000E+00  0.11992788137E+04  0.11992788137E+04  0.25500000920E-02 0. -1.
        2   -1    0    0  501    0  0.00000000000E+00  0.00000000000E+00 -0.12038438050E+04  0.12038438050E+04  0.25500000920E-02 0.  1.
    10030    2    1    2    0    0  0.00000000000E+00  0.00000000000E+00 -0.45649913482E+01  0.24031226187E+04  0.24031182828E+04 0.  0.
        4    1    3    3  502    0 -0.11851913619E+04 -0.83432204814E+02  0.17689165450E+03  0.12012209487E+04  0.12699999809E+01 0. -1.
       -4    1    3    3    0  502  0.11851913619E+04  0.83432204814E+02 -0.18145664584E+03  0.12019016700E+04  0.12699999809E+01 0.  1.
</event>
<event>
 5   0  0.6714629E-05  0.2371215E+04  0.7818609E-02  0.8450359E-01
        2   -1    0    0  501    0  0.00000000000E+00  0.00000000000E+00  0.14007877102E+04  0.14007877102E+04  0.25500000920E-02 0.  1.
       -2   -1    0    0    0  501  0.00000000000E+00  0.00000000000E+00 -0.10034819937E+04  0.10034819937E+04  0.25500000920E-02 0. -1.
    10030    2    1    2    0    0  0.00000000000E+00  0.00000000000E+00  0.39730571647E+03  0.24042697039E+04  0.23712150844E+04 0.  0.
        3    1    3    3  502    0 -0.96391106089E+03  0.64043014294E+03  0.45990709911E+03  0.12453071313E+04  0.10100000352E+00 0.  1.
       -3    1    3    3    0  502  0.96391106089E+03 -0.64043014294E+03 -0.62601382644E+02  0.11589625726E+04  0.10100000352E+00 0. -1.
</event>
<event>
 5   0  0.2943123E-05  0.2382682E+04  0.7818609E-02  0.8446016E-01
       -1   -1    0    0    0  501  0.00000000000E+00  0.00000000000E+00  0.85371953825E+03  0.85371953827E+03  0.50400001928E-02 0.  1.
        1   -1    0    0  501    0  0.00000000000E+00  0.00000000000E+00 -0.16624825050E+04  0.16624825050E+04  0.50400001928E-02 0. -1.
    10030    2    1    2    0    0  0.00000000000E+00  0.00000000000E+00 -0.80876296674E+03  0.25162020433E+04  0.23826823511E+04 0.  0.
        1    1    3    3  502    0  0.49343360150E+03  0.10210337151E+04 -0.18808838082E+02  0.11341694489E+04  0.50400001928E-02 0. -1.
       -1    1    3    3    0  502 -0.49343360150E+03 -0.10210337151E+04 -0.78995412866E+03  0.13820325944E+04  0.50400001928E-02 0.  1.
</event>
<event>
 5   0  0.6978115E-05  0.2391754E+04  0.7818609E-02  0.8442597E-01
       -2   -1    0    0    0  501  0.00000000000E+00  0.00000000000E+00  0.48838781348E+03  0.48838781349E+03  0.25500000920E-02 0.  1.
        2   -1    0    0  501    0  0.00000000000E+00  0.00000000000E+00 -0.29282497234E+04  0.29282497234E+04  0.25500000920E-02 0. -1.
    10030    2    1    2    0    0  0.00000000000E+00  0.00000000000E+00 -0.24398619099E+04  0.34166375369E+04  0.23917537329E+04 0.  0.
        4    1    3    3  502    0 -0.52608849050E+03  0.10730306366E+04 -0.11567524878E+04  0.16632022661E+04  0.12699999809E+01 0. -1.
       -4    1    3    3    0  502  0.52608849050E+03 -0.10730306366E+04 -0.12831094221E+04  0.17534352708E+04  0.12699999809E+01 0.  1.
</event>
<event>
 5   0  0.2901816E-05  0.3198570E+04  0.7818609E-02  0.8189195E-01
       -1   -1    0    0    0  501  0.00000000000E+00  0.00000000000E+00  0.17806853951E+04  0.17806853951E+04  0.50400001928E-02 0. -1.
        1   -1    0    0  501    0  0.00000000000E+00  0.00000000000E+00 -0.14363643481E+04  0.14363643482E+04  0.50400001928E-02 0.  1.
    10030    2    1    2    0    0  0.00000000000E+00  0.00000000000E+00  0.34432104698E+03  0.32170497433E+04  0.31985703162E+04 0.  0.
        4    1    3    3  502    0 -0.67956007755E+03 -0.14467460738E+04  0.11860532782E+03  0.16027928555E+04  0.12699999809E+01 0. -1.
       -4    1    3    3    0  502  0.67956007755E+03  0.14467460738E+04  0.22571571916E+03  0.16142568878E+04  0.12699999809E+01 0.  1.
</event>
<event>
 5   0  0.6337926E-05  0.2367556E+04  0.7818609E-02  0.8451751E-01
       -2   -1    0    0    0  501  0.00000000000E+00  0.00000000000E+00  0.90899574829E+03  0.90899574830E+03  0.25500000920E-02 0. -1.
        2   -1    0    0  501    0  0.00000000000E+00  0.00000000000E+00 -0.15416251411E+04  0.15416251411E+04  0.25500000920E-02 0.  1.
    10030    2    1    2    0    0  0.00000000000E+00  0.00000000000E+00 -0.63262939279E+03  0.24506208894E+04  0.23675562918E+04 0.  0.
        1    1    3    3  502    0 -0.60429198502E+03 -0.36934562907E+03  0.66551396944E+03  0.97185072949E+03  0.50400001928E-02 0. -1.
       -1    1    3    3    0  502  0.60429198502E+03  0.36934562907E+03 -0.12981433622E+04  0.14787701599E+04  0.50400001928E-02 0.  1.
</event>
<event>
 5   0  0.6600166E-05  0.2392558E+04  0.7818609E-02  0.8442295E-01
        2   -1    0    0  501    0  0.00000000000E+00  0.00000000000E+00  0.10827324184E+04  0.10827324184E+04  0.25500000920E-02 0. -1.
       -2   -1    0    0    0  501  0.00000000000E+00  0.00000000000E+00 -0.13217333004E+04  0.13217333004E+04  0.25500000920E-02 0.  1.
    10030    2    1    2    0    0  0.00000000000E+00  0.00000000000E+00 -0.23900088196E+03  0.24044657189E+04  0.23925580393E+04 0.  0.
        5    1    3    3  502    0 -0.26500640966E+03 -0.85556734137E+03  0.67743902491E+03  0.11230180743E+04  0.46999998093E+01 0. -1.
       -5    1    3    3    0  502  0.26500640966E+03  0.85556734137E+03 -0.91643990687E+03  0.12814476445E+04  0.46999998093E+01 0.  1.
</event>
<event>
 5   0  0.2901816E-05  0.2397790E+04  0.7818609E-02  0.8440331E-01
       -1   -1    0    0    0  501  0.00000000000E+00  0.00000000000E+00  0.85413342339E+03  0.85413342341E+03  0.50400001928E-02 0. -1.
        1   -1    0    0  501    0  0.00000000000E+00  0.00000000000E+00 -0.16828162966E+04  0.16828162967E+04  0.50400001928E-02 0.  1.
    10030    2    1    2    0    0  0.00000000000E+00  0.00000000000E+00 -0.82868287325E+03  0.25369497201E+04  0.23977903532E+04 0.  0.
        4    1    3    3  502    0 -0.22585498755E+03  0.98852368396E+03  0.26243687236E+03  0.10474083607E+04  0.12699999809E+01 0. -1.
       -4    1    3    3    0  502  0.22585498755E+03 -0.98852368396E+03 -0.10911197456E+04  0.14895413594E+04  0.12699999809E+01 0.  1.
</event>
<event>
 5   0  0.2943123E-05  0.2487546E+04  0.7818609E-02  0.8407436E-01
       -1   -1    0    0    0  501  0.00000000000E+00  0.00000000000E+00  0.64686540480E+03  0.64686540482E+03  0.50400001928E-02 0.  1.
        1   -1    0    0  501    0  0.00000000000E+00  0.00000000000E+00 -0.23914879782E+04  0.23914879782E+04  0.50400001928E-02 0. -1.
    10030    2    1    2    0    0  0.00000000000E+00  0.00000000000E+00 -0.17446225734E+04  0.30383533830E+04  0.24875456491E+04 0.  0.
        1    1    3    3  502    0  0.80321559384E+03  0.94841258149E+03 -0.81336403694E+03  0.14853291795E+04  0.50400001928E-02 0. -1.
       -1    1    3    3    0  502 -0.80321559384E+03 -0.94841258149E+03 -0.93125853645E+03  0.15530242035E+04  0.50400001928E-02 0.  1.
</event>
<event>
 5   0  0.2901816E-05  0.2310077E+04  0.7818609E-02  0.8473959E-01
       -1   -1    0    0    0  501  0.00000000000E+00  0.00000000000E+00  0.11638081557E+04  0.11638081557E+04  0.50400001928E-02 0.  1.
        1   -1    0    0  501    0  0.00000000000E+00  0.00000000000E+00 -0.11463346383E+04  0.11463346383E+04  0.50400001928E-02 0. -1.
    10030    2    1    2    0    0  0.00000000000E+00  0.00000000000E+00  0.17473517451E+02  0.23101427940E+04  0.23100767097E+04 0.  0.
        4    1    3    3  502    0 -0.28512943816E+03 -0.25861964584E+03  0.10977716173E+04  0.11633086669E+04  0.12699999809E+01 0.  1.
       -4    1    3    3    0  502  0.28512943816E+03  0.25861964584E+03 -0.10802980999E+04  0.11468341271E+04  0.12699999809E+01 0. -1.
</event>
<event>
 5   0  0.6978115E-05  0.2586251E+04  0.7818609E-02  0.8372886E-01
        2   -1    0    0  501    0  0.00000000000E+00  0.00000000000E+00  0.17598953980E+04  0.17598953980E+04  0.25500000920E-02 0. -1.
       -2   -1    0    0    0  501  0.00000000000E+00  0.00000000000E+00 -0.95015514872E+03  0.95015514872E+03  0.25500000920E-02 0.  1.
    10030    2    1    2    0    0  0.00000000000E+00  0.00000000000E+00  0.80974024933E+03  0.27100505468E+04  0.25862510889E+04 0.  0.
        4    1    3    3  502    0  0.12520251739E+04  0.30651588656E+03  0.29671592149E+03  0.13227097096E+04  0.12699999809E+01 0.  1.
       -4    1    3    3    0  502 -0.12520251739E+04 -0.30651588656E+03  0.51302432783E+03  0.13873408372E+04  0.12699999809E+01 0. -1.
</event>
<event>
 5   0  0.2943123E-05  0.2321405E+04  0.7818609E-02  0.8469529E-01
        1   -1    0    0  501    0  0.00000000000E+00  0.00000000000E+00  0.11559504836E+04  0.11559504836E+04  0.50400001928E-02 0.  1.
       -1   -1    0    0    0  501  0.00000000000E+00  0.00000000000E+00 -0.11654741094E+04  0.11654741094E+04  0.50400001928E-02 0. -1.
    10030    2    1    2    0    0  0.00000000000E+00  0.00000000000E+00 -0.95236258519E+01  0.23214245930E+04  0.23214050577E+04 0.  0.
        1    1    3    3  502    0  0.57816463673E+03  0.43936460392E+03 -0.91026087854E+03  0.11644270992E+04  0.50400001928E-02 0. -1.
       -1    1    3    3    0  502 -0.57816463673E+03 -0.43936460392E+03  0.90073725269E+03  0.11569974938E+04  0.50400001928E-02 0.  1.
</event>
<event>
 5   0  0.6337926E-05  0.2375672E+04  0.7818609E-02  0.8448668E-01
       -2   -1    0    0    0  501  0.00000000000E+00  0.00000000000E+00  0.88676469920E+03  0.88676469920E+03  0.25500000920E-02 0.  1.
        2   -1    0    0  501    0  0.00000000000E+00  0.00000000000E+00 -0.15911262375E+04  0.15911262375E+04  0.25500000920E-02 0. -1.
    10030    2    1    2    0    0  0.00000000000E+00  0.00000000000E+00 -0.70436153828E+03  0.24778909367E+04  0.23756721822E+04 0.  0.
        1    1    3    3  502    0  0.10269228574E+04  0.11925351953E+03 -0.96229612771E+03  0.14123759394E+04  0.50400001928E-02 0.  1.
       -1    1    3    3    0  502 -0.10269228574E+04 -0.11925351953E+03  0.25793458943E+03  0.10655149972E+04  0.50400001928E-02 0. -1.
</event>
<event>
 5   0  0.2339125E-05  0.2331803E+04  0.7818609E-02  0.8465486E-01
       -3   -1    0    0    0  501  0.00000000000E+00  0.00000000000E+00  0.19031644441E+04  0.19031644468E+04  0.10100000352E+00 0.  1.
        3   -1    0    0  501    0  0.00000000000E+00  0.00000000000E+00 -0.71424521553E+03  0.71424522267E+03  0.10100000352E+00 0. -1.
    10030    2    1    2    0    0  0.00000000000E+00  0.00000000000E+00  0.11889192286E+04  0.26174096695E+04  0.23318028317E+04 0.  0.
        4    1    3    3  502    0  0.91434927950E+03 -0.37701522426E+03 -0.98531243856E+02  0.99392409326E+03  0.12699999809E+01 0. -1.
       -4    1    3    3    0  502 -0.91434927950E+03  0.37701522426E+03  0.12874504725E+04  0.16234855762E+04  0.12699999809E+01 0.  1.
</event>
<event>
 5   0  0.2847158E-05  0.1933025E+04  0.7818609E-02  0.8638590E-01
       -1   -1    0    0    0  501  0.00000000000E+00  0.00000000000E+00  0.94093601718E+03  0.94093601719E+03  0.50400001928E-02 0.  1.
        1   -1    0    0  501    0  0.00000000000E+00  0.00000000000E+00 -0.99278412163E+03  0.99278412164E+03  0.50400001928E-02 0. -1.
    10030    2    1    2    0    0  0.00000000000E+00  0.00000000000E+00 -0.51848104453E+02  0.19337201388E+04  0.19330249221E+04 0.  0.
        5    1    3    3  502    0 -0.14616517934E+03 -0.13109182012E+03  0.92076450760E+03  0.94147686822E+03  0.46999998093E+01 0.  1.
       -5    1    3    3    0  502  0.14616517934E+03  0.13109182012E+03 -0.97261261205E+03  0.99224327061E+03  0.46999998093E+01 0. -1.
</event>
<event>
 5   0  0.6714629E-05  0.2375984E+04  0.7818609E-02  0.8448550E-01
       -2   -1    0    0    0  501  0.00000000000E+00  0.00000000000E+00  0.94673180211E+03  0.94673180211E+03  0.25500000920E-02 0.  1.
        2   -1    0    0  501    0  0.00000000000E+00  0.00000000000E+00 -0.14907339109E+04  0.14907339109E+04  0.25500000920E-02 0. -1.
    10030    2    1    2    0    0  0.00000000000E+00  0.00000000000E+00 -0.54400210879E+03  0.24374657130E+04  0.23759841767E+04 0.  0.
        3    1    3    3  502    0 -0.46228445663E+03  0.10289337778E+04 -0.65435650215E+03  0.13040682804E+04  0.10100000352E+00 0. -1.
       -3    1    3    3    0  502  0.46228445663E+03 -0.10289337778E+04  0.11035439336E+03  0.11333974326E+04  0.10100000352E+00 0.  1.
</event>
<event>
 5   0  0.2943123E-05  0.2387504E+04  0.7818609E-02  0.8444197E-01
       -1   -1    0    0    0  501  0.00000000000E+00  0.00000000000E+00  0.64555241928E+03  0.64555241930E+03  0.50400001928E-02 0. -1.
        1   -1    0    0  501    0  0.00000000000E+00  0.00000000000E+00 -0.22074793664E+04  0.22074793664E+04  0.50400001928E-02 0.  1.
    10030    2    1    2    0    0  0.00000000000E+00  0.00000000000E+00 -0.15619269471E+04  0.28530317857E+04  0.23875038392E+04 0.  0.
        1    1    3    3  502    0  0.10417531410E+04  0.43460289822E+03 -0.31673923336E+03  0.11723706871E+04  0.50400001928E-02 0. -1.
       -1    1    3    3    0  502 -0.10417531410E+04 -0.43460289822E+03 -0.12451877138E+04  0.16806610986E+04  0.50400001928E-02 0.  1.
</event>
<event>
 5   0  0.2847158E-05  0.2443314E+04  0.7818609E-02  0.8423463E-01
       -1   -1    0    0    0  501  0.00000000000E+00  0.00000000000E+00  0.10134587578E+04  0.10134587578E+04  0.50400001928E-02 0. -1.
        1   -1    0    0  501    0  0.00000000000E+00  0.00000000000E+00 -0.14726264692E+04  0.14726264693E+04  0.50400001928E-02 0.  1.
    10030    2    1    2    0    0  0.00000000000E+00  0.00000000000E+00 -0.45916771143E+03  0.24860852271E+04  0.24433143001E+04 0.  0.
        5    1    3    3  502    0 -0.12843117415E+03 -0.12148782091E+04 -0.23028361545E+03  0.12431718557E+04  0.46999998093E+01 0.  1.
       -5    1    3    3    0  502  0.12843117415E+03  0.12148782091E+04 -0.22888409598E+03  0.12429133714E+04  0.46999998093E+01 0. -1.
</event>
<event>
 5   0  0.6600166E-05  0.2395998E+04  0.7818609E-02  0.8441003E-01
        2   -1    0    0  501    0  0.00000000000E+00  0.00000000000E+00  0.14929235589E+04  0.14929235589E+04  0.25500000920E-02 0. -1.
       -2   -1    0    0    0  501  0.00000000000E+00  0.00000000000E+00 -0.96133658379E+03  0.96133658379E+03  0.25500000920E-02 0.  1.
    10030    2    1    2    0    0  0.00000000000E+00  0.00000000000E+00  0.53158697515E+03  0.24542601427E+04  0.23959983589E+04 0.  0.
        5    1    3    3  502    0 -0.98310179795E+03  0.54089225236E+03 -0.16408555269E+03  0.11340192822E+04  0.46999998093E+01 0.  1.
       -5    1    3    3    0  502  0.98310179795E+03 -0.54089225236E+03  0.69567252784E+03  0.13202408605E+04  0.46999998093E+01 0. -1.
</event>
<event>
 5   0  0.2943123E-05  0.1654378E+04  0.7818609E-02  0.8787821E-01
       -1   -1    0    0    0  501  0.00000000000E+00  0.00000000000E+00  0.36093929703E+03  0.36093929707E+03  0.50400001928E-02 0. -1.
        1   -1    0    0  501    0  0.00000000000E+00  0.00000000000E+00 -0.18957239966E+04  0.18957239966E+04  0.50400001928E-02 0.  1.
    10030    2    1    2    0    0  0.00000000000E+00  0.00000000000E+00 -0.15347846996E+04  0.22566632937E+04  0.16543775709E+04 0.  0.
        1    1    3    3  502    0  0.18729495233E+03 -0.57672409364E+03 -0.15348494679E+04  0.16502887530E+04  0.50400001928E-02 0.  1.
       -1    1    3    3    0  502 -0.18729495233E+03  0.57672409364E+03  0.64768270158E-01  0.60637454067E+03  0.50400001928E-02 0. -1.
</event>
<event>
 5   0  0.2847158E-05  0.2434330E+04  0.7818609E-02  0.8426762E-01
        1   -1    0    0  501    0  0.00000000000E+00  0.00000000000E+00  0.21207639463E+04  0.21207639463E+04  0.50400001928E-02 0.  1.
       -1   -1    0    0    0  501  0.00000000000E+00  0.00000000000E+00 -0.69856466192E+03  0.69856466193E+03  0.50400001928E-02 0. -1.
    10030    2    1    2    0    0  0.00000000000E+00  0.00000000000E+00  0.14221992843E+04  0.28193286082E+04  0.24343300920E+04 0.  0.
        5    1    3    3  502    0 -0.37274486819E+03  0.11482583187E+04  0.89064245262E+03  0.15002339723E+04  0.46999998093E+01 0.  1.
       -5    1    3    3    0  502  0.37274486819E+03 -0.11482583187E+04  0.53155683173E+03  0.13190946359E+04  0.46999998093E+01 0. -1.
</event>
<event>
 5   0  0.2943244E-05  0.2363334E+04  0.7818609E-02  0.8453360E-01
        1   -1    0    0  501    0  0.00000000000E+00  0.00000000000E+00  0.14599680962E+04  0.14599680962E+04  0.50400001928E-02 0. -1.
       -1   -1    0    0    0  501  0.00000000000E+00  0.00000000000E+00 -0.95641593882E+03  0.95641593883E+03  0.50400001928E-02 0.  1.
    10030    2    1    2    0    0  0.00000000000E+00  0.00000000000E+00  0.50355215739E+03  0.24163840350E+04  0.23633338803E+04 0.  0.
        3    1    3    3  502    0 -0.17295114402E+03  0.34029853000E+03 -0.89163878199E+03  0.96991490116E+03  0.10100000352E+00 0.  1.
       -3    1    3    3    0  502  0.17295114402E+03 -0.34029853000E+03  0.13951909394E+04  0.14464691339E+04  0.10100000352E+00 0. -1.
</event>
<event>
 5   0  0.6978115E-05  0.1925553E+04  0.7818609E-02  0.8642241E-01
       -2   -1    0    0    0  501  0.00000000000E+00  0.00000000000E+00  0.39891229127E+03  0.39891229128E+03  0.25500000920E-02 0. -1.
        2   -1    0    0  501    0  0.00000000000E+00  0.00000000000E+00 -0.23236649427E+04  0.23236649427E+04  0.25500000920E-02 0.  1.
    10030    2    1    2    0    0  0.00000000000E+00  0.00000000000E+00 -0.19247526514E+04  0.27225772340E+04  0.19255529143E+04 0.  0.
        4    1    3    3  502    0  0.73214599447E+03  0.62255682508E+03 -0.10438717917E+04  0.14189026352E+04  0.12699999809E+01 0. -1.
       -4    1    3    3    0  502 -0.73214599447E+03 -0.62255682508E+03 -0.88088085970E+03  0.13036745988E+04  0.12699999809E+01 0.  1.
</event>
<event>
 5   0  0.2915546E-05  0.2472648E+04  0.7818609E-02  0.8412795E-01
        1   -1    0    0  501    0  0.00000000000E+00  0.00000000000E+00  0.10582969128E+04  0.10582969128E+04  0.50400001928E-02 0.  1.
       -1   -1    0    0    0  501  0.00000000000E+00  0.00000000000E+00 -0.14442985334E+04  0.14442985334E+04  0.50400001928E-02 0. -1.
    10030    2    1    2    0    0  0.00000000000E+00  0.00000000000E+00 -0.38600162059E+03  0.25025954462E+04  0.24726477137E+04 0.  0.
        2    1    3    3  502    0  0.46290174393E+03 -0.91871648570E+02 -0.13495473686E+04  0.14296840645E+04  0.25500000920E-02 0. -1.
       -2    1    3    3    0  502 -0.46290174393E+03  0.91871648570E+02  0.96354574800E+03  0.10729113816E+04  0.25500000920E-02 0.  1.
</event>
<event>
 5   0  0.2339125E-05  0.2449789E+04  0.7818609E-02  0.8421095E-01
       -3   -1    0    0    0  501  0.00000000000E+00  0.00000000000E+00  0.13212634092E+04  0.13212634131E+04  0.10100000352E+00 0.  1.
        3   -1    0    0  501    0  0.00000000000E+00  0.00000000000E+00 -0.11355546700E+04  0.11355546745E+04  0.10100000352E+00 0. -1.
    10030    2    1    2    0    0  0.00000000000E+00  0.00000000000E+00  0.18570873922E+03  0.24568180876E+04  0.24497892521E+04 0.  0.
        2    1    3    3  502    0 -0.31777584630E+02  0.59795307710E+03 -0.97876618433E+03  0.11474061796E+04  0.25500000920E-02 0. -1.
       -2    1    3    3    0  502  0.31777584630E+02 -0.59795307710E+03  0.11644749236E+04  0.13094119080E+04  0.25500000920E-02 0.  1.
</event>
<event>
 5   0  0.6337926E-05  0.2394948E+04  0.7818609E-02  0.8441397E-01
        2   -1    0    0  501    0  0.00000000000E+00  0.00000000000E+00  0.17995057244E+04  0.17995057244E+04  0.25500000920E-02 0. -1.
       -2   -1    0    0    0  501  0.00000000000E+00  0.00000000000E+00 -0.79685462312E+03  0.79685462313E+03  0.25500000920E-02 0.  1.
    10030    2    1    2    0    0  0.00000000000E+00  0.00000000000E+00  0.10026511012E+04  0.25963603475E+04  0.23949483968E+04 0.  0.
        1    1    3    3  502    0  0.18531734867E+02  0.11591955644E+04  0.82631416164E+03  0.14236828564E+04  0.50400001928E-02 0. -1.
       -1    1    3    3    0  502 -0.18531734867E+02 -0.11591955644E+04  0.17633693959E+03  0.11726774911E+04  0.50400001928E-02 0.  1.
</event>
<event>
 5   0  0.6978115E-05  0.2397754E+04  0.7818609E-02  0.8440345E-01
       -2   -1    0    0    0  501  0.00000000000E+00  0.00000000000E+00  0.13436882373E+04  0.13436882373E+04  0.25500000920E-02 0. -1.
        2   -1    0    0  501    0  0.00000000000E+00  0.00000000000E+00 -0.10696726396E+04  0.10696726396E+04  0.25500000920E-02 0.  1.
    10030    2    1    2    0    0  0.00000000000E+00  0.00000000000E+00  0.27401559773E+03  0.24133608770E+04  0.23977544025E+04 0.  0.
        4    1    3    3  502    0  0.36611806061E+03 -0.84207361318E+02  0.12829133535E+04  0.13367877915E+04  0.12699999809E+01 0. -1.
       -4    1    3    3    0  502 -0.36611806061E+03  0.84207361318E+02 -0.10088977557E+04  0.10765730855E+04  0.12699999809E+01 0.  1.
</event>
<event>
 5   0  0.6978115E-05  0.2548345E+04  0.7818609E-02  0.8385962E-01
       -2   -1    0    0    0  501  0.00000000000E+00  0.00000000000E+00  0.12078178315E+04  0.12078178315E+04  0.25500000920E-02 0.  1.
        2   -1    0    0  501    0  0.00000000000E+00  0.00000000000E+00 -0.13441724016E+04  0.13441724016E+04  0.25500000920E-02 0. -1.
    10030    2    1    2    0    0  0.00000000000E+00  0.00000000000E+00 -0.13635457011E+03  0.25519902332E+04  0.25483448710E+04 0.  0.
        4    1    3    3  502    0  0.31453749232E+03 -0.58820792075E+03 -0.11553597492E+04  0.13340840135E+04  0.12699999809E+01 0. -1.
       -4    1    3    3    0  502 -0.31453749232E+03  0.58820792075E+03  0.10190051791E+04  0.12179062197E+04  0.12699999809E+01 0.  1.
</event>
<event>
 5   0  0.6703961E-05  0.2413698E+04  0.7818609E-02  0.8434393E-01
        2   -1    0    0  501    0  0.00000000000E+00  0.00000000000E+00  0.22758857689E+04  0.22758857689E+04  0.25500000920E-02 0.  1.
       -2   -1    0    0    0  501  0.00000000000E+00  0.00000000000E+00 -0.63996355440E+03  0.63996355441E+03  0.25500000920E-02 0. -1.
    10030    2    1    2    0    0  0.00000000000E+00  0.00000000000E+00  0.16359222145E+04  0.29158493233E+04  0.24136975337E+04 0.  0.
        2    1    3    3  502    0  0.61520514067E+03 -0.72456367372E+03  0.17163209270E+04  0.19619448022E+04  0.25500000920E-02 0.  1.
       -2    1    3    3    0  502 -0.61520514067E+03  0.72456367372E+03 -0.80398712517E+02  0.95390452110E+03  0.25500000920E-02 0. -1.
</event>
<event>
 5   0  0.6714629E-05  0.2413708E+04  0.7818609E-02  0.8434389E-01
       -2   -1    0    0    0  501  0.00000000000E+00  0.00000000000E+00  0.59083996744E+03  0.59083996745E+03  0.25500000920E-02 0.  1.
        2   -1    0    0  501    0  0.00000000000E+00  0.00000000000E+00 -0.24651278710E+04  0.24651278710E+04  0.25500000920E-02 0. -1.
    10030    2    1    2    0    0  0.00000000000E+00  0.00000000000E+00 -0.18742879036E+04  0.30559678384E+04  0.24137075805E+04 0.  0.
        3    1    3    3  502    0 -0.47442377740E+02  0.10684536498E+04 -0.16450812370E+04  0.19621764108E+04  0.10100000352E+00 0.  1.
       -3    1    3    3    0  502  0.47442377740E+02 -0.10684536498E+04 -0.22920666659E+03  0.10937914276E+04  0.10100000352E+00 0. -1.
</event>
<event>
 5   0  0.2943244E-05  0.2395730E+04  0.7818609E-02  0.8441104E-01
        1   -1    0    0  501    0  0.00000000000E+00  0.00000000000E+00  0.12516995128E+04  0.12516995128E+04  0.50400001928E-02 0. -1.
       -1   -1    0    0    0  501  0.00000000000E+00  0.00000000000E+00 -0.11463458414E+04  0.11463458414E+04  0.50400001928E-02 0.  1.
    10030    2    1    2    0    0  0.00000000000E+00  0.00000000000E+00  0.10535367135E+03  0.23980453542E+04  0.23957299774E+04 0.  0.
        3    1    3    3  502    0 -0.33950961596E+03 -0.57887534544E+03 -0.94051045183E+03  0.11553888372E+04  0.10100000352E+00 0.  1.
       -3    1    3    3    0  502  0.33950961596E+03  0.57887534544E+03  0.10458641232E+04  0.12426565170E+04  0.10100000352E+00 0. -1.
</event>
<event>
 5   0  0.2901816E-05  0.2391042E+04  0.7818609E-02  0.8442865E-01
       -1   -1    0    0    0  501  0.00000000000E+00  0.00000000000E+00  0.53644425382E+03  0.53644425384E+03  0.50400001928E-02 0.  1.
        1   -1    0    0  501    0  0.00000000000E+00  0.00000000000E+00 -0.26643404220E+04  0.26643404220E+04  0.50400001928E-02 0. -1.
    10030    2    1    2    0    0  0.00000000000E+00  0.00000000000E+00 -0.21278961681E+04  0.32007846758E+04  0.23910417057E+04 0.  0.
        4    1    3    3  502    0  0.20812066355E+03 -0.10787692942E+04 -0.43291492830E+03  0.11808786342E+04  0.12699999809E+01 0.  1.
       -4    1    3    3    0  502 -0.20812066355E+03  0.10787692942E+04 -0.16949812398E+04  0.20199060416E+04  0.12699999809E+01 0. -1.
</event>
<event>
 5   0  0.6714629E-05  0.2444938E+04  0.7818609E-02  0.8422869E-01
       -2   -1    0    0    0  501  0.00000000000E+00  0.00000000000E+00  0.13365515021E+04  0.13365515021E+04  0.25500000920E-02 0.  1.
        2   -1    0    0  501    0  0.00000000000E+00  0.00000000000E+00 -0.11181237670E+04  0.11181237670E+04  0.25500000920E-02 0. -1.
    10030    2    1    2    0    0  0.00000000000E+00  0.00000000000E+00  0.21842773509E+03  0.24546752691E+04  0.24449376273E+04 0.  0.
        3    1    3    3  502    0 -0.21468187347E+03  0.63576709643E+03 -0.91668847388E+03  0.11360483599E+04  0.10100000352E+00 0. -1.
       -3    1    3    3    0  502  0.21468187347E+03 -0.63576709643E+03  0.11351162090E+04  0.13186269092E+04  0.10100000352E+00 0.  1.
</event>
<event>
 5   0  0.6703961E-05  0.2418144E+04  0.7818609E-02  0.8432742E-01
        2   -1    0    0  501    0  0.00000000000E+00  0.00000000000E+00  0.68013546341E+03  0.68013546341E+03  0.25500000920E-02 0. -1.
       -2   -1    0    0    0  501  0.00000000000E+00  0.00000000000E+00 -0.21493587641E+04  0.21493587641E+04  0.25500000920E-02 0.  1.
    10030    2    1    2    0    0  0.00000000000E+00  0.00000000000E+00 -0.14692233007E+04  0.28294942275E+04  0.24181440148E+04 0.  0.
        2    1    3    3  502    0 -0.47484097877E+01  0.77641065872E+03  0.34988458904E+03  0.85161921304E+03  0.25500000920E-02 0. -1.
       -2    1    3    3    0  502  0.47484097877E+01 -0.77641065872E+03 -0.18191078897E+04  0.19778750144E+04  0.25500000920E-02 0.  1.
</event>
<event>
 5   0  0.2943123E-05  0.2126341E+04  0.7818609E-02  0.8549728E-01
        1   -1    0    0  501    0  0.00000000000E+00  0.00000000000E+00  0.96043859947E+03  0.96043859948E+03  0.50400001928E-02 0. -1.
       -1   -1    0    0    0  501  0.00000000000E+00  0.00000000000E+00 -0.11768908962E+04  0.11768908962E+04  0.50400001928E-02 0.  1.
    10030    2    1    2    0    0  0.00000000000E+00  0.00000000000E+00 -0.21645229676E+03  0.21373294957E+04  0.21263409361E+04 0.  0.
        1    1    3    3  502    0 -0.66592383773E+01  0.99408637510E+03 -0.48710826047E+03  0.11070350148E+04  0.50400001928E-02 0.  1.
       -1    1    3    3    0  502  0.66592383773E+01 -0.99408637510E+03  0.27065596371E+03  0.10302944809E+04  0.50400001928E-02 0. -1.
</event>
<event>
 5   0  0.6337926E-05  0.2430322E+04  0.7818609E-02  0.8428238E-01
       -2   -1    0    0    0  501  0.00000000000E+00  0.00000000000E+00  0.18750655604E+04  0.18750655604E+04  0.25500000920E-02 0. -1.
        2   -1    0    0  501    0  0.00000000000E+00  0.00000000000E+00 -0.78750135169E+03  0.78750135169E+03  0.25500000920E-02 0.  1.
    10030    2    1    2    0    0  0.00000000000E+00  0.00000000000E+00  0.10875642087E+04  0.26625669121E+04  0.24303223353E+04 0.  0.
        1    1    3    3  502    0  0.92035443124E+03 -0.28139844994E+03  0.13565521639E+04  0.16632712167E+04  0.50400001928E-02 0. -1.
       -1    1    3    3    0  502 -0.92035443124E+03  0.28139844994E+03 -0.26898795525E+03  0.99929569539E+03  0.50400001928E-02 0.  1.
</event>
<event>
 5   0  0.2915546E-05  0.2397629E+04  0.7818609E-02  0.8440392E-01
       -1   -1    0    0    0  501  0.00000000000E+00  0.00000000000E+00  0.10159083153E+04  0.10159083154E+04  0.50400001928E-02 0. -1.
        1   -1    0    0  501    0  0.00000000000E+00  0.00000000000E+00 -0.14146511967E+04  0.14146511967E+04  0.50400001928E-02 0.  1.
    10030    2    1    2    0    0  0.00000000000E+00  0.00000000000E+00 -0.39874288138E+03  0.24305595121E+04  0.23976287570E+04 0.  0.
        2    1    3    3  502    0 -0.73652585485E+03  0.15315994478E+03 -0.11455871097E+04  0.13705101713E+04  0.25500000920E-02 0.  1.
       -2    1    3    3    0  502  0.73652585485E+03 -0.15315994478E+03  0.74684422835E+03  0.10600493408E+04  0.25500000920E-02 0. -1.
</event>
<event>
 5   0  0.6600166E-05  0.2375011E+04  0.7818609E-02  0.8448919E-01
       -2   -1    0    0    0  501  0.00000000000E+00  0.00000000000E+00  0.11762702133E+04  0.11762702133E+04  0.25500000920E-02 0.  1.
        2   -1    0    0  501    0  0.00000000000E+00  0.00000000000E+00 -0.11988483377E+04  0.11988483377E+04  0.25500000920E-02 0. -1.
    10030    2    1    2    0    0  0.00000000000E+00  0.00000000000E+00 -0.22578124376E+02  0.23751185511E+04  0.23750112336E+04 0.  0.
        5    1    3    3  502    0  0.28779429588E+03  0.79113962148E+02  0.11381378882E+04  0.11766327032E+04  0.46999998093E+01 0.  1.
       -5    1    3    3    0  502 -0.28779429588E+03 -0.79113962148E+02 -0.11607160126E+04  0.11984858479E+04  0.46999998093E+01 0. -1.
</event>
<event>
 5   0  0.2915546E-05  0.2457684E+04  0.7818609E-02  0.8418218E-01
        1   -1    0    0  501    0  0.00000000000E+00  0.00000000000E+00  0.65515513352E+03  0.65515513354E+03  0.50400001928E-02 0.  1.
       -1   -1    0    0    0  501  0.00000000000E+00  0.00000000000E+00 -0.23048773146E+04  0.23048773146E+04  0.50400001928E-02 0. -1.
    10030    2    1    2    0    0  0.00000000000E+00  0.00000000000E+00 -0.16497221811E+04  0.29600324482E+04  0.24576836288E+04 0.  0.
        2    1    3    3  502    0  0.27269184382E+03  0.71251863432E+03  0.33537530869E+03  0.83337881160E+03  0.25500000920E-02 0.  1.
       -2    1    3    3    0  502 -0.27269184382E+03 -0.71251863432E+03 -0.19850974898E+04  0.21266536366E+04  0.25500000920E-02 0. -1.
</event>
<event>
 5   0  0.2943244E-05  0.1653119E+04  0.7818609E-02  0.8788564E-01
       -1   -1    0    0    0  501  0.00000000000E+00  0.00000000000E+00  0.73849745494E+03  0.73849745496E+03  0.50400001928E-02 0.  1.
        1   -1    0    0  501    0  0.00000000000E+00  0.00000000000E+00 -0.92512217250E+03  0.92512217251E+03  0.50400001928E-02 0. -1.
    10030    2    1    2    0    0  0.00000000000E+00  0.00000000000E+00 -0.18662471756E+03  0.16636196275E+04  0.16531187131E+04 0.  0.
        3    1    3    3  502    0 -0.52653545029E+03  0.14388607720E+03 -0.71794631191E+03  0.90188120094E+03  0.10100000352E+00 0. -1.
       -3    1    3    3    0  502  0.52653545029E+03 -0.14388607720E+03  0.53132159436E+03  0.76173842653E+03  0.10100000352E+00 0.  1.
</event>
<event>
 5   0  0.2847158E-05  0.2388634E+04  0.7818609E-02  0.8443771E-01
       -1   -1    0    0    0  501  0.00000000000E+00  0.00000000000E+00  0.76939631673E+03  0.76939631675E+03  0.50400001928E-02 0.  1.
        1   -1    0    0  501    0  0.00000000000E+00  0.00000000000E+00 -0.18539115490E+04  0.18539115490E+04  0.50400001928E-02 0. -1.
    10030    2    1    2    0    0  0.00000000000E+00  0.00000000000E+00 -0.10845152323E+04  0.26233078658E+04  0.23886336826E+04 0.  0.
        5    1    3    3  502    0 -0.58612732705E+03  0.94023957097E+03 -0.10319017066E+04  0.15140802212E+04  0.46999998093E+01 0. -1.
       -5    1    3    3    0  502  0.58612732705E+03 -0.94023957097E+03 -0.52613525717E+02  0.11092276445E+04  0.46999998093E+01 0.  1.
</event>
<event>
 5   0  0.6337926E-05  0.1615121E+04  0.7818609E-02  0.8811312E-01
       -2   -1    0    0    0  501  0.00000000000E+00  0.00000000000E+00  0.57867687903E+03  0.57867687903E+03  0.25500000920E-02 0.  1.
        2   -1    0    0  501    0  0.00000000000E+00  0.00000000000E+00 -0.11269743475E+04  0.11269743475E+04  0.25500000920E-02 0. -1.
    10030    2    1    2    0    0  0.00000000000E+00  0.00000000000E+00 -0.54829746847E+03  0.17056512265E+04  0.16151210458E+04 0.  0.
        1    1    3    3  502    0 -0.60689272331E+03 -0.44445640954E+03 -0.58437227589E+03  0.95254985929E+03  0.50400001928E-02 0. -1.
       -1    1    3    3    0  502  0.60689272331E+03  0.44445640954E+03  0.36074807415E+02  0.75310136724E+03  0.50400001928E-02 0.  1.
</event>
<event>
 5   0  0.2943244E-05  0.2420715E+04  0.7818609E-02  0.8431789E-01
       -1   -1    0    0    0  501  0.00000000000E+00  0.00000000000E+00  0.12627006711E+04  0.12627006712E+04  0.50400001928E-02 0.  1.
        1   -1    0    0  501    0  0.00000000000E+00  0.00000000000E+00 -0.11601841649E+04  0.11601841649E+04  0.50400001928E-02 0. -1.
    10030    2    1    2    0    0  0.00000000000E+00  0.00000000000E+00  0.10251650624E+03  0.24228848361E+04  0.24207150379E+04 0.  0.
        3    1    3    3  502    0  0.72412237847E+03  0.63158783164E+03 -0.68541023259E+03  0.11802726826E+04  0.10100000352E+00 0. -1.
       -3    1    3    3    0  502 -0.72412237847E+03 -0.63158783164E+03  0.78792673883E+03  0.12426121535E+04  0.10100000352E+00 0.  1.
</event>
<event>
 5   0  0.6703961E-05  0.2401264E+04  0.7818609E-02  0.8439031E-01
        2   -1    0    0  501    0  0.00000000000E+00  0.00000000000E+00  0.10897722881E+04  0.10897722881E+04  0.25500000920E-02 0.  1.
       -2   -1    0    0    0  501  0.00000000000E+00  0.00000000000E+00 -0.13227690150E+04  0.13227690150E+04  0.25500000920E-02 0. -1.
    10030    2    1    2    0    0  0.00000000000E+00  0.00000000000E+00 -0.23299672694E+03  0.24125413031E+04  0.24012638473E+04 0.  0.
        2    1    3    3  502    0  0.15576004103E+03  0.81386898024E+03 -0.98941315407E+03  0.12905744058E+04  0.25500000920E-02 0. -1.
       -2    1    3    3    0  502 -0.15576004103E+03 -0.81386898024E+03  0.75641642713E+03  0.11219668973E+04  0.25500000920E-02 0.  1.
</event>
<event>
 5   0  0.2901816E-05  0.2323154E+04  0.7818609E-02  0.8468847E-01
       -1   -1    0    0    0  501  0.00000000000E+00  0.00000000000E+00  0.10756222764E+04  0.10756222764E+04  0.50400001928E-02 0. -1.
        1   -1    0    0  501    0  0.00000000000E+00  0.00000000000E+00 -0.12544005320E+04  0.12544005320E+04  0.50400001928E-02 0.  1.
    10030    2    1    2    0    0  0.00000000000E+00  0.00000000000E+00 -0.17877825559E+03  0.23300228085E+04  0.23231540249E+04 0.  0.
        4    1    3    3  502    0  0.34401469878E+03  0.65217679815E+02  0.10214323918E+04  0.10797801641E+04  0.12699999809E+01 0. -1.
       -4    1    3    3    0  502 -0.34401469878E+03 -0.65217679815E+02 -0.12002106474E+04  0.12502426444E+04  0.12699999809E+01 0.  1.
</event>
<event>
 5   0  0.2847158E-05  0.2462125E+04  0.7818609E-02  0.8416604E-01
       -1   -1    0    0    0  501  0.00000000000E+00  0.00000000000E+00  0.10916852669E+04  0.10916852669E+04  0.50400001928E-02 0.  1.
        1   -1    0    0  501    0  0.00000000000E+00  0.00000000000E+00 -0.13882338888E+04  0.13882338888E+04  0.50400001928E-02 0. -1.
    10030    2    1    2    0    0  0.00000000000E+00  0.00000000000E+00 -0.29654862195E+03  0.24799191557E+04  0.24621246787E+04 0.  0.
        5    1    3    3  502    0  0.45441753200E+03  0.88844053609E+03  0.57781746836E+03  0.11531335553E+04  0.46999998093E+01 0.  1.
       -5    1    3    3    0  502 -0.45441753200E+03 -0.88844053609E+03 -0.87436609031E+03  0.13267856004E+04  0.46999998093E+01 0. -1.
</event>
<event>
 5   0  0.6600166E-05  0.2318893E+04  0.7818609E-02  0.8470509E-01
       -2   -1    0    0    0  501  0.00000000000E+00  0.00000000000E+00  0.10527889493E+04  0.10527889493E+04  0.25500000920E-02 0.  1.
        2   -1    0    0  501    0  0.00000000000E+00  0.00000000000E+00 -0.12769097397E+04  0.12769097397E+04  0.25500000920E-02 0. -1.
    10030    2    1    2    0    0  0.00000000000E+00  0.00000000000E+00 -0.22412079039E+03  0.23296986890E+04  0.23188932388E+04 0.  0.
        5    1    3    3  502    0  0.48499172387E+03 -0.57675862409E+03  0.77319643264E+03  0.10796862026E+04  0.46999998093E+01 0.  1.
       -5    1    3    3    0  502 -0.48499172387E+03  0.57675862409E+03 -0.99731722303E+03  0.12500124864E+04  0.46999998093E+01 0. -1.
</event>
<event>
 5   0  0.2847158E-05  0.2422703E+04  0.7818609E-02  0.8431053E-01
       -1   -1    0    0    0  501  0.00000000000E+00  0.00000000000E+00  0.10404288972E+04  0.10404288973E+04  0.50400001928E-02 0.  1.
        1   -1    0    0  501    0  0.00000000000E+00  0.00000000000E+00 -0.14103529366E+04  0.14103529366E+04  0.50400001928E-02 0. -1.
    10030    2    1    2    0    0  0.00000000000E+00  0.00000000000E+00 -0.36992403935E+03  0.24507818339E+04  0.24227025823E+04 0.  0.
        5    1    3    3  502    0 -0.68444616120E+03 -0.98200266442E+03  0.30797015810E+01  0.11970076671E+04  0.46999998093E+01 0.  1.
       -5    1    3    3    0  502  0.68444616120E+03  0.98200266442E+03 -0.37300374093E+03  0.12537741668E+04  0.46999998093E+01 0. -1.
</event>
<event>
 5   0  0.2915546E-05  0.1919526E+04  0.7818609E-02  0.8645198E-01
       -1   -1    0    0    0  501  0.00000000000E+00  0.00000000000E+00  0.67223389306E+03  0.67223389308E+03  0.50400001928E-02 0. -1.
        1   -1    0    0  501    0  0.00000000000E+00  0.00000000000E+00 -0.13702740056E+04  0.13702740056E+04  0.50400001928E-02 0.  1.
    10030    2    1    2    0    0  0.00000000000E+00  0.00000000000E+00 -0.69804011253E+03  0.20425078987E+04  0.19195255970E+04 0.  0.
        2    1    3    3  502    0  0.70761880722E+03  0.59475803067E+03 -0.74244654730E+02  0.92734770186E+03  0.25500000920E-02 0.  1.
       -2    1    3    3    0  502 -0.70761880722E+03 -0.59475803067E+03 -0.62379545780E+03  0.11151601968E+04  0.25500000920E-02 0. -1.
</event>
<event>
 5   0  0.6337926E-05  0.2398451E+04  0.7818609E-02  0.8440084E-01
       -2   -1    0    0    0  501  0.00000000000E+00  0.00000000000E+00  0.10709378349E+04  0.10709378349E+04  0.25500000920E-02 0. -1.
        2   -1    0    0  501    0  0.00000000000E+00  0.00000000000E+00 -0.13428806789E+04  0.13428806789E+04  0.25500000920E-02 0.  1.
    10030    2    1    2    0    0  0.00000000000E+00  0.00000000000E+00 -0.27194284398E+03  0.24138185138E+04  0.23984509391E+04 0.  0.
        1    1    3    3  502    0 -0.73692245578E+03  0.32243548419E+03  0.75917815287E+03  0.11060609455E+04  0.50400001928E-02 0. -1.
       -1    1    3    3    0  502  0.73692245578E+03 -0.32243548419E+03 -0.10311209969E+04  0.13077575683E+04  0.50400001928E-02 0.  1.
</event>
<event>
 5   0  0.2901816E-05  0.2425483E+04  0.7818609E-02  0.8430024E-01
       -1   -1    0    0    0  501  0.00000000000E+00  0.00000000000E+00  0.13167517860E+04  0.13167517860E+04  0.50400001928E-02 0. -1.
        1   -1    0    0  501    0  0.00000000000E+00  0.00000000000E+00 -0.11169473408E+04  0.11169473408E+04  0.50400001928E-02 0.  1.
    10030    2    1    2    0    0  0.00000000000E+00  0.00000000000E+00  0.19980444526E+03  0.24336991268E+04  0.24254833794E+04 0.  0.
        4    1    3    3  502    0  0.32464843404E+03  0.94953649937E+03 -0.58337770369E+03  0.11607529140E+04  0.12699999809E+01 0.  1.
       -4    1    3    3    0  502 -0.32464843404E+03 -0.94953649937E+03  0.78318214895E+03  0.12729462128E+04  0.12699999809E+01 0. -1.
</event>
<event>
 5   0  0.6337926E-05  0.2435124E+04  0.7818609E-02  0.8426470E-01
       -2   -1    0    0    0  501  0.00000000000E+00  0.00000000000E+00  0.71013269558E+03  0.71013269559E+03  0.25500000920E-02 0.  1.
        2   -1    0    0  501    0  0.00000000000E+00  0.00000000000E+00 -0.20875772474E+04  0.20875772474E+04  0.25500000920E-02 0. -1.
    10030    2    1    2    0    0  0.00000000000E+00  0.00000000000E+00 -0.13774445518E+04  0.27977099430E+04  0.24351236995E+04 0.  0.
        1    1    3    3  502    0 -0.96412268779E+03  0.73369194537E+03 -0.82764130301E+03  0.14672513603E+04  0.50400001928E-02 0. -1.
       -1    1    3    3    0  502  0.96412268779E+03 -0.73369194537E+03 -0.54980324879E+03  0.13304585827E+04  0.50400001928E-02 0.  1.
</event>
<event>
 5   0  0.6337926E-05  0.2564216E+04  0.7818609E-02  0.8380459E-01
       -2   -1    0    0    0  501  0.00000000000E+00  0.00000000000E+00  0.12751122225E+04  0.12751122226E+04  0.25500000920E-02 0. -1.
        2   -1    0    0  501    0  0.00000000000E+00  0.00000000000E+00 -0.12891418824E+04  0.12891418824E+04  0.25500000920E-02 0.  1.
    10030    2    1    2    0    0  0.00000000000E+00  0.00000000000E+00 -0.14029659820E+02  0.25642541049E+04  0.25642157248E+04 0.  0.
        1    1    3    3  502    0  0.14412824456E+03  0.12510624425E+04  0.23355141322E+03  0.12808108559E+04  0.50400001928E-02 0. -1.
       -1    1    3    3    0  502 -0.14412824456E+03 -0.12510624425E+04 -0.24758107304E+03  0.12834432491E+04  0.50400001928E-02 0.  1.
</event>
<event>
 5   0  0.2901816E-05  0.2424069E+04  0.7818609E-02  0.8430547E-01
        1   -1    0    0  501    0  0.00000000000E+00  0.00000000000E+00  0.14708224486E+04  0.14708224486E+04  0.50400001928E-02 0.  1.
       -1   -1    0    0    0  501  0.00000000000E+00  0.00000000000E+00 -0.99877953171E+03  0.99877953172E+03  0.50400001928E-02 0. -1.
    10030    2    1    2    0    0  0.00000000000E+00  0.00000000000E+00  0.47204291690E+03  0.24696019803E+04  0.24240687750E+04 0.  0.
        4    1    3    3  502    0 -0.18201366197E+03 -0.40372810527E+03  0.13854427476E+04  0.14545028621E+04  0.12699999809E+01 0.  1.
       -4    1    3    3    0  502  0.18201366197E+03  0.40372810527E+03 -0.91339983072E+03  0.10150991182E+04  0.12699999809E+01 0. -1.
</event>
<event>
 5   0  0.2943244E-05  0.2418236E+04  0.7818609E-02  0.8432708E-01
       -1   -1    0    0    0  501  0.00000000000E+00  0.00000000000E+00  0.68301849561E+03  0.68301849563E+03  0.50400001928E-02 0. -1.
        1   -1    0    0  501    0  0.00000000000E+00  0.00000000000E+00 -0.21404494434E+04  0.21404494434E+04  0.50400001928E-02 0.  1.
    10030    2    1    2    0    0  0.00000000000E+00  0.00000000000E+00 -0.14574309478E+04  0.28234679391E+04  0.24182361827E+04 0.  0.
        3    1    3    3  502    0  0.94762567141E+03  0.75080100871E+03 -0.70953096846E+03  0.14018312214E+04  0.10100000352E+00 0.  1.
       -3    1    3    3    0  502 -0.94762567141E+03 -0.75080100871E+03 -0.74789997936E+03  0.14216367177E+04  0.10100000352E+00 0. -1.
</event>
<event>
 5   0  0.6978115E-05  0.2404239E+04  0.7818609E-02  0.8437918E-01
       -2   -1    0    0    0  501  0.00000000000E+00  0.00000000000E+00  0.70847756049E+03  0.70847756050E+03  0.25500000920E-02 0. -1.
        2   -1    0    0  501    0  0.00000000000E+00  0.00000000000E+00 -0.20397140408E+04  0.20397140408E+04  0.25500000920E-02 0.  1.
    10030    2    1    2    0    0  0.00000000000E+00  0.00000000000E+00 -0.13312364803E+04  0.27481916013E+04  0.24042392790E+04 0.  0.
        4    1    3    3  502    0 -0.86188768879E+03  0.80250400513E+02  0.28786129499E+03  0.91222598786E+03  0.12699999809E+01 0. -1.
       -4    1    3    3    0  502  0.86188768879E+03 -0.80250400513E+02 -0.16190977752E+04  0.18359656134E+04  0.12699999809E+01 0.  1.
</event>
<event>
 5   0  0.2901816E-05  0.2432844E+04  0.7818609E-02  0.8427309E-01
       -1   -1    0    0    0  501  0.00000000000E+00  0.00000000000E+00  0.60255931380E+03  0.60255931382E+03  0.50400001928E-02 0. -1.
        1   -1    0    0  501    0  0.00000000000E+00  0.00000000000E+00 -0.24556625865E+04  0.24556625865E+04  0.50400001928E-02 0.  1.
    10030    2    1    2    0    0  0.00000000000E+00  0.00000000000E+00 -0.18531032727E+04  0.30582219003E+04  0.24328439022E+04 0.  0.
        4    1    3    3  502    0 -0.39747116408E+03 -0.11466411667E+04 -0.10310572476E+04  0.15924352270E+04  0.12699999809E+01 0.  1.
       -4    1    3    3    0  502  0.39747116408E+03  0.11466411667E+04 -0.82204602511E+03  0.14657866733E+04  0.12699999809E+01 0. -1.
</event>
<event>
 5   0  0.2943123E-05  0.2400628E+04  0.7818609E-02  0.8439268E-01
        1   -1    0    0  501    0  0.00000000000E+00  0.00000000000E+00  0.93380511879E+03  0.93380511881E+03  0.50400001928E-02 0. -1.
       -1   -1    0    0    0  501  0.00000000000E+00  0.00000000000E+00 -0.15428852114E+04  0.15428852114E+04  0.50400001928E-02 0.  1.
    10030    2    1    2    0    0  0.00000000000E+00  0.00000000000E+00 -0.60908009262E+03  0.24766903302E+04  0.24006283412E+04 0.  0.
        1    1    3    3  502    0  0.13814340733E+03 -0.60366312211E+03 -0.13653509035E+04  0.14992250851E+04  0.50400001928E-02 0.  1.
       -1    1    3    3    0  502 -0.13814340733E+03  0.60366312211E+03  0.75627081091E+03  0.97746524513E+03  0.50400001928E-02 0. -1.
</event>
<event>
 5   0  0.2847158E-05  0.2358622E+04  0.7818609E-02  0.8455159E-01
       -1   -1    0    0    0  501  0.00000000000E+00  0.00000000000E+00  0.60831038594E+03  0.60831038596E+03  0.50400001928E-02 0. -1.
        1   -1    0    0  501    0  0.00000000000E+00  0.00000000000E+00 -0.22862907400E+04  0.22862907400E+04  0.50400001928E-02 0.  1.
    10030    2    1    2    0    0  0.00000000000E+00  0.00000000000E+00 -0.16779803540E+04  0.28946011259E+04  0.23586219726E+04 0.  0.
        5    1    3    3  502    0 -0.16062191450E+01  0.85164367346E+03  0.16213644531E+03  0.86695434908E+03  0.46999998093E+01 0. -1.
       -5    1    3    3    0  502  0.16062191450E+01 -0.85164367346E+03 -0.18401167993E+04  0.20276467769E+04  0.46999998093E+01 0.  1.
</event>
<event>
 5   0  0.6978115E-05  0.2423887E+04  0.7818609E-02  0.8430614E-01
       -2   -1    0    0    0  501  0.00000000000E+00  0.00000000000E+00  0.71479234113E+03  0.71479234114E+03  0.25500000920E-02 0.  1.
        2   -1    0    0  501    0  0.00000000000E+00  0.00000000000E+00 -0.20548730749E+04  0.20548730749E+04  0.25500000920E-02 0. -1.
    10030    2    1    2    0    0  0.00000000000E+00  0.00000000000E+00 -0.13400807337E+04  0.27696654160E+04  0.24238874033E+04 0.  0.
        4    1    3    3  502    0 -0.13930527055E+02 -0.11907281059E+04 -0.92752691721E+03  0.15094155415E+04  0.12699999809E+01 0.  1.
       -4    1    3    3    0  502  0.13930527055E+02  0.11907281059E+04 -0.41255381653E+03  0.12602498745E+04  0.12699999809E+01 0. -1.
</event>
<event>
 5   0  0.6703961E-05  0.2414218E+04  0.7818609E-02  0.8434200E-01
       -2   -1    0    0    0  501  0.00000000000E+00  0.00000000000E+00  0.10672233307E+04  0.10672233307E+04  0.25500000920E-02 0. -1.
        2   -1    0    0  501    0  0.00000000000E+00  0.00000000000E+00 -0.13653305050E+04  0.13653305050E+04  0.25500000920E-02 0.  1.
    10030    2    1    2    0    0  0.00000000000E+00  0.00000000000E+00 -0.29810717426E+03  0.24325538357E+04  0.24142183572E+04 0.  0.
        2    1    3    3  502    0  0.32392339948E+03  0.96036786963E+03 -0.80968528711E+03  0.12972367085E+04  0.25500000920E-02 0.  1.
       -2    1    3    3    0  502 -0.32392339948E+03 -0.96036786963E+03  0.51157811285E+03  0.11353171272E+04  0.25500000920E-02 0. -1.
</event>
<event>
 5   0  0.2847158E-05  0.2418040E+04  0.7818609E-02  0.8432781E-01
        1   -1    0    0  501    0  0.00000000000E+00  0.00000000000E+00  0.25030888660E+04  0.25030888660E+04  0.50400001928E-02 0. -1.
       -1   -1    0    0    0  501  0.00000000000E+00  0.00000000000E+00 -0.58397003394E+03  0.58397003396E+03  0.50400001928E-02 0.  1.
    10030    2    1    2    0    0  0.00000000000E+00  0.00000000000E+00  0.19191188321E+04  0.30870589000E+04  0.24180396110E+04 0.  0.
        5    1    3    3  502    0  0.33315289278E+03 -0.99712931387E+03  0.17217792663E+04  0.20173754362E+04  0.46999998093E+01 0. -1.
       -5    1    3    3    0  502 -0.33315289278E+03  0.99712931387E+03  0.19733956577E+03  0.10696834638E+04  0.46999998093E+01 0.  1.
</event>
<event>
 5   0  0.2943123E-05  0.2389638E+04  0.7818609E-02  0.8443393E-01
        1   -1    0    0  501    0  0.00000000000E+00  0.00000000000E+00  0.13858468995E+04  0.13858468995E+04  0.50400001928E-02 0.  1.
       -1   -1    0    0    0  501  0.00000000000E+00  0.00000000000E+00 -0.10301231739E+04  0.10301231739E+04  0.50400001928E-02 0. -1.
    10030    2    1    2    0    0  0.00000000000E+00  0.00000000000E+00  0.35572372563E+03  0.24159700734E+04  0.23896384720E+04 0.  0.
        1    1    3    3  502    0  0.70562170425E+03 -0.45324850085E+03 -0.68254852222E+03  0.10812995322E+04  0.50400001928E-02 0. -1.
       -1    1    3    3    0  502 -0.70562170425E+03  0.45324850085E+03  0.10382722478E+04  0.13346705413E+04  0.50400001928E-02 0.  1.
</event>
<event>
 5   0  0.6714629E-05  0.2392679E+04  0.7818609E-02  0.8442250E-01
       -2   -1    0    0    0  501  0.00000000000E+00  0.00000000000E+00  0.99687159643E+03  0.99687159643E+03  0.25500000920E-02 0. -1.
        2   -1    0    0  501    0  0.00000000000E+00  0.00000000000E+00 -0.14357196098E+04  0.14357196098E+04  0.25500000920E-02 0.  1.
    10030    2    1    2    0    0  0.00000000000E+00  0.00000000000E+00 -0.43884801339E+03  0.24325912063E+04  0.23926789166E+04 0.  0.
        3    1    3    3  502    0 -0.31725834783E+03 -0.84972907588E+03  0.57367562870E+03  0.10732176381E+04  0.10100000352E+00 0. -1.
       -3    1    3    3    0  502  0.31725834783E+03  0.84972907588E+03 -0.10125236421E+04  0.13593735681E+04  0.10100000352E+00 0.  1.
</event>
<event>
 5   0  0.6978115E-05  0.2447365E+04  0.7818609E-02  0.8421981E-01
       -2   -1    0    0    0  501  0.00000000000E+00  0.00000000000E+00  0.13939991245E+04  0.13939991245E+04  0.25500000920E-02 0.  1.
        2   -1    0    0  501    0  0.00000000000E+00  0.00000000000E+00 -0.10741749625E+04  0.10741749625E+04  0.25500000920E-02 0. -1.
    10030    2    1    2    0    0  0.00000000000E+00  0.00000000000E+00  0.31982416198E+03  0.24681740870E+04  0.24473650788E+04 0.  0.
        4    1    3    3  502    0  0.13423106522E+03 -0.11618960870E+04  0.52266032071E+03  0.12810916905E+04  0.12699999809E+01 0.  1.
       -4    1    3    3    0  502 -0.13423106522E+03  0.11618960870E+04 -0.20283615873E+03  0.11870823965E+04  0.12699999809E+01 0. -1.
</event>
<event>
 5   0  0.6978115E-05  0.2464081E+04  0.7818609E-02  0.8415895E-01
        2   -1    0    0  501    0  0.00000000000E+00  0.00000000000E+00  0.96192126714E+03  0.96192126714E+03  0.25500000920E-02 0. -1.
       -2   -1    0    0    0  501  0.00000000000E+00  0.00000000000E+00 -0.15780123763E+04  0.15780123763E+04  0.25500000920E-02 0.  1.
    10030    2    1    2    0    0  0.00000000000E+00  0.00000000000E+00 -0.61609110918E+03  0.25399336435E+04  0.24640808953E+04 0.  0.
        4    1    3    3  502    0  0.88314730391E+03 -0.46483249862E+03  0.43662224004E+03  0.10893387928E+04  0.12699999809E+01 0. -1.
       -4    1    3    3    0  502 -0.88314730391E+03  0.46483249862E+03 -0.10527133492E+04  0.14505948506E+04  0.12699999809E+01 0.  1.
</event>
<event>
 5   0  0.2943244E-05  0.1538710E+04  0.7818609E-02  0.8859112E-01
       -1   -1    0    0    0  501  0.00000000000E+00  0.00000000000E+00  0.90141989557E+03  0.90141989559E+03  0.50400001928E-02 0. -1.
        1   -1    0    0  501    0  0.00000000000E+00  0.00000000000E+00 -0.65663823349E+03  0.65663823351E+03  0.50400001928E-02 0.  1.
    10030    2    1    2    0    0  0.00000000000E+00  0.00000000000E+00  0.24478166209E+03  0.15580581291E+04  0.15387095475E+04 0.  0.
        3    1    3    3  502    0 -0.40500301044E+03  0.64908397312E+03  0.40320335931E+02  0.76613522456E+03  0.10100000352E+00 0. -1.
       -3    1    3    3    0  502  0.40500301044E+03 -0.64908397312E+03  0.20446132616E+03  0.79192290453E+03  0.10100000352E+00 0.  1.
</event>
<event>
 5   0  0.2943244E-05  0.2406913E+04  0.7818609E-02  0.8436920E-01
       -1   -1    0    0    0  501  0.00000000000E+00  0.00000000000E+00  0.60960454682E+03  0.60960454684E+03  0.50400001928E-02 0. -1.
        1   -1    0    0  501    0  0.00000000000E+00  0.00000000000E+00 -0.23758154605E+04  0.23758154605E+04  0.50400001928E-02 0.  1.
    10030    2    1    2    0    0  0.00000000000E+00  0.00000000000E+00 -0.17662109136E+04  0.29854200073E+04  0.24069132989E+04 0.  0.
        3    1    3    3  502    0  0.10209757205E+04 -0.58791904163E+03 -0.57860551547E+03  0.13125641219E+04  0.10100000352E+00 0.  1.
       -3    1    3    3    0  502 -0.10209757205E+04  0.58791904163E+03 -0.11876053982E+04  0.16728558854E+04  0.10100000352E+00 0. -1.
</event>
<event>
 5   0  0.2943123E-05  0.2461933E+04  0.7818609E-02  0.8416674E-01
        1   -1    0    0  501    0  0.00000000000E+00  0.00000000000E+00  0.19765904965E+04  0.19765904965E+04  0.50400001928E-02 0. -1.
       -1   -1    0    0    0  501  0.00000000000E+00  0.00000000000E+00 -0.76661244032E+03  0.76661244034E+03  0.50400001928E-02 0.  1.
    10030    2    1    2    0    0  0.00000000000E+00  0.00000000000E+00  0.12099780562E+04  0.27432029369E+04  0.24619332762E+04 0.  0.
        1    1    3    3  502    0 -0.25205025024E+03  0.20127404807E+03 -0.71868739910E+03  0.78775132417E+03  0.50400001928E-02 0.  1.
       -1    1    3    3    0  502  0.25205025024E+03 -0.20127404807E+03  0.19286654553E+04  0.19554516127E+04  0.50400001928E-02 0. -1.
</event>
<event>
 5   0  0.2915546E-05  0.2264868E+04  0.7818609E-02  0.8491904E-01
        1   -1    0    0  501    0  0.00000000000E+00  0.00000000000E+00  0.99660052100E+03  0.99660052101E+03  0.50400001928E-02 0. -1.
       -1   -1    0    0    0  501  0.00000000000E+00  0.00000000000E+00 -0.12867806819E+04  0.12867806820E+04  0.50400001928E-02 0.  1.
    10030    2    1    2    0    0  0.00000000000E+00  0.00000000000E+00 -0.29018016094E+03  0.22833812030E+04  0.22648675882E+04 0.  0.
        2    1    3    3  502    0  0.74133097757E+03 -0.34187523118E+03  0.64615395990E+03  0.10411365097E+04  0.25500000920E-02 0. -1.
       -2    1    3    3    0  502 -0.74133097757E+03  0.34187523118E+03 -0.93633412084E+03  0.12422446932E+04  0.25500000920E-02 0.  1.
</event>
<event>
 5   0  0.6714629E-05  0.2353376E+04  0.7818609E-02  0.8457168E-01
       -2   -1    0    0    0  501  0.00000000000E+00  0.00000000000E+00  0.12167114052E+04  0.12167114052E+04  0.25500000920E-02 0.  1.
        2   -1    0    0  501    0  0.00000000000E+00  0.00000000000E+00 -0.11379816189E+04  0.11379816189E+04  0.25500000920E-02 0. -1.
    10030    2    1    2    0    0  0.00000000000E+00  0.00000000000E+00  0.78729786311E+02  0.23546930242E+04  0.23533764805E+04 0.  0.
        3    1    3    3  502    0  0.14001890956E+03  0.49734585192E+03  0.10971398393E+04  0.12127134982E+04  0.10100000352E+00 0.  1.
       -3    1    3    3    0  502 -0.14001890956E+03 -0.49734585192E+03 -0.10184100530E+04  0.11419795260E+04  0.10100000352E+00 0. -1.
</event>
<event>
 5   0  0.6714629E-05  0.2304450E+04  0.7818609E-02  0.8476169E-01
        2   -1    0    0  501    0  0.00000000000E+00  0.00000000000E+00  0.13335440646E+04  0.13335440646E+04  0.25500000920E-02 0.  1.
       -2   -1    0    0    0  501  0.00000000000E+00  0.00000000000E+00 -0.99555929086E+03  0.99555929087E+03  0.25500000920E-02 0. -1.
    10030    2    1    2    0    0  0.00000000000E+00  0.00000000000E+00  0.33798477374E+03  0.23291033555E+04  0.23044497680E+04 0.  0.
        3    1    3    3  502    0  0.80149337476E+03 -0.75483895687E+03 -0.17442005412E+03  0.11147178325E+04  0.10100000352E+00 0. -1.
       -3    1    3    3    0  502 -0.80149337476E+03  0.75483895687E+03  0.51240482786E+03  0.12143855230E+04  0.10100000352E+00 0.  1.
</event>
<event>
 5   0  0.2943244E-05  0.2315249E+04  0.7818609E-02  0.8471933E-01
       -1   -1    0    0    0  501  0.00000000000E+00  0.00000000000E+00  0.64658394143E+03  0.64658394145E+03  0.50400001928E-02 0. -1.
        1   -1    0    0  501    0  0.00000000000E+00  0.00000000000E+00 -0.20725765202E+04  0.20725765202E+04  0.50400001928E-02 0.  1.
    10030    2    1    2    0    0  0.00000000000E+00  0.00000000000E+00 -0.14259925787E+04  0.27191604616E+04  0.23152491834E+04 0.  0.
        3    1    3    3  502    0  0.10180200719E+04 -0.53386482143E+03 -0.87367887105E+03  0.14438460078E+04  0.10100000352E+00 0. -1.
       -3    1    3    3    0  502 -0.10180200719E+04  0.53386482143E+03 -0.55231370768E+03  0.12753144538E+04  0.10100000352E+00 0.  1.
</event>
<event>
 5   0  0.6703961E-05  0.2398750E+04  0.7818609E-02  0.8439972E-01
        2   -1    0    0  501    0  0.00000000000E+00  0.00000000000E+00  0.13083511068E+04  0.13083511068E+04  0.25500000920E-02 0.  1.
       -2   -1    0    0    0  501  0.00000000000E+00  0.00000000000E+00 -0.10994757831E+04  0.10994757831E+04  0.25500000920E-02 0. -1.
    10030    2    1    2    0    0  0.00000000000E+00  0.00000000000E+00  0.20887532372E+03  0.24078268899E+04  0.23987499726E+04 0.  0.
        2    1    3    3  502    0  0.40157581375E+03  0.92374184633E+03  0.75800684444E+03  0.12606095784E+04  0.25500000920E-02 0.  1.
       -2    1    3    3    0  502 -0.40157581375E+03 -0.92374184633E+03 -0.54913152072E+03  0.11472173115E+04  0.25500000920E-02 0. -1.
</event>
<event>
 5   0  0.6337926E-05  0.2476408E+04  0.7818609E-02  0.8411439E-01
       -2   -1    0    0    0  501  0.00000000000E+00  0.00000000000E+00  0.84338195613E+03  0.84338195614E+03  0.25500000920E-02 0.  1.
        2   -1    0    0  501    0  0.00000000000E+00  0.00000000000E+00 -0.18178593316E+04  0.18178593316E+04  0.25500000920E-02 0. -1.
    10030    2    1    2    0    0  0.00000000000E+00  0.00000000000E+00 -0.97447737550E+03  0.26612412878E+04  0.24764084955E+04 0.  0.
        1    1    3    3  502    0 -0.11626791823E+04 -0.44604866692E+02 -0.32148720115E+02  0.11639785287E+04  0.50400001928E-02 0.  1.
       -1    1    3    3    0  502  0.11626791823E+04  0.44604866692E+02 -0.94232865539E+03  0.14972627591E+04  0.50400001928E-02 0. -1.
</event>
<event>
 5   0  0.6978115E-05  0.2376179E+04  0.7818609E-02  0.8448476E-01
        2   -1    0    0  501    0  0.00000000000E+00  0.00000000000E+00  0.18292941413E+04  0.18292941413E+04  0.25500000920E-02 0. -1.
       -2   -1    0    0    0  501  0.00000000000E+00  0.00000000000E+00 -0.77164018723E+03  0.77164018724E+03  0.25500000920E-02 0.  1.
    10030    2    1    2    0    0  0.00000000000E+00  0.00000000000E+00  0.10576539541E+04  0.26009343286E+04  0.23761791799E+04 0.  0.
        4    1    3    3  502    0  0.71577452151E+03 -0.81234863683E+03  0.10642934033E+04  0.15182112944E+04  0.12699999809E+01 0.  1.
       -4    1    3    3    0  502 -0.71577452151E+03  0.81234863683E+03 -0.66394491965E+01  0.10827230341E+04  0.12699999809E+01 0. -1.
</event>
<event>
 5   0  0.2847158E-05  0.2306442E+04  0.7818609E-02  0.8475386E-01
        1   -1    0    0  501    0  0.00000000000E+00  0.00000000000E+00  0.11193177687E+04  0.11193177687E+04  0.50400001928E-02 0.  1.
       -1   -1    0    0    0  501  0.00000000000E+00  0.00000000000E+00 -0.11881510128E+04  0.11881510128E+04  0.50400001928E-02 0. -1.
    10030    2    1    2    0    0  0.00000000000E+00  0.00000000000E+00 -0.68833244098E+02  0.23074687816E+04  0.23064418836E+04 0.  0.
        5    1    3    3  502    0  0.75643176682E+03  0.72353117395E+03 -0.51858464495E+03  0.11681774272E+04  0.46999998093E+01 0. -1.
       -5    1    3    3    0  502 -0.75643176682E+03 -0.72353117395E+03  0.44975140085E+03  0.11392913544E+04  0.46999998093E+01 0.  1.
</event>
<event>
 5   0  0.6337926E-05  0.2414618E+04  0.7818609E-02  0.8434051E-01
        2   -1    0    0  501    0  0.00000000000E+00  0.00000000000E+00  0.12651791483E+04  0.12651791483E+04  0.25500000920E-02 0. -1.
       -2   -1    0    0    0  501  0.00000000000E+00  0.00000000000E+00 -0.11520857034E+04  0.11520857034E+04  0.25500000920E-02 0.  1.
    10030    2    1    2    0    0  0.00000000000E+00  0.00000000000E+00  0.11309344493E+03  0.24172648517E+04  0.24146178240E+04 0.  0.
        1    1    3    3  502    0 -0.65160245895E+02 -0.48519828804E+03 -0.10482624711E+04  0.11569431467E+04  0.50400001928E-02 0.  1.
       -1    1    3    3    0  502  0.65160245895E+02  0.48519828804E+03  0.11613559160E+04  0.12603217050E+04  0.50400001928E-02 0. -1.
</event>
<event>
 5   0  0.6714629E-05  0.2448943E+04  0.7818609E-02  0.8421404E-01
        2   -1    0    0  501    0  0.00000000000E+00  0.00000000000E+00  0.14063129993E+04  0.14063129993E+04  0.25500000920E-02 0. -1.
       -2   -1    0    0    0  501  0.00000000000E+00  0.00000000000E+00 -0.10661432045E+04  0.10661432045E+04  0.25500000920E-02 0.  1.
    10030    2    1    2    0    0  0.00000000000E+00  0.00000000000E+00  0.34016979474E+03  0.24724562038E+04  0.24489434846E+04 0.  0.
        3    1    3    3  502    0 -0.61637353034E+03 -0.86485552425E+03 -0.44522508952E+03  0.11515714469E+04  0.10100000352E+00 0. -1.
       -3    1    3    3    0  502  0.61637353034E+03  0.86485552425E+03  0.78539488426E+03  0.13208847570E+04  0.10100000352E+00 0.  1.
</event>
<event>
 5   0  0.2901816E-05  0.1797007E+04  0.7818609E-02  0.8707893E-01
        1   -1    0    0  501    0  0.00000000000E+00  0.00000000000E+00  0.57789820365E+03  0.57789820367E+03  0.50400001928E-02 0.  1.
       -1   -1    0    0    0  501  0.00000000000E+00  0.00000000000E+00 -0.13969742591E+04  0.13969742591E+04  0.50400001928E-02 0. -1.
    10030    2    1    2    0    0  0.00000000000E+00  0.00000000000E+00 -0.81907605546E+03  0.19748724628E+04  0.17970074178E+04 0.  0.
        4    1    3    3  502    0 -0.82822896329E+02  0.71612697620E+03  0.17983606609E+03  0.74299401193E+03  0.12699999809E+01 0.  1.
       -4    1    3    3    0  502  0.82822896329E+02 -0.71612697620E+03 -0.99891212155E+03  0.12318784509E+04  0.12699999809E+01 0. -1.
</event>
<event>
 5   0  0.6600166E-05  0.2403630E+04  0.7818609E-02  0.8438146E-01
        2   -1    0    0  501    0  0.00000000000E+00  0.00000000000E+00  0.12884601877E+04  0.12884601877E+04  0.25500000920E-02 0. -1.
       -2   -1    0    0    0  501  0.00000000000E+00  0.00000000000E+00 -0.11209967848E+04  0.11209967848E+04  0.25500000920E-02 0.  1.
    10030    2    1    2    0    0  0.00000000000E+00  0.00000000000E+00  0.16746340294E+03  0.24094569725E+04  0.24036303608E+04 0.  0.
        5    1    3    3  502    0 -0.92366213771E+03 -0.19125644242E+03 -0.66279288432E+03  0.11528431242E+04  0.46999998093E+01 0.  1.
       -5    1    3    3    0  502  0.92366213771E+03  0.19125644242E+03  0.83025628726E+03  0.12566138484E+04  0.46999998093E+01 0. -1.
</event>
<event>
 5   0  0.6703961E-05  0.2417436E+04  0.7818609E-02  0.8433005E-01
        2   -1    0    0  501    0  0.00000000000E+00  0.00000000000E+00  0.14933700477E+04  0.14933700477E+04  0.25500000920E-02 0. -1.
       -2   -1    0    0    0  501  0.00000000000E+00  0.00000000000E+00 -0.97832326516E+03  0.97832326517E+03  0.25500000920E-02 0.  1.
    10030    2    1    2    0    0  0.00000000000E+00  0.00000000000E+00  0.51504678253E+03  0.24716933129E+04  0.24174355513E+04 0.  0.
        2    1    3    3  502    0  0.57172275080E+03 -0.10647860506E+04  0.23805867558E+03  0.12317906358E+04  0.25500000920E-02 0. -1.
       -2    1    3    3    0  502 -0.57172275080E+03  0.10647860506E+04  0.27698810696E+03  0.12399026771E+04  0.25500000920E-02 0.  1.
</event>
<event>
 5   0  0.6703961E-05  0.2393102E+04  0.7818609E-02  0.8442090E-01
        2   -1    0    0  501    0  0.00000000000E+00  0.00000000000E+00  0.20346049695E+04  0.20346049695E+04  0.25500000920E-02 0.  1.
       -2   -1    0    0    0  501  0.00000000000E+00  0.00000000000E+00 -0.70369179877E+03  0.70369179878E+03  0.25500000920E-02 0. -1.
    10030    2    1    2    0    0  0.00000000000E+00  0.00000000000E+00  0.13309131707E+04  0.27382967682E+04  0.23931024472E+04 0.  0.
        2    1    3    3  502    0 -0.22060712183E+03  0.92898906079E+03  0.14906207820E+04  0.17702086016E+04  0.25500000920E-02 0.  1.
       -2    1    3    3    0  502  0.22060712183E+03 -0.92898906079E+03 -0.15970761136E+03  0.96808816665E+03  0.25500000920E-02 0. -1.
</event>
<event>
 5   0  0.2943244E-05  0.2246169E+04  0.7818609E-02  0.8499454E-01
        1   -1    0    0  501    0  0.00000000000E+00  0.00000000000E+00  0.21790550352E+04  0.21790550352E+04  0.50400001928E-02 0. -1.
       -1   -1    0    0    0  501  0.00000000000E+00  0.00000000000E+00 -0.57883758991E+03  0.57883758993E+03  0.50400001928E-02 0.  1.
    10030    2    1    2    0    0  0.00000000000E+00  0.00000000000E+00  0.16002174453E+04  0.27578926252E+04  0.22461691521E+04 0.  0.
        3    1    3    3  502    0  0.75860249841E+03  0.75100072828E+03  0.37153232082E+03  0.11302725866E+04  0.10100000352E+00 0.  1.
       -3    1    3    3    0  502 -0.75860249841E+03 -0.75100072828E+03  0.12286851245E+04  0.16276200385E+04  0.10100000352E+00 0. -1.
</event>
<event>
 5   0  0.2915546E-05  0.2353268E+04  0.7818609E-02  0.8457209E-01
       -1   -1    0    0    0  501  0.00000000000E+00  0.00000000000E+00  0.82190874060E+03  0.82190874061E+03  0.50400001928E-02 0. -1.
        1   -1    0    0  501    0  0.00000000000E+00  0.00000000000E+00 -0.16844546753E+04  0.16844546753E+04  0.50400001928E-02 0.  1.
    10030    2    1    2    0    0  0.00000000000E+00  0.00000000000E+00 -0.86254593469E+03  0.25063634159E+04  0.23532683832E+04 0.  0.
        2    1    3    3  502    0 -0.44044661849E+03  0.91618214259E+03  0.19979882542E+03  0.10360031432E+04  0.25500000920E-02 0. -1.
       -2    1    3    3    0  502  0.44044661849E+03 -0.91618214259E+03 -0.10623447601E+04  0.14703602727E+04  0.25500000920E-02 0.  1.
</event>
<event>
 5   0  0.6337926E-05  0.2399369E+04  0.7818609E-02  0.8439740E-01
       -2   -1    0    0    0  501  0.00000000000E+00  0.00000000000E+00  0.10608182361E+04  0.10608182361E+04  0.25500000920E-02 0.  1.
        2   -1    0    0  501    0  0.00000000000E+00  0.00000000000E+00 -0.13567287707E+04  0.13567287707E+04  0.25500000920E-02 0. -1.
    10030    2    1    2    0    0  0.00000000000E+00  0.00000000000E+00 -0.29591053455E+03  0.24175470068E+04  0.23993687682E+04 0.  0.
        1    1    3    3  502    0  0.87226328181E+03  0.82241331044E+03 -0.19341622656E+03  0.12143379771E+04  0.50400001928E-02 0.  1.
       -1    1    3    3    0  502 -0.87226328181E+03 -0.82241331044E+03 -0.10249430799E+03  0.12032090297E+04  0.50400001928E-02 0. -1.
</event>
<event>
 5   0  0.2339125E-05  0.2336532E+04  0.7818609E-02  0.8463655E-01
       -4   -1    0    0    0  501  0.00000000000E+00  0.00000000000E+00  0.85822197418E+03  0.85822291386E+03  0.12699999809E+01 0.  1.
        4   -1    0    0  501    0  0.00000000000E+00  0.00000000000E+00 -0.15903158867E+04  0.15903163938E+04  0.12699999809E+01 0. -1.
    10030    2    1    2    0    0  0.00000000000E+00  0.00000000000E+00 -0.73209391247E+03  0.24485393076E+04  0.23365323118E+04 0.  0.
        5    1    3    3  502    0  0.22172988913E+03  0.73369476055E+03  0.55789359976E+03  0.94801872558E+03  0.46999998093E+01 0.  1.
       -5    1    3    3    0  502 -0.22172988913E+03 -0.73369476055E+03 -0.12899875122E+04  0.15005205820E+04  0.46999998093E+01 0. -1.
</event>
<event>
 5   0  0.2847158E-05  0.2410396E+04  0.7818609E-02  0.8435622E-01
        1   -1    0    0  501    0  0.00000000000E+00  0.00000000000E+00  0.11059267493E+04  0.11059267493E+04  0.50400001928E-02 0. -1.
       -1   -1    0    0    0  501  0.00000000000E+00  0.00000000000E+00 -0.13133806425E+04  0.13133806426E+04  0.50400001928E-02 0.  1.
    10030    2    1    2    0    0  0.00000000000E+00  0.00000000000E+00 -0.20745389329E+03  0.24193073918E+04  0.24103964691E+04 0.  0.
        5    1    3    3  502    0  0.65226603983E+03 -0.55909026368E+03 -0.95210185819E+03  0.12824012430E+04  0.46999998093E+01 0.  1.
       -5    1    3    3    0  502 -0.65226603983E+03  0.55909026368E+03  0.74464796489E+03  0.11369061488E+04  0.46999998093E+01 0. -1.
</event>
<event>
 5   0  0.6600166E-05  0.2450063E+04  0.7818609E-02  0.8420995E-01
        2   -1    0    0  501    0  0.00000000000E+00  0.00000000000E+00  0.10901638344E+04  0.10901638344E+04  0.25500000920E-02 0. -1.
       -2   -1    0    0    0  501  0.00000000000E+00  0.00000000000E+00 -0.13765840225E+04  0.13765840225E+04  0.25500000920E-02 0.  1.
    10030    2    1    2    0    0  0.00000000000E+00  0.00000000000E+00 -0.28642018811E+03  0.24667478569E+04  0.24500629513E+04 0.  0.
        5    1    3    3  502    0 -0.89043687438E+03  0.43354749031E+03 -0.86911854216E+03  0.13176609518E+04  0.46999998093E+01 0.  1.
       -5    1    3    3    0  502  0.89043687438E+03 -0.43354749031E+03  0.58269835404E+03  0.11490869051E+04  0.46999998093E+01 0. -1.
</event>
<event>
 5   0  0.2915546E-05  0.2334534E+04  0.7818609E-02  0.8464428E-01
        1   -1    0    0  501    0  0.00000000000E+00  0.00000000000E+00  0.13575440257E+04  0.13575440257E+04  0.50400001928E-02 0.  1.
       -1   -1    0    0    0  501  0.00000000000E+00  0.00000000000E+00 -0.10036600959E+04  0.10036600959E+04  0.50400001928E-02 0. -1.
    10030    2    1    2    0    0  0.00000000000E+00  0.00000000000E+00  0.35388392979E+03  0.23612041216E+04  0.23345344435E+04 0.  0.
        2    1    3    3  502    0  0.12389741646E+03  0.45019918385E+03  0.12589684701E+04  0.13427700785E+04  0.25500000920E-02 0.  1.
       -2    1    3    3    0  502 -0.12389741646E+03 -0.45019918385E+03 -0.90508454034E+03  0.10184340431E+04  0.25500000920E-02 0. -1.
</event>
<event>
 5   0  0.2943244E-05  0.2389928E+04  0.7818609E-02  0.8443284E-01
       -1   -1    0    0    0  501  0.00000000000E+00  0.00000000000E+00  0.73006151164E+03  0.73006151166E+03  0.50400001928E-02 0. -1.
        1   -1    0    0  501    0  0.00000000000E+00  0.00000000000E+00 -0.19559158588E+04  0.19559158588E+04  0.50400001928E-02 0.  1.
    10030    2    1    2    0    0  0.00000000000E+00  0.00000000000E+00 -0.12258543472E+04  0.26859773705E+04  0.23899279391E+04 0.  0.
        3    1    3    3  502    0  0.95688358035E+03 -0.92738407445E+02  0.18471629301E+03  0.97895184645E+03  0.10100000352E+00 0. -1.
       -3    1    3    3    0  502 -0.95688358035E+03  0.92738407445E+02 -0.14105706402E+04  0.17070255240E+04  0.10100000352E+00 0.  1.
</event>
<event>
 5   0  0.2943244E-05  0.2441948E+04  0.7818609E-02  0.8423964E-01
       -1   -1    0    0    0  501  0.00000000000E+00  0.00000000000E+00  0.18082558222E+04  0.18082558222E+04  0.50400001928E-02 0. -1.
        1   -1    0    0  501    0  0.00000000000E+00  0.00000000000E+00 -0.82442813175E+03  0.82442813177E+03  0.50400001928E-02 0.  1.
    10030    2    1    2    0    0  0.00000000000E+00  0.00000000000E+00  0.98382769044E+03  0.26326839540E+04  0.24419475582E+04 0.  0.
        3    1    3    3  502    0  0.47396372403E+03  0.11130691479E+04  0.31406707999E+03  0.12498810666E+04  0.10100000352E+00 0.  1.
       -3    1    3    3    0  502 -0.47396372403E+03 -0.11130691479E+04  0.66976061045E+03  0.13828028874E+04  0.10100000352E+00 0. -1.
</event>
<event>
 5   0  0.6703961E-05  0.2428916E+04  0.7818609E-02  0.8428757E-01
       -2   -1    0    0    0  501  0.00000000000E+00  0.00000000000E+00  0.92568582488E+03  0.92568582488E+03  0.25500000920E-02 0.  1.
        2   -1    0    0  501    0  0.00000000000E+00  0.00000000000E+00 -0.15933139044E+04  0.15933139044E+04  0.25500000920E-02 0. -1.
    10030    2    1    2    0    0  0.00000000000E+00  0.00000000000E+00 -0.66762807951E+03  0.25189997293E+04  0.24289158865E+04 0.  0.
        2    1    3    3  502    0  0.10248373581E+04 -0.64484495878E+03 -0.43105433285E+03  0.12852721382E+04  0.25500000920E-02 0. -1.
       -2    1    3    3    0  502 -0.10248373581E+04  0.64484495878E+03 -0.23657374666E+03  0.12337275911E+04  0.25500000920E-02 0.  1.
</event>
<event>
 5   0  0.6337926E-05  0.2409488E+04  0.7818609E-02  0.8435960E-01
       -2   -1    0    0    0  501  0.00000000000E+00  0.00000000000E+00  0.20814489398E+04  0.20814489398E+04  0.25500000920E-02 0. -1.
        2   -1    0    0  501    0  0.00000000000E+00  0.00000000000E+00 -0.69730684625E+03  0.69730684625E+03  0.25500000920E-02 0.  1.
    10030    2    1    2    0    0  0.00000000000E+00  0.00000000000E+00  0.13841420936E+04  0.27787557861E+04  0.24094884070E+04 0.  0.
        1    1    3    3  502    0  0.75394228827E+03  0.33136176705E+03 -0.32199341774E+03  0.88425638579E+03  0.50400001928E-02 0.  1.
       -1    1    3    3    0  502 -0.75394228827E+03 -0.33136176705E+03  0.17061355113E+04  0.18944994003E+04  0.50400001928E-02 0. -1.
</event>
<event>
 5   0  0.2943244E-05  0.2390656E+04  0.7818609E-02  0.8443010E-01
        1   -1    0    0  501    0  0.00000000000E+00  0.00000000000E+00  0.16753163562E+04  0.16753163562E+04  0.50400001928E-02 0. -1.
       -1   -1    0    0    0  501  0.00000000000E+00  0.00000000000E+00 -0.85285914255E+03  0.85285914256E+03  0.50400001928E-02 0.  1.
    10030    2    1    2    0    0  0.00000000000E+00  0.00000000000E+00  0.82245721363E+03  0.25281754987E+04  0.23906558690E+04 0.  0.
        3    1    3    3  502    0 -0.18435851827E+03 -0.21031023626E+03  0.16402288903E+04  0.16639018245E+04  0.10100000352E+00 0. -1.
       -3    1    3    3    0  502  0.18435851827E+03  0.21031023626E+03 -0.81777167665E+03  0.86427367429E+03  0.10100000352E+00 0.  1.
</event>
<event>
 5   0  0.6337926E-05  0.2426335E+04  0.7818609E-02  0.8429710E-01
       -2   -1    0    0    0  501  0.00000000000E+00  0.00000000000E+00  0.80395748747E+03  0.80395748748E+03  0.25500000920E-02 0. -1.
        2   -1    0    0  501    0  0.00000000000E+00  0.00000000000E+00 -0.18306625004E+04  0.18306625004E+04  0.25500000920E-02 0.  1.
    10030    2    1    2    0    0  0.00000000000E+00  0.00000000000E+00 -0.10267050129E+04  0.26346199879E+04  0.24263345394E+04 0.  0.
        1    1    3    3  502    0 -0.76406891892E+03  0.89768924288E+03 -0.20217249342E+03  0.11960438983E+04  0.50400001928E-02 0.  1.
       -1    1    3    3    0  502  0.76406891892E+03 -0.89768924288E+03 -0.82453251950E+03  0.14385760895E+04  0.50400001928E-02 0. -1.
</event>
<event>
 5   0  0.6337926E-05  0.2426204E+04  0.7818609E-02  0.8429758E-01
        2   -1    0    0  501    0  0.00000000000E+00  0.00000000000E+00  0.11919244462E+04  0.11919244462E+04  0.25500000920E-02 0.  1.
       -2   -1    0    0    0  501  0.00000000000E+00  0.00000000000E+00 -0.12346559055E+04  0.12346559055E+04  0.25500000920E-02 0. -1.
    10030    2    1    2    0    0  0.00000000000E+00  0.00000000000E+00 -0.42731459272E+02  0.24265803518E+04  0.24262040776E+04 0.  0.
        1    1    3    3  502    0 -0.83032750907E+03 -0.25852290950E+03 -0.86727387296E+03  0.12281864019E+04  0.50400001928E-02 0. -1.
       -1    1    3    3    0  502  0.83032750907E+03  0.25852290950E+03  0.82454241369E+03  0.11983939499E+04  0.50400001928E-02 0.  1.
</event>
<event>
 5   0  0.6600166E-05  0.2360948E+04  0.7818609E-02  0.8454270E-01
        2   -1    0    0  501    0  0.00000000000E+00  0.00000000000E+00  0.16058141904E+04  0.16058141904E+04  0.25500000920E-02 0. -1.
       -2   -1    0    0    0  501  0.00000000000E+00  0.00000000000E+00 -0.86779586567E+03  0.86779586568E+03  0.25500000920E-02 0.  1.
    10030    2    1    2    0    0  0.00000000000E+00  0.00000000000E+00  0.73801832472E+03  0.24736100561E+04  0.23609480430E+04 0.  0.
        5    1    3    3  502    0  0.10986518715E+04 -0.43143821100E+03  0.38780866101E+03  0.12424139859E+04  0.46999998093E+01 0.  1.
       -5    1    3    3    0  502 -0.10986518715E+04  0.43143821100E+03  0.35020966371E+03  0.12311960702E+04  0.46999998093E+01 0. -1.
</event>
<event>
 5   0  0.6714629E-05  0.2391365E+04  0.7818609E-02  0.8442743E-01
       -2   -1    0    0    0  501  0.00000000000E+00  0.00000000000E+00  0.13154269621E+04  0.13154269621E+04  0.25500000920E-02 0. -1.
        2   -1    0    0  501    0  0.00000000000E+00  0.00000000000E+00 -0.10868386028E+04  0.10868386028E+04  0.25500000920E-02 0.  1.
    10030    2    1    2    0    0  0.00000000000E+00  0.00000000000E+00  0.22858835931E+03  0.24022655649E+04  0.23913651344E+04 0.  0.
        3    1    3    3  502    0 -0.65335111273E+03  0.15649994073E+03 -0.87930324670E+03  0.11065866969E+04  0.10100000352E+00 0.  1.
       -3    1    3    3    0  502  0.65335111273E+03 -0.15649994073E+03  0.11078916060E+04  0.12956788679E+04  0.10100000352E+00 0. -1.
</event>
<event>
 5   0  0.2943123E-05  0.2412605E+04  0.7818609E-02  0.8434799E-01
        1   -1    0    0  501    0  0.00000000000E+00  0.00000000000E+00  0.62470532311E+03  0.62470532313E+03  0.50400001928E-02 0.  1.
       -1   -1    0    0    0  501  0.00000000000E+00  0.00000000000E+00 -0.23293640915E+04  0.23293640916E+04  0.50400001928E-02 0. -1.
    10030    2    1    2    0    0  0.00000000000E+00  0.00000000000E+00 -0.17046587684E+04  0.29540694147E+04  0.24126053531E+04 0.  0.
        1    1    3    3  502    0  0.11252387295E+04  0.29558732844E+03 -0.46198330945E+03  0.12517837854E+04  0.50400001928E-02 0.  1.
       -1    1    3    3    0  502 -0.11252387295E+04 -0.29558732844E+03 -0.12426754590E+04  0.17022856293E+04  0.50400001928E-02 0. -1.
</event>
<event>
 5   0  0.2943123E-05  0.1672374E+04  0.7818609E-02  0.8777279E-01
       -1   -1    0    0    0  501  0.00000000000E+00  0.00000000000E+00  0.32840158954E+03  0.32840158958E+03  0.50400001928E-02 0.  1.
        1   -1    0    0  501    0  0.00000000000E+00  0.00000000000E+00 -0.21291263753E+04  0.21291263753E+04  0.50400001928E-02 0. -1.
    10030    2    1    2    0    0  0.00000000000E+00  0.00000000000E+00 -0.18007247858E+04  0.24575279649E+04  0.16723737454E+04 0.  0.
        1    1    3    3  502    0 -0.48459651200E+03 -0.67542015957E+03 -0.76743845013E+03  0.11313655228E+04  0.50400001928E-02 0. -1.
       -1    1    3    3    0  502  0.48459651200E+03  0.67542015957E+03 -0.10332863356E+04  0.13261624421E+04  0.50400001928E-02 0.  1.
</event>
<event>
 5   0  0.2943123E-05  0.2477729E+04  0.7818609E-02  0.8410963E-01
        1   -1    0    0  501    0  0.00000000000E+00  0.00000000000E+00  0.14663678056E+04  0.14663678056E+04  0.50400001928E-02 0. -1.
       -1   -1    0    0    0  501  0.00000000000E+00  0.00000000000E+00 -0.10466581138E+04  0.10466581138E+04  0.50400001928E-02 0.  1.
    10030    2    1    2    0    0  0.00000000000E+00  0.00000000000E+00  0.41970969183E+03  0.25130259194E+04  0.24777294135E+04 0.  0.
        1    1    3    3  502    0  0.48846381998E+03 -0.94161022583E+03 -0.43922982099E+03  0.11481069447E+04  0.50400001928E-02 0.  1.
       -1    1    3    3    0  502 -0.48846381998E+03  0.94161022583E+03  0.85893951282E+03  0.13649189747E+04  0.50400001928E-02 0. -1.
</event>
<event>
 5   0  0.6600166E-05  0.2813472E+04  0.7818609E-02  0.8299098E-01
        2   -1    0    0  501    0  0.00000000000E+00  0.00000000000E+00  0.17024805288E+04  0.17024805288E+04  0.25500000920E-02 0. -1.
       -2   -1    0    0    0  501  0.00000000000E+00  0.00000000000E+00 -0.11623667262E+04  0.11623667262E+04  0.25500000920E-02 0.  1.
    10030    2    1    2    0    0  0.00000000000E+00  0.00000000000E+00  0.54011380265E+03  0.28648472550E+04  0.28134723874E+04 0.  0.
        5    1    3    3  502    0  0.13814750585E+03  0.10462292316E+04  0.12172055558E+04  0.16109909352E+04  0.46999998093E+01 0. -1.
       -5    1    3    3    0  502 -0.13814750585E+03 -0.10462292316E+04 -0.67709175311E+03  0.12538563197E+04  0.46999998093E+01 0.  1.
</event>
<event>
 5   0  0.6337926E-05  0.2375682E+04  0.7818609E-02  0.8448664E-01
        2   -1    0    0  501    0  0.00000000000E+00  0.00000000000E+00  0.76887482818E+03  0.76887482818E+03  0.25500000920E-02 0. -1.
       -2   -1    0    0    0  501  0.00000000000E+00  0.00000000000E+00 -0.18351051639E+04  0.18351051639E+04  0.25500000920E-02 0.  1.
    10030    2    1    2    0    0  0.00000000000E+00  0.00000000000E+00 -0.10662303358E+04  0.26039799921E+04  0.23756819380E+04 0.  0.
        1    1    3    3  502    0  0.19897002258E+02  0.62126493141E+03  0.57638291781E+03  0.84769291236E+03  0.50400001928E-02 0. -1.
       -1    1    3    3    0  502 -0.19897002258E+02 -0.62126493141E+03 -0.16426132536E+04  0.17562870798E+04  0.50400001928E-02 0.  1.
</event>
<event>
 5   0  0.2847158E-05  0.2410834E+04  0.7818609E-02  0.8435459E-01
       -1   -1    0    0    0  501  0.00000000000E+00  0.00000000000E+00  0.79722706826E+03  0.79722706828E+03  0.50400001928E-02 0. -1.
        1   -1    0    0  501    0  0.00000000000E+00  0.00000000000E+00 -0.18226049120E+04  0.18226049120E+04  0.50400001928E-02 0.  1.
    10030    2    1    2    0    0  0.00000000000E+00  0.00000000000E+00 -0.10253778438E+04  0.26198319803E+04  0.24108338563E+04 0.  0.
        5    1    3    3  502    0  0.18047226826E+03 -0.11343014279E+04 -0.91018314834E+03  0.14654915293E+04  0.46999998093E+01 0.  1.
       -5    1    3    3    0  502 -0.18047226826E+03  0.11343014279E+04 -0.11519469543E+03  0.11543404510E+04  0.46999998093E+01 0. -1.
</event>
<event>
 5   0  0.2943244E-05  0.2448348E+04  0.7818609E-02  0.8421621E-01
       -1   -1    0    0    0  501  0.00000000000E+00  0.00000000000E+00  0.16880326527E+04  0.16880326527E+04  0.50400001928E-02 0. -1.
        1   -1    0    0  501    0  0.00000000000E+00  0.00000000000E+00 -0.88778012171E+03  0.88778012173E+03  0.50400001928E-02 0.  1.
    10030    2    1    2    0    0  0.00000000000E+00  0.00000000000E+00  0.80025253099E+03  0.25758127744E+04  0.24483478788E+04 0.  0.
        3    1    3    3  502    0 -0.99868997293E+03  0.35339984216E+03  0.10455201486E+04  0.14884171128E+04  0.10100000352E+00 0. -1.
       -3    1    3    3    0  502  0.99868997293E+03 -0.35339984216E+03 -0.24526761758E+03  0.10873956616E+04  0.10100000352E+00 0.  1.
</event>
<event>
 5   0  0.6337926E-05  0.2414228E+04  0.7818609E-02  0.8434196E-01
        2   -1    0    0  501    0  0.00000000000E+00  0.00000000000E+00  0.16255473889E+04  0.16255473889E+04  0.25500000920E-02 0. -1.
       -2   -1    0    0    0  501  0.00000000000E+00  0.00000000000E+00 -0.89639009831E+03  0.89639009832E+03  0.25500000920E-02 0.  1.
    10030    2    1    2    0    0  0.00000000000E+00  0.00000000000E+00  0.72915729059E+03  0.25219374872E+04  0.24142283105E+04 0.  0.
        1    1    3    3  502    0  0.41429231540E+02  0.60767289196E+03 -0.72409887278E+03  0.94620394336E+03  0.50400001928E-02 0.  1.
       -1    1    3    3    0  502 -0.41429231540E+02 -0.60767289196E+03  0.14532561634E+04  0.15757335439E+04  0.50400001928E-02 0. -1.
</event>
<event>
 5   0  0.2943123E-05  0.2399173E+04  0.7818609E-02  0.8439813E-01
       -1   -1    0    0    0  501  0.00000000000E+00  0.00000000000E+00  0.14164937175E+04  0.14164937175E+04  0.50400001928E-02 0. -1.
        1   -1    0    0  501    0  0.00000000000E+00  0.00000000000E+00 -0.10158942597E+04  0.10158942597E+04  0.50400001928E-02 0.  1.
    10030    2    1    2    0    0  0.00000000000E+00  0.00000000000E+00  0.40059945775E+03  0.24323879772E+04  0.23991730547E+04 0.  0.
        1    1    3    3  502    0 -0.68727104933E+03 -0.93935938821E+03 -0.94012626360E+02  0.11677225396E+04  0.50400001928E-02 0.  1.
       -1    1    3    3    0  502  0.68727104933E+03  0.93935938821E+03  0.49461208411E+03  0.12646654377E+04  0.50400001928E-02 0. -1.
</event>
<event>
 5   0  0.2915546E-05  0.2500227E+04  0.7818609E-02  0.8402905E-01
       -1   -1    0    0    0  501  0.00000000000E+00  0.00000000000E+00  0.88771506148E+03  0.88771506149E+03  0.50400001928E-02 0. -1.
        1   -1    0    0  501    0  0.00000000000E+00  0.00000000000E+00 -0.17604562053E+04  0.17604562053E+04  0.50400001928E-02 0.  1.
    10030    2    1    2    0    0  0.00000000000E+00  0.00000000000E+00 -0.87274114379E+03  0.26481712668E+04  0.25002267805E+04 0.  0.
        2    1    3    3  502    0 -0.64993413884E+03  0.90151614532E+03  0.16989600904E+03  0.11242821705E+04  0.25500000920E-02 0.  1.
       -2    1    3    3    0  502  0.64993413884E+03 -0.90151614532E+03 -0.10426371528E+04  0.15238890962E+04  0.25500000920E-02 0. -1.
</event>
<event>
 5   0  0.2901816E-05  0.2391613E+04  0.7818609E-02  0.8442650E-01
        1   -1    0    0  501    0  0.00000000000E+00  0.00000000000E+00  0.71831157936E+03  0.71831157937E+03  0.50400001928E-02 0. -1.
       -1   -1    0    0    0  501  0.00000000000E+00  0.00000000000E+00 -0.19907138249E+04  0.19907138249E+04  0.50400001928E-02 0.  1.
    10030    2    1    2    0    0  0.00000000000E+00  0.00000000000E+00 -0.12724022455E+04  0.27090254042E+04  0.23916126707E+04 0.  0.
        4    1    3    3  502    0  0.70620655014E+03  0.72010983413E+03 -0.13638489138E+04  0.16962816209E+04  0.12699999809E+01 0.  1.
       -4    1    3    3    0  502 -0.70620655014E+03 -0.72010983413E+03  0.91446668335E+02  0.10127437834E+04  0.12699999809E+01 0. -1.
</event>
<event>
 5   0  0.2901816E-05  0.2365175E+04  0.7818609E-02  0.8452658E-01
       -1   -1    0    0    0  501  0.00000000000E+00  0.00000000000E+00  0.15844184216E+04  0.15844184216E+04  0.50400001928E-02 0. -1.
        1   -1    0    0  501    0  0.00000000000E+00  0.00000000000E+00 -0.88266677069E+03  0.88266677070E+03  0.50400001928E-02 0.  1.
    10030    2    1    2    0    0  0.00000000000E+00  0.00000000000E+00  0.70175165091E+03  0.24670851923E+04  0.23651752507E+04 0.  0.
        4    1    3    3  502    0 -0.81641079664E+03  0.60395795556E+03 -0.28122161226E+03  0.10537452297E+04  0.12699999809E+01 0. -1.
       -4    1    3    3    0  502  0.81641079664E+03 -0.60395795556E+03  0.98297326317E+03  0.14133399626E+04  0.12699999809E+01 0.  1.
</event>
<event>
 5   0  0.2943123E-05  0.2295950E+04  0.7818609E-02  0.8479520E-01
       -1   -1    0    0    0  501  0.00000000000E+00  0.00000000000E+00  0.63255381770E+03  0.63255381772E+03  0.50400001928E-02 0.  1.
        1   -1    0    0  501    0  0.00000000000E+00  0.00000000000E+00 -0.20833741052E+04  0.20833741052E+04  0.50400001928E-02 0. -1.
    10030    2    1    2    0    0  0.00000000000E+00  0.00000000000E+00 -0.14508202875E+04  0.27159279230E+04  0.22959496894E+04 0.  0.
        1    1    3    3  502    0 -0.43853800959E+02 -0.10992946696E+04 -0.33760977207E+03  0.11508050594E+04  0.50400001928E-02 0. -1.
       -1    1    3    3    0  502  0.43853800959E+02  0.10992946696E+04 -0.11132105155E+04  0.15651228636E+04  0.50400001928E-02 0.  1.
</event>
<event>
 5   0  0.2943244E-05  0.2137308E+04  0.7818609E-02  0.8544985E-01
        1   -1    0    0  501    0  0.00000000000E+00  0.00000000000E+00  0.82235354412E+03  0.82235354413E+03  0.50400001928E-02 0.  1.
       -1   -1    0    0    0  501  0.00000000000E+00  0.00000000000E+00 -0.13887234276E+04  0.13887234276E+04  0.50400001928E-02 0. -1.
    10030    2    1    2    0    0  0.00000000000E+00  0.00000000000E+00 -0.56636988352E+03  0.22110769718E+04  0.21373082441E+04 0.  0.
        3    1    3    3  502    0 -0.41281816138E+03  0.73956381325E+03  0.39095695841E+03  0.93285627069E+03  0.10100000352E+00 0.  1.
       -3    1    3    3    0  502  0.41281816138E+03 -0.73956381325E+03 -0.95732684193E+03  0.12782207011E+04  0.10100000352E+00 0. -1.
</event>
<event>
 5   0  0.2901816E-05  0.2411241E+04  0.7818609E-02  0.8435307E-01
       -1   -1    0    0    0  501  0.00000000000E+00  0.00000000000E+00  0.93052341088E+03  0.93052341089E+03  0.50400001928E-02 0. -1.
        1   -1    0    0  501    0  0.00000000000E+00  0.00000000000E+00 -0.15620464440E+04  0.15620464440E+04  0.50400001928E-02 0.  1.
    10030    2    1    2    0    0  0.00000000000E+00  0.00000000000E+00 -0.63152303310E+03  0.24925698549E+04  0.24112409959E+04 0.  0.
        4    1    3    3  502    0  0.11431161460E+04  0.35562051965E+03 -0.16833749280E+03  0.12089332494E+04  0.12699999809E+01 0.  1.
       -4    1    3    3    0  502 -0.11431161460E+04 -0.35562051965E+03 -0.46318554030E+03  0.12836366054E+04  0.12699999809E+01 0. -1.
</event>
<event>
 5   0  0.6714629E-05  0.2500523E+04  0.7818609E-02  0.8402799E-01
        2   -1    0    0  501    0  0.00000000000E+00  0.00000000000E+00  0.15496000843E+04  0.15496000843E+04  0.25500000920E-02 0. -1.
       -2   -1    0    0    0  501  0.00000000000E+00  0.00000000000E+00 -0.10087463342E+04  0.10087463342E+04  0.25500000920E-02 0.  1.
    10030    2    1    2    0    0  0.00000000000E+00  0.00000000000E+00  0.54085375007E+03  0.25583464185E+04  0.25005226690E+04 0.  0.
        3    1    3    3  502    0 -0.10746158537E+04  0.63872836707E+03  0.29037739394E+03  0.12833908996E+04  0.10100000352E+00 0. -1.
       -3    1    3    3    0  502  0.10746158537E+04 -0.63872836707E+03  0.25047635613E+03  0.12749555189E+04  0.10100000352E+00 0.  1.
</event>
<event>
 5   0  0.2915546E-05  0.2388891E+04  0.7818609E-02  0.8443674E-01
        1   -1    0    0  501    0  0.00000000000E+00  0.00000000000E+00  0.15943836532E+04  0.15943836532E+04  0.50400001928E-02 0. -1.
       -1   -1    0    0    0  501  0.00000000000E+00  0.00000000000E+00 -0.89482834901E+03  0.89482834902E+03  0.50400001928E-02 0.  1.
    10030    2    1    2    0    0  0.00000000000E+00  0.00000000000E+00  0.69955530423E+03  0.24892120023E+04  0.23888906983E+04 0.  0.
        2    1    3    3  502    0  0.94744737713E+02  0.11337627201E+04  0.72879064531E+03  0.13511218582E+04  0.25500000920E-02 0.  1.
       -2    1    3    3    0  502 -0.94744737713E+02 -0.11337627201E+04 -0.29235341080E+02  0.11380901441E+04  0.25500000920E-02 0. -1.
</event>
<event>
 5   0  0.2943244E-05  0.2392925E+04  0.7818609E-02  0.8442157E-01
       -1   -1    0    0    0  501  0.00000000000E+00  0.00000000000E+00  0.74882877576E+03  0.74882877578E+03  0.50400001928E-02 0. -1.
        1   -1    0    0  501    0  0.00000000000E+00  0.00000000000E+00 -0.19116821353E+04  0.19116821353E+04  0.50400001928E-02 0.  1.
    10030    2    1    2    0    0  0.00000000000E+00  0.00000000000E+00 -0.11628533595E+04  0.26605109111E+04  0.23929250661E+04 0.  0.
        3    1    3    3  502    0 -0.43007419404E+03 -0.10937795517E+04 -0.83054731514E+03  0.14391408454E+04  0.10100000352E+00 0.  1.
       -3    1    3    3    0  502  0.43007419404E+03  0.10937795517E+04 -0.33230604438E+03  0.12213700657E+04  0.10100000352E+00 0. -1.
</event>
<event>
 5   0  0.2915546E-05  0.2434415E+04  0.7818609E-02  0.8426730E-01
        1   -1    0    0  501    0  0.00000000000E+00  0.00000000000E+00  0.12577388786E+04  0.12577388786E+04  0.50400001928E-02 0. -1.
       -1   -1    0    0    0  501  0.00000000000E+00  0.00000000000E+00 -0.11779823724E+04  0.11779823724E+04  0.50400001928E-02 0.  1.
    10030    2    1    2    0    0  0.00000000000E+00  0.00000000000E+00  0.79756506200E+02  0.24357212510E+04  0.24344151068E+04 0.  0.
        2    1    3    3  502    0 -0.30078438006E+03  0.10881171450E+04 -0.41547477576E+03  0.12029503123E+04  0.25500000920E-02 0.  1.
       -2    1    3    3    0  502  0.30078438006E+03 -0.10881171450E+04  0.49523128196E+03  0.12327709387E+04  0.25500000920E-02 0. -1.
</event>
<event>
 5   0  0.6337926E-05  0.2372661E+04  0.7818609E-02  0.8449810E-01
       -2   -1    0    0    0  501  0.00000000000E+00  0.00000000000E+00  0.17911830263E+04  0.17911830263E+04  0.25500000920E-02 0. -1.
        2   -1    0    0  501    0  0.00000000000E+00  0.00000000000E+00 -0.78572646036E+03  0.78572646036E+03  0.25500000920E-02 0.  1.
    10030    2    1    2    0    0  0.00000000000E+00  0.00000000000E+00  0.10054565659E+04  0.25769094866E+04  0.23726608684E+04 0.  0.
        1    1    3    3  502    0 -0.54800053998E+03  0.24893232799E+03  0.16130378539E+04  0.17216744796E+04  0.50400001928E-02 0. -1.
       -1    1    3    3    0  502  0.54800053998E+03 -0.24893232799E+03 -0.60758128795E+03  0.85523500702E+03  0.50400001928E-02 0.  1.
</event>
<event>
 5   0  0.2943123E-05  0.2450395E+04  0.7818609E-02  0.8420874E-01
       -1   -1    0    0    0  501  0.00000000000E+00  0.00000000000E+00  0.85972782161E+03  0.85972782162E+03  0.50400001928E-02 0.  1.
        1   -1    0    0  501    0  0.00000000000E+00  0.00000000000E+00 -0.17460285780E+04  0.17460285780E+04  0.50400001928E-02 0. -1.
    10030    2    1    2    0    0  0.00000000000E+00  0.00000000000E+00 -0.88630075642E+03  0.26057563997E+04  0.24503953525E+04 0.  0.
        1    1    3    3  502    0  0.33756869324E+03  0.46697690121E+03 -0.15929482362E+04  0.16939610775E+04  0.50400001928E-02 0. -1.
       -1    1    3    3    0  502 -0.33756869324E+03 -0.46697690121E+03  0.70664747973E+03  0.91179532218E+03  0.50400001928E-02 0.  1.
</event>
<event>
 5   0  0.6703961E-05  0.2443340E+04  0.7818609E-02  0.8423454E-01
       -2   -1    0    0    0  501  0.00000000000E+00  0.00000000000E+00  0.72196517637E+03  0.72196517638E+03  0.25500000920E-02 0. -1.
        2   -1    0    0  501    0  0.00000000000E+00  0.00000000000E+00 -0.20672435908E+04  0.20672435908E+04  0.25500000920E-02 0.  1.
    10030    2    1    2    0    0  0.00000000000E+00  0.00000000000E+00 -0.13452784144E+04  0.27892087672E+04  0.24433402413E+04 0.  0.
        2    1    3    3  502    0 -0.10036076271E+04  0.46327407705E+03 -0.78781455022E+02  0.11081776289E+04  0.25500000920E-02 0. -1.
       -2    1    3    3    0  502  0.10036076271E+04 -0.46327407705E+03 -0.12664969594E+04  0.16810311383E+04  0.25500000920E-02 0.  1.
</event>
<event>
 5   0  0.2847158E-05  0.2339452E+04  0.7818609E-02  0.8462526E-01
        1   -1    0    0  501    0  0.00000000000E+00  0.00000000000E+00  0.10435710650E+04  0.10435710651E+04  0.50400001928E-02 0.  1.
       -1   -1    0    0    0  501  0.00000000000E+00  0.00000000000E+00 -0.13111316902E+04  0.13111316902E+04  0.50400001928E-02 0. -1.
    10030    2    1    2    0    0  0.00000000000E+00  0.00000000000E+00 -0.26756062517E+03  0.23547027553E+04  0.23394521533E+04 0.  0.
        5    1    3    3  502    0 -0.43087128505E+03  0.49925622874E+03  0.83860765047E+03  0.10668606880E+04  0.46999998093E+01 0.  1.
       -5    1    3    3    0  502  0.43087128505E+03 -0.49925622874E+03 -0.11061682756E+04  0.12878420673E+04  0.46999998093E+01 0. -1.
</event>
<event>
 5   0  0.2901816E-05  0.2431668E+04  0.7818609E-02  0.8427742E-01
        1   -1    0    0  501    0  0.00000000000E+00  0.00000000000E+00  0.60071081729E+03  0.60071081731E+03  0.50400001928E-02 0.  1.
       -1   -1    0    0    0  501  0.00000000000E+00  0.00000000000E+00 -0.24608383318E+04  0.24608383318E+04  0.50400001928E-02 0. -1.
    10030    2    1    2    0    0  0.00000000000E+00  0.00000000000E+00 -0.18601275145E+04  0.30615491491E+04  0.24316679095E+04 0.  0.
        4    1    3    3  502    0 -0.77286862929E+03 -0.93035671766E+03 -0.77401961963E+03  0.14359657115E+04  0.12699999809E+01 0.  1.
       -4    1    3    3    0  502  0.77286862929E+03  0.93035671766E+03 -0.10861078948E+04  0.16255834375E+04  0.12699999809E+01 0. -1.
</event>
<event>
 5   0  0.2943244E-05  0.2407078E+04  0.7818609E-02  0.8436858E-01
        1   -1    0    0  501    0  0.00000000000E+00  0.00000000000E+00  0.11600627937E+04  0.11600627937E+04  0.50400001928E-02 0. -1.
       -1   -1    0    0    0  501  0.00000000000E+00  0.00000000000E+00 -0.12486447607E+04  0.12486447607E+04  0.50400001928E-02 0.  1.
    10030    2    1    2    0    0  0.00000000000E+00  0.00000000000E+00 -0.88581966926E+02  0.24087075544E+04  0.24070781703E+04 0.  0.
        3    1    3    3  502    0  0.91174917703E+03  0.19843874594E+03 -0.80496462202E+03  0.12323281019E+04  0.10100000352E+00 0.  1.
       -3    1    3    3    0  502 -0.91174917703E+03 -0.19843874594E+03  0.71638265509E+03  0.11763794526E+04  0.10100000352E+00 0. -1.
</event>
<event>
 5   0  0.2339125E-05  0.2418885E+04  0.7818609E-02  0.8432467E-01
        3   -1    0    0  501    0  0.00000000000E+00  0.00000000000E+00  0.27317661176E+04  0.27317661195E+04  0.10100000352E+00 0.  1.
       -3   -1    0    0    0  501  0.00000000000E+00  0.00000000000E+00 -0.53545972656E+03  0.53545973608E+03  0.10100000352E+00 0. -1.
    10030    2    1    2    0    0  0.00000000000E+00  0.00000000000E+00  0.21963063910E+04  0.32672258555E+04  0.24188846661E+04 0.  0.
        5    1    3    3  502    0 -0.10858003343E+04 -0.53143802665E+03  0.10487102652E+04  0.16003762222E+04  0.46999998093E+01 0. -1.
       -5    1    3    3    0  502  0.10858003343E+04  0.53143802665E+03  0.11475961258E+04  0.16668496333E+04  0.46999998093E+01 0.  1.
</event>
<event>
 5   0  0.6714629E-05  0.2899219E+04  0.7818609E-02  0.8273110E-01
        2   -1    0    0  501    0  0.00000000000E+00  0.00000000000E+00  0.18734432051E+04  0.18734432051E+04  0.25500000920E-02 0. -1.
       -2   -1    0    0    0  501  0.00000000000E+00  0.00000000000E+00 -0.11216605349E+04  0.11216605349E+04  0.25500000920E-02 0.  1.
    10030    2    1    2    0    0  0.00000000000E+00  0.00000000000E+00  0.75178267019E+03  0.29951037400E+04  0.28992187276E+04 0.  0.
        3    1    3    3  502    0  0.10663951393E+04  0.67481628583E+03  0.11127783278E+04  0.16825133669E+04  0.10100000352E+00 0.  1.
       -3    1    3    3    0  502 -0.10663951393E+04 -0.67481628583E+03 -0.36099565757E+03  0.13125903732E+04  0.10100000352E+00 0. -1.
</event>
<event>
 5   0  0.6978115E-05  0.2452933E+04  0.7818609E-02  0.8419948E-01
       -2   -1    0    0    0  501  0.00000000000E+00  0.00000000000E+00  0.62509451362E+03  0.62509451362E+03  0.25500000920E-02 0.  1.
        2   -1    0    0  501    0  0.00000000000E+00  0.00000000000E+00 -0.24063873803E+04  0.24063873803E+04  0.25500000920E-02 0. -1.
    10030    2    1    2    0    0  0.00000000000E+00  0.00000000000E+00 -0.17812928667E+04  0.30314818940E+04  0.24529325707E+04 0.  0.
        4    1    3    3  502    0 -0.39225558129E+03  0.14450808331E+03  0.53433362949E+03  0.67842543267E+03  0.12699999809E+01 0.  1.
       -4    1    3    3    0  502  0.39225558129E+03 -0.14450808331E+03 -0.23156264962E+04  0.23530564613E+04  0.12699999809E+01 0. -1.
</event>
<event>
 5   0  0.2901816E-05  0.2387913E+04  0.7818609E-02  0.8444043E-01
        1   -1    0    0  501    0  0.00000000000E+00  0.00000000000E+00  0.16283185341E+04  0.16283185341E+04  0.50400001928E-02 0. -1.
       -1   -1    0    0    0  501  0.00000000000E+00  0.00000000000E+00 -0.87546272457E+03  0.87546272458E+03  0.50400001928E-02 0.  1.
    10030    2    1    2    0    0  0.00000000000E+00  0.00000000000E+00  0.75285580953E+03  0.25037812587E+04  0.23879130473E+04 0.  0.
        4    1    3    3  502    0  0.44990374343E+03  0.10952159159E+04  0.53757083794E+03  0.13003443004E+04  0.12699999809E+01 0. -1.
       -4    1    3    3    0  502 -0.44990374343E+03 -0.10952159159E+04  0.21528497159E+03  0.12034369583E+04  0.12699999809E+01 0.  1.
</event>
<event>
 5   0  0.2847158E-05  0.2370661E+04  0.7818609E-02  0.8450570E-01
        1   -1    0    0  501    0  0.00000000000E+00  0.00000000000E+00  0.10229410289E+04  0.10229410289E+04  0.50400001928E-02 0.  1.
       -1   -1    0    0    0  501  0.00000000000E+00  0.00000000000E+00 -0.13734992925E+04  0.13734992926E+04  0.50400001928E-02 0. -1.
    10030    2    1    2    0    0  0.00000000000E+00  0.00000000000E+00 -0.35055826363E+03  0.23964403215E+04  0.23706613251E+04 0.  0.
        5    1    3    3  502    0  0.37404152268E+03  0.49348364153E+03  0.84643092163E+03  0.10487614411E+04  0.46999998093E+01 0.  1.
       -5    1    3    3    0  502 -0.37404152268E+03 -0.49348364153E+03 -0.11969891853E+04  0.13476788804E+04  0.46999998093E+01 0. -1.
</event>
<event>
 5   0  0.6714629E-05  0.2254246E+04  0.7818609E-02  0.8496183E-01
        2   -1    0    0  501    0  0.00000000000E+00  0.00000000000E+00  0.11227240265E+04  0.11227240265E+04  0.25500000920E-02 0.  1.
       -2   -1    0    0    0  501  0.00000000000E+00  0.00000000000E+00 -0.11315393744E+04  0.11315393744E+04  0.25500000920E-02 0. -1.
    10030    2    1    2    0    0  0.00000000000E+00  0.00000000000E+00 -0.88153478686E+01  0.22542634008E+04  0.22542461645E+04 0.  0.
        3    1    3    3  502    0 -0.89689217794E+02 -0.54502384098E+03 -0.98691775085E+03  0.11309738282E+04  0.10100000352E+00 0. -1.
       -3    1    3    3    0  502  0.89689217794E+02  0.54502384098E+03  0.97810240298E+03  0.11232895726E+04  0.10100000352E+00 0.  1.
</event>
<event>
 5   0  0.2901816E-05  0.2406108E+04  0.7818609E-02  0.8437220E-01
       -1   -1    0    0    0  501  0.00000000000E+00  0.00000000000E+00  0.12304763882E+04  0.12304763882E+04  0.50400001928E-02 0.  1.
        1   -1    0    0  501    0  0.00000000000E+00  0.00000000000E+00 -0.11762424585E+04  0.11762424586E+04  0.50400001928E-02 0. -1.
    10030    2    1    2    0    0  0.00000000000E+00  0.00000000000E+00  0.54233929674E+02  0.24067188468E+04  0.24061077050E+04 0.  0.
        4    1    3    3  502    0  0.37572733679E+03  0.10530100387E+04 -0.41722079366E+03  0.11933465452E+04  0.12699999809E+01 0. -1.
       -4    1    3    3    0  502 -0.37572733679E+03 -0.10530100387E+04  0.47145472334E+03  0.12133723016E+04  0.12699999809E+01 0.  1.
</event>
<event>
 5   0  0.6714629E-05  0.2364553E+04  0.7818609E-02  0.8452895E-01
       -2   -1    0    0    0  501  0.00000000000E+00  0.00000000000E+00  0.17787709702E+04  0.17787709702E+04  0.25500000920E-02 0.  1.
        2   -1    0    0  501    0  0.00000000000E+00  0.00000000000E+00 -0.78581100255E+03  0.78581100256E+03  0.25500000920E-02 0. -1.
    10030    2    1    2    0    0  0.00000000000E+00  0.00000000000E+00  0.99295996761E+03  0.25645819727E+04  0.23645530651E+04 0.  0.
        3    1    3    3  502    0 -0.81601318029E+02 -0.40698438538E+03  0.16971429546E+04  0.17471660722E+04  0.10100000352E+00 0.  1.
       -3    1    3    3    0  502  0.81601318029E+02  0.40698438538E+03 -0.70418298703E+03  0.81741590055E+03  0.10100000352E+00 0. -1.
</event>
<event>
 5   0  0.2847158E-05  0.2441869E+04  0.7818609E-02  0.8423993E-01
       -1   -1    0    0    0  501  0.00000000000E+00  0.00000000000E+00  0.20506095154E+04  0.20506095154E+04  0.50400001928E-02 0. -1.
        1   -1    0    0  501    0  0.00000000000E+00  0.00000000000E+00 -0.72694553812E+03  0.72694553814E+03  0.50400001928E-02 0.  1.
    10030    2    1    2    0    0  0.00000000000E+00  0.00000000000E+00  0.13236639773E+04  0.27775550536E+04  0.24418693148E+04 0.  0.
        5    1    3    3  502    0  0.21410733889E+03  0.32054626944E+02 -0.70492800292E+03  0.73743815400E+03  0.46999998093E+01 0.  1.
       -5    1    3    3    0  502 -0.21410733889E+03 -0.32054626944E+02  0.20285919802E+04  0.20401168996E+04  0.46999998093E+01 0. -1.
</event>
<event>
 5   0  0.2915546E-05  0.2298453E+04  0.7818609E-02  0.8478531E-01
        1   -1    0    0  501    0  0.00000000000E+00  0.00000000000E+00  0.16174717925E+04  0.16174717926E+04  0.50400001928E-02 0.  1.
       -1   -1    0    0    0  501  0.00000000000E+00  0.00000000000E+00 -0.81653429577E+03  0.81653429579E+03  0.50400001928E-02 0. -1.
    10030    2    1    2    0    0  0.00000000000E+00  0.00000000000E+00  0.80093749677E+03  0.24340060883E+04  0.22984526892E+04 0.  0.
        2    1    3    3  502    0 -0.47433717876E+03 -0.11574625316E+03 -0.70123692502E+03  0.85447421219E+03  0.25500000920E-02 0. -1.
       -2    1    3    3    0  502  0.47433717876E+03  0.11574625316E+03  0.15021744218E+04  0.15795318762E+04  0.25500000920E-02 0.  1.
</event>
<event>
 5   0  0.6600166E-05  0.2373537E+04  0.7818609E-02  0.8449478E-01
       -2   -1    0    0    0  501  0.00000000000E+00  0.00000000000E+00  0.12483145115E+04  0.12483145115E+04  0.25500000920E-02 0.  1.
        2   -1    0    0  501    0  0.00000000000E+00  0.00000000000E+00 -0.11282573355E+04  0.11282573355E+04  0.25500000920E-02 0. -1.
    10030    2    1    2    0    0  0.00000000000E+00  0.00000000000E+00  0.12005717596E+03  0.23765718470E+04  0.23735374483E+04 0.  0.
        5    1    3    3  502    0 -0.36001949725E+03 -0.95725635751E+03 -0.54277440862E+03  0.11578341509E+04  0.46999998093E+01 0. -1.
       -5    1    3    3    0  502  0.36001949725E+03  0.95725635751E+03  0.66283158459E+03  0.12187376961E+04  0.46999998093E+01 0.  1.
</event>
<event>
 5   0  0.2943123E-05  0.1973276E+04  0.7818609E-02  0.8619218E-01
        1   -1    0    0  501    0  0.00000000000E+00  0.00000000000E+00  0.79520763025E+03  0.79520763026E+03  0.50400001928E-02 0.  1.
       -1   -1    0    0    0  501  0.00000000000E+00  0.00000000000E+00 -0.12241512850E+04  0.12241512850E+04  0.50400001928E-02 0. -1.
    10030    2    1    2    0    0  0.00000000000E+00  0.00000000000E+00 -0.42894365471E+03  0.20193589152E+04  0.19732758980E+04 0.  0.
        1    1    3    3  502    0  0.84920054913E+03 -0.10861660549E+03  0.28740490476E+03  0.90307293113E+03  0.50400001928E-02 0.  1.
       -1    1    3    3    0  502 -0.84920054913E+03  0.10861660549E+03 -0.71634855947E+03  0.11162859841E+04  0.50400001928E-02 0. -1.
</event>
<event>
 5   0  0.2943123E-05  0.2386967E+04  0.7818609E-02  0.8444399E-01
        1   -1    0    0  501    0  0.00000000000E+00  0.00000000000E+00  0.18639161525E+04  0.18639161525E+04  0.50400001928E-02 0. -1.
       -1   -1    0    0    0  501  0.00000000000E+00  0.00000000000E+00 -0.76419871250E+03  0.76419871252E+03  0.50400001928E-02 0.  1.
    10030    2    1    2    0    0  0.00000000000E+00  0.00000000000E+00  0.10997174400E+04  0.26281148651E+04  0.23869665469E+04 0.  0.
        1    1    3    3  502    0  0.92660001837E+03 -0.21877265050E+03  0.13422565810E+04  0.16456311239E+04  0.50400001928E-02 0. -1.
       -1    1    3    3    0  502 -0.92660001837E+03  0.21877265050E+03 -0.24253914101E+03  0.98248374114E+03  0.50400001928E-02 0.  1.
</event>
<event>
 5   0  0.6714629E-05  0.2421839E+04  0.7818609E-02  0.8431372E-01
       -2   -1    0    0    0  501  0.00000000000E+00  0.00000000000E+00  0.72717194769E+03  0.72717194770E+03  0.25500000920E-02 0.  1.
        2   -1    0    0  501    0  0.00000000000E+00  0.00000000000E+00 -0.20164772811E+04  0.20164772811E+04  0.25500000920E-02 0. -1.
    10030    2    1    2    0    0  0.00000000000E+00  0.00000000000E+00 -0.12893053334E+04  0.27436492288E+04  0.24218387329E+04 0.  0.
        3    1    3    3  502    0  0.12977897069E+03  0.75416352491E+03 -0.17078219442E+04  0.18714328753E+04  0.10100000352E+00 0. -1.
       -3    1    3    3    0  502 -0.12977897069E+03 -0.75416352491E+03  0.41851661080E+03  0.87221635347E+03  0.10100000352E+00 0.  1.
</event>
<event>
 5   0  0.2901816E-05  0.2419433E+04  0.7818609E-02  0.8432264E-01
       -1   -1    0    0    0  501  0.00000000000E+00  0.00000000000E+00  0.83554389651E+03  0.83554389652E+03  0.50400001928E-02 0. -1.
        1   -1    0    0  501    0  0.00000000000E+00  0.00000000000E+00 -0.17514502800E+04  0.17514502800E+04  0.50400001928E-02 0.  1.
    10030    2    1    2    0    0  0.00000000000E+00  0.00000000000E+00 -0.91590638349E+03  0.25869941765E+04  0.24194326538E+04 0.  0.
        4    1    3    3  502    0 -0.72099760689E+03  0.21798346209E+03 -0.14701148617E+04  0.16518455310E+04  0.12699999809E+01 0.  1.
       -4    1    3    3    0  502  0.72099760689E+03 -0.21798346209E+03  0.55420847824E+03  0.93514864547E+03  0.12699999809E+01 0. -1.
</event>
<event>
 5   0  0.2943123E-05  0.2378751E+04  0.7818609E-02  0.8447502E-01
        1   -1    0    0  501    0  0.00000000000E+00  0.00000000000E+00  0.27327586807E+04  0.27327586807E+04  0.50400001928E-02 0.  1.
       -1   -1    0    0    0  501  0.00000000000E+00  0.00000000000E+00 -0.51765056427E+03  0.51765056429E+03  0.50400001928E-02 0. -1.
    10030    2    1    2    0    0  0.00000000000E+00  0.00000000000E+00  0.22151081164E+04  0.32504092450E+04  0.23787509942E+04 0.  0.
        1    1    3    3  502    0  0.27914809700E+03 -0.71544464296E+03  0.23485521726E+04  0.24709273572E+04  0.50400001928E-02 0.  1.
       -1    1    3    3    0  502 -0.27914809700E+03  0.71544464296E+03 -0.13344405619E+03  0.77948188776E+03  0.50400001928E-02 0. -1.
</event>
<event>
 5   0  0.6600166E-05  0.2373345E+04  0.7818609E-02  0.8449551E-01
       -2   -1    0    0    0  501  0.00000000000E+00  0.00000000000E+00  0.75357116691E+03  0.75357116692E+03  0.25500000920E-02 0. -1.
        2   -1    0    0  501    0  0.00000000000E+00  0.00000000000E+00 -0.18686915565E+04  0.18686915566E+04  0.25500000920E-02 0.  1.
    10030    2    1    2    0    0  0.00000000000E+00  0.00000000000E+00 -0.11151203896E+04  0.26222627235E+04  0.23733453831E+04 0.  0.
        5    1    3    3  502    0  0.26659697905E+03  0.84207698222E+03 -0.14331403443E+04  0.16834728776E+04  0.46999998093E+01 0.  1.
       -5    1    3    3    0  502 -0.26659697905E+03 -0.84207698222E+03  0.31801995461E+03  0.93878984589E+03  0.46999998093E+01 0. -1.
</event>
<event>
 5   0  0.2847158E-05  0.2475391E+04  0.7818609E-02  0.8411805E-01
       -1   -1    0    0    0  501  0.00000000000E+00  0.00000000000E+00  0.11072586459E+04  0.11072586459E+04  0.50400001928E-02 0.  1.
        1   -1    0    0  501    0  0.00000000000E+00  0.00000000000E+00 -0.13834985282E+04  0.13834985282E+04  0.50400001928E-02 0. -1.
    10030    2    1    2    0    0  0.00000000000E+00  0.00000000000E+00 -0.27623988232E+03  0.24907571741E+04  0.24753914494E+04 0.  0.
        5    1    3    3  502    0  0.13491253696E+03  0.58854406871E+03  0.94899534627E+03  0.11248109933E+04  0.46999998093E+01 0.  1.
       -5    1    3    3    0  502 -0.13491253696E+03 -0.58854406871E+03 -0.12252352286E+04  0.13659461808E+04  0.46999998093E+01 0. -1.
</event>
<event>
 5   0  0.6714629E-05  0.2367193E+04  0.7818609E-02  0.8451889E-01
        2   -1    0    0  501    0  0.00000000000E+00  0.00000000000E+00  0.17192238191E+04  0.17192238191E+04  0.25500000920E-02 0. -1.
       -2   -1    0    0    0  501  0.00000000000E+00  0.00000000000E+00 -0.81484498241E+03  0.81484498242E+03  0.25500000920E-02 0.  1.
    10030    2    1    2    0    0  0.00000000000E+00  0.00000000000E+00  0.90437883672E+03  0.25340688016E+04  0.23671931925E+04 0.  0.
        3    1    3    3  502    0 -0.72308991552E+02 -0.20796153506E+03 -0.79272983019E+03  0.82273761565E+03  0.10100000352E+00 0.  1.
       -3    1    3    3    0  502  0.72308991552E+02  0.20796153506E+03  0.16971086669E+04  0.17113311859E+04  0.10100000352E+00 0. -1.
</event>
<event>
 5   0  0.2915546E-05  0.2392610E+04  0.7818609E-02  0.8442275E-01
       -1   -1    0    0    0  501  0.00000000000E+00  0.00000000000E+00  0.93176616230E+03  0.93176616232E+03  0.50400001928E-02 0. -1.
        1   -1    0    0  501    0  0.00000000000E+00  0.00000000000E+00 -0.15359497125E+04  0.15359497125E+04  0.50400001928E-02 0.  1.
    10030    2    1    2    0    0  0.00000000000E+00  0.00000000000E+00 -0.60418355024E+03  0.24677158749E+04  0.23926102643E+04 0.  0.
        2    1    3    3  502    0  0.74891769592E+03 -0.21416111863E+03 -0.12385600001E+04  0.14631382621E+04  0.25500000920E-02 0.  1.
       -2    1    3    3    0  502 -0.74891769592E+03  0.21416111863E+03  0.63437644988E+03  0.10045776128E+04  0.25500000920E-02 0. -1.
</event>
<event>
 5   0  0.2901816E-05  0.2369374E+04  0.7818609E-02  0.8451059E-01
        1   -1    0    0  501    0  0.00000000000E+00  0.00000000000E+00  0.15127003094E+04  0.15127003094E+04  0.50400001928E-02 0. -1.
       -1   -1    0    0    0  501  0.00000000000E+00  0.00000000000E+00 -0.92779987782E+03  0.92779987784E+03  0.50400001928E-02 0.  1.
    10030    2    1    2    0    0  0.00000000000E+00  0.00000000000E+00  0.58490043155E+03  0.24405001872E+04  0.23693738939E+04 0.  0.
        4    1    3    3  502    0  0.15351718217E+03  0.65111070678E+03  0.12995375215E+04  0.14616128285E+04  0.12699999809E+01 0. -1.
       -4    1    3    3    0  502 -0.15351718217E+03 -0.65111070678E+03 -0.71463708999E+03  0.97888735869E+03  0.12699999809E+01 0.  1.
</event>
<event>
 5   0  0.2943123E-05  0.2457722E+04  0.7818609E-02  0.8418204E-01
       -1   -1    0    0    0  501  0.00000000000E+00  0.00000000000E+00  0.85263215646E+03  0.85263215648E+03  0.50400001928E-02 0. -1.
        1   -1    0    0  501    0  0.00000000000E+00  0.00000000000E+00 -0.17711034119E+04  0.17711034119E+04  0.50400001928E-02 0.  1.
    10030    2    1    2    0    0  0.00000000000E+00  0.00000000000E+00 -0.91847125541E+03  0.26237355684E+04  0.24577222963E+04 0.  0.
        1    1    3    3  502    0 -0.49513229557E+03 -0.74083103890E+03 -0.13626314203E+04  0.16281127129E+04  0.50400001928E-02 0.  1.
       -1    1    3    3    0  502  0.49513229557E+03  0.74083103890E+03  0.44416016485E+03  0.99562285549E+03  0.50400001928E-02 0. -1.
</event>
<event>
 5   0  0.2901816E-05  0.2423208E+04  0.7818609E-02  0.8430866E-01
       -1   -1    0    0    0  501  0.00000000000E+00  0.00000000000E+00  0.95730972927E+03  0.95730972929E+03  0.50400001928E-02 0. -1.
        1   -1    0    0  501    0  0.00000000000E+00  0.00000000000E+00 -0.15334477032E+04  0.15334477032E+04  0.50400001928E-02 0.  1.
    10030    2    1    2    0    0  0.00000000000E+00  0.00000000000E+00 -0.57613797388E+03  0.24907574324E+04  0.24232081261E+04 0.  0.
        4    1    3    3  502    0  0.61780340682E+03  0.10263205485E+04 -0.47470102365E+03  0.12885486380E+04  0.12699999809E+01 0.  1.
       -4    1    3    3    0  502 -0.61780340682E+03 -0.10263205485E+04 -0.10143695023E+03  0.12022087945E+04  0.12699999809E+01 0. -1.
</event>
<event>
 5   0  0.6703961E-05  0.2320235E+04  0.7818609E-02  0.8469985E-01
        2   -1    0    0  501    0  0.00000000000E+00  0.00000000000E+00  0.17151721429E+04  0.17151721429E+04  0.25500000920E-02 0.  1.
       -2   -1    0    0    0  501  0.00000000000E+00  0.00000000000E+00 -0.78468637703E+03  0.78468637703E+03  0.25500000920E-02 0. -1.
    10030    2    1    2    0    0  0.00000000000E+00  0.00000000000E+00  0.93048576590E+03  0.24998585200E+04  0.23202346561E+04 0.  0.
        2    1    3    3  502    0 -0.47856434920E+03 -0.24538531816E+03 -0.64226263524E+03  0.83769868289E+03  0.25500000920E-02 0. -1.
       -2    1    3    3    0  502  0.47856434920E+03  0.24538531816E+03  0.15727484011E+04  0.16621598371E+04  0.25500000920E-02 0.  1.
</event>
<event>
 5   0  0.6337926E-05  0.2459780E+04  0.7818609E-02  0.8417456E-01
        2   -1    0    0  501    0  0.00000000000E+00  0.00000000000E+00  0.19776923046E+04  0.19776923046E+04  0.25500000920E-02 0. -1.
       -2   -1    0    0    0  501  0.00000000000E+00  0.00000000000E+00 -0.76484579132E+03  0.76484579133E+03  0.25500000920E-02 0.  1.
    10030    2    1    2    0    0  0.00000000000E+00  0.00000000000E+00  0.12128465133E+04  0.27425380959E+04  0.24597801818E+04 0.  0.
        1    1    3    3  502    0  0.45308731770E+03  0.69184967853E+03 -0.40854217583E+03  0.92241574391E+03  0.50400001928E-02 0.  1.
       -1    1    3    3    0  502 -0.45308731770E+03 -0.69184967853E+03  0.16213886891E+04  0.18201223520E+04  0.50400001928E-02 0. -1.
</event>
<event>
 5   0  0.6714629E-05  0.2402261E+04  0.7818609E-02  0.8438658E-01
       -2   -1    0    0    0  501  0.00000000000E+00  0.00000000000E+00  0.78111258407E+03  0.78111258407E+03  0.25500000920E-02 0.  1.
        2   -1    0    0  501    0  0.00000000000E+00  0.00000000000E+00 -0.18469995334E+04  0.18469995334E+04  0.25500000920E-02 0. -1.
    10030    2    1    2    0    0  0.00000000000E+00  0.00000000000E+00 -0.10658869493E+04  0.26281121174E+04  0.24022610835E+04 0.  0.
        3    1    3    3  502    0 -0.98407189147E+03 -0.66456492146E+03 -0.33520012937E+03  0.12338570255E+04  0.10100000352E+00 0.  1.
       -3    1    3    3    0  502  0.98407189147E+03  0.66456492146E+03 -0.73068681992E+03  0.13942550919E+04  0.10100000352E+00 0. -1.
</event>
<event>
 5   0  0.6337926E-05  0.2400149E+04  0.7818609E-02  0.8439448E-01
        2   -1    0    0  501    0  0.00000000000E+00  0.00000000000E+00  0.85897516006E+03  0.85897516006E+03  0.25500000920E-02 0.  1.
       -2   -1    0    0    0  501  0.00000000000E+00  0.00000000000E+00 -0.16766240586E+04  0.16766240586E+04  0.25500000920E-02 0. -1.
    10030    2    1    2    0    0  0.00000000000E+00  0.00000000000E+00 -0.81764889858E+03  0.25355992187E+04  0.24001486780E+04 0.  0.
        1    1    3    3  502    0 -0.39418882257E+03 -0.43196102107E+03  0.69826785021E+03  0.91079807984E+03  0.50400001928E-02 0.  1.
       -1    1    3    3    0  502  0.39418882257E+03  0.43196102107E+03 -0.15159167488E+04  0.16248011389E+04  0.50400001928E-02 0. -1.
</event>
<event>
 5   0  0.6978115E-05  0.2365081E+04  0.7818609E-02  0.8452694E-01
        2   -1    0    0  501    0  0.00000000000E+00  0.00000000000E+00  0.15897210575E+04  0.15897210575E+04  0.25500000920E-02 0. -1.
       -2   -1    0    0    0  501  0.00000000000E+00  0.00000000000E+00 -0.87965246474E+03  0.87965246474E+03  0.25500000920E-02 0.  1.
    10030    2    1    2    0    0  0.00000000000E+00  0.00000000000E+00  0.71006859276E+03  0.24693735222E+04  0.23650810104E+04 0.  0.
        4    1    3    3  502    0  0.29217576529E+03  0.45222422645E+03 -0.74425982300E+03  0.91858463184E+03  0.12699999809E+01 0.  1.
       -4    1    3    3    0  502 -0.29217576529E+03 -0.45222422645E+03  0.14543284158E+04  0.15507888904E+04  0.12699999809E+01 0. -1.
</event>
<event>
 5   0  0.2943244E-05  0.2410549E+04  0.7818609E-02  0.8435565E-01
       -1   -1    0    0    0  501  0.00000000000E+00  0.00000000000E+00  0.95841671890E+03  0.95841671891E+03  0.50400001928E-02 0. -1.
        1   -1    0    0  501    0  0.00000000000E+00  0.00000000000E+00 -0.15157150512E+04  0.15157150512E+04  0.50400001928E-02 0.  1.
    10030    2    1    2    0    0  0.00000000000E+00  0.00000000000E+00 -0.55729833230E+03  0.24741317701E+04  0.24105490214E+04 0.  0.
        3    1    3    3  502    0 -0.24364949313E+03 -0.97576014873E+03  0.40311057063E+03  0.10834994627E+04  0.10100000352E+00 0. -1.
       -3    1    3    3    0  502  0.24364949313E+03  0.97576014873E+03 -0.96040890293E+03  0.13906323074E+04  0.10100000352E+00 0.  1.
</event>
<event>
 5   0  0.2943123E-05  0.2414549E+04  0.7818609E-02  0.8434077E-01
        1   -1    0    0  501    0  0.00000000000E+00  0.00000000000E+00  0.13049124039E+04  0.13049124039E+04  0.50400001928E-02 0. -1.
       -1   -1    0    0    0  501  0.00000000000E+00  0.00000000000E+00 -0.11169417746E+04  0.11169417746E+04  0.50400001928E-02 0.  1.
    10030    2    1    2    0    0  0.00000000000E+00  0.00000000000E+00  0.18797062930E+03  0.24218541785E+04  0.24145485509E+04 0.  0.
        1    1    3    3  502    0  0.40157026595E+03 -0.10481160110E+04  0.53997132028E+03  0.12455420016E+04  0.50400001928E-02 0. -1.
       -1    1    3    3    0  502 -0.40157026595E+03  0.10481160110E+04 -0.35200069099E+03  0.11763121769E+04  0.50400001928E-02 0.  1.
</event>
<event>
 5   0  0.2847158E-05  0.2390553E+04  0.7818609E-02  0.8443049E-01
        1   -1    0    0  501    0  0.00000000000E+00  0.00000000000E+00  0.11441326225E+04  0.11441326225E+04  0.50400001928E-02 0.  1.
       -1   -1    0    0    0  501  0.00000000000E+00  0.00000000000E+00 -0.12487069650E+04  0.12487069650E+04  0.50400001928E-02 0. -1.
    10030    2    1    2    0    0  0.00000000000E+00  0.00000000000E+00 -0.10457434251E+03  0.23928395875E+04  0.23905533875E+04 0.  0.
        5    1    3    3  502    0 -0.58851662694E+03 -0.78873864444E+03  0.62674483513E+03  0.11667440370E+04  0.46999998093E+01 0.  1.
       -5    1    3    3    0  502  0.58851662694E+03  0.78873864444E+03 -0.73131917765E+03  0.12260955505E+04  0.46999998093E+01 0. -1.
</event>
<event>
 5   0  0.2943123E-05  0.2325789E+04  0.7818609E-02  0.8467822E-01
       -1   -1    0    0    0  501  0.00000000000E+00  0.00000000000E+00  0.14632336514E+04  0.14632336514E+04  0.50400001928E-02 0. -1.
        1   -1    0    0  501    0  0.00000000000E+00  0.00000000000E+00 -0.92420243088E+03  0.92420243089E+03  0.50400001928E-02 0.  1.
    10030    2    1    2    0    0  0.00000000000E+00  0.00000000000E+00  0.53903122049E+03  0.23874360823E+04  0.23257894123E+04 0.  0.
        1    1    3    3  502    0  0.87014845754E+03  0.71086564813E+03 -0.38155032640E+02  0.11242526915E+04  0.50400001928E-02 0.  1.
       -1    1    3    3    0  502 -0.87014845754E+03 -0.71086564813E+03  0.57718625313E+03  0.12631833908E+04  0.50400001928E-02 0. -1.
</event>
<event>
 5   0  0.2901816E-05  0.2419748E+04  0.7818609E-02  0.8432147E-01
        1   -1    0    0  501    0  0.00000000000E+00  0.00000000000E+00  0.87525884636E+03  0.87525884638E+03  0.50400001928E-02 0. -1.
       -1   -1    0    0    0  501  0.00000000000E+00  0.00000000000E+00 -0.16724141429E+04  0.16724141429E+04  0.50400001928E-02 0.  1.
    10030    2    1    2    0    0  0.00000000000E+00  0.00000000000E+00 -0.79715529653E+03  0.25476729893E+04  0.24197481467E+04 0.  0.
        4    1    3    3  502    0  0.50937786675E+03  0.58785937506E+03 -0.13742560486E+04  0.15791218306E+04  0.12699999809E+01 0.  1.
       -4    1    3    3    0  502 -0.50937786675E+03 -0.58785937506E+03  0.57710075206E+03  0.96855115865E+03  0.12699999809E+01 0. -1.
</event>
<event>
 5   0  0.2943244E-05  0.1786319E+04  0.7818609E-02  0.8713609E-01
        1   -1    0    0  501    0  0.00000000000E+00  0.00000000000E+00  0.38658952620E+03  0.38658952624E+03  0.50400001928E-02 0. -1.
       -1   -1    0    0    0  501  0.00000000000E+00  0.00000000000E+00 -0.20635174526E+04  0.20635174526E+04  0.50400001928E-02 0.  1.
    10030    2    1    2    0    0  0.00000000000E+00  0.00000000000E+00 -0.16769279264E+04  0.24501069788E+04  0.17863193828E+04 0.  0.
        3    1    3    3  502    0  0.81210045276E+03 -0.27515150083E+03 -0.11814141246E+04  0.14597790373E+04  0.10100000352E+00 0. -1.
       -3    1    3    3    0  502 -0.81210045276E+03  0.27515150083E+03 -0.49551380179E+03  0.99032794151E+03  0.10100000352E+00 0.  1.
</event>
<event>
 5   0  0.6978115E-05  0.2423331E+04  0.7818609E-02  0.8430820E-01
        2   -1    0    0  501    0  0.00000000000E+00  0.00000000000E+00  0.12142657737E+04  0.12142657737E+04  0.25500000920E-02 0.  1.
       -2   -1    0    0    0  501  0.00000000000E+00  0.00000000000E+00 -0.12090708182E+04  0.12090708182E+04  0.25500000920E-02 0. -1.
    10030    2    1    2    0    0  0.00000000000E+00  0.00000000000E+00  0.51949554169E+01  0.24233365919E+04  0.24233310236E+04 0.  0.
        4    1    3    3  502    0  0.95074692685E+03  0.28763465404E+03 -0.69129048093E+03  0.12101807944E+04  0.12699999809E+01 0. -1.
       -4    1    3    3    0  502 -0.95074692685E+03 -0.28763465404E+03  0.69648543635E+03  0.12131557975E+04  0.12699999809E+01 0.  1.
</event>
<event>
 5   0  0.2915546E-05  0.2360960E+04  0.7818609E-02  0.8454266E-01
        1   -1    0    0  501    0  0.00000000000E+00  0.00000000000E+00  0.11636206192E+04  0.11636206192E+04  0.50400001928E-02 0. -1.
       -1   -1    0    0    0  501  0.00000000000E+00  0.00000000000E+00 -0.11975834233E+04  0.11975834233E+04  0.50400001928E-02 0.  1.
    10030    2    1    2    0    0  0.00000000000E+00  0.00000000000E+00 -0.33962804031E+02  0.23612040425E+04  0.23609597748E+04 0.  0.
        2    1    3    3  502    0  0.10444351347E+04 -0.50069082346E+03 -0.24503287231E+03  0.11838822407E+04  0.25500000920E-02 0.  1.
       -2    1    3    3    0  502 -0.10444351347E+04  0.50069082346E+03  0.21107006828E+03  0.11773218018E+04  0.25500000920E-02 0. -1.
</event>
<event>
 5   0  0.2943244E-05  0.2337551E+04  0.7818609E-02  0.8463261E-01
       -1   -1    0    0    0  501  0.00000000000E+00  0.00000000000E+00  0.11772083002E+04  0.11772083002E+04  0.50400001928E-02 0.  1.
        1   -1    0    0  501    0  0.00000000000E+00  0.00000000000E+00 -0.11604032462E+04  0.11604032463E+04  0.50400001928E-02 0. -1.
    10030    2    1    2    0    0  0.00000000000E+00  0.00000000000E+00  0.16805053992E+02  0.23376115465E+04  0.23375511401E+04 0.  0.
        3    1    3    3  502    0 -0.66540540024E+02 -0.10004856993E+04 -0.59214362794E+03  0.11644884560E+04  0.10100000352E+00 0.  1.
       -3    1    3    3    0  502  0.66540540024E+02  0.10004856993E+04  0.60894868193E+03  0.11731230905E+04  0.10100000352E+00 0. -1.
</event>
<event>
 5   0  0.6600166E-05  0.2409008E+04  0.7818609E-02  0.8436139E-01
        2   -1    0    0  501    0  0.00000000000E+00  0.00000000000E+00  0.10198067315E+04  0.10198067315E+04  0.25500000920E-02 0.  1.
       -2   -1    0    0    0  501  0.00000000000E+00  0.00000000000E+00 -0.14226515316E+04  0.14226515316E+04  0.25500000920E-02 0. -1.
    10030    2    1    2    0    0  0.00000000000E+00  0.00000000000E+00 -0.40284480013E+03  0.24424582631E+04  0.24090077696E+04 0.  0.
        5    1    3    3  502    0  0.23329268137E+02 -0.11964542768E+04 -0.62551799857E+02  0.11983246259E+04  0.46999998093E+01 0. -1.
       -5    1    3    3    0  502 -0.23329268137E+02  0.11964542768E+04 -0.34029300027E+03  0.12441336372E+04  0.46999998093E+01 0.  1.
</event>
<event>
 5   0  0.2915546E-05  0.2305718E+04  0.7818609E-02  0.8475670E-01
       -1   -1    0    0    0  501  0.00000000000E+00  0.00000000000E+00  0.66702210406E+03  0.66702210408E+03  0.50400001928E-02 0. -1.
        1   -1    0    0  501    0  0.00000000000E+00  0.00000000000E+00 -0.19925636270E+04  0.19925636270E+04  0.50400001928E-02 0.  1.
    10030    2    1    2    0    0  0.00000000000E+00  0.00000000000E+00 -0.13255415230E+04  0.26595857311E+04  0.23057180947E+04 0.  0.
        2    1    3    3  502    0  0.87956174269E+02  0.10637827623E+04 -0.11651797444E+04  0.15801942572E+04  0.25500000920E-02 0.  1.
       -2    1    3    3    0  502 -0.87956174269E+02 -0.10637827623E+04 -0.16036177858E+03  0.10793914739E+04  0.25500000920E-02 0. -1.
</event>
<event>
 5   0  0.2943244E-05  0.2350212E+04  0.7818609E-02  0.8458382E-01
        1   -1    0    0  501    0  0.00000000000E+00  0.00000000000E+00  0.19130075408E+04  0.19130075408E+04  0.50400001928E-02 0.  1.
       -1   -1    0    0    0  501  0.00000000000E+00  0.00000000000E+00 -0.72183403636E+03  0.72183403638E+03  0.50400001928E-02 0. -1.
    10030    2    1    2    0    0  0.00000000000E+00  0.00000000000E+00  0.11911735044E+04  0.26348415772E+04  0.23502118669E+04 0.  0.
        3    1    3    3  502    0 -0.11594529141E+04 -0.18364749778E+03  0.53608895188E+03  0.12905226995E+04  0.10100000352E+00 0. -1.
       -3    1    3    3    0  502  0.11594529141E+04  0.18364749778E+03  0.65508455252E+03  0.13443188776E+04  0.10100000352E+00 0.  1.
</event>
<event>
 5   0  0.2847158E-05  0.2397396E+04  0.7818609E-02  0.8440479E-01
        1   -1    0    0  501    0  0.00000000000E+00  0.00000000000E+00  0.13215899222E+04  0.13215899222E+04  0.50400001928E-02 0. -1.
       -1   -1    0    0    0  501  0.00000000000E+00  0.00000000000E+00 -0.10872331485E+04  0.10872331485E+04  0.50400001928E-02 0.  1.
    10030    2    1    2    0    0  0.00000000000E+00  0.00000000000E+00  0.23435677370E+03  0.24088230706E+04  0.23973955636E+04 0.  0.
        5    1    3    3  502    0 -0.95472913469E+03 -0.53431866550E+03  0.60925778107E+03  0.12522864252E+04  0.46999998093E+01 0. -1.
       -5    1    3    3    0  502  0.95472913469E+03  0.53431866550E+03 -0.37490100737E+03  0.11565366454E+04  0.46999998093E+01 0.  1.
</event>
<event>
 5   0  0.6703961E-05  0.2387258E+04  0.7818609E-02  0.8444289E-01
       -2   -1    0    0    0  501  0.00000000000E+00  0.00000000000E+00  0.93250688269E+03  0.93250688270E+03  0.25500000920E-02 0. -1.
        2   -1    0    0  501    0  0.00000000000E+00  0.00000000000E+00 -0.15278707434E+04  0.15278707434E+04  0.25500000920E-02 0.  1.
    10030    2    1    2    0    0  0.00000000000E+00  0.00000000000E+00 -0.59536386073E+03  0.24603776261E+04  0.23872578278E+04 0.  0.
        2    1    3    3  502    0  0.94184818066E+03 -0.70862183359E+03 -0.49194141600E+03  0.12771958563E+04  0.25500000920E-02 0.  1.
       -2    1    3    3    0  502 -0.94184818066E+03  0.70862183359E+03 -0.10342244474E+03  0.11831817699E+04  0.25500000920E-02 0. -1.
</event>
<event>
 5   0  0.6703961E-05  0.2425088E+04  0.7818609E-02  0.8430170E-01
       -2   -1    0    0    0  501  0.00000000000E+00  0.00000000000E+00  0.79840667148E+03  0.79840667148E+03  0.25500000920E-02 0.  1.
        2   -1    0    0  501    0  0.00000000000E+00  0.00000000000E+00 -0.18414960944E+04  0.18414960944E+04  0.25500000920E-02 0. -1.
    10030    2    1    2    0    0  0.00000000000E+00  0.00000000000E+00 -0.10430894229E+04  0.26399027659E+04  0.24250878477E+04 0.  0.
        2    1    3    3  502    0 -0.43120409648E+03 -0.11288708610E+04 -0.63027406595E+03  0.13629129803E+04  0.25500000920E-02 0.  1.
       -2    1    3    3    0  502  0.43120409648E+03  0.11288708610E+04 -0.41281535695E+03  0.12769897856E+04  0.25500000920E-02 0. -1.
</event>
<event>
 5   0  0.6714629E-05  0.2230126E+04  0.7818609E-02  0.8505993E-01
        2   -1    0    0  501    0  0.00000000000E+00  0.00000000000E+00  0.12879819651E+04  0.12879819651E+04  0.25500000920E-02 0. -1.
       -2   -1    0    0    0  501  0.00000000000E+00  0.00000000000E+00 -0.96535906650E+03  0.96535906650E+03  0.25500000920E-02 0.  1.
    10030    2    1    2    0    0  0.00000000000E+00  0.00000000000E+00  0.32262289860E+03  0.22533410316E+04  0.22301256175E+04 0.  0.
        3    1    3    3  502    0  0.38874138661E+03 -0.69994013617E+03  0.94548914264E+03  0.12389454342E+04  0.10100000352E+00 0. -1.
       -3    1    3    3    0  502 -0.38874138661E+03  0.69994013617E+03 -0.62286624403E+03  0.10143955974E+04  0.10100000352E+00 0.  1.
</event>
<event>
 5   0  0.6978115E-05  0.2413543E+04  0.7818609E-02  0.8434451E-01
        2   -1    0    0  501    0  0.00000000000E+00  0.00000000000E+00  0.21766738645E+04  0.21766738645E+04  0.25500000920E-02 0.  1.
       -2   -1    0    0    0  501  0.00000000000E+00  0.00000000000E+00 -0.66904697551E+03  0.66904697551E+03  0.25500000920E-02 0. -1.
    10030    2    1    2    0    0  0.00000000000E+00  0.00000000000E+00  0.15076268890E+04  0.28457208400E+04  0.24135426789E+04 0.  0.
        4    1    3    3  502    0 -0.69344686496E+03  0.95440473323E+03  0.45427900951E+03  0.12641708669E+04  0.12699999809E+01 0. -1.
       -4    1    3    3    0  502  0.69344686496E+03 -0.95440473323E+03  0.10533478795E+04  0.15815499731E+04  0.12699999809E+01 0.  1.
</event>
<event>
 5   0  0.2943123E-05  0.2427828E+04  0.7818609E-02  0.8429158E-01
       -1   -1    0    0    0  501  0.00000000000E+00  0.00000000000E+00  0.86948692827E+03  0.86948692828E+03  0.50400001928E-02 0. -1.
        1   -1    0    0  501    0  0.00000000000E+00  0.00000000000E+00 -0.16947779163E+04  0.16947779163E+04  0.50400001928E-02 0.  1.
    10030    2    1    2    0    0  0.00000000000E+00  0.00000000000E+00 -0.82529098801E+03  0.25642648446E+04  0.24278280372E+04 0.  0.
        1    1    3    3  502    0  0.86573367627E+01 -0.75012819653E+02  0.86700399375E+03  0.87028604366E+03  0.50400001928E-02 0. -1.
       -1    1    3    3    0  502 -0.86573367627E+01  0.75012819653E+02 -0.16922949818E+04  0.16939788009E+04  0.50400001928E-02 0.  1.
</event>
<event>
 5   0  0.6978115E-05  0.2400635E+04  0.7818609E-02  0.8439266E-01
       -2   -1    0    0    0  501  0.00000000000E+00  0.00000000000E+00  0.14932230575E+04  0.14932230575E+04  0.25500000920E-02 0.  1.
        2   -1    0    0  501    0  0.00000000000E+00  0.00000000000E+00 -0.96486718947E+03  0.96486718948E+03  0.25500000920E-02 0. -1.
    10030    2    1    2    0    0  0.00000000000E+00  0.00000000000E+00  0.52835586805E+03  0.24580902470E+04  0.24006348617E+04 0.  0.
        4    1    3    3  502    0 -0.13077475384E+03 -0.92782105694E+03  0.10323371015E+04  0.13941576145E+04  0.12699999809E+01 0.  1.
       -4    1    3    3    0  502  0.13077475384E+03  0.92782105694E+03 -0.50398123348E+03  0.10639326325E+04  0.12699999809E+01 0. -1.
</event>
<event>
 5   0  0.2901816E-05  0.2287005E+04  0.7818609E-02  0.8483062E-01
       -1   -1    0    0    0  501  0.00000000000E+00  0.00000000000E+00  0.89832222635E+03  0.89832222637E+03  0.50400001928E-02 0. -1.
        1   -1    0    0  501    0  0.00000000000E+00  0.00000000000E+00 -0.14556006416E+04  0.14556006417E+04  0.50400001928E-02 0.  1.
    10030    2    1    2    0    0  0.00000000000E+00  0.00000000000E+00 -0.55727841530E+03  0.23539228680E+04  0.22870053862E+04 0.  0.
        4    1    3    3  502    0  0.50561884951E+03 -0.10121055674E+04 -0.10768073674E+03  0.11364879474E+04  0.12699999809E+01 0.  1.
       -4    1    3    3    0  502 -0.50561884951E+03  0.10121055674E+04 -0.44959767856E+03  0.12174349207E+04  0.12699999809E+01 0. -1.
</event>
<event>
 5   0  0.6337926E-05  0.2367182E+04  0.7818609E-02  0.8451893E-01
       -2   -1    0    0    0  501  0.00000000000E+00  0.00000000000E+00  0.12230255381E+04  0.12230255381E+04  0.25500000920E-02 0.  1.
        2   -1    0    0  501    0  0.00000000000E+00  0.00000000000E+00 -0.11454279642E+04  0.11454279642E+04  0.25500000920E-02 0. -1.
    10030    2    1    2    0    0  0.00000000000E+00  0.00000000000E+00  0.77597573996E+02  0.23684535023E+04  0.23671819975E+04 0.  0.
        1    1    3    3  502    0  0.11420224718E+04  0.14240705129E+03  0.31533928460E+03  0.11932870395E+04  0.50400001928E-02 0. -1.
       -1    1    3    3    0  502 -0.11420224718E+04 -0.14240705129E+03 -0.23774171060E+03  0.11751664628E+04  0.50400001928E-02 0.  1.
</event>
<event>
 5   0  0.2943244E-05  0.1821086E+04  0.7818609E-02  0.8695166E-01
        1   -1    0    0  501    0  0.00000000000E+00  0.00000000000E+00  0.18233880626E+04  0.18233880626E+04  0.50400001928E-02 0.  1.
       -1   -1    0    0    0  501  0.00000000000E+00  0.00000000000E+00 -0.45469679659E+03  0.45469679661E+03  0.50400001928E-02 0. -1.
    10030    2    1    2    0    0  0.00000000000E+00  0.00000000000E+00  0.13686912660E+04  0.22780848592E+04  0.18210861715E+04 0.  0.
        3    1    3    3  502    0  0.27433703498E+03 -0.82931696563E+03  0.36282204771E+03  0.94586853566E+03  0.10100000352E+00 0. -1.
       -3    1    3    3    0  502 -0.27433703498E+03  0.82931696563E+03  0.10058692183E+04  0.13322163236E+04  0.10100000352E+00 0.  1.
</event>
<event>
 5   0  0.6714629E-05  0.1960715E+04  0.7818609E-02  0.8625211E-01
        2   -1    0    0  501    0  0.00000000000E+00  0.00000000000E+00  0.10766732967E+04  0.10766732967E+04  0.25500000920E-02 0. -1.
       -2   -1    0    0    0  501  0.00000000000E+00  0.00000000000E+00 -0.89265763183E+03  0.89265763183E+03  0.25500000920E-02 0.  1.
    10030    2    1    2    0    0  0.00000000000E+00  0.00000000000E+00  0.18401566491E+03  0.19693309286E+04  0.19607148037E+04 0.  0.
        3    1    3    3  502    0 -0.68278208947E+03  0.54969071886E+03  0.53296940307E+03  0.10258692231E+04  0.10100000352E+00 0. -1.
       -3    1    3    3    0  502  0.68278208947E+03 -0.54969071886E+03 -0.34895373816E+03  0.94346170546E+03  0.10100000352E+00 0.  1.
</event>
<event>
 5   0  0.2847158E-05  0.2317309E+04  0.7818609E-02  0.8471127E-01
        1   -1    0    0  501    0  0.00000000000E+00  0.00000000000E+00  0.15620176486E+04  0.15620176486E+04  0.50400001928E-02 0.  1.
       -1   -1    0    0    0  501  0.00000000000E+00  0.00000000000E+00 -0.85945277258E+03  0.85945277260E+03  0.50400001928E-02 0. -1.
    10030    2    1    2    0    0  0.00000000000E+00  0.00000000000E+00  0.70256487606E+03  0.24214704212E+04  0.23173091283E+04 0.  0.
        5    1    3    3  502    0 -0.37598808097E+03  0.98157686187E+03  0.86063290752E+03  0.13585180397E+04  0.46999998093E+01 0.  1.
       -5    1    3    3    0  502  0.37598808097E+03 -0.98157686187E+03 -0.15806803146E+03  0.10629523815E+04  0.46999998093E+01 0. -1.
</event>
<event>
 5   0  0.6337926E-05  0.2414413E+04  0.7818609E-02  0.8434127E-01
       -2   -1    0    0    0  501  0.00000000000E+00  0.00000000000E+00  0.10149147113E+04  0.10149147113E+04  0.25500000920E-02 0.  1.
        2   -1    0    0  501    0  0.00000000000E+00  0.00000000000E+00 -0.14359312500E+04  0.14359312500E+04  0.25500000920E-02 0. -1.
    10030    2    1    2    0    0  0.00000000000E+00  0.00000000000E+00 -0.42101653867E+03  0.24508459613E+04  0.24144131793E+04 0.  0.
        1    1    3    3  502    0 -0.15028175982E+03  0.18459991615E+03  0.99085629879E+03  0.10190475657E+04  0.50400001928E-02 0.  1.
       -1    1    3    3    0  502  0.15028175982E+03 -0.18459991615E+03 -0.14118728375E+04  0.14317983956E+04  0.50400001928E-02 0. -1.
</event>
<event>
 5   0  0.6714629E-05  0.2396096E+04  0.7818609E-02  0.8440967E-01
       -2   -1    0    0    0  501  0.00000000000E+00  0.00000000000E+00  0.69554126921E+03  0.69554126922E+03  0.25500000920E-02 0.  1.
        2   -1    0    0  501    0  0.00000000000E+00  0.00000000000E+00 -0.20635992526E+04  0.20635992526E+04  0.25500000920E-02 0. -1.
    10030    2    1    2    0    0  0.00000000000E+00  0.00000000000E+00 -0.13680579834E+04  0.27591405218E+04  0.23960955267E+04 0.  0.
        3    1    3    3  502    0  0.99530229888E+03  0.52181698273E+03 -0.20590909747E+03  0.11425052281E+04  0.10100000352E+00 0.  1.
       -3    1    3    3    0  502 -0.99530229888E+03 -0.52181698273E+03 -0.11621488859E+04  0.16166352937E+04  0.10100000352E+00 0. -1.
</event>
<event>
 5   0  0.2847158E-05  0.2418220E+04  0.7818609E-02  0.8432714E-01
        1   -1    0    0  501    0  0.00000000000E+00  0.00000000000E+00  0.88734308871E+03  0.88734308873E+03  0.50400001928E-02 0.  1.
       -1   -1    0    0    0  501  0.00000000000E+00  0.00000000000E+00 -0.16475553658E+04  0.16475553658E+04  0.50400001928E-02 0. -1.
    10030    2    1    2    0    0  0.00000000000E+00  0.00000000000E+00 -0.76021227712E+03  0.25348984546E+04  0.24182198967E+04 0.  0.
        5    1    3    3  502    0 -0.77281352785E+03  0.71678446284E+03 -0.10010594885E+04  0.14536722136E+04  0.46999998093E+01 0. -1.
       -5    1    3    3    0  502  0.77281352785E+03 -0.71678446284E+03  0.24084721138E+03  0.10812262410E+04  0.46999998093E+01 0.  1.
</event>
<event>
 5   0  0.2901816E-05  0.2319178E+04  0.7818609E-02  0.8470398E-01
       -1   -1    0    0    0  501  0.00000000000E+00  0.00000000000E+00  0.10482664743E+04  0.10482664743E+04  0.50400001928E-02 0.  1.
        1   -1    0    0  501    0  0.00000000000E+00  0.00000000000E+00 -0.12827331572E+04  0.12827331573E+04  0.50400001928E-02 0. -1.
    10030    2    1    2    0    0  0.00000000000E+00  0.00000000000E+00 -0.23446668294E+03  0.23309996316E+04  0.23191775820E+04 0.  0.
        4    1    3    3  502    0 -0.26182182364E+03  0.39102513094E+03 -0.11824438429E+04  0.12726454238E+04  0.12699999809E+01 0. -1.
       -4    1    3    3    0  502  0.26182182364E+03 -0.39102513094E+03  0.94797715994E+03  0.10583542077E+04  0.12699999809E+01 0.  1.
</event>
<event>
 5   0  0.2915546E-05  0.1498361E+04  0.7818609E-02  0.8885543E-01
       -1   -1    0    0    0  501  0.00000000000E+00  0.00000000000E+00  0.43264815174E+03  0.43264815176E+03  0.50400001928E-02 0. -1.
        1   -1    0    0  501    0  0.00000000000E+00  0.00000000000E+00 -0.12972936281E+04  0.12972936281E+04  0.50400001928E-02 0.  1.
    10030    2    1    2    0    0  0.00000000000E+00  0.00000000000E+00 -0.86464547635E+03  0.17299417799E+04  0.14983613589E+04 0.  0.
        2    1    3    3  502    0 -0.33005256630E+03  0.48907635746E+03  0.10070368549E+03  0.59855794392E+03  0.25500000920E-02 0. -1.
       -2    1    3    3    0  502  0.33005256630E+03 -0.48907635746E+03 -0.96534916184E+03  0.11313838359E+04  0.25500000920E-02 0.  1.
</event>
<event>
 5   0  0.6978115E-05  0.2415851E+04  0.7818609E-02  0.8433593E-01
        2   -1    0    0  501    0  0.00000000000E+00  0.00000000000E+00  0.20827444571E+04  0.20827444571E+04  0.25500000920E-02 0. -1.
       -2   -1    0    0    0  501  0.00000000000E+00  0.00000000000E+00 -0.70055818319E+03  0.70055818320E+03  0.25500000920E-02 0.  1.
    10030    2    1    2    0    0  0.00000000000E+00  0.00000000000E+00  0.13821862739E+04  0.27833026403E+04  0.24158507180E+04 0.  0.
        4    1    3    3  502    0 -0.47105268343E+03  0.99749504546E+03  0.12580799795E+04  0.16732166159E+04  0.12699999809E+01 0. -1.
       -4    1    3    3    0  502  0.47105268343E+03 -0.99749504546E+03  0.12410629447E+03  0.11100860244E+04  0.12699999809E+01 0.  1.
</event>
<event>
 5   0  0.6337926E-05  0.2464048E+04  0.7818609E-02  0.8415907E-01
        2   -1    0    0  501    0  0.00000000000E+00  0.00000000000E+00  0.82317465481E+03  0.82317465481E+03  0.25500000920E-02 0. -1.
       -2   -1    0    0    0  501  0.00000000000E+00  0.00000000000E+00 -0.18439378068E+04  0.18439378068E+04  0.25500000920E-02 0.  1.
    10030    2    1    2    0    0  0.00000000000E+00  0.00000000000E+00 -0.10207631520E+04  0.26671124616E+04  0.24640477817E+04 0.  0.
        1    1    3    3  502    0  0.63527446918E+03  0.73106309973E+03 -0.13346188800E+04  0.16490101460E+04  0.50400001928E-02 0.  1.
       -1    1    3    3    0  502 -0.63527446918E+03 -0.73106309973E+03  0.31385572797E+03  0.10181023156E+04  0.50400001928E-02 0. -1.
</event>
<event>
 5   0  0.2943123E-05  0.1848659E+04  0.7818609E-02  0.8680843E-01
       -1   -1    0    0    0  501  0.00000000000E+00  0.00000000000E+00  0.11555155725E+04  0.11555155725E+04  0.50400001928E-02 0. -1.
        1   -1    0    0  501    0  0.00000000000E+00  0.00000000000E+00 -0.73939697575E+03  0.73939697577E+03  0.50400001928E-02 0.  1.
    10030    2    1    2    0    0  0.00000000000E+00  0.00000000000E+00  0.41611859672E+03  0.18949125483E+04  0.18486586702E+04 0.  0.
        1    1    3    3  502    0 -0.64214596521E+03  0.59701073156E+03  0.50797444906E+03  0.10133169766E+04  0.50400001928E-02 0. -1.
       -1    1    3    3    0  502  0.64214596521E+03 -0.59701073156E+03 -0.91855852343E+02  0.88159557160E+03  0.50400001928E-02 0.  1.
</event>
<event>
 5   0  0.6600166E-05  0.2398460E+04  0.7818609E-02  0.8440080E-01
       -2   -1    0    0    0  501  0.00000000000E+00  0.00000000000E+00  0.72729994936E+03  0.72729994936E+03  0.25500000920E-02 0.  1.
        2   -1    0    0  501    0  0.00000000000E+00  0.00000000000E+00 -0.19773862390E+04  0.19773862390E+04  0.25500000920E-02 0. -1.
    10030    2    1    2    0    0  0.00000000000E+00  0.00000000000E+00 -0.12500862897E+04  0.27046861884E+04  0.23984602657E+04 0.  0.
        5    1    3    3  502    0  0.58465335934E+03 -0.81916111344E+03  0.11035930551E+03  0.10124454290E+04  0.46999998093E+01 0.  1.
       -5    1    3    3    0  502 -0.58465335934E+03  0.81916111344E+03 -0.13604455952E+04  0.16922407594E+04  0.46999998093E+01 0. -1.
</event>
<event>
 5   0  0.2901816E-05  0.2366635E+04  0.7818609E-02  0.8452101E-01
        1   -1    0    0  501    0  0.00000000000E+00  0.00000000000E+00  0.75999296968E+03  0.75999296970E+03  0.50400001928E-02 0. -1.
       -1   -1    0    0    0  501  0.00000000000E+00  0.00000000000E+00 -0.18424391966E+04  0.18424391966E+04  0.50400001928E-02 0.  1.
    10030    2    1    2    0    0  0.00000000000E+00  0.00000000000E+00 -0.10824462269E+04  0.26024321663E+04  0.23666354485E+04 0.  0.
        4    1    3    3  502    0  0.11185868943E+04  0.19419659546E+03 -0.90806307787E+03  0.14537981717E+04  0.12699999809E+01 0.  1.
       -4    1    3    3    0  502 -0.11185868943E+04 -0.19419659546E+03 -0.17438314904E+03  0.11486339945E+04  0.12699999809E+01 0. -1.
</event>
<event>
 5   0  0.2943244E-05  0.2359819E+04  0.7818609E-02  0.8454702E-01
        1   -1    0    0  501    0  0.00000000000E+00  0.00000000000E+00  0.57105292802E+03  0.57105292805E+03  0.50400001928E-02 0.  1.
       -1   -1    0    0    0  501  0.00000000000E+00  0.00000000000E+00 -0.24379282631E+04  0.24379282631E+04  0.50400001928E-02 0. -1.
    10030    2    1    2    0    0  0.00000000000E+00  0.00000000000E+00 -0.18668753351E+04  0.30089811912E+04  0.23598186990E+04 0.  0.
        3    1    3    3  502    0 -0.59858346896E+02  0.11760309943E+04 -0.83841016680E+03  0.14455322685E+04  0.10100000352E+00 0. -1.
       -3    1    3    3    0  502  0.59858346896E+02 -0.11760309943E+04 -0.10284651683E+04  0.15634489227E+04  0.10100000352E+00 0.  1.
</event>
<event>
 5   0  0.2915546E-05  0.2272650E+04  0.7818609E-02  0.8488783E-01
        1   -1    0    0  501    0  0.00000000000E+00  0.00000000000E+00  0.15231593537E+04  0.15231593537E+04  0.50400001928E-02 0. -1.
       -1   -1    0    0    0  501  0.00000000000E+00  0.00000000000E+00 -0.84773447782E+03  0.84773447784E+03  0.50400001928E-02 0.  1.
    10030    2    1    2    0    0  0.00000000000E+00  0.00000000000E+00  0.67542487588E+03  0.23708938315E+04  0.22726501705E+04 0.  0.
        2    1    3    3  502    0 -0.14664869142E+03  0.27828455380E+03 -0.80140852078E+03  0.86093190716E+03  0.25500000920E-02 0.  1.
       -2    1    3    3    0  502  0.14664869142E+03 -0.27828455380E+03  0.14768333967E+04  0.15099619244E+04  0.25500000920E-02 0. -1.
</event>
<event>
 5   0  0.6978115E-05  0.2356492E+04  0.7818609E-02  0.8455974E-01
       -2   -1    0    0    0  501  0.00000000000E+00  0.00000000000E+00  0.15230601209E+04  0.15230601209E+04  0.25500000920E-02 0.  1.
        2   -1    0    0  501    0  0.00000000000E+00  0.00000000000E+00 -0.91149600738E+03  0.91149600738E+03  0.25500000920E-02 0. -1.
    10030    2    1    2    0    0  0.00000000000E+00  0.00000000000E+00  0.61156411352E+03  0.24345561283E+04  0.23564916458E+04 0.  0.
        4    1    3    3  502    0  0.10476913349E+04  0.51649492613E+03  0.14627352568E+03  0.11772092843E+04  0.12699999809E+01 0.  1.
       -4    1    3    3    0  502 -0.10476913349E+04 -0.51649492613E+03  0.46529058783E+03  0.12573468439E+04  0.12699999809E+01 0. -1.
</event>
<event>
 5   0  0.2943123E-05  0.2411960E+04  0.7818609E-02  0.8435039E-01
       -1   -1    0    0    0  501  0.00000000000E+00  0.00000000000E+00  0.12786448885E+04  0.12786448885E+04  0.50400001928E-02 0.  1.
        1   -1    0    0  501    0  0.00000000000E+00  0.00000000000E+00 -0.11374447584E+04  0.11374447584E+04  0.50400001928E-02 0. -1.
    10030    2    1    2    0    0  0.00000000000E+00  0.00000000000E+00  0.14120013007E+03  0.24160896469E+04  0.24119601376E+04 0.  0.
        1    1    3    3  502    0 -0.93900818807E+03  0.74886069131E+03 -0.38486400805E+02  0.12016696365E+04  0.50400001928E-02 0. -1.
       -1    1    3    3    0  502  0.93900818807E+03 -0.74886069131E+03  0.17968653087E+03  0.12144200104E+04  0.50400001928E-02 0.  1.
</event>
<event>
 5   0  0.2943244E-05  0.2130648E+04  0.7818609E-02  0.8547862E-01
       -1   -1    0    0    0  501  0.00000000000E+00  0.00000000000E+00  0.36910589716E+03  0.36910589719E+03  0.50400001928E-02 0.  1.
        1   -1    0    0  501    0  0.00000000000E+00  0.00000000000E+00 -0.30747677637E+04  0.30747677637E+04  0.50400001928E-02 0. -1.
    10030    2    1    2    0    0  0.00000000000E+00  0.00000000000E+00 -0.27056618666E+04  0.34438736609E+04  0.21306477081E+04 0.  0.
        3    1    3    3  502    0  0.67074225569E+03 -0.45821169810E+03 -0.24668961244E+04  0.25971964948E+04  0.10100000352E+00 0. -1.
       -3    1    3    3    0  502 -0.67074225569E+03  0.45821169810E+03 -0.23876574222E+03  0.84667716616E+03  0.10100000352E+00 0.  1.
</event>
<event>
 5   0  0.6703961E-05  0.1861347E+04  0.7818609E-02  0.8674340E-01
        2   -1    0    0  501    0  0.00000000000E+00  0.00000000000E+00  0.16937170458E+04  0.16937170458E+04  0.25500000920E-02 0.  1.
       -2   -1    0    0    0  501  0.00000000000E+00  0.00000000000E+00 -0.51139165611E+03  0.51139165612E+03  0.25500000920E-02 0. -1.
    10030    2    1    2    0    0  0.00000000000E+00  0.00000000000E+00  0.11823253896E+04  0.22051087019E+04  0.18613465717E+04 0.  0.
        2    1    3    3  502    0  0.63966403204E+03 -0.57830715143E+03  0.10058759839E+04  0.13249134803E+04  0.25500000920E-02 0.  1.
       -2    1    3    3    0  502 -0.63966403204E+03  0.57830715143E+03  0.17644940573E+03  0.88019522157E+03  0.25500000920E-02 0. -1.
</event>
<event>
 5   0  0.6978115E-05  0.2404406E+04  0.7818609E-02  0.8437856E-01
        2   -1    0    0  501    0  0.00000000000E+00  0.00000000000E+00  0.12302432900E+04  0.12302432900E+04  0.25500000920E-02 0. -1.
       -2   -1    0    0    0  501  0.00000000000E+00  0.00000000000E+00 -0.11748015316E+04  0.11748015316E+04  0.25500000920E-02 0.  1.
    10030    2    1    2    0    0  0.00000000000E+00  0.00000000000E+00  0.55441758411E+02  0.24050448216E+04  0.24044057073E+04 0.  0.
        4    1    3    3  502    0 -0.58414809517E+03  0.44415179885E+03 -0.92478759962E+03  0.11805649219E+04  0.12699999809E+01 0.  1.
       -4    1    3    3    0  502  0.58414809517E+03 -0.44415179885E+03  0.98022935803E+03  0.12244798997E+04  0.12699999809E+01 0. -1.
</event>
<event>
 5   0  0.2847158E-05  0.2395512E+04  0.7818609E-02  0.8441186E-01
       -1   -1    0    0    0  501  0.00000000000E+00  0.00000000000E+00  0.98967618395E+03  0.98967618396E+03  0.50400001928E-02 0.  1.
        1   -1    0    0  501    0  0.00000000000E+00  0.00000000000E+00 -0.14495845266E+04  0.14495845266E+04  0.50400001928E-02 0. -1.
    10030    2    1    2    0    0  0.00000000000E+00  0.00000000000E+00 -0.45990834260E+03  0.24392607105E+04  0.23955118723E+04 0.  0.
        5    1    3    3  502    0  0.13602905462E+03  0.46536333799E+03  0.88527853067E+03  0.10093597510E+04  0.46999998093E+01 0.  1.
       -5    1    3    3    0  502 -0.13602905462E+03 -0.46536333799E+03 -0.13451868733E+04  0.14299009595E+04  0.46999998093E+01 0. -1.
</event>
<event>
 5   0  0.6978115E-05  0.2368341E+04  0.7818609E-02  0.8451452E-01
        2   -1    0    0  501    0  0.00000000000E+00  0.00000000000E+00  0.58532015182E+03  0.58532015182E+03  0.25500000920E-02 0.  1.
       -2   -1    0    0    0  501  0.00000000000E+00  0.00000000000E+00 -0.23957136720E+04  0.23957136720E+04  0.25500000920E-02 0. -1.
    10030    2    1    2    0    0  0.00000000000E+00  0.00000000000E+00 -0.18103935202E+04  0.29810338238E+04  0.23683407611E+04 0.  0.
        4    1    3    3  502    0  0.41881141313E+02 -0.11228147748E+04 -0.43458578193E+03  0.12047130211E+04  0.12699999809E+01 0.  1.
       -4    1    3    3    0  502 -0.41881141313E+02  0.11228147748E+04 -0.13758077382E+04  0.17763208027E+04  0.12699999809E+01 0. -1.
</event>
<event>
 5   0  0.2915546E-05  0.2426630E+04  0.7818609E-02  0.8429600E-01
       -1   -1    0    0    0  501  0.00000000000E+00  0.00000000000E+00  0.10633417150E+04  0.10633417150E+04  0.50400001928E-02 0.  1.
        1   -1    0    0  501    0  0.00000000000E+00  0.00000000000E+00 -0.13844405002E+04  0.13844405002E+04  0.50400001928E-02 0. -1.
    10030    2    1    2    0    0  0.00000000000E+00  0.00000000000E+00 -0.32109878515E+03  0.24477822152E+04  0.24266300384E+04 0.  0.
        2    1    3    3  502    0 -0.36946621775E+03  0.52952996657E+03  0.87564672481E+03  0.10879634453E+04  0.25500000920E-02 0.  1.
       -2    1    3    3    0  502  0.36946621775E+03 -0.52952996657E+03 -0.11967455100E+04  0.13598187700E+04  0.25500000920E-02 0. -1.
</event>
<event>
 5   0  0.6600166E-05  0.2409870E+04  0.7818609E-02  0.8435817E-01
        2   -1    0    0  501    0  0.00000000000E+00  0.00000000000E+00  0.26303542500E+04  0.26303542500E+04  0.25500000920E-02 0.  1.
       -2   -1    0    0    0  501  0.00000000000E+00  0.00000000000E+00 -0.55196703073E+03  0.55196703073E+03  0.25500000920E-02 0. -1.
    10030    2    1    2    0    0  0.00000000000E+00  0.00000000000E+00  0.20783872193E+04  0.31823212807E+04  0.24098703908E+04 0.  0.
        5    1    3    3  502    0 -0.10531458909E+04  0.51855621744E+03  0.13980052532E+04  0.18255020120E+04  0.46999998093E+01 0.  1.
       -5    1    3    3    0  502  0.10531458909E+04 -0.51855621744E+03  0.68038196609E+03  0.13568192687E+04  0.46999998093E+01 0. -1.
</event>
<event>
 5   0  0.2901816E-05  0.2402366E+04  0.7818609E-02  0.8438618E-01
        1   -1    0    0  501    0  0.00000000000E+00  0.00000000000E+00  0.11744563421E+04  0.11744563421E+04  0.50400001928E-02 0.  1.
       -1   -1    0    0    0  501  0.00000000000E+00  0.00000000000E+00 -0.12285180823E+04  0.12285180823E+04  0.50400001928E-02 0. -1.
    10030    2    1    2    0    0  0.00000000000E+00  0.00000000000E+00 -0.54061740225E+02  0.24029744244E+04  0.24023662112E+04 0.  0.
        4    1    3    3  502    0  0.77467267110E+03 -0.45135507494E+03 -0.82660806138E+03  0.12194759740E+04  0.12699999809E+01 0. -1.
       -4    1    3    3    0  502 -0.77467267110E+03  0.45135507494E+03  0.77254632115E+03  0.11834984505E+04  0.12699999809E+01 0.  1.
</event>
<event>
 5   0  0.6714629E-05  0.2423346E+04  0.7818609E-02  0.8430814E-01
       -2   -1    0    0    0  501  0.00000000000E+00  0.00000000000E+00  0.10132278921E+04  0.10132278921E+04  0.25500000920E-02 0.  1.
        2   -1    0    0  501    0  0.00000000000E+00  0.00000000000E+00 -0.14489850407E+04  0.14489850407E+04  0.25500000920E-02 0. -1.
    10030    2    1    2    0    0  0.00000000000E+00  0.00000000000E+00 -0.43575714862E+03  0.24622129328E+04  0.24233464948E+04 0.  0.
        3    1    3    3  502    0 -0.11162897295E+04 -0.14988619831E+03 -0.67179125822E+03  0.13114389568E+04  0.10100000352E+00 0. -1.
       -3    1    3    3    0  502  0.11162897295E+04  0.14988619831E+03  0.23603410960E+03  0.11507739760E+04  0.10100000352E+00 0.  1.
</event>
<event>
 5   0  0.2339125E-05  0.2396781E+04  0.7818609E-02  0.8440710E-01
       -4   -1    0    0    0  501  0.00000000000E+00  0.00000000000E+00  0.13305448118E+04  0.13305454179E+04  0.12699999809E+01 0. -1.
        4   -1    0    0  501    0  0.00000000000E+00  0.00000000000E+00 -0.10793613966E+04  0.10793621437E+04  0.12699999809E+01 0.  1.
    10030    2    1    2    0    0  0.00000000000E+00  0.00000000000E+00  0.25118341520E+03  0.24099075617E+04  0.23967814560E+04 0.  0.
        4    1    3    3  502    0  0.74946087647E+03  0.68382100730E+03 -0.51573837097E+03  0.11381082794E+04  0.12699999809E+01 0.  1.
       -4    1    3    3    0  502 -0.74946087647E+03 -0.68382100730E+03  0.76692178617E+03  0.12717992823E+04  0.12699999809E+01 0. -1.
</event>
<event>
 5   0  0.6703961E-05  0.2389241E+04  0.7818609E-02  0.8443543E-01
        2   -1    0    0  501    0  0.00000000000E+00  0.00000000000E+00  0.20118459337E+04  0.20118459337E+04  0.25500000920E-02 0. -1.
       -2   -1    0    0    0  501  0.00000000000E+00  0.00000000000E+00 -0.70935747724E+03  0.70935747725E+03  0.25500000920E-02 0.  1.
    10030    2    1    2    0    0  0.00000000000E+00  0.00000000000E+00  0.13024884564E+04  0.27212034109E+04  0.23892408469E+04 0.  0.
        2    1    3    3  502    0 -0.19641252681E+03 -0.20324634376E+03 -0.67072732328E+03  0.72784757961E+03  0.25500000920E-02 0.  1.
       -2    1    3    3    0  502  0.19641252681E+03  0.20324634376E+03  0.19732157797E+04  0.19933558313E+04  0.25500000920E-02 0. -1.
</event>
<event>
 5   0  0.2339125E-05  0.1718629E+04  0.7818609E-02  0.8750810E-01
        3   -1    0    0  501    0  0.00000000000E+00  0.00000000000E+00  0.17068679837E+04  0.17068679867E+04  0.10100000352E+00 0. -1.
       -3   -1    0    0    0  501  0.00000000000E+00  0.00000000000E+00 -0.43261786480E+03  0.43261787659E+03  0.10100000352E+00 0.  1.
    10030    2    1    2    0    0  0.00000000000E+00  0.00000000000E+00  0.12742501189E+04  0.21394858633E+04  0.17186292194E+04 0.  0.
        2    1    3    3  502    0 -0.51565358358E+03  0.55129334418E+03  0.12596813414E+03  0.76530447563E+03  0.25500000920E-02 0.  1.
       -2    1    3    3    0  502  0.51565358358E+03 -0.55129334418E+03  0.11482819848E+04  0.13741813876E+04  0.25500000920E-02 0. -1.
</event>
<event>
 5   0  0.6978115E-05  0.1864739E+04  0.7818609E-02  0.8672610E-01
       -2   -1    0    0    0  501  0.00000000000E+00  0.00000000000E+00  0.52353108678E+03  0.52353108678E+03  0.25500000920E-02 0. -1.
        2   -1    0    0  501    0  0.00000000000E+00  0.00000000000E+00 -0.16604796091E+04  0.16604796091E+04  0.25500000920E-02 0.  1.
    10030    2    1    2    0    0  0.00000000000E+00  0.00000000000E+00 -0.11369485224E+04  0.21840106959E+04  0.18647387960E+04 0.  0.
        4    1    3    3  502    0 -0.22615215199E+03 -0.77351455595E+03 -0.11176250489E+04  0.13778813182E+04  0.12699999809E+01 0.  1.
       -4    1    3    3    0  502  0.22615215199E+03  0.77351455595E+03 -0.19323473428E+02  0.80612937773E+03  0.12699999809E+01 0. -1.
</event>
<event>
 5   0  0.6600166E-05  0.2508157E+04  0.7818609E-02  0.8400085E-01
        2   -1    0    0  501    0  0.00000000000E+00  0.00000000000E+00  0.26632324031E+04  0.26632324031E+04  0.25500000920E-02 0.  1.
       -2   -1    0    0    0  501  0.00000000000E+00  0.00000000000E+00 -0.59052782636E+03  0.59052782636E+03  0.25500000920E-02 0. -1.
    10030    2    1    2    0    0  0.00000000000E+00  0.00000000000E+00  0.20727045767E+04  0.32537602294E+04  0.25081569664E+04 0.  0.
        5    1    3    3  502    0  0.47869675954E+03 -0.42946234080E+03 -0.36031097839E+03  0.73718015498E+03  0.46999998093E+01 0. -1.
       -5    1    3    3    0  502 -0.47869675954E+03  0.42946234080E+03  0.24330155551E+04  0.25165800744E+04  0.46999998093E+01 0.  1.
</event>
<event>
 5   0  0.2901816E-05  0.2383960E+04  0.7818609E-02  0.8445533E-01
        1   -1    0    0  501    0  0.00000000000E+00  0.00000000000E+00  0.11336774843E+04  0.11336774844E+04  0.50400001928E-02 0.  1.
       -1   -1    0    0    0  501  0.00000000000E+00  0.00000000000E+00 -0.12532809592E+04  0.12532809592E+04  0.50400001928E-02 0. -1.
    10030    2    1    2    0    0  0.00000000000E+00  0.00000000000E+00 -0.11960347486E+03  0.23869584436E+04  0.23839600710E+04 0.  0.
        4    1    3    3  502    0 -0.18484337079E+03  0.82052906710E+03  0.78587868324E+03  0.11511046605E+04  0.12699999809E+01 0.  1.
       -4    1    3    3    0  502  0.18484337079E+03 -0.82052906710E+03 -0.90548215810E+03  0.12358537831E+04  0.12699999809E+01 0. -1.
</event>
<event>
 5   0  0.2339125E-05  0.2405690E+04  0.7818609E-02  0.8437376E-01
        4   -1    0    0  501    0  0.00000000000E+00  0.00000000000E+00  0.12944151734E+04  0.12944157964E+04  0.12699999809E+01 0.  1.
       -4   -1    0    0    0  501  0.00000000000E+00  0.00000000000E+00 -0.11177513397E+04  0.11177520612E+04  0.12699999809E+01 0. -1.
    10030    2    1    2    0    0  0.00000000000E+00  0.00000000000E+00  0.17666383373E+03  0.24121678576E+04  0.24056898518E+04 0.  0.
        5    1    3    3  502    0  0.40659072452E+03  0.98750034404E+03  0.64330301582E+03  0.12467292436E+04  0.46999998093E+01 0.  1.
       -5    1    3    3    0  502 -0.40659072452E+03 -0.98750034404E+03 -0.46663918209E+03  0.11654386140E+04  0.46999998093E+01 0. -1.
</event>
<event>
 5   0  0.6600166E-05  0.2378225E+04  0.7818609E-02  0.8447701E-01
        2   -1    0    0  501    0  0.00000000000E+00  0.00000000000E+00  0.23071040074E+04  0.23071040074E+04  0.25500000920E-02 0. -1.
       -2   -1    0    0    0  501  0.00000000000E+00  0.00000000000E+00 -0.61288445692E+03  0.61288445693E+03  0.25500000920E-02 0.  1.
    10030    2    1    2    0    0  0.00000000000E+00  0.00000000000E+00  0.16942195505E+04  0.29199884643E+04  0.23782247048E+04 0.  0.
        5    1    3    3  502    0  0.89980627959E+03  0.43244087847E+03  0.53955883698E+02  0.99979486973E+03  0.46999998093E+01 0.  1.
       -5    1    3    3    0  502 -0.89980627959E+03 -0.43244087847E+03  0.16402636668E+04  0.19201935946E+04  0.46999998093E+01 0. -1.
</event>
<event>
 5   0  0.2943244E-05  0.2406210E+04  0.7818609E-02  0.8437182E-01
       -1   -1    0    0    0  501  0.00000000000E+00  0.00000000000E+00  0.12102835605E+04  0.12102835605E+04  0.50400001928E-02 0. -1.
        1   -1    0    0  501    0  0.00000000000E+00  0.00000000000E+00 -0.11959689754E+04  0.11959689754E+04  0.50400001928E-02 0.  1.
    10030    2    1    2    0    0  0.00000000000E+00  0.00000000000E+00  0.14314585159E+02  0.24062525359E+04  0.24062099574E+04 0.  0.
        3    1    3    3  502    0  0.72167688474E+03 -0.96157262773E+03 -0.37811661260E+02  0.12028587516E+04  0.10100000352E+00 0. -1.
       -3    1    3    3    0  502 -0.72167688474E+03  0.96157262773E+03  0.52126246420E+02  0.12033937843E+04  0.10100000352E+00 0.  1.
</event>
<event>
 5   0  0.6337926E-05  0.2390290E+04  0.7818609E-02  0.8443148E-01
       -2   -1    0    0    0  501  0.00000000000E+00  0.00000000000E+00  0.85274735601E+03  0.85274735601E+03  0.25500000920E-02 0.  1.
        2   -1    0    0  501    0  0.00000000000E+00  0.00000000000E+00 -0.16750228345E+04  0.16750228345E+04  0.25500000920E-02 0. -1.
    10030    2    1    2    0    0  0.00000000000E+00  0.00000000000E+00 -0.82227547846E+03  0.25277701905E+04  0.23902897677E+04 0.  0.
        1    1    3    3  502    0 -0.11912588396E+04 -0.68781529930E+02 -0.33986105554E+03  0.12406990203E+04  0.50400001928E-02 0. -1.
       -1    1    3    3    0  502  0.11912588396E+04  0.68781529930E+02 -0.48241442292E+03  0.12870711702E+04  0.50400001928E-02 0.  1.
</event>
<event>
 5   0  0.2943123E-05  0.2406880E+04  0.7818609E-02  0.8436932E-01
        1   -1    0    0  501    0  0.00000000000E+00  0.00000000000E+00  0.13315600436E+04  0.13315600436E+04  0.50400001928E-02 0. -1.
       -1   -1    0    0    0  501  0.00000000000E+00  0.00000000000E+00 -0.10876476709E+04  0.10876476709E+04  0.50400001928E-02 0.  1.
    10030    2    1    2    0    0  0.00000000000E+00  0.00000000000E+00  0.24391237276E+03  0.24192077145E+04  0.24068802879E+04 0.  0.
        1    1    3    3  502    0 -0.11043392802E+04 -0.38225961422E+03  0.41079628150E+03  0.12387256530E+04  0.50400001928E-02 0. -1.
       -1    1    3    3    0  502  0.11043392802E+04  0.38225961422E+03 -0.16688390874E+03  0.11804820615E+04  0.50400001928E-02 0.  1.
</event>
<event>
 5   0  0.6337926E-05  0.2100776E+04  0.7818609E-02  0.8560902E-01
        2   -1    0    0  501    0  0.00000000000E+00  0.00000000000E+00  0.20964048704E+04  0.20964048704E+04  0.25500000920E-02 0. -1.
       -2   -1    0    0    0  501  0.00000000000E+00  0.00000000000E+00 -0.52628907252E+03  0.52628907252E+03  0.25500000920E-02 0.  1.
    10030    2    1    2    0    0  0.00000000000E+00  0.00000000000E+00  0.15701157979E+04  0.26226939429E+04  0.21007760232E+04 0.  0.
        1    1    3    3  502    0 -0.16931585752E+02  0.57383589220E+03 -0.31310197910E+03  0.65391678302E+03  0.50400001928E-02 0.  1.
       -1    1    3    3    0  502  0.16931585752E+02 -0.57383589220E+03  0.18832177770E+04  0.19687771599E+04  0.50400001928E-02 0. -1.
</event>
<event>
 5   0  0.6337926E-05  0.2380950E+04  0.7818609E-02  0.8446670E-01
       -2   -1    0    0    0  501  0.00000000000E+00  0.00000000000E+00  0.63897985897E+03  0.63897985898E+03  0.25500000920E-02 0. -1.
        2   -1    0    0  501    0  0.00000000000E+00  0.00000000000E+00 -0.22179583695E+04  0.22179583695E+04  0.25500000920E-02 0.  1.
    10030    2    1    2    0    0  0.00000000000E+00  0.00000000000E+00 -0.15789785105E+04  0.28569382285E+04  0.23809500004E+04 0.  0.
        1    1    3    3  502    0  0.40537064700E+03  0.10280307522E+04 -0.25818534648E+03  0.11348269745E+04  0.50400001928E-02 0. -1.
       -1    1    3    3    0  502 -0.40537064700E+03 -0.10280307522E+04 -0.13207931641E+04  0.17221112540E+04  0.50400001928E-02 0.  1.
</event>
<event>
 5   0  0.6600166E-05  0.2583998E+04  0.7818609E-02  0.8373657E-01
        2   -1    0    0  501    0  0.00000000000E+00  0.00000000000E+00  0.65055199276E+03  0.65055199277E+03  0.25500000920E-02 0. -1.
       -2   -1    0    0    0  501  0.00000000000E+00  0.00000000000E+00 -0.25659145854E+04  0.25659145854E+04  0.25500000920E-02 0.  1.
    10030    2    1    2    0    0  0.00000000000E+00  0.00000000000E+00 -0.19153625926E+04  0.32164665782E+04  0.25839975594E+04 0.  0.
        5    1    3    3  502    0 -0.18092134343E+03  0.10874238966E+04 -0.11895109666E+03  0.11087807343E+04  0.46999998093E+01 0. -1.
       -5    1    3    3    0  502  0.18092134343E+03 -0.10874238966E+04 -0.17964114960E+04  0.21076858438E+04  0.46999998093E+01 0.  1.
</event>
<event>
 5   0  0.6714629E-05  0.1904603E+04  0.7818609E-02  0.8652568E-01
        2   -1    0    0  501    0  0.00000000000E+00  0.00000000000E+00  0.16451487715E+04  0.16451487715E+04  0.25500000920E-02 0.  1.
       -2   -1    0    0    0  501  0.00000000000E+00  0.00000000000E+00 -0.55124398163E+03  0.55124398164E+03  0.25500000920E-02 0. -1.
    10030    2    1    2    0    0  0.00000000000E+00  0.00000000000E+00  0.10939047898E+04  0.21963927531E+04  0.19046032229E+04 0.  0.
        3    1    3    3  502    0  0.64968195181E+03  0.69237310998E+03  0.46212194716E+03  0.10559469050E+04  0.10100000352E+00 0. -1.
       -3    1    3    3    0  502 -0.64968195181E+03 -0.69237310998E+03  0.63178284266E+03  0.11404458481E+04  0.10100000352E+00 0.  1.
</event>
<event>
 5   0  0.2915546E-05  0.2423340E+04  0.7818609E-02  0.8430817E-01
       -1   -1    0    0    0  501  0.00000000000E+00  0.00000000000E+00  0.96914751644E+03  0.96914751645E+03  0.50400001928E-02 0.  1.
        1   -1    0    0  501    0  0.00000000000E+00  0.00000000000E+00 -0.15148820529E+04  0.15148820529E+04  0.50400001928E-02 0. -1.
    10030    2    1    2    0    0  0.00000000000E+00  0.00000000000E+00 -0.54573453643E+03  0.24840295693E+04  0.24233399920E+04 0.  0.
        2    1    3    3  502    0 -0.11297713910E+04 -0.15439158650E+03 -0.69291517491E+03  0.13342981667E+04  0.25500000920E-02 0. -1.
       -2    1    3    3    0  502  0.11297713910E+04  0.15439158650E+03  0.14718063848E+03  0.11497314027E+04  0.25500000920E-02 0.  1.
</event>
<event>
 5   0  0.2943244E-05  0.2396644E+04  0.7818609E-02  0.8440761E-01
       -1   -1    0    0    0  501  0.00000000000E+00  0.00000000000E+00  0.94315953073E+03  0.94315953074E+03  0.50400001928E-02 0.  1.
        1   -1    0    0  501    0  0.00000000000E+00  0.00000000000E+00 -0.15225162515E+04  0.15225162515E+04  0.50400001928E-02 0. -1.
    10030    2    1    2    0    0  0.00000000000E+00  0.00000000000E+00 -0.57935672081E+03  0.24656757823E+04  0.23966440815E+04 0.  0.
        3    1    3    3  502    0  0.79472985036E+03  0.18981389130E+03 -0.11914824821E+04  0.14447336653E+04  0.10100000352E+00 0. -1.
       -3    1    3    3    0  502 -0.79472985036E+03 -0.18981389130E+03  0.61212576128E+03  0.10209421170E+04  0.10100000352E+00 0.  1.
</event>
<event>
 5   0  0.2339125E-05  0.2400980E+04  0.7818609E-02  0.8439137E-01
        3   -1    0    0  501    0  0.00000000000E+00  0.00000000000E+00  0.27448856619E+04  0.27448856638E+04  0.10100000352E+00 0. -1.
       -3   -1    0    0    0  501  0.00000000000E+00  0.00000000000E+00 -0.52504048522E+03  0.52504049493E+03  0.10100000352E+00 0.  1.
    10030    2    1    2    0    0  0.00000000000E+00  0.00000000000E+00  0.22198451767E+04  0.32699261587E+04  0.24009798989E+04 0.  0.
        4    1    3    3  502    0  0.38850246129E+03 -0.96667726383E+03  0.19222617416E+04  0.21864333767E+04  0.12699999809E+01 0. -1.
       -4    1    3    3    0  502 -0.38850246129E+03  0.96667726383E+03  0.29758343513E+03  0.10834927820E+04  0.12699999809E+01 0.  1.
</event>
<event>
 5   0  0.2915546E-05  0.1848436E+04  0.7818609E-02  0.8680957E-01
       -1   -1    0    0    0  501  0.00000000000E+00  0.00000000000E+00  0.53895877799E+03  0.53895877802E+03  0.50400001928E-02 0.  1.
        1   -1    0    0  501    0  0.00000000000E+00  0.00000000000E+00 -0.15848690474E+04  0.15848690474E+04  0.50400001928E-02 0. -1.
    10030    2    1    2    0    0  0.00000000000E+00  0.00000000000E+00 -0.10459102694E+04  0.21238278254E+04  0.18484361878E+04 0.  0.
        2    1    3    3  502    0 -0.23782894523E+03 -0.89932348878E+02  0.49798150753E+03  0.55913863792E+03  0.25500000920E-02 0.  1.
       -2    1    3    3    0  502  0.23782894523E+03  0.89932348878E+02 -0.15438917770E+04  0.15646891875E+04  0.25500000920E-02 0. -1.
</event>
<event>
 5   0  0.2943123E-05  0.2295392E+04  0.7818609E-02  0.8479740E-01
       -1   -1    0    0    0  501  0.00000000000E+00  0.00000000000E+00  0.84673805311E+03  0.84673805312E+03  0.50400001928E-02 0.  1.
        1   -1    0    0  501    0  0.00000000000E+00  0.00000000000E+00 -0.15556245974E+04  0.15556245975E+04  0.50400001928E-02 0. -1.
    10030    2    1    2    0    0  0.00000000000E+00  0.00000000000E+00 -0.70888654434E+03  0.24023626506E+04  0.22953923787E+04 0.  0.
        1    1    3    3  502    0 -0.78217444641E+03 -0.67013462818E+03  0.17544062595E+03  0.10448237640E+04  0.50400001928E-02 0.  1.
       -1    1    3    3    0  502  0.78217444641E+03  0.67013462818E+03 -0.88432717029E+03  0.13575388866E+04  0.50400001928E-02 0. -1.
</event>
<event>
 5   0  0.6337926E-05  0.2369990E+04  0.7818609E-02  0.8450825E-01
        2   -1    0    0  501    0  0.00000000000E+00  0.00000000000E+00  0.17819417349E+04  0.17819417349E+04  0.25500000920E-02 0.  1.
       -2   -1    0    0    0  501  0.00000000000E+00  0.00000000000E+00 -0.78802445886E+03  0.78802445886E+03  0.25500000920E-02 0. -1.
    10030    2    1    2    0    0  0.00000000000E+00  0.00000000000E+00  0.99391727609E+03  0.25699661938E+04  0.23699904400E+04 0.  0.
        1    1    3    3  502    0  0.87761518524E+03 -0.52561940200E+03 -0.15161336196E+03  0.10341522038E+04  0.50400001928E-02 0. -1.
       -1    1    3    3    0  502 -0.87761518524E+03  0.52561940200E+03  0.11455306380E+04  0.15358139900E+04  0.50400001928E-02 0.  1.
</event>
<event>
 5   0  0.2943244E-05  0.2335092E+04  0.7818609E-02  0.8464212E-01
        1   -1    0    0  501    0  0.00000000000E+00  0.00000000000E+00  0.94511394949E+03  0.94511394951E+03  0.50400001928E-02 0. -1.
       -1   -1    0    0    0  501  0.00000000000E+00  0.00000000000E+00 -0.14423267763E+04  0.14423267763E+04  0.50400001928E-02 0.  1.
    10030    2    1    2    0    0  0.00000000000E+00  0.00000000000E+00 -0.49721282679E+03  0.23874407258E+04  0.23350915665E+04 0.  0.
        3    1    3    3  502    0  0.10450944802E+04  0.48350971814E+03 -0.51518113874E+02  0.11526743887E+04  0.10100000352E+00 0. -1.
       -3    1    3    3    0  502 -0.10450944802E+04 -0.48350971814E+03 -0.44569471292E+03  0.12347663371E+04  0.10100000352E+00 0.  1.
</event>
<event>
 5   0  0.6703961E-05  0.2383492E+04  0.7818609E-02  0.8445710E-01
        2   -1    0    0  501    0  0.00000000000E+00  0.00000000000E+00  0.15001076629E+04  0.15001076629E+04  0.25500000920E-02 0.  1.
       -2   -1    0    0    0  501  0.00000000000E+00  0.00000000000E+00 -0.94677079926E+03  0.94677079927E+03  0.25500000920E-02 0. -1.
    10030    2    1    2    0    0  0.00000000000E+00  0.00000000000E+00  0.55333686366E+03  0.24468784622E+04  0.23834916665E+04 0.  0.
        2    1    3    3  502    0 -0.31826958019E+02 -0.87528997891E+02 -0.94302897629E+03  0.94761697476E+03  0.25500000920E-02 0. -1.
       -2    1    3    3    0  502  0.31826958019E+02  0.87528997891E+02  0.14963658400E+04  0.14992614874E+04  0.25500000920E-02 0.  1.
</event>
<event>
 5   0  0.2847158E-05  0.2147083E+04  0.7818609E-02  0.8540782E-01
       -1   -1    0    0    0  501  0.00000000000E+00  0.00000000000E+00  0.89143909697E+03  0.89143909699E+03  0.50400001928E-02 0.  1.
        1   -1    0    0  501    0  0.00000000000E+00  0.00000000000E+00 -0.12928435523E+04  0.12928435523E+04  0.50400001928E-02 0. -1.
    10030    2    1    2    0    0  0.00000000000E+00  0.00000000000E+00 -0.40140445533E+03  0.21842826493E+04  0.21470829409E+04 0.  0.
        5    1    3    3  502    0  0.46465106797E+03  0.37795793780E+03 -0.11070454395E+04  0.12586995324E+04  0.46999998093E+01 0. -1.
       -5    1    3    3    0  502 -0.46465106797E+03 -0.37795793780E+03  0.70564098420E+03  0.92558311689E+03  0.46999998093E+01 0.  1.
</event>
<event>
 5   0  0.6978115E-05  0.2403328E+04  0.7818609E-02  0.8438259E-01
       -2   -1    0    0    0  501  0.00000000000E+00  0.00000000000E+00  0.91721009253E+03  0.91721009254E+03  0.25500000920E-02 0.  1.
        2   -1    0    0  501    0  0.00000000000E+00  0.00000000000E+00 -0.15743359614E+04  0.15743359614E+04  0.25500000920E-02 0. -1.
    10030    2    1    2    0    0  0.00000000000E+00  0.00000000000E+00 -0.65712586891E+03  0.24915460540E+04  0.24033283861E+04 0.  0.
        4    1    3    3  502    0 -0.58131190129E+03 -0.98385051170E+03 -0.71383555949E+03  0.13473856815E+04  0.12699999809E+01 0. -1.
       -4    1    3    3    0  502  0.58131190129E+03  0.98385051170E+03  0.56709690573E+02  0.11441603724E+04  0.12699999809E+01 0.  1.
</event>
<event>
 5   0  0.6337926E-05  0.2433786E+04  0.7818609E-02  0.8426962E-01
        2   -1    0    0  501    0  0.00000000000E+00  0.00000000000E+00  0.60292737468E+03  0.60292737468E+03  0.25500000920E-02 0.  1.
       -2   -1    0    0    0  501  0.00000000000E+00  0.00000000000E+00 -0.24560643076E+04  0.24560643076E+04  0.25500000920E-02 0. -1.
    10030    2    1    2    0    0  0.00000000000E+00  0.00000000000E+00 -0.18531369330E+04  0.30589916823E+04  0.24337858616E+04 0.  0.
        1    1    3    3  502    0  0.70086632147E+03 -0.52193179252E+03  0.13786049069E+03  0.88466485831E+03  0.50400001928E-02 0.  1.
       -1    1    3    3    0  502 -0.70086632147E+03  0.52193179252E+03 -0.19909974236E+04  0.21743268240E+04  0.50400001928E-02 0. -1.
</event>
<event>
 5   0  0.6337926E-05  0.1884347E+04  0.7818609E-02  0.8662687E-01
        2   -1    0    0  501    0  0.00000000000E+00  0.00000000000E+00  0.12359639335E+04  0.12359639335E+04  0.25500000920E-02 0. -1.
       -2   -1    0    0    0  501  0.00000000000E+00  0.00000000000E+00 -0.71821758061E+03  0.71821758061E+03  0.25500000920E-02 0.  1.
    10030    2    1    2    0    0  0.00000000000E+00  0.00000000000E+00  0.51774635289E+03  0.19541815141E+04  0.18843471294E+04 0.  0.
        1    1    3    3  502    0 -0.21494948647E+03  0.58452845152E+03  0.99204927768E+03  0.11713404978E+04  0.50400001928E-02 0. -1.
       -1    1    3    3    0  502  0.21494948647E+03 -0.58452845152E+03 -0.47430292478E+03  0.78284101634E+03  0.50400001928E-02 0.  1.
</event>
<event>
 5   0  0.2901816E-05  0.2325085E+04  0.7818609E-02  0.8468095E-01
       -1   -1    0    0    0  501  0.00000000000E+00  0.00000000000E+00  0.80444668591E+03  0.80444668593E+03  0.50400001928E-02 0.  1.
        1   -1    0    0  501    0  0.00000000000E+00  0.00000000000E+00 -0.16800436466E+04  0.16800436466E+04  0.50400001928E-02 0. -1.
    10030    2    1    2    0    0  0.00000000000E+00  0.00000000000E+00 -0.87559696072E+03  0.24844903326E+04  0.23250854124E+04 0.  0.
        4    1    3    3  502    0 -0.90108494520E+03  0.58013509913E+03  0.43638069649E+02  0.10725748019E+04  0.12699999809E+01 0.  1.
       -4    1    3    3    0  502  0.90108494520E+03 -0.58013509913E+03 -0.91923503037E+03  0.14119155306E+04  0.12699999809E+01 0. -1.
</event>
<event>
 5   0  0.6978115E-05  0.2400836E+04  0.7818609E-02  0.8439191E-01
        2   -1    0    0  501    0  0.00000000000E+00  0.00000000000E+00  0.15525393073E+04  0.15525393073E+04  0.25500000920E-02 0. -1.
       -2   -1    0    0    0  501  0.00000000000E+00  0.00000000000E+00 -0.92815869861E+03  0.92815869861E+03  0.25500000920E-02 0.  1.
    10030    2    1    2    0    0  0.00000000000E+00  0.00000000000E+00  0.62438060866E+03  0.24806980059E+04  0.24008355737E+04 0.  0.
        4    1    3    3  502    0  0.69696925526E+02 -0.25673340815E+03  0.15216975124E+04  0.15447765653E+04  0.12699999809E+01 0. -1.
       -4    1    3    3    0  502 -0.69696925526E+02  0.25673340815E+03 -0.89731690379E+03  0.93592144062E+03  0.12699999809E+01 0.  1.
</event>
<event>
 5   0  0.6978115E-05  0.1495389E+04  0.7818609E-02  0.8887525E-01
        2   -1    0    0  501    0  0.00000000000E+00  0.00000000000E+00  0.79634252636E+03  0.79634252636E+03  0.25500000920E-02 0. -1.
       -2   -1    0    0    0  501  0.00000000000E+00  0.00000000000E+00 -0.70201820540E+03  0.70201820541E+03  0.25500000920E-02 0.  1.
    10030    2    1    2    0    0  0.00000000000E+00  0.00000000000E+00  0.94324320951E+02  0.14983607318E+04  0.14953888474E+04 0.  0.
        4    1    3    3  502    0  0.56941041978E+03  0.33773489831E+03  0.39534700407E+03  0.77109918573E+03  0.12699999809E+01 0. -1.
       -4    1    3    3    0  502 -0.56941041978E+03 -0.33773489831E+03 -0.30102268312E+03  0.72726154604E+03  0.12699999809E+01 0.  1.
</event>
<event>
 5   0  0.2915546E-05  0.2455346E+04  0.7818609E-02  0.8419069E-01
        1   -1    0    0  501    0  0.00000000000E+00  0.00000000000E+00  0.16827398448E+04  0.16827398448E+04  0.50400001928E-02 0. -1.
       -1   -1    0    0    0  501  0.00000000000E+00  0.00000000000E+00 -0.89567074022E+03  0.89567074023E+03  0.50400001928E-02 0.  1.
    10030    2    1    2    0    0  0.00000000000E+00  0.00000000000E+00  0.78706910461E+03  0.25784105851E+04  0.24553458758E+04 0.  0.
        2    1    3    3  502    0  0.10937790218E+04 -0.12858793751E+03  0.96321286328E+03  0.14631016459E+04  0.25500000920E-02 0.  1.
       -2    1    3    3    0  502 -0.10937790218E+04  0.12858793751E+03 -0.17614375867E+03  0.11153089392E+04  0.25500000920E-02 0. -1.
</event>
<event>
 5   0  0.6337926E-05  0.2350593E+04  0.7818609E-02  0.8458236E-01
       -2   -1    0    0    0  501  0.00000000000E+00  0.00000000000E+00  0.10753644064E+04  0.10753644064E+04  0.25500000920E-02 0. -1.
        2   -1    0    0  501    0  0.00000000000E+00  0.00000000000E+00 -0.12845148321E+04  0.12845148321E+04  0.25500000920E-02 0.  1.
    10030    2    1    2    0    0  0.00000000000E+00  0.00000000000E+00 -0.20915042573E+03  0.23598792385E+04  0.23505927167E+04 0.  0.
        1    1    3    3  502    0  0.89336004202E+03 -0.72886407575E+03  0.12433110774E+03  0.11596522022E+04  0.50400001928E-02 0. -1.
       -1    1    3    3    0  502 -0.89336004202E+03  0.72886407575E+03 -0.33348153347E+03  0.12002270364E+04  0.50400001928E-02 0.  1.
</event>
<event>
 5   0  0.2847158E-05  0.2343509E+04  0.7818609E-02  0.8460961E-01
        1   -1    0    0  501    0  0.00000000000E+00  0.00000000000E+00  0.78100720332E+03  0.78100720334E+03  0.50400001928E-02 0.  1.
       -1   -1    0    0    0  501  0.00000000000E+00  0.00000000000E+00 -0.17579972724E+04  0.17579972724E+04  0.50400001928E-02 0. -1.
    10030    2    1    2    0    0  0.00000000000E+00  0.00000000000E+00 -0.97699006903E+03  0.25390044757E+04  0.23435089359E+04 0.  0.
        5    1    3    3  502    0 -0.66947823935E+02  0.78147711472E+03  0.45463932277E+03  0.90659114035E+03  0.46999998093E+01 0.  1.
       -5    1    3    3    0  502  0.66947823935E+02 -0.78147711472E+03 -0.14316293918E+04  0.16324133353E+04  0.46999998093E+01 0. -1.
</event>
<event>
 5   0  0.2847158E-05  0.2003468E+04  0.7818609E-02  0.8605001E-01
       -1   -1    0    0    0  501  0.00000000000E+00  0.00000000000E+00  0.56847837652E+03  0.56847837655E+03  0.50400001928E-02 0. -1.
        1   -1    0    0  501    0  0.00000000000E+00  0.00000000000E+00 -0.17651882467E+04  0.17651882467E+04  0.50400001928E-02 0.  1.
    10030    2    1    2    0    0  0.00000000000E+00  0.00000000000E+00 -0.11967098702E+04  0.23336666233E+04  0.20034683414E+04 0.  0.
        5    1    3    3  502    0 -0.16636872382E+03  0.73305460961E+03  0.17289016640E+03  0.77133696434E+03  0.46999998093E+01 0. -1.
       -5    1    3    3    0  502  0.16636872382E+03 -0.73305460961E+03 -0.13696000366E+04  0.15623296589E+04  0.46999998093E+01 0.  1.
</event>
<event>
 5   0  0.2847158E-05  0.2445962E+04  0.7818609E-02  0.8422494E-01
       -1   -1    0    0    0  501  0.00000000000E+00  0.00000000000E+00  0.85287604417E+03  0.85287604418E+03  0.50400001928E-02 0. -1.
        1   -1    0    0  501    0  0.00000000000E+00  0.00000000000E+00 -0.17536933808E+04  0.17536933808E+04  0.50400001928E-02 0.  1.
    10030    2    1    2    0    0  0.00000000000E+00  0.00000000000E+00 -0.90081733663E+03  0.26065694250E+04  0.24459624472E+04 0.  0.
        5    1    3    3  502    0  0.12113018890E+02 -0.63145221507E+03  0.66563127849E+03  0.91758689727E+03  0.46999998093E+01 0. -1.
       -5    1    3    3    0  502 -0.12113018890E+02  0.63145221507E+03 -0.15664486151E+04  0.16889825277E+04  0.46999998093E+01 0.  1.
</event>
<event>
 5   0  0.2915546E-05  0.2515235E+04  0.7818609E-02  0.8397578E-01
        1   -1    0    0  501    0  0.00000000000E+00  0.00000000000E+00  0.13528809462E+04  0.13528809462E+04  0.50400001928E-02 0. -1.
       -1   -1    0    0    0  501  0.00000000000E+00  0.00000000000E+00 -0.11690623086E+04  0.11690623086E+04  0.50400001928E-02 0.  1.
    10030    2    1    2    0    0  0.00000000000E+00  0.00000000000E+00  0.18381863764E+03  0.25219432548E+04  0.25152352750E+04 0.  0.
        2    1    3    3  502    0  0.11778612383E+04 -0.26374346849E+03  0.44595782759E+03  0.12867774081E+04  0.25500000920E-02 0. -1.
       -2    1    3    3    0  502 -0.11778612383E+04  0.26374346849E+03 -0.26213918996E+03  0.12351658467E+04  0.25500000920E-02 0.  1.
</event>
<event>
 5   0  0.6714629E-05  0.2302464E+04  0.7818609E-02  0.8476950E-01
        2   -1    0    0  501    0  0.00000000000E+00  0.00000000000E+00  0.96110311207E+03  0.96110311207E+03  0.25500000920E-02 0.  1.
       -2   -1    0    0    0  501  0.00000000000E+00  0.00000000000E+00 -0.13789732398E+04  0.13789732398E+04  0.25500000920E-02 0. -1.
    10030    2    1    2    0    0  0.00000000000E+00  0.00000000000E+00 -0.41787012772E+03  0.23400763519E+04  0.23024643078E+04 0.  0.
        3    1    3    3  502    0  0.18568417627E+03 -0.10785512351E+04  0.15408896111E+03  0.11052125579E+04  0.10100000352E+00 0.  1.
       -3    1    3    3    0  502 -0.18568417627E+03  0.10785512351E+04 -0.57195908882E+03  0.12348637939E+04  0.10100000352E+00 0. -1.
</event>
<event>
 5   0  0.6600166E-05  0.2410182E+04  0.7818609E-02  0.8435701E-01
       -2   -1    0    0    0  501  0.00000000000E+00  0.00000000000E+00  0.98003619517E+03  0.98003619517E+03  0.25500000920E-02 0. -1.
        2   -1    0    0  501    0  0.00000000000E+00  0.00000000000E+00 -0.14818272242E+04  0.14818272242E+04  0.25500000920E-02 0.  1.
    10030    2    1    2    0    0  0.00000000000E+00  0.00000000000E+00 -0.50179102905E+03  0.24618634194E+04  0.24101819970E+04 0.  0.
        5    1    3    3  502    0 -0.10118083973E+04  0.64666659014E+03 -0.35450182343E+03  0.12520493379E+04  0.46999998093E+01 0.  1.
       -5    1    3    3    0  502  0.10118083973E+04 -0.64666659014E+03 -0.14728920561E+03  0.12098140815E+04  0.46999998093E+01 0. -1.
</event>
<event>
 5   0  0.6703961E-05  0.2486084E+04  0.7818609E-02  0.8407960E-01
        2   -1    0    0  501    0  0.00000000000E+00  0.00000000000E+00  0.15874691437E+04  0.15874691437E+04  0.25500000920E-02 0.  1.
       -2   -1    0    0    0  501  0.00000000000E+00  0.00000000000E+00 -0.97334391286E+03  0.97334391286E+03  0.25500000920E-02 0. -1.
    10030    2    1    2    0    0  0.00000000000E+00  0.00000000000E+00  0.61412523083E+03  0.25608130566E+04  0.24860840113E+04 0.  0.
        2    1    3    3  502    0 -0.82482166463E+03 -0.21785595903E+03 -0.62419351597E+03  0.10570759399E+04  0.25500000920E-02 0. -1.
       -2    1    3    3    0  502  0.82482166463E+03  0.21785595903E+03  0.12383187468E+04  0.15037371167E+04  0.25500000920E-02 0.  1.
</event>
<event>
 5   0  0.2915546E-05  0.1844622E+04  0.7818609E-02  0.8682923E-01
        1   -1    0    0  501    0  0.00000000000E+00  0.00000000000E+00  0.65106500756E+03  0.65106500758E+03  0.50400001928E-02 0.  1.
       -1   -1    0    0    0  501  0.00000000000E+00  0.00000000000E+00 -0.13065631730E+04  0.13065631731E+04  0.50400001928E-02 0. -1.
    10030    2    1    2    0    0  0.00000000000E+00  0.00000000000E+00 -0.65549816549E+03  0.19576281806E+04  0.18446219799E+04 0.  0.
        2    1    3    3  502    0  0.83023962086E+03  0.11679177861E+03 -0.73563773006E+03  0.11153927638E+04  0.25500000920E-02 0. -1.
       -2    1    3    3    0  502 -0.83023962086E+03 -0.11679177861E+03  0.80139564572E+02  0.84223541686E+03  0.25500000920E-02 0.  1.
</event>
<event>
 5   0  0.6337926E-05  0.2418265E+04  0.7818609E-02  0.8432697E-01
       -2   -1    0    0    0  501  0.00000000000E+00  0.00000000000E+00  0.72172238976E+03  0.72172238977E+03  0.25500000920E-02 0.  1.
        2   -1    0    0  501    0  0.00000000000E+00  0.00000000000E+00 -0.20257123284E+04  0.20257123284E+04  0.25500000920E-02 0. -1.
    10030    2    1    2    0    0  0.00000000000E+00  0.00000000000E+00 -0.13039899386E+04  0.27474347182E+04  0.24182654467E+04 0.  0.
        1    1    3    3  502    0 -0.36785470905E+03  0.66184080630E+03  0.41900430284E+03  0.86539872063E+03  0.50400001928E-02 0.  1.
       -1    1    3    3    0  502  0.36785470905E+03 -0.66184080630E+03 -0.17229942415E+04  0.18820359975E+04  0.50400001928E-02 0. -1.
</event>
<event>
 5   0  0.2339125E-05  0.2174787E+04  0.7818609E-02  0.8528996E-01
        3   -1    0    0  501    0  0.00000000000E+00  0.00000000000E+00  0.27344059844E+04  0.27344059863E+04  0.10100000352E+00 0.  1.
       -3   -1    0    0    0  501  0.00000000000E+00  0.00000000000E+00 -0.43242462773E+03  0.43242463952E+03  0.10100000352E+00 0. -1.
    10030    2    1    2    0    0  0.00000000000E+00  0.00000000000E+00  0.23019813567E+04  0.31668306258E+04  0.21747868967E+04 0.  0.
        3    1    3    3  502    0  0.48356754732E+03  0.96882421209E+03  0.12963627864E+04  0.16890868571E+04  0.10100000352E+00 0.  1.
       -3    1    3    3    0  502 -0.48356754732E+03 -0.96882421209E+03  0.10056185703E+04  0.14777437686E+04  0.10100000352E+00 0. -1.
</event>
<event>
 5   0  0.2339125E-05  0.2408992E+04  0.7818609E-02  0.8436145E-01
        4   -1    0    0  501    0  0.00000000000E+00  0.00000000000E+00  0.11565120599E+04  0.11565127572E+04  0.12699999809E+01 0.  1.
       -4   -1    0    0    0  501  0.00000000000E+00  0.00000000000E+00 -0.12544698750E+04  0.12544705178E+04  0.12699999809E+01 0. -1.
    10030    2    1    2    0    0  0.00000000000E+00  0.00000000000E+00 -0.97957815030E+02  0.24109832751E+04  0.24089924489E+04 0.  0.
        3    1    3    3  502    0 -0.16881630825E+03  0.93226423925E+03 -0.79336476330E+03  0.12357359004E+04  0.10100000352E+00 0. -1.
       -3    1    3    3    0  502  0.16881630825E+03 -0.93226423925E+03  0.69540694827E+03  0.11752473746E+04  0.10100000352E+00 0.  1.
</event>
<event>
 5   0  0.2943123E-05  0.2401044E+04  0.7818609E-02  0.8439113E-01
       -1   -1    0    0    0  501  0.00000000000E+00  0.00000000000E+00  0.11617396897E+04  0.11617396897E+04  0.50400001928E-02 0.  1.
        1   -1    0    0  501    0  0.00000000000E+00  0.00000000000E+00 -0.12405993760E+04  0.12405993761E+04  0.50400001928E-02 0. -1.
    10030    2    1    2    0    0  0.00000000000E+00  0.00000000000E+00 -0.78859686363E+02  0.24023390657E+04  0.24010443846E+04 0.  0.
        1    1    3    3  502    0 -0.28130685958E+03 -0.36790033569E+03 -0.11476232701E+04  0.12375473229E+04  0.50400001928E-02 0. -1.
       -1    1    3    3    0  502  0.28130685958E+03  0.36790033569E+03  0.10687635838E+04  0.11647917429E+04  0.50400001928E-02 0.  1.
</event>
<event>
 5   0  0.2943244E-05  0.2407790E+04  0.7818609E-02  0.8436593E-01
        1   -1    0    0  501    0  0.00000000000E+00  0.00000000000E+00  0.15160838469E+04  0.15160838469E+04  0.50400001928E-02 0. -1.
       -1   -1    0    0    0  501  0.00000000000E+00  0.00000000000E+00 -0.95599144576E+03  0.95599144578E+03  0.50400001928E-02 0.  1.
    10030    2    1    2    0    0  0.00000000000E+00  0.00000000000E+00  0.56009240113E+03  0.24720752927E+04  0.24077900147E+04 0.  0.
        3    1    3    3  502    0  0.70582785580E+03  0.87444926572E+03  0.72344307802E+03  0.13364970549E+04  0.10100000352E+00 0. -1.
       -3    1    3    3    0  502 -0.70582785580E+03 -0.87444926572E+03 -0.16335067689E+03  0.11355782378E+04  0.10100000352E+00 0.  1.
</event>
<event>
 5   0  0.2915546E-05  0.2398337E+04  0.7818609E-02  0.8440126E-01
        1   -1    0    0  501    0  0.00000000000E+00  0.00000000000E+00  0.97095769386E+03  0.97095769388E+03  0.50400001928E-02 0.  1.
       -1   -1    0    0    0  501  0.00000000000E+00  0.00000000000E+00 -0.14810177109E+04  0.14810177109E+04  0.50400001928E-02 0. -1.
    10030    2    1    2    0    0  0.00000000000E+00  0.00000000000E+00 -0.51006001706E+03  0.24519754048E+04  0.23983373751E+04 0.  0.
        2    1    3    3  502    0 -0.19408645426E+03 -0.78273272677E+03 -0.11623839646E+04  0.14147355069E+04  0.25500000920E-02 0. -1.
       -2    1    3    3    0  502  0.19408645426E+03  0.78273272677E+03  0.65232394754E+03  0.10372398979E+04  0.25500000920E-02 0.  1.
</event>
<event>
 5   0  0.2943244E-05  0.2422075E+04  0.7818609E-02  0.8431285E-01
       -1   -1    0    0    0  501  0.00000000000E+00  0.00000000000E+00  0.89298646215E+03  0.89298646216E+03  0.50400001928E-02 0. -1.
        1   -1    0    0  501    0  0.00000000000E+00  0.00000000000E+00 -0.16423668532E+04  0.16423668532E+04  0.50400001928E-02 0.  1.
    10030    2    1    2    0    0  0.00000000000E+00  0.00000000000E+00 -0.74938039105E+03  0.25353533154E+04  0.24220746197E+04 0.  0.
        3    1    3    3  502    0 -0.41168908417E+02  0.26950128589E+03  0.86044678733E+03  0.90260429101E+03  0.10100000352E+00 0. -1.
       -3    1    3    3    0  502  0.41168908417E+02 -0.26950128589E+03 -0.16098271784E+04  0.16327490244E+04  0.10100000352E+00 0.  1.
</event>
<event>
 5   0  0.2901816E-05  0.2411534E+04  0.7818609E-02  0.8435198E-01
        1   -1    0    0  501    0  0.00000000000E+00  0.00000000000E+00  0.10823442622E+04  0.10823442623E+04  0.50400001928E-02 0.  1.
       -1   -1    0    0    0  501  0.00000000000E+00  0.00000000000E+00 -0.13432644780E+04  0.13432644780E+04  0.50400001928E-02 0. -1.
    10030    2    1    2    0    0  0.00000000000E+00  0.00000000000E+00 -0.26092021572E+03  0.24256087402E+04  0.24115344496E+04 0.  0.
        4    1    3    3  502    0  0.15204193315E+02  0.88214807138E+03 -0.95711835601E+03  0.13017271402E+04  0.12699999809E+01 0. -1.
       -4    1    3    3    0  502 -0.15204193315E+02 -0.88214807138E+03  0.69619814029E+03  0.11238816000E+04  0.12699999809E+01 0.  1.
</event>
<event>
 5   0  0.2915546E-05  0.2352030E+04  0.7818609E-02  0.8457684E-01
        1   -1    0    0  501    0  0.00000000000E+00  0.00000000000E+00  0.12552772145E+04  0.12552772145E+04  0.50400001928E-02 0.  1.
       -1   -1    0    0    0  501  0.00000000000E+00  0.00000000000E+00 -0.11017579020E+04  0.11017579020E+04  0.50400001928E-02 0. -1.
    10030    2    1    2    0    0  0.00000000000E+00  0.00000000000E+00  0.15351931254E+03  0.23570351165E+04  0.23520302636E+04 0.  0.
        2    1    3    3  502    0  0.10474141197E+04  0.34521819348E+03  0.48599076123E+03  0.12051717551E+04  0.25500000920E-02 0. -1.
       -2    1    3    3    0  502 -0.10474141197E+04 -0.34521819348E+03 -0.33247144870E+03  0.11518633614E+04  0.25500000920E-02 0.  1.
</event>
<event>
 5   0  0.6703961E-05  0.2403513E+04  0.7818609E-02  0.8438189E-01
        2   -1    0    0  501    0  0.00000000000E+00  0.00000000000E+00  0.23466445061E+04  0.23466445061E+04  0.25500000920E-02 0. -1.
       -2   -1    0    0    0  501  0.00000000000E+00  0.00000000000E+00 -0.61543995228E+03  0.61543995229E+03  0.25500000920E-02 0.  1.
    10030    2    1    2    0    0  0.00000000000E+00  0.00000000000E+00  0.17312045538E+04  0.29620844584E+04  0.24035130812E+04 0.  0.
        2    1    3    3  502    0  0.37543845244E+03  0.84420689899E+03  0.18126898052E+04  0.20345721048E+04  0.25500000920E-02 0. -1.
       -2    1    3    3    0  502 -0.37543845244E+03 -0.84420689899E+03 -0.81485251348E+02  0.92751235359E+03  0.25500000920E-02 0.  1.
</event>
<event>
 5   0  0.2915546E-05  0.2606829E+04  0.7818609E-02  0.8365885E-01
        1   -1    0    0  501    0  0.00000000000E+00  0.00000000000E+00  0.13880397881E+04  0.13880397881E+04  0.50400001928E-02 0.  1.
       -1   -1    0    0    0  501  0.00000000000E+00  0.00000000000E+00 -0.12239486043E+04  0.12239486043E+04  0.50400001928E-02 0. -1.
    10030    2    1    2    0    0  0.00000000000E+00  0.00000000000E+00  0.16409118383E+03  0.26119883924E+04  0.26068290020E+04 0.  0.
        2    1    3    3  502    0 -0.42739234940E+03  0.34405405331E+03 -0.11026023024E+04  0.12315718611E+04  0.25500000920E-02 0. -1.
       -2    1    3    3    0  502  0.42739234940E+03 -0.34405405331E+03  0.12666934862E+04  0.13804165313E+04  0.25500000920E-02 0.  1.
</event>
<event>
 5   0  0.2847158E-05  0.2445976E+04  0.7818609E-02  0.8422489E-01
       -1   -1    0    0    0  501  0.00000000000E+00  0.00000000000E+00  0.12035108466E+04  0.12035108466E+04  0.50400001928E-02 0. -1.
        1   -1    0    0  501    0  0.00000000000E+00  0.00000000000E+00 -0.12427801016E+04  0.12427801016E+04  0.50400001928E-02 0.  1.
    10030    2    1    2    0    0  0.00000000000E+00  0.00000000000E+00 -0.39269255038E+02  0.24462909482E+04  0.24459757417E+04 0.  0.
        5    1    3    3  502    0  0.56710632836E+03  0.94147166787E+03  0.51681006482E+03  0.12145341585E+04  0.46999998093E+01 0. -1.
       -5    1    3    3    0  502 -0.56710632836E+03 -0.94147166787E+03 -0.55607931986E+03  0.12317567897E+04  0.46999998093E+01 0.  1.
</event>
<event>
 5   0  0.2339125E-05  0.2364716E+04  0.7818609E-02  0.8452833E-01
        3   -1    0    0  501    0  0.00000000000E+00  0.00000000000E+00  0.34000975366E+04  0.34000975381E+04  0.10100000352E+00 0. -1.
       -3   -1    0    0    0  501  0.00000000000E+00  0.00000000000E+00 -0.41115598385E+03  0.41115599626E+03  0.10100000352E+00 0.  1.
    10030    2    1    2    0    0  0.00000000000E+00  0.00000000000E+00  0.29889415528E+04  0.38112535344E+04  0.23647160289E+04 0.  0.
        4    1    3    3  502    0 -0.95595601300E+03  0.66318674417E+03  0.11552423770E+04  0.16395899241E+04  0.12699999809E+01 0.  1.
       -4    1    3    3    0  502  0.95595601300E+03 -0.66318674417E+03  0.18336991757E+04  0.21716636103E+04  0.12699999809E+01 0. -1.
</event>
<event>
 5   0  0.6714629E-05  0.2373772E+04  0.7818609E-02  0.8449389E-01
       -2   -1    0    0    0  501  0.00000000000E+00  0.00000000000E+00  0.18432922263E+04  0.18432922263E+04  0.25500000920E-02 0. -1.
        2   -1    0    0  501    0  0.00000000000E+00  0.00000000000E+00 -0.76422932298E+03  0.76422932298E+03  0.25500000920E-02 0.  1.
    10030    2    1    2    0    0  0.00000000000E+00  0.00000000000E+00  0.10790629033E+04  0.26075215493E+04  0.23737716572E+04 0.  0.
        3    1    3    3  502    0  0.11000366226E+04 -0.35830839738E+02  0.10274972906E+04  0.15056942294E+04  0.10100000352E+00 0. -1.
       -3    1    3    3    0  502 -0.11000366226E+04  0.35830839738E+02  0.51565612750E+02  0.11018273199E+04  0.10100000352E+00 0.  1.
</event>
<event>
 5   0  0.6714629E-05  0.2355733E+04  0.7818609E-02  0.8456265E-01
       -2   -1    0    0    0  501  0.00000000000E+00  0.00000000000E+00  0.80897356117E+03  0.80897356117E+03  0.25500000920E-02 0.  1.
        2   -1    0    0  501    0  0.00000000000E+00  0.00000000000E+00 -0.17149747796E+04  0.17149747796E+04  0.25500000920E-02 0. -1.
    10030    2    1    2    0    0  0.00000000000E+00  0.00000000000E+00 -0.90600121845E+03  0.25239483408E+04  0.23557327988E+04 0.  0.
        3    1    3    3  502    0  0.10538284013E+04 -0.48396088178E+03 -0.23187299899E+03  0.11825977897E+04  0.10100000352E+00 0.  1.
       -3    1    3    3    0  502 -0.10538284013E+04  0.48396088178E+03 -0.67412821945E+03  0.13413505511E+04  0.10100000352E+00 0. -1.
</event>
<event>
 5   0  0.6978115E-05  0.2386784E+04  0.7818609E-02  0.8444468E-01
       -2   -1    0    0    0  501  0.00000000000E+00  0.00000000000E+00  0.16343139737E+04  0.16343139737E+04  0.25500000920E-02 0.  1.
        2   -1    0    0  501    0  0.00000000000E+00  0.00000000000E+00 -0.87142619894E+03  0.87142619895E+03  0.25500000920E-02 0. -1.
    10030    2    1    2    0    0  0.00000000000E+00  0.00000000000E+00  0.76288777474E+03  0.25057401726E+04  0.23867836215E+04 0.  0.
        4    1    3    3  502    0  0.85927954509E+03  0.74846414423E+02  0.12473033174E+04  0.15164862350E+04  0.12699999809E+01 0.  1.
       -4    1    3    3    0  502 -0.85927954509E+03 -0.74846414423E+02 -0.48441554264E+03  0.98925393768E+03  0.12699999809E+01 0. -1.
</event>
<event>
 5   0  0.6714629E-05  0.2756383E+04  0.7818609E-02  0.8316939E-01
       -2   -1    0    0    0  501  0.00000000000E+00  0.00000000000E+00  0.83012396525E+03  0.83012396525E+03  0.25500000920E-02 0. -1.
        2   -1    0    0  501    0  0.00000000000E+00  0.00000000000E+00 -0.22881062813E+04  0.22881062813E+04  0.25500000920E-02 0.  1.
    10030    2    1    2    0    0  0.00000000000E+00  0.00000000000E+00 -0.14579823161E+04  0.31182302466E+04  0.27563830352E+04 0.  0.
        3    1    3    3  502    0 -0.66499173756E+03 -0.10214875209E+04 -0.13061437515E+01  0.12188734482E+04  0.10100000352E+00 0. -1.
       -3    1    3    3    0  502  0.66499173756E+03  0.10214875209E+04 -0.14566761723E+04  0.18993567984E+04  0.10100000352E+00 0.  1.
</event>
<event>
 5   0  0.6337926E-05  0.2360992E+04  0.7818609E-02  0.8454254E-01
       -2   -1    0    0    0  501  0.00000000000E+00  0.00000000000E+00  0.10990695471E+04  0.10990695471E+04  0.25500000920E-02 0.  1.
        2   -1    0    0  501    0  0.00000000000E+00  0.00000000000E+00 -0.12679551881E+04  0.12679551881E+04  0.25500000920E-02 0. -1.
    10030    2    1    2    0    0  0.00000000000E+00  0.00000000000E+00 -0.16888564102E+03  0.23670247352E+04  0.23609921087E+04 0.  0.
        1    1    3    3  502    0  0.11169837920E+04  0.38156060845E+03 -0.10264533494E+03  0.11848111049E+04  0.50400001928E-02 0.  1.
       -1    1    3    3    0  502 -0.11169837920E+04 -0.38156060845E+03 -0.66240306080E+02  0.11822136303E+04  0.50400001928E-02 0. -1.
</event>
<event>
 5   0  0.6714629E-05  0.2420221E+04  0.7818609E-02  0.8431972E-01
       -2   -1    0    0    0  501  0.00000000000E+00  0.00000000000E+00  0.78203924114E+03  0.78203924114E+03  0.25500000920E-02 0.  1.
        2   -1    0    0  501    0  0.00000000000E+00  0.00000000000E+00 -0.18724982124E+04  0.18724982124E+04  0.25500000920E-02 0. -1.
    10030    2    1    2    0    0  0.00000000000E+00  0.00000000000E+00 -0.10904589713E+04  0.26545374535E+04  0.24202207181E+04 0.  0.
        3    1    3    3  502    0 -0.80995553466E+03  0.66381540555E+03  0.11985028014E+03  0.10540602263E+04  0.10100000352E+00 0. -1.
       -3    1    3    3    0  502  0.80995553466E+03 -0.66381540555E+03 -0.12103092514E+04  0.16004772273E+04  0.10100000352E+00 0.  1.
</event>
<event>
 5   0  0.6600166E-05  0.2453105E+04  0.7818609E-02  0.8419885E-01
        2   -1    0    0  501    0  0.00000000000E+00  0.00000000000E+00  0.92606228420E+03  0.92606228421E+03  0.25500000920E-02 0.  1.
       -2   -1    0    0    0  501  0.00000000000E+00  0.00000000000E+00 -0.16245457409E+04  0.16245457409E+04  0.25500000920E-02 0. -1.
    10030    2    1    2    0    0  0.00000000000E+00  0.00000000000E+00 -0.69848345668E+03  0.25506080251E+04  0.24531045959E+04 0.  0.
        5    1    3    3  502    0 -0.96117123801E+03 -0.44380962372E+03  0.29472294074E+03  0.10989544270E+04  0.46999998093E+01 0.  1.
       -5    1    3    3    0  502  0.96117123801E+03  0.44380962372E+03 -0.99320639743E+03  0.14516535981E+04  0.46999998093E+01 0. -1.
</event>
<event>
 5   0  0.2943244E-05  0.2323574E+04  0.7818609E-02  0.8468684E-01
        1   -1    0    0  501    0  0.00000000000E+00  0.00000000000E+00  0.20656290924E+04  0.20656290924E+04  0.50400001928E-02 0.  1.
       -1   -1    0    0    0  501  0.00000000000E+00  0.00000000000E+00 -0.65343242132E+03  0.65343242134E+03  0.50400001928E-02 0. -1.
    10030    2    1    2    0    0  0.00000000000E+00  0.00000000000E+00  0.14121966711E+04  0.27190615138E+04  0.23235739880E+04 0.  0.
        3    1    3    3  502    0 -0.11182221047E+04  0.16017656405E+03  0.38847443607E+03  0.11945667017E+04  0.10100000352E+00 0. -1.
       -3    1    3    3    0  502  0.11182221047E+04 -0.16017656405E+03  0.10237222350E+04  0.15244948120E+04  0.10100000352E+00 0.  1.
</event>
<event>
 5   0  0.2943123E-05  0.2428408E+04  0.7818609E-02  0.8428944E-01
        1   -1    0    0  501    0  0.00000000000E+00  0.00000000000E+00  0.11593403968E+04  0.11593403968E+04  0.50400001928E-02 0.  1.
       -1   -1    0    0    0  501  0.00000000000E+00  0.00000000000E+00 -0.12716637261E+04  0.12716637261E+04  0.50400001928E-02 0. -1.
    10030    2    1    2    0    0  0.00000000000E+00  0.00000000000E+00 -0.11232332934E+03  0.24310041229E+04  0.24284078149E+04 0.  0.
        1    1    3    3  502    0 -0.38152606122E+03  0.45375217589E+03 -0.11169350532E+04  0.12645145652E+04  0.50400001928E-02 0. -1.
       -1    1    3    3    0  502  0.38152606122E+03 -0.45375217589E+03  0.10046117239E+04  0.11664895577E+04  0.50400001928E-02 0.  1.
</event>
<event>
 5   0  0.2943244E-05  0.2399406E+04  0.7818609E-02  0.8439726E-01
       -1   -1    0    0    0  501  0.00000000000E+00  0.00000000000E+00  0.10371273225E+04  0.10371273225E+04  0.50400001928E-02 0.  1.
        1   -1    0    0  501    0  0.00000000000E+00  0.00000000000E+00 -0.13877634430E+04  0.13877634430E+04  0.50400001928E-02 0. -1.
    10030    2    1    2    0    0  0.00000000000E+00  0.00000000000E+00 -0.35063612043E+03  0.24248907655E+04  0.23994060798E+04 0.  0.
        3    1    3    3  502    0  0.28138166552E+03 -0.11533670968E+04 -0.69372718895E+00  0.11871949263E+04  0.10100000352E+00 0. -1.
       -3    1    3    3    0  502 -0.28138166552E+03  0.11533670968E+04 -0.34994239325E+03  0.12376958392E+04  0.10100000352E+00 0.  1.
</event>
<event>
 5   0  0.2943123E-05  0.2406963E+04  0.7818609E-02  0.8436901E-01
       -1   -1    0    0    0  501  0.00000000000E+00  0.00000000000E+00  0.57691948247E+03  0.57691948249E+03  0.50400001928E-02 0.  1.
        1   -1    0    0  501    0  0.00000000000E+00  0.00000000000E+00 -0.25105188528E+04  0.25105188528E+04  0.50400001928E-02 0. -1.
    10030    2    1    2    0    0  0.00000000000E+00  0.00000000000E+00 -0.19335993703E+04  0.30874383353E+04  0.24069625982E+04 0.  0.
        1    1    3    3  502    0 -0.80259512147E+03 -0.55871946820E+03 -0.18665655993E+04  0.21072241242E+04  0.50400001928E-02 0. -1.
       -1    1    3    3    0  502  0.80259512147E+03  0.55871946820E+03 -0.67033771047E+02  0.98021421109E+03  0.50400001928E-02 0.  1.
</event>
<event>
 5   0  0.2901816E-05  0.2398655E+04  0.7818609E-02  0.8440007E-01
       -1   -1    0    0    0  501  0.00000000000E+00  0.00000000000E+00  0.99167928643E+03  0.99167928645E+03  0.50400001928E-02 0.  1.
        1   -1    0    0  501    0  0.00000000000E+00  0.00000000000E+00 -0.14504553458E+04  0.14504553458E+04  0.50400001928E-02 0. -1.
    10030    2    1    2    0    0  0.00000000000E+00  0.00000000000E+00 -0.45877605937E+03  0.24421346323E+04  0.23986550585E+04 0.  0.
        4    1    3    3  502    0 -0.10570664760E+04 -0.50742358915E+03  0.27205490744E+02  0.11728640096E+04  0.12699999809E+01 0.  1.
       -4    1    3    3    0  502  0.10570664760E+04  0.50742358915E+03 -0.48598155012E+03  0.12692706226E+04  0.12699999809E+01 0. -1.
</event>
<event>
 5   0  0.6978115E-05  0.2339314E+04  0.7818609E-02  0.8462579E-01
        2   -1    0    0  501    0  0.00000000000E+00  0.00000000000E+00  0.97445705990E+03  0.97445705990E+03  0.25500000920E-02 0.  1.
       -2   -1    0    0    0  501  0.00000000000E+00  0.00000000000E+00 -0.14039588320E+04  0.14039588320E+04  0.25500000920E-02 0. -1.
    10030    2    1    2    0    0  0.00000000000E+00  0.00000000000E+00 -0.42950177208E+03  0.23784158919E+04  0.23393140838E+04 0.  0.
        4    1    3    3  502    0  0.90226016054E+02 -0.65225485361E+02  0.96905692794E+03  0.97543223260E+03  0.12699999809E+01 0.  1.
       -4    1    3    3    0  502 -0.90226016054E+02  0.65225485361E+02 -0.13985587000E+04  0.14029836593E+04  0.12699999809E+01 0. -1.
</event>
<event>
 5   0  0.6600166E-05  0.2386944E+04  0.7818609E-02  0.8444408E-01
       -2   -1    0    0    0  501  0.00000000000E+00  0.00000000000E+00  0.13140721589E+04  0.13140721589E+04  0.25500000920E-02 0. -1.
        2   -1    0    0  501    0  0.00000000000E+00  0.00000000000E+00 -0.10839397937E+04  0.10839397937E+04  0.25500000920E-02 0.  1.
    10030    2    1    2    0    0  0.00000000000E+00  0.00000000000E+00  0.23013236520E+03  0.23980119526E+04  0.23869437403E+04 0.  0.
        5    1    3    3  502    0 -0.10605346048E+04  0.54593904497E+03  0.75260161982E+02  0.11951858729E+04  0.46999998093E+01 0.  1.
       -5    1    3    3    0  502  0.10605346048E+04 -0.54593904497E+03  0.15487220322E+03  0.12028260797E+04  0.46999998093E+01 0. -1.
</event>
<event>
 5   0  0.2943123E-05  0.2366917E+04  0.7818609E-02  0.8451994E-01
       -1   -1    0    0    0  501  0.00000000000E+00  0.00000000000E+00  0.86615552284E+03  0.86615552286E+03  0.50400001928E-02 0. -1.
        1   -1    0    0  501    0  0.00000000000E+00  0.00000000000E+00 -0.16170012185E+04  0.16170012185E+04  0.50400001928E-02 0.  1.
    10030    2    1    2    0    0  0.00000000000E+00  0.00000000000E+00 -0.75084569566E+03  0.24831567414E+04  0.23669174349E+04 0.  0.
        1    1    3    3  502    0 -0.51465807746E+03 -0.91112995658E+03  0.20448336813E+03  0.10662289540E+04  0.50400001928E-02 0. -1.
       -1    1    3    3    0  502  0.51465807746E+03  0.91112995658E+03 -0.95532906380E+03  0.14169277874E+04  0.50400001928E-02 0.  1.
</event>
<event>
 5   0  0.6714629E-05  0.2305114E+04  0.7818609E-02  0.8475908E-01
        2   -1    0    0  501    0  0.00000000000E+00  0.00000000000E+00  0.19106799188E+04  0.19106799188E+04  0.25500000920E-02 0.  1.
       -2   -1    0    0    0  501  0.00000000000E+00  0.00000000000E+00 -0.69524330041E+03  0.69524330042E+03  0.25500000920E-02 0. -1.
    10030    2    1    2    0    0  0.00000000000E+00  0.00000000000E+00  0.12154366183E+04  0.26059232192E+04  0.23051138044E+04 0.  0.
        3    1    3    3  502    0 -0.64933304482E+03  0.84871540995E+03  0.10958469716E+04  0.15306311919E+04  0.10100000352E+00 0.  1.
       -3    1    3    3    0  502  0.64933304482E+03 -0.84871540995E+03  0.11958964676E+03  0.10752920273E+04  0.10100000352E+00 0. -1.
</event>
<event>
 5   0  0.6337926E-05  0.2439524E+04  0.7818609E-02  0.8424853E-01
       -2   -1    0    0    0  501  0.00000000000E+00  0.00000000000E+00  0.96689298069E+03  0.96689298069E+03  0.25500000920E-02 0. -1.
        2   -1    0    0  501    0  0.00000000000E+00  0.00000000000E+00 -0.15387636677E+04  0.15387636677E+04  0.25500000920E-02 0.  1.
    10030    2    1    2    0    0  0.00000000000E+00  0.00000000000E+00 -0.57187068701E+03  0.25056566484E+04  0.24395243711E+04 0.  0.
        1    1    3    3  502    0  0.98664267434E+03  0.16107062778E+03 -0.10037456393E+04  0.14166555059E+04  0.50400001928E-02 0.  1.
       -1    1    3    3    0  502 -0.98664267434E+03 -0.16107062778E+03  0.43187495227E+03  0.10890011425E+04  0.50400001928E-02 0. -1.
</event>
<event>
 5   0  0.6703961E-05  0.2535880E+04  0.7818609E-02  0.8390314E-01
        2   -1    0    0  501    0  0.00000000000E+00  0.00000000000E+00  0.98495420247E+03  0.98495420248E+03  0.25500000920E-02 0.  1.
       -2   -1    0    0    0  501  0.00000000000E+00  0.00000000000E+00 -0.16322297465E+04  0.16322297465E+04  0.25500000920E-02 0. -1.
    10030    2    1    2    0    0  0.00000000000E+00  0.00000000000E+00 -0.64727554405E+03  0.26171839490E+04  0.25358797671E+04 0.  0.
        2    1    3    3  502    0 -0.68263978337E+02 -0.12067377031E+04  0.71785519588E+02  0.12107968515E+04  0.25500000920E-02 0.  1.
       -2    1    3    3    0  502  0.68263978337E+02  0.12067377031E+04 -0.71906106364E+03  0.14063870975E+04  0.25500000920E-02 0. -1.
</event>
<event>
 5   0  0.2915546E-05  0.2399437E+04  0.7818609E-02  0.8439714E-01
       -1   -1    0    0    0  501  0.00000000000E+00  0.00000000000E+00  0.13300740093E+04  0.13300740093E+04  0.50400001928E-02 0. -1.
        1   -1    0    0  501    0  0.00000000000E+00  0.00000000000E+00 -0.10821384816E+04  0.10821384816E+04  0.50400001928E-02 0.  1.
    10030    2    1    2    0    0  0.00000000000E+00  0.00000000000E+00  0.24793552773E+03  0.24122124910E+04  0.23994368247E+04 0.  0.
        2    1    3    3  502    0  0.10135440257E+04  0.10375502169E+03  0.76081336208E+03  0.12715634347E+04  0.25500000920E-02 0. -1.
       -2    1    3    3    0  502 -0.10135440257E+04 -0.10375502169E+03 -0.51287783435E+03  0.11406490563E+04  0.25500000920E-02 0.  1.
</event>
<event>
 5   0  0.2901816E-05  0.2552261E+04  0.7818609E-02  0.8384600E-01
        1   -1    0    0  501    0  0.00000000000E+00  0.00000000000E+00  0.17797867511E+04  0.17797867511E+04  0.50400001928E-02 0. -1.
       -1   -1    0    0    0  501  0.00000000000E+00  0.00000000000E+00 -0.91500200572E+03  0.91500200573E+03  0.50400001928E-02 0.  1.
    10030    2    1    2    0    0  0.00000000000E+00  0.00000000000E+00  0.86478474537E+03  0.26947887568E+04  0.25522605251E+04 0.  0.
        4    1    3    3  502    0  0.27507579504E+03 -0.12461035128E+04  0.42380318736E+03  0.13446380227E+04  0.12699999809E+01 0.  1.
       -4    1    3    3    0  502 -0.27507579504E+03  0.12461035128E+04  0.44098155800E+03  0.13501507341E+04  0.12699999809E+01 0. -1.
</event>
<event>
 5   0  0.6600166E-05  0.2599975E+04  0.7818609E-02  0.8368210E-01
        2   -1    0    0  501    0  0.00000000000E+00  0.00000000000E+00  0.23246246701E+04  0.23246246701E+04  0.25500000920E-02 0.  1.
       -2   -1    0    0    0  501  0.00000000000E+00  0.00000000000E+00 -0.72698502679E+03  0.72698502679E+03  0.25500000920E-02 0. -1.
    10030    2    1    2    0    0  0.00000000000E+00  0.00000000000E+00  0.15976396433E+04  0.30516096969E+04  0.25999748676E+04 0.  0.
        5    1    3    3  502    0  0.68374985976E+03  0.41609907624E+03 -0.40346733785E+03  0.89635946733E+03  0.46999998093E+01 0. -1.
       -5    1    3    3    0  502 -0.68374985976E+03 -0.41609907624E+03  0.20011069811E+04  0.21552502295E+04  0.46999998093E+01 0.  1.
</event>
<event>
 5   0  0.2339125E-05  0.1748445E+04  0.7818609E-02  0.8734206E-01
       -4   -1    0    0    0  501  0.00000000000E+00  0.00000000000E+00  0.85965399553E+03  0.85965493364E+03  0.12699999809E+01 0. -1.
        4   -1    0    0  501    0  0.00000000000E+00  0.00000000000E+00 -0.88903647749E+03  0.88903738459E+03  0.12699999809E+01 0.  1.
    10030    2    1    2    0    0  0.00000000000E+00  0.00000000000E+00 -0.29382481956E+02  0.17486923182E+04  0.17484454506E+04 0.  0.
        4    1    3    3  502    0 -0.83554207464E+03  0.22011653272E+03 -0.14768337417E+03  0.87658076546E+03  0.12699999809E+01 0.  1.
       -4    1    3    3    0  502  0.83554207464E+03 -0.22011653272E+03  0.11830089221E+03  0.87211155277E+03  0.12699999809E+01 0. -1.
</event>
<event>
 5   0  0.2847158E-05  0.2467847E+04  0.7818609E-02  0.8414531E-01
       -1   -1    0    0    0  501  0.00000000000E+00  0.00000000000E+00  0.96187313397E+03  0.96187313398E+03  0.50400001928E-02 0.  1.
        1   -1    0    0  501    0  0.00000000000E+00  0.00000000000E+00 -0.15829188928E+04  0.15829188928E+04  0.50400001928E-02 0. -1.
    10030    2    1    2    0    0  0.00000000000E+00  0.00000000000E+00 -0.62104575878E+03  0.25447920267E+04  0.24678469614E+04 0.  0.
        5    1    3    3  502    0 -0.65100410079E+03 -0.78713284961E+03 -0.10243197226E+04  0.14465951218E+04  0.46999998093E+01 0. -1.
       -5    1    3    3    0  502  0.65100410079E+03  0.78713284961E+03  0.40327396384E+03  0.10981969050E+04  0.46999998093E+01 0.  1.
</event>
<event>
 5   0  0.2901816E-05  0.2281581E+04  0.7818609E-02  0.8485219E-01
       -1   -1    0    0    0  501  0.00000000000E+00  0.00000000000E+00  0.14097281151E+04  0.14097281151E+04  0.50400001928E-02 0.  1.
        1   -1    0    0  501    0  0.00000000000E+00  0.00000000000E+00 -0.92315865677E+03  0.92315865679E+03  0.50400001928E-02 0. -1.
    10030    2    1    2    0    0  0.00000000000E+00  0.00000000000E+00  0.48656945830E+03  0.23328867719E+04  0.22815807793E+04 0.  0.
        4    1    3    3  502    0 -0.13402041475E+03 -0.10844721203E+04 -0.91741459500E+02  0.10965670794E+04  0.12699999809E+01 0. -1.
       -4    1    3    3    0  502  0.13402041475E+03  0.10844721203E+04  0.57831091780E+03  0.12363196924E+04  0.12699999809E+01 0.  1.
</event>
<event>
 5   0  0.2943244E-05  0.2366409E+04  0.7818609E-02  0.8452187E-01
        1   -1    0    0  501    0  0.00000000000E+00  0.00000000000E+00  0.96433497065E+03  0.96433497067E+03  0.50400001928E-02 0. -1.
       -1   -1    0    0    0  501  0.00000000000E+00  0.00000000000E+00 -0.14517501770E+04  0.14517501770E+04  0.50400001928E-02 0.  1.
    10030    2    1    2    0    0  0.00000000000E+00  0.00000000000E+00 -0.48741520636E+03  0.24160851477E+04  0.23664094864E+04 0.  0.
        3    1    3    3  502    0  0.70609956140E+03 -0.71432408564E+03  0.39483124350E+03  0.10792252828E+04  0.10100000352E+00 0. -1.
       -3    1    3    3    0  502 -0.70609956140E+03  0.71432408564E+03 -0.88224644986E+03  0.13368598649E+04  0.10100000352E+00 0.  1.
</event>
<event>
 5   0  0.2847158E-05  0.2397584E+04  0.7818609E-02  0.8440408E-01
        1   -1    0    0  501    0  0.00000000000E+00  0.00000000000E+00  0.23925920165E+04  0.23925920165E+04  0.50400001928E-02 0.  1.
       -1   -1    0    0    0  501  0.00000000000E+00  0.00000000000E+00 -0.60064681771E+03  0.60064681773E+03  0.50400001928E-02 0. -1.
    10030    2    1    2    0    0  0.00000000000E+00  0.00000000000E+00  0.17919451988E+04  0.29932388343E+04  0.23975844351E+04 0.  0.
        5    1    3    3  502    0  0.62062629258E+03  0.10253048480E+04  0.86405392077E+03  0.14775108441E+04  0.46999998093E+01 0. -1.
       -5    1    3    3    0  502 -0.62062629258E+03 -0.10253048480E+04  0.92789127805E+03  0.15157279902E+04  0.46999998093E+01 0.  1.
</event>
<event>
 5   0  0.2943123E-05  0.2513660E+04  0.7818609E-02  0.8398135E-01
        1   -1    0    0  501    0  0.00000000000E+00  0.00000000000E+00  0.15199290830E+04  0.15199290830E+04  0.50400001928E-02 0. -1.
       -1   -1    0    0    0  501  0.00000000000E+00  0.00000000000E+00 -0.10392736348E+04  0.10392736348E+04  0.50400001928E-02 0.  1.
    10030    2    1    2    0    0  0.00000000000E+00  0.00000000000E+00  0.48065544815E+03  0.25592027178E+04  0.25136604566E+04 0.  0.
        1    1    3    3  502    0 -0.43091716346E+03 -0.26796858814E+03 -0.93034205958E+03  0.10597325671E+04  0.50400001928E-02 0.  1.
       -1    1    3    3    0  502  0.43091716346E+03  0.26796858814E+03  0.14109975077E+04  0.14994701507E+04  0.50400001928E-02 0. -1.
</event>
<event>
 5   0  0.2339125E-05  0.2388395E+04  0.7818609E-02  0.8443861E-01
       -3   -1    0    0    0  501  0.00000000000E+00  0.00000000000E+00  0.12287313208E+04  0.12287313250E+04  0.10100000352E+00 0.  1.
        3   -1    0    0  501    0  0.00000000000E+00  0.00000000000E+00 -0.11606344065E+04  0.11606344109E+04  0.10100000352E+00 0. -1.
    10030    2    1    2    0    0  0.00000000000E+00  0.00000000000E+00  0.68096914301E+02  0.23893657359E+04  0.23883951579E+04 0.  0.
        4    1    3    3  502    0 -0.10820590620E+04 -0.42885721931E+03 -0.23314792394E+03  0.11870677721E+04  0.12699999809E+01 0. -1.
       -4    1    3    3    0  502  0.10820590620E+04  0.42885721931E+03  0.30124483824E+03  0.12022979638E+04  0.12699999809E+01 0.  1.
</event>
<event>
 5   0  0.6337926E-05  0.2406998E+04  0.7818609E-02  0.8436888E-01
        2   -1    0    0  501    0  0.00000000000E+00  0.00000000000E+00  0.21693816988E+04  0.21693816988E+04  0.25500000920E-02 0.  1.
       -2   -1    0    0    0  501  0.00000000000E+00  0.00000000000E+00 -0.66766032018E+03  0.66766032019E+03  0.25500000920E-02 0. -1.
    10030    2    1    2    0    0  0.00000000000E+00  0.00000000000E+00  0.15017213786E+04  0.28370420190E+04  0.24069981966E+04 0.  0.
        1    1    3    3  502    0  0.70892981617E+03 -0.77329864798E+03  0.14460104678E+04  0.17864821735E+04  0.50400001928E-02 0.  1.
       -1    1    3    3    0  502 -0.70892981617E+03  0.77329864798E+03  0.55710910749E+02  0.10505598454E+04  0.50400001928E-02 0. -1.
</event>
<event>
 5   0  0.2943123E-05  0.2401538E+04  0.7818609E-02  0.8438928E-01
        1   -1    0    0  501    0  0.00000000000E+00  0.00000000000E+00  0.14500657489E+04  0.14500657490E+04  0.50400001928E-02 0. -1.
       -1   -1    0    0    0  501  0.00000000000E+00  0.00000000000E+00 -0.99433185597E+03  0.99433185598E+03  0.50400001928E-02 0.  1.
    10030    2    1    2    0    0  0.00000000000E+00  0.00000000000E+00  0.45573389298E+03  0.24443976049E+04  0.24015383132E+04 0.  0.
        1    1    3    3  502    0  0.47692044262E+03  0.87200664442E+02  0.13460118583E+04  0.14306659244E+04  0.50400001928E-02 0. -1.
       -1    1    3    3    0  502 -0.47692044262E+03 -0.87200664442E+02 -0.89027796536E+03  0.10137316805E+04  0.50400001928E-02 0.  1.
</event>
<event>
 5   0  0.6978115E-05  0.2390462E+04  0.7818609E-02  0.8443083E-01
       -2   -1    0    0    0  501  0.00000000000E+00  0.00000000000E+00  0.89160699618E+03  0.89160699618E+03  0.25500000920E-02 0. -1.
        2   -1    0    0  501    0  0.00000000000E+00  0.00000000000E+00 -0.16022499255E+04  0.16022499255E+04  0.25500000920E-02 0.  1.
    10030    2    1    2    0    0  0.00000000000E+00  0.00000000000E+00 -0.71064292929E+03  0.24938569217E+04  0.23904620835E+04 0.  0.
        4    1    3    3  502    0 -0.10742121622E+04  0.38104731365E+03 -0.73067053335E+03  0.13538869473E+04  0.12699999809E+01 0.  1.
       -4    1    3    3    0  502  0.10742121622E+04 -0.38104731365E+03  0.20027604062E+02  0.11399699744E+04  0.12699999809E+01 0. -1.
</event>
<event>
 5   0  0.6600166E-05  0.2268720E+04  0.7818609E-02  0.8490358E-01
       -2   -1    0    0    0  501  0.00000000000E+00  0.00000000000E+00  0.49619270840E+03  0.49619270841E+03  0.25500000920E-02 0.  1.
        2   -1    0    0  501    0  0.00000000000E+00  0.00000000000E+00 -0.25932909493E+04  0.25932909493E+04  0.25500000920E-02 0. -1.
    10030    2    1    2    0    0  0.00000000000E+00  0.00000000000E+00 -0.20970982409E+04  0.30894836577E+04  0.22687195154E+04 0.  0.
        5    1    3    3  502    0 -0.98150084114E+03  0.40363740586E+03 -0.50301804425E+03  0.11744429741E+04  0.46999998093E+01 0. -1.
       -5    1    3    3    0  502  0.98150084114E+03 -0.40363740586E+03 -0.15940801967E+04  0.19150406836E+04  0.46999998093E+01 0.  1.
</event>
<event>
 5   0  0.2915546E-05  0.2368414E+04  0.7818609E-02  0.8451425E-01
       -1   -1    0    0    0  501  0.00000000000E+00  0.00000000000E+00  0.68826987475E+03  0.68826987477E+03  0.50400001928E-02 0.  1.
        1   -1    0    0  501    0  0.00000000000E+00  0.00000000000E+00 -0.20374940971E+04  0.20374940971E+04  0.50400001928E-02 0. -1.
    10030    2    1    2    0    0  0.00000000000E+00  0.00000000000E+00 -0.13492242224E+04  0.27257639719E+04  0.23684136523E+04 0.  0.
        2    1    3    3  502    0  0.56453275727E+03  0.96282661308E+03 -0.11300668967E+04  0.15883272685E+04  0.25500000920E-02 0. -1.
       -2    1    3    3    0  502 -0.56453275727E+03 -0.96282661308E+03 -0.21915732572E+03  0.11374367034E+04  0.25500000920E-02 0.  1.
</event>
<event>
 5   0  0.2943123E-05  0.2375791E+04  0.7818609E-02  0.8448623E-01
        1   -1    0    0  501    0  0.00000000000E+00  0.00000000000E+00  0.13427980487E+04  0.13427980487E+04  0.50400001928E-02 0. -1.
       -1   -1    0    0    0  501  0.00000000000E+00  0.00000000000E+00 -0.10508622905E+04  0.10508622906E+04  0.50400001928E-02 0.  1.
    10030    2    1    2    0    0  0.00000000000E+00  0.00000000000E+00  0.29193575812E+03  0.23936603392E+04  0.23757910962E+04 0.  0.
        1    1    3    3  502    0  0.14257111863E+03 -0.11792023286E+04  0.13000009534E+03  0.11948827057E+04  0.50400001928E-02 0.  1.
       -1    1    3    3    0  502 -0.14257111863E+03  0.11792023286E+04  0.16193566278E+03  0.11987776335E+04  0.50400001928E-02 0. -1.
</event>
<event>
 5   0  0.6703961E-05  0.2410200E+04  0.7818609E-02  0.8435695E-01
       -2   -1    0    0    0  501  0.00000000000E+00  0.00000000000E+00  0.10232570570E+04  0.10232570570E+04  0.25500000920E-02 0.  1.
        2   -1    0    0  501    0  0.00000000000E+00  0.00000000000E+00 -0.14192581028E+04  0.14192581028E+04  0.25500000920E-02 0. -1.
    10030    2    1    2    0    0  0.00000000000E+00  0.00000000000E+00 -0.39600104577E+03  0.24425151598E+04  0.24101998833E+04 0.  0.
        2    1    3    3  502    0 -0.84021862604E+03 -0.32846406453E+03 -0.10077189249E+04  0.13525359192E+04  0.25500000920E-02 0. -1.
       -2    1    3    3    0  502  0.84021862604E+03  0.32846406453E+03  0.61171787909E+03  0.10899792406E+04  0.25500000920E-02 0.  1.
</event>
<event>
 5   0  0.2943244E-05  0.2413436E+04  0.7818609E-02  0.8434491E-01
        1   -1    0    0  501    0  0.00000000000E+00  0.00000000000E+00  0.11047210578E+04  0.11047210578E+04  0.50400001928E-02 0. -1.
       -1   -1    0    0    0  501  0.00000000000E+00  0.00000000000E+00 -0.13181318320E+04  0.13181318320E+04  0.50400001928E-02 0.  1.
    10030    2    1    2    0    0  0.00000000000E+00  0.00000000000E+00 -0.21341077418E+03  0.24228528898E+04  0.24134357185E+04 0.  0.
        3    1    3    3  502    0 -0.12886966501E+03 -0.14950135691E+03  0.10884060533E+04  0.11061581231E+04  0.10100000352E+00 0. -1.
       -3    1    3    3    0  502  0.12886966501E+03  0.14950135691E+03 -0.13018168275E+04  0.13166947667E+04  0.10100000352E+00 0.  1.
</event>
<event>
 5   0  0.2943244E-05  0.2373336E+04  0.7818609E-02  0.8449554E-01
        1   -1    0    0  501    0  0.00000000000E+00  0.00000000000E+00  0.11764991816E+04  0.11764991816E+04  0.50400001928E-02 0. -1.
       -1   -1    0    0    0  501  0.00000000000E+00  0.00000000000E+00 -0.11969252047E+04  0.11969252047E+04  0.50400001928E-02 0.  1.
    10030    2    1    2    0    0  0.00000000000E+00  0.00000000000E+00 -0.20426023044E+02  0.23734243863E+04  0.23733364901E+04 0.  0.
        3    1    3    3  502    0 -0.31550175892E+02 -0.70178411053E+03 -0.96664017236E+03  0.11949433394E+04  0.10100000352E+00 0. -1.
       -3    1    3    3    0  502  0.31550175892E+02  0.70178411053E+03  0.94621414932E+03  0.11784810469E+04  0.10100000352E+00 0.  1.
</event>
<event>
 5   0  0.6703961E-05  0.2345030E+04  0.7818609E-02  0.8460375E-01
        2   -1    0    0  501    0  0.00000000000E+00  0.00000000000E+00  0.10995128054E+04  0.10995128054E+04  0.25500000920E-02 0. -1.
       -2   -1    0    0    0  501  0.00000000000E+00  0.00000000000E+00 -0.12503638344E+04  0.12503638344E+04  0.25500000920E-02 0.  1.
    10030    2    1    2    0    0  0.00000000000E+00  0.00000000000E+00 -0.15085102903E+03  0.23498766398E+04  0.23450296777E+04 0.  0.
        2    1    3    3  502    0 -0.25539924804E+03  0.43964319153E+03 -0.11341489845E+04  0.12429033876E+04  0.25500000920E-02 0.  1.
       -2    1    3    3    0  502  0.25539924804E+03 -0.43964319153E+03  0.98329795552E+03  0.11069732522E+04  0.25500000920E-02 0. -1.
</event>
<event>
 5   0  0.2847158E-05  0.2401387E+04  0.7818609E-02  0.8438984E-01
       -1   -1    0    0    0  501  0.00000000000E+00  0.00000000000E+00  0.95341982626E+03  0.95341982627E+03  0.50400001928E-02 0. -1.
        1   -1    0    0  501    0  0.00000000000E+00  0.00000000000E+00 -0.15120993068E+04  0.15120993068E+04  0.50400001928E-02 0.  1.
    10030    2    1    2    0    0  0.00000000000E+00  0.00000000000E+00 -0.55867948053E+03  0.24655191331E+04  0.24013874809E+04 0.  0.
        5    1    3    3  502    0 -0.30150080052E+03 -0.80196305031E+03  0.58431227214E+03  0.10370585269E+04  0.46999998093E+01 0. -1.
       -5    1    3    3    0  502  0.30150080052E+03  0.80196305031E+03 -0.11429917527E+04  0.14284606062E+04  0.46999998093E+01 0.  1.
</event>
<event>
 5   0  0.6714629E-05  0.2399264E+04  0.7818609E-02  0.8439779E-01
        2   -1    0    0  501    0  0.00000000000E+00  0.00000000000E+00  0.10293533499E+04  0.10293533499E+04  0.25500000920E-02 0. -1.
       -2   -1    0    0    0  501  0.00000000000E+00  0.00000000000E+00 -0.13980786020E+04  0.13980786020E+04  0.25500000920E-02 0.  1.
    10030    2    1    2    0    0  0.00000000000E+00  0.00000000000E+00 -0.36872525209E+03  0.24274319519E+04  0.23992639642E+04 0.  0.
        3    1    3    3  502    0 -0.72863628657E+03  0.53635522035E+03 -0.98134756985E+03  0.13347774435E+04  0.10100000352E+00 0.  1.
       -3    1    3    3    0  502  0.72863628657E+03 -0.53635522035E+03  0.61262231775E+03  0.10926545085E+04  0.10100000352E+00 0. -1.
</event>
<event>
 5   0  0.6714629E-05  0.2466512E+04  0.7818609E-02  0.8415014E-01
       -2   -1    0    0    0  501  0.00000000000E+00  0.00000000000E+00  0.98647668629E+03  0.98647668630E+03  0.25500000920E-02 0. -1.
        2   -1    0    0  501    0  0.00000000000E+00  0.00000000000E+00 -0.15417698603E+04  0.15417698604E+04  0.25500000920E-02 0.  1.
    10030    2    1    2    0    0  0.00000000000E+00  0.00000000000E+00 -0.55529317405E+03  0.25282465466E+04  0.24665117254E+04 0.  0.
        3    1    3    3  502    0 -0.93490683998E+03  0.63834226889E+03  0.22387283228E+03  0.11539717098E+04  0.10100000352E+00 0. -1.
       -3    1    3    3    0  502  0.93490683998E+03 -0.63834226889E+03 -0.77916600633E+03  0.13742748369E+04  0.10100000352E+00 0.  1.
</event>
<event>
 5   0  0.6703961E-05  0.2395831E+04  0.7818609E-02  0.8441066E-01
        2   -1    0    0  501    0  0.00000000000E+00  0.00000000000E+00  0.21489133158E+04  0.21489133158E+04  0.25500000920E-02 0.  1.
       -2   -1    0    0    0  501  0.00000000000E+00  0.00000000000E+00 -0.66778010008E+03  0.66778010008E+03  0.25500000920E-02 0. -1.
    10030    2    1    2    0    0  0.00000000000E+00  0.00000000000E+00  0.14811332158E+04  0.28166934159E+04  0.23958310033E+04 0.  0.
        2    1    3    3  502    0  0.57708168423E+03  0.87613827997E+03  0.14203813087E+04  0.17658212305E+04  0.25500000920E-02 0. -1.
       -2    1    3    3    0  502 -0.57708168423E+03 -0.87613827997E+03  0.60751907040E+02  0.10508721854E+04  0.25500000920E-02 0.  1.
</event>
<event>
 5   0  0.2901816E-05  0.1660630E+04  0.7818609E-02  0.8784143E-01
       -1   -1    0    0    0  501  0.00000000000E+00  0.00000000000E+00  0.46388976312E+03  0.46388976315E+03  0.50400001928E-02 0.  1.
        1   -1    0    0  501    0  0.00000000000E+00  0.00000000000E+00 -0.14861780461E+04  0.14861780461E+04  0.50400001928E-02 0. -1.
    10030    2    1    2    0    0  0.00000000000E+00  0.00000000000E+00 -0.10222882830E+04  0.19500678093E+04  0.16606297381E+04 0.  0.
        4    1    3    3  502    0  0.63286633800E+03 -0.10581700359E+03  0.10768117236E+03  0.65062576633E+03  0.12699999809E+01 0.  1.
       -4    1    3    3    0  502 -0.63286633800E+03  0.10581700359E+03 -0.11299694554E+04  0.12994420430E+04  0.12699999809E+01 0. -1.
</event>
<event>
 5   0  0.6337926E-05  0.2432611E+04  0.7818609E-02  0.8427395E-01
       -2   -1    0    0    0  501  0.00000000000E+00  0.00000000000E+00  0.10410153681E+04  0.10410153681E+04  0.25500000920E-02 0. -1.
        2   -1    0    0  501    0  0.00000000000E+00  0.00000000000E+00 -0.14211114307E+04  0.14211114307E+04  0.25500000920E-02 0.  1.
    10030    2    1    2    0    0  0.00000000000E+00  0.00000000000E+00 -0.38009606268E+03  0.24621267988E+04  0.24326108107E+04 0.  0.
        1    1    3    3  502    0  0.98457576715E+02  0.57136657247E+03  0.89215182798E+03  0.10639964938E+04  0.50400001928E-02 0. -1.
       -1    1    3    3    0  502 -0.98457576715E+02 -0.57136657247E+03 -0.12722478907E+04  0.13981303050E+04  0.50400001928E-02 0.  1.
</event>
<event>
 5   0  0.6703961E-05  0.2382031E+04  0.7818609E-02  0.8446262E-01
        2   -1    0    0  501    0  0.00000000000E+00  0.00000000000E+00  0.13059385852E+04  0.13059385852E+04  0.25500000920E-02 0.  1.
       -2   -1    0    0    0  501  0.00000000000E+00  0.00000000000E+00 -0.10862058940E+04  0.10862058940E+04  0.25500000920E-02 0. -1.
    10030    2    1    2    0    0  0.00000000000E+00  0.00000000000E+00  0.21973269119E+03  0.23921444791E+04  0.23820312243E+04 0.  0.
        2    1    3    3  502    0  0.96203577051E+03 -0.52342980719E+03  0.57985609790E+03  0.12392435923E+04  0.25500000920E-02 0.  1.
       -2    1    3    3    0  502 -0.96203577051E+03  0.52342980719E+03 -0.36012340671E+03  0.11529008868E+04  0.25500000920E-02 0. -1.
</event>
<event>
 5   0  0.6337926E-05  0.2378355E+04  0.7818609E-02  0.8447652E-01
        2   -1    0    0  501    0  0.00000000000E+00  0.00000000000E+00  0.10543409009E+04  0.10543409009E+04  0.25500000920E-02 0. -1.
       -2   -1    0    0    0  501  0.00000000000E+00  0.00000000000E+00 -0.13412583773E+04  0.13412583773E+04  0.25500000920E-02 0.  1.
    10030    2    1    2    0    0  0.00000000000E+00  0.00000000000E+00 -0.28691747641E+03  0.23955992782E+04  0.23783553695E+04 0.  0.
        1    1    3    3  502    0  0.60640866655E+03 -0.40262266212E+02  0.88610241511E+03  0.10744905821E+04  0.50400001928E-02 0. -1.
       -1    1    3    3    0  502 -0.60640866655E+03  0.40262266212E+02 -0.11730198915E+04  0.13211086961E+04  0.50400001928E-02 0.  1.
</event>
<event>
 5   0  0.6714629E-05  0.1516138E+04  0.7818609E-02  0.8873792E-01
       -2   -1    0    0    0  501  0.00000000000E+00  0.00000000000E+00  0.27544981967E+03  0.27544981969E+03  0.25500000920E-02 0.  1.
        2   -1    0    0  501    0  0.00000000000E+00  0.00000000000E+00 -0.20862903446E+04  0.20862903446E+04  0.25500000920E-02 0. -1.
    10030    2    1    2    0    0  0.00000000000E+00  0.00000000000E+00 -0.18108405249E+04  0.23617401643E+04  0.15161375917E+04 0.  0.
        3    1    3    3  502    0 -0.40063941663E+03  0.25121877694E+03 -0.18283639161E+04  0.18885278489E+04  0.10100000352E+00 0. -1.
       -3    1    3    3    0  502  0.40063941663E+03 -0.25121877694E+03  0.17523391163E+02  0.47321231543E+03  0.10100000352E+00 0.  1.
</event>
<event>
 5   0  0.2915546E-05  0.2415496E+04  0.7818609E-02  0.8433725E-01
       -1   -1    0    0    0  501  0.00000000000E+00  0.00000000000E+00  0.95406442613E+03  0.95406442614E+03  0.50400001928E-02 0. -1.
        1   -1    0    0  501    0  0.00000000000E+00  0.00000000000E+00 -0.15288859047E+04  0.15288859047E+04  0.50400001928E-02 0.  1.
    10030    2    1    2    0    0  0.00000000000E+00  0.00000000000E+00 -0.57482147856E+03  0.24829503308E+04  0.24154963492E+04 0.  0.
        2    1    3    3  502    0  0.15317803745E+03  0.11971384017E+04 -0.33397235306E+03  0.12522545255E+04  0.25500000920E-02 0. -1.
       -2    1    3    3    0  502 -0.15317803745E+03 -0.11971384017E+04 -0.24084912550E+03  0.12306958053E+04  0.25500000920E-02 0.  1.
</event>
<event>
 5   0  0.6337926E-05  0.2408369E+04  0.7818609E-02  0.8436377E-01
        2   -1    0    0  501    0  0.00000000000E+00  0.00000000000E+00  0.22122449930E+04  0.22122449930E+04  0.25500000920E-02 0.  1.
       -2   -1    0    0    0  501  0.00000000000E+00  0.00000000000E+00 -0.65546993473E+03  0.65546993474E+03  0.25500000920E-02 0. -1.
    10030    2    1    2    0    0  0.00000000000E+00  0.00000000000E+00  0.15567750583E+04  0.28677149278E+04  0.24083688100E+04 0.  0.
        1    1    3    3  502    0 -0.42552791937E+03  0.10866753743E+04  0.42491400906E+03  0.12419699250E+04  0.50400001928E-02 0. -1.
       -1    1    3    3    0  502  0.42552791937E+03 -0.10866753743E+04  0.11318610493E+04  0.16257450028E+04  0.50400001928E-02 0.  1.
</event>
<event>
 5   0  0.6978115E-05  0.1847137E+04  0.7818609E-02  0.8681627E-01
       -2   -1    0    0    0  501  0.00000000000E+00  0.00000000000E+00  0.57912481362E+03  0.57912481362E+03  0.25500000920E-02 0.  1.
        2   -1    0    0  501    0  0.00000000000E+00  0.00000000000E+00 -0.14728753785E+04  0.14728753785E+04  0.25500000920E-02 0. -1.
    10030    2    1    2    0    0  0.00000000000E+00  0.00000000000E+00 -0.89375056484E+03  0.20520001921E+04  0.18471368970E+04 0.  0.
        4    1    3    3  502    0 -0.37598948151E+03 -0.21522803872E+03  0.45923792871E+03  0.63134165625E+03  0.12699999809E+01 0.  1.
       -4    1    3    3    0  502  0.37598948151E+03  0.21522803872E+03 -0.13529884935E+04  0.14206585358E+04  0.12699999809E+01 0. -1.
</event>
<event>
 5   0  0.2943123E-05  0.2406443E+04  0.7818609E-02  0.8437095E-01
        1   -1    0    0  501    0  0.00000000000E+00  0.00000000000E+00  0.11028757636E+04  0.11028757636E+04  0.50400001928E-02 0.  1.
       -1   -1    0    0    0  501  0.00000000000E+00  0.00000000000E+00 -0.13126975389E+04  0.13126975389E+04  0.50400001928E-02 0. -1.
    10030    2    1    2    0    0  0.00000000000E+00  0.00000000000E+00 -0.20982177527E+03  0.24155733025E+04  0.24064432681E+04 0.  0.
        1    1    3    3  502    0 -0.30088192292E+03  0.55237038671E+03  0.92469961595E+03  0.11183525184E+04  0.50400001928E-02 0.  1.
       -1    1    3    3    0  502  0.30088192292E+03 -0.55237038671E+03 -0.11345213912E+04  0.12972207841E+04  0.50400001928E-02 0. -1.
</event>
<event>
 5   0  0.2915546E-05  0.1609375E+04  0.7818609E-02  0.8814809E-01
       -1   -1    0    0    0  501  0.00000000000E+00  0.00000000000E+00  0.39270258909E+03  0.39270258912E+03  0.50400001928E-02 0. -1.
        1   -1    0    0  501    0  0.00000000000E+00  0.00000000000E+00 -0.16488865514E+04  0.16488865514E+04  0.50400001928E-02 0.  1.
    10030    2    1    2    0    0  0.00000000000E+00  0.00000000000E+00 -0.12561839623E+04  0.20415891405E+04  0.16093750562E+04 0.  0.
        2    1    3    3  502    0 -0.30143151073E+03 -0.34302509778E+03  0.21241396671E+03  0.50363366312E+03  0.25500000920E-02 0. -1.
       -2    1    3    3    0  502  0.30143151073E+03  0.34302509778E+03 -0.14685979290E+04  0.15379554774E+04  0.25500000920E-02 0.  1.
</event>
<event>
 5   0  0.2847158E-05  0.2400627E+04  0.7818609E-02  0.8439269E-01
       -1   -1    0    0    0  501  0.00000000000E+00  0.00000000000E+00  0.76502834964E+03  0.76502834965E+03  0.50400001928E-02 0.  1.
        1   -1    0    0  501    0  0.00000000000E+00  0.00000000000E+00 -0.18832667286E+04  0.18832667286E+04  0.50400001928E-02 0. -1.
    10030    2    1    2    0    0  0.00000000000E+00  0.00000000000E+00 -0.11182383790E+04  0.26482950783E+04  0.24006269492E+04 0.  0.
        5    1    3    3  502    0 -0.10238466963E+04 -0.33388196737E+03 -0.11438931091E+04  0.15710673954E+04  0.46999998093E+01 0. -1.
       -5    1    3    3    0  502  0.10238466963E+04  0.33388196737E+03  0.25654730164E+02  0.10772276829E+04  0.46999998093E+01 0.  1.
</event>
<event>
 5   0  0.2339125E-05  0.2013349E+04  0.7818609E-02  0.8600405E-01
       -3   -1    0    0    0  501  0.00000000000E+00  0.00000000000E+00  0.87624484660E+03  0.87624485242E+03  0.10100000352E+00 0. -1.
        3   -1    0    0  501    0  0.00000000000E+00  0.00000000000E+00 -0.11565190365E+04  0.11565190409E+04  0.10100000352E+00 0.  1.
    10030    2    1    2    0    0  0.00000000000E+00  0.00000000000E+00 -0.28027418994E+03  0.20327638934E+04  0.20133493052E+04 0.  0.
        2    1    3    3  502    0  0.52447998933E+03  0.83173582567E+03 -0.35792555479E+03  0.10464102664E+04  0.25500000920E-02 0.  1.
       -2    1    3    3    0  502 -0.52447998933E+03 -0.83173582567E+03  0.77651364859E+02  0.98635362694E+03  0.25500000920E-02 0. -1.
</event>
<event>
 5   0  0.2943244E-05  0.2364639E+04  0.7818609E-02  0.8452862E-01
       -1   -1    0    0    0  501  0.00000000000E+00  0.00000000000E+00  0.18142639387E+04  0.18142639387E+04  0.50400001928E-02 0.  1.
        1   -1    0    0  501    0  0.00000000000E+00  0.00000000000E+00 -0.77049421189E+03  0.77049421190E+03  0.50400001928E-02 0. -1.
    10030    2    1    2    0    0  0.00000000000E+00  0.00000000000E+00  0.10437697268E+04  0.25847581506E+04  0.23646393921E+04 0.  0.
        3    1    3    3  502    0 -0.35259263438E+03 -0.52251530040E+03  0.16152654627E+04  0.17339049369E+04  0.10100000352E+00 0.  1.
       -3    1    3    3    0  502  0.35259263438E+03  0.52251530040E+03 -0.57149573588E+03  0.85085321373E+03  0.10100000352E+00 0. -1.
</event>
<event>
 5   0  0.6978115E-05  0.2448429E+04  0.7818609E-02  0.8421592E-01
       -2   -1    0    0    0  501  0.00000000000E+00  0.00000000000E+00  0.76176435910E+03  0.76176435910E+03  0.25500000920E-02 0. -1.
        2   -1    0    0  501    0  0.00000000000E+00  0.00000000000E+00 -0.19674083928E+04  0.19674083928E+04  0.25500000920E-02 0.  1.
    10030    2    1    2    0    0  0.00000000000E+00  0.00000000000E+00 -0.12056440337E+04  0.27291727519E+04  0.24484293687E+04 0.  0.
        4    1    3    3  502    0 -0.57178758351E+03  0.14142904987E+03  0.59343316520E+03  0.83612663590E+03  0.12699999809E+01 0. -1.
       -4    1    3    3    0  502  0.57178758351E+03 -0.14142904987E+03 -0.17990771989E+04  0.18930461160E+04  0.12699999809E+01 0.  1.
</event>
<event>
 5   0  0.2943123E-05  0.2418309E+04  0.7818609E-02  0.8432681E-01
        1   -1    0    0  501    0  0.00000000000E+00  0.00000000000E+00  0.16970653645E+04  0.16970653645E+04  0.50400001928E-02 0. -1.
       -1   -1    0    0    0  501  0.00000000000E+00  0.00000000000E+00 -0.86151926705E+03  0.86151926706E+03  0.50400001928E-02 0.  1.
    10030    2    1    2    0    0  0.00000000000E+00  0.00000000000E+00  0.83554609743E+03  0.25585846315E+04  0.24183089207E+04 0.  0.
        1    1    3    3  502    0  0.10801819387E+04 -0.11584949981E+03  0.97945389987E+03  0.14627180416E+04  0.50400001928E-02 0. -1.
       -1    1    3    3    0  502 -0.10801819387E+04  0.11584949981E+03 -0.14390780244E+03  0.10958665899E+04  0.50400001928E-02 0.  1.
</event>
<event>
 5   0  0.6600166E-05  0.2286058E+04  0.7818609E-02  0.8483439E-01
       -2   -1    0    0    0  501  0.00000000000E+00  0.00000000000E+00  0.83611348635E+03  0.83611348635E+03  0.25500000920E-02 0. -1.
        2   -1    0    0  501    0  0.00000000000E+00  0.00000000000E+00 -0.15626045914E+04  0.15626045914E+04  0.25500000920E-02 0.  1.
    10030    2    1    2    0    0  0.00000000000E+00  0.00000000000E+00 -0.72649110509E+03  0.23987180778E+04  0.22860575432E+04 0.  0.
        5    1    3    3  502    0 -0.13937781893E+03 -0.60229909191E+03  0.64554050091E+03  0.89383164009E+03  0.46999998093E+01 0. -1.
       -5    1    3    3    0  502  0.13937781893E+03  0.60229909191E+03 -0.13720316060E+04  0.15048864377E+04  0.46999998093E+01 0.  1.
</event>
<event>
 5   0  0.6600166E-05  0.2373275E+04  0.7818609E-02  0.8449577E-01
       -2   -1    0    0    0  501  0.00000000000E+00  0.00000000000E+00  0.12046967568E+04  0.12046967568E+04  0.25500000920E-02 0. -1.
        2   -1    0    0  501    0  0.00000000000E+00  0.00000000000E+00 -0.11688487369E+04  0.11688487369E+04  0.25500000920E-02 0.  1.
    10030    2    1    2    0    0  0.00000000000E+00  0.00000000000E+00  0.35848019834E+02  0.23735454937E+04  0.23732747692E+04 0.  0.
        5    1    3    3  502    0  0.10860398815E+04  0.25358362241E+03  0.42330827306E+03  0.11928953273E+04  0.46999998093E+01 0. -1.
       -5    1    3    3    0  502 -0.10860398815E+04 -0.25358362241E+03 -0.38746025323E+03  0.11806501665E+04  0.46999998093E+01 0.  1.
</event>
<event>
 5   0  0.6600166E-05  0.2438507E+04  0.7818609E-02  0.8425226E-01
       -2   -1    0    0    0  501  0.00000000000E+00  0.00000000000E+00  0.75156515034E+03  0.75156515034E+03  0.25500000920E-02 0. -1.
        2   -1    0    0  501    0  0.00000000000E+00  0.00000000000E+00 -0.19779782297E+04  0.19779782297E+04  0.25500000920E-02 0.  1.
    10030    2    1    2    0    0  0.00000000000E+00  0.00000000000E+00 -0.12264130794E+04  0.27295433801E+04  0.24385073349E+04 0.  0.
        5    1    3    3  502    0 -0.12133174741E+04  0.11995787304E+03 -0.61915399754E+03  0.13674439466E+04  0.46999998093E+01 0. -1.
       -5    1    3    3    0  502  0.12133174741E+04 -0.11995787304E+03 -0.60725908186E+03  0.13620994335E+04  0.46999998093E+01 0.  1.
</event>
<event>
 5   0  0.6703961E-05  0.2439074E+04  0.7818609E-02  0.8425018E-01
        2   -1    0    0  501    0  0.00000000000E+00  0.00000000000E+00  0.10583801498E+04  0.10583801498E+04  0.25500000920E-02 0. -1.
       -2   -1    0    0    0  501  0.00000000000E+00  0.00000000000E+00 -0.14052328430E+04  0.14052328430E+04  0.25500000920E-02 0.  1.
    10030    2    1    2    0    0  0.00000000000E+00  0.00000000000E+00 -0.34685269318E+03  0.24636129928E+04  0.24390740431E+04 0.  0.
        2    1    3    3  502    0  0.57053316572E+03 -0.10715282926E+04 -0.29117349228E+03  0.12483841467E+04  0.25500000920E-02 0.  1.
       -2    1    3    3    0  502 -0.57053316572E+03  0.10715282926E+04 -0.55679200891E+02  0.12152288461E+04  0.25500000920E-02 0. -1.
</event>
<event>
 5   0  0.2901816E-05  0.2398214E+04  0.7818609E-02  0.8440172E-01
       -1   -1    0    0    0  501  0.00000000000E+00  0.00000000000E+00  0.78744599105E+03  0.78744599107E+03  0.50400001928E-02 0. -1.
        1   -1    0    0  501    0  0.00000000000E+00  0.00000000000E+00 -0.18259766456E+04  0.18259766456E+04  0.50400001928E-02 0.  1.
    10030    2    1    2    0    0  0.00000000000E+00  0.00000000000E+00 -0.10385306545E+04  0.26134226366E+04  0.23982143268E+04 0.  0.
        4    1    3    3  502    0 -0.80763719270E+03  0.66135190586E+03  0.12376458120E+03  0.10511819361E+04  0.12699999809E+01 0. -1.
       -4    1    3    3    0  502  0.80763719270E+03 -0.66135190586E+03 -0.11622952357E+04  0.15622407005E+04  0.12699999809E+01 0.  1.
</event>
<event>
 5   0  0.6337926E-05  0.2442124E+04  0.7818609E-02  0.8423899E-01
       -2   -1    0    0    0  501  0.00000000000E+00  0.00000000000E+00  0.94900376904E+03  0.94900376904E+03  0.25500000920E-02 0. -1.
        2   -1    0    0  501    0  0.00000000000E+00  0.00000000000E+00 -0.15711137999E+04  0.15711137999E+04  0.25500000920E-02 0.  1.
    10030    2    1    2    0    0  0.00000000000E+00  0.00000000000E+00 -0.62211003090E+03  0.25201175690E+04  0.24421244176E+04 0.  0.
        1    1    3    3  502    0 -0.12600970081E+03  0.26678585035E+03  0.91166566149E+03  0.95822096252E+03  0.50400001928E-02 0. -1.
       -1    1    3    3    0  502  0.12600970081E+03 -0.26678585035E+03 -0.15337756924E+04  0.15618966064E+04  0.50400001928E-02 0.  1.
</event>
<event>
 5   0  0.6600166E-05  0.2309943E+04  0.7818609E-02  0.8474011E-01
        2   -1    0    0  501    0  0.00000000000E+00  0.00000000000E+00  0.21203556655E+04  0.21203556655E+04  0.25500000920E-02 0.  1.
       -2   -1    0    0    0  501  0.00000000000E+00  0.00000000000E+00 -0.62912068025E+03  0.62912068025E+03  0.25500000920E-02 0. -1.
    10030    2    1    2    0    0  0.00000000000E+00  0.00000000000E+00  0.14912349853E+04  0.27494763458E+04  0.23099433748E+04 0.  0.
        5    1    3    3  502    0 -0.65481305912E+02 -0.45214094340E+03 -0.51698616266E+03  0.68993913971E+03  0.46999998093E+01 0. -1.
       -5    1    3    3    0  502  0.65481305912E+02  0.45214094340E+03  0.20082211479E+04  0.20595372061E+04  0.46999998093E+01 0.  1.
</event>
<event>
 5   0  0.6978115E-05  0.2116106E+04  0.7818609E-02  0.8554181E-01
       -2   -1    0    0    0  501  0.00000000000E+00  0.00000000000E+00  0.10184926556E+04  0.10184926556E+04  0.25500000920E-02 0. -1.
        2   -1    0    0  501    0  0.00000000000E+00  0.00000000000E+00 -0.10991502382E+04  0.10991502382E+04  0.25500000920E-02 0.  1.
    10030    2    1    2    0    0  0.00000000000E+00  0.00000000000E+00 -0.80657582550E+02  0.21176428938E+04  0.21161062781E+04 0.  0.
        4    1    3    3  502    0  0.60788657946E+03 -0.23016829532E+03 -0.87578308492E+03  0.10906425457E+04  0.12699999809E+01 0.  1.
       -4    1    3    3    0  502 -0.60788657946E+03  0.23016829532E+03  0.79512550237E+03  0.10270003481E+04  0.12699999809E+01 0. -1.
</event>
<event>
 5   0  0.6714629E-05  0.2396335E+04  0.7818609E-02  0.8440877E-01
       -2   -1    0    0    0  501  0.00000000000E+00  0.00000000000E+00  0.12028547300E+04  0.12028547300E+04  0.25500000920E-02 0. -1.
        2   -1    0    0  501    0  0.00000000000E+00  0.00000000000E+00 -0.11934982084E+04  0.11934982084E+04  0.25500000920E-02 0.  1.
    10030    2    1    2    0    0  0.00000000000E+00  0.00000000000E+00  0.93565216730E+01  0.23963529384E+04  0.23963346722E+04 0.  0.
        3    1    3    3  502    0  0.11077518751E+04  0.30123719700E+03  0.34782354263E+03  0.11995162745E+04  0.10100000352E+00 0.  1.
       -3    1    3    3    0  502 -0.11077518751E+04 -0.30123719700E+03 -0.33846702095E+03  0.11968366640E+04  0.10100000352E+00 0. -1.
</event>
<event>
 5   0  0.6600166E-05  0.2382540E+04  0.7818609E-02  0.8446069E-01
       -2   -1    0    0    0  501  0.00000000000E+00  0.00000000000E+00  0.13999502624E+04  0.13999502624E+04  0.25500000920E-02 0. -1.
        2   -1    0    0  501    0  0.00000000000E+00  0.00000000000E+00 -0.10136959238E+04  0.10136959238E+04  0.25500000920E-02 0.  1.
    10030    2    1    2    0    0  0.00000000000E+00  0.00000000000E+00  0.38625433863E+03  0.24136461861E+04  0.23825397159E+04 0.  0.
        5    1    3    3  502    0 -0.43721606195E+03 -0.92313124884E+03 -0.42787913911E+03  0.11074438293E+04  0.46999998093E+01 0.  1.
       -5    1    3    3    0  502  0.43721606195E+03  0.92313124884E+03  0.81413347774E+03  0.13062023568E+04  0.46999998093E+01 0. -1.
</event>
<event>
 5   0  0.2901816E-05  0.2388922E+04  0.7818609E-02  0.8443663E-01
       -1   -1    0    0    0  501  0.00000000000E+00  0.00000000000E+00  0.73327233151E+03  0.73327233152E+03  0.50400001928E-02 0. -1.
        1   -1    0    0  501    0  0.00000000000E+00  0.00000000000E+00 -0.19457126481E+04  0.19457126481E+04  0.50400001928E-02 0.  1.
    10030    2    1    2    0    0  0.00000000000E+00  0.00000000000E+00 -0.12124403166E+04  0.26789849796E+04  0.23889221419E+04 0.  0.
        4    1    3    3  502    0  0.34077050403E+03 -0.10861750242E+04 -0.20059011358E+03  0.11559146708E+04  0.12699999809E+01 0. -1.
       -4    1    3    3    0  502 -0.34077050403E+03  0.10861750242E+04 -0.10118502030E+04  0.15230703089E+04  0.12699999809E+01 0.  1.
</event>
<event>
 5   0  0.2943244E-05  0.2413713E+04  0.7818609E-02  0.8434387E-01
        1   -1    0    0  501    0  0.00000000000E+00  0.00000000000E+00  0.20511804831E+04  0.20511804832E+04  0.50400001928E-02 0.  1.
       -1   -1    0    0    0  501  0.00000000000E+00  0.00000000000E+00 -0.71008024945E+03  0.71008024947E+03  0.50400001928E-02 0. -1.
    10030    2    1    2    0    0  0.00000000000E+00  0.00000000000E+00  0.13411002337E+04  0.27612607326E+04  0.24137131140E+04 0.  0.
        3    1    3    3  502    0 -0.63568364823E+03 -0.58685791113E+03  0.16331382219E+04  0.18481440340E+04  0.10100000352E+00 0.  1.
       -3    1    3    3    0  502  0.63568364823E+03  0.58685791113E+03 -0.29203798821E+03  0.91311669859E+03  0.10100000352E+00 0. -1.
</event>
<event>
 5   0  0.2847158E-05  0.2389560E+04  0.7818609E-02  0.8443422E-01
        1   -1    0    0  501    0  0.00000000000E+00  0.00000000000E+00  0.11781808584E+04  0.11781808584E+04  0.50400001928E-02 0.  1.
       -1   -1    0    0    0  501  0.00000000000E+00  0.00000000000E+00 -0.12116133116E+04  0.12116133116E+04  0.50400001928E-02 0. -1.
    10030    2    1    2    0    0  0.00000000000E+00  0.00000000000E+00 -0.33432453184E+02  0.23897941700E+04  0.23895603040E+04 0.  0.
        5    1    3    3  502    0  0.60466805922E+03 -0.98758209151E+03  0.27748202555E+03  0.11907813459E+04  0.46999998093E+01 0. -1.
       -5    1    3    3    0  502 -0.60466805922E+03  0.98758209151E+03 -0.31091447873E+03  0.11990128241E+04  0.46999998093E+01 0.  1.
</event>
<event>
 5   0  0.6337926E-05  0.2228513E+04  0.7818609E-02  0.8506653E-01
       -2   -1    0    0    0  501  0.00000000000E+00  0.00000000000E+00  0.76379094301E+03  0.76379094301E+03  0.25500000920E-02 0.  1.
        2   -1    0    0  501    0  0.00000000000E+00  0.00000000000E+00 -0.16255330630E+04  0.16255330630E+04  0.25500000920E-02 0. -1.
    10030    2    1    2    0    0  0.00000000000E+00  0.00000000000E+00 -0.86174212000E+03  0.23893240060E+04  0.22285128953E+04 0.  0.
        1    1    3    3  502    0  0.87217638683E+03 -0.67666190767E+03 -0.59348799299E+03  0.12533120062E+04  0.50400001928E-02 0. -1.
       -1    1    3    3    0  502 -0.87217638683E+03  0.67666190767E+03 -0.26825412701E+03  0.11360119998E+04  0.50400001928E-02 0.  1.
</event>
<event>
 5   0  0.6600166E-05  0.2373716E+04  0.7818609E-02  0.8449410E-01
       -2   -1    0    0    0  501  0.00000000000E+00  0.00000000000E+00  0.10379075534E+04  0.10379075534E+04  0.25500000920E-02 0. -1.
        2   -1    0    0  501    0  0.00000000000E+00  0.00000000000E+00 -0.13571846483E+04  0.13571846483E+04  0.25500000920E-02 0.  1.
    10030    2    1    2    0    0  0.00000000000E+00  0.00000000000E+00 -0.31927709486E+03  0.23950922017E+04  0.23737162407E+04 0.  0.
        5    1    3    3  502    0 -0.68352855936E+03 -0.17669585283E+01 -0.11386314410E+04  0.13280504742E+04  0.46999998093E+01 0.  1.
       -5    1    3    3    0  502  0.68352855936E+03  0.17669585283E+01  0.81935434619E+03  0.10670417275E+04  0.46999998093E+01 0. -1.
</event>
<event>
 5   0  0.2847158E-05  0.2404186E+04  0.7818609E-02  0.8437938E-01
        1   -1    0    0  501    0  0.00000000000E+00  0.00000000000E+00  0.17824482426E+04  0.17824482426E+04  0.50400001928E-02 0.  1.
       -1   -1    0    0    0  501  0.00000000000E+00  0.00000000000E+00 -0.81069835542E+03  0.81069835543E+03  0.50400001928E-02 0. -1.
    10030    2    1    2    0    0  0.00000000000E+00  0.00000000000E+00  0.97174988714E+03  0.25931465980E+04  0.24041862315E+04 0.  0.
        5    1    3    3  502    0  0.88582021115E+03  0.80895593384E+03  0.40289575679E+03  0.12654778663E+04  0.46999998093E+01 0. -1.
       -5    1    3    3    0  502 -0.88582021115E+03 -0.80895593384E+03  0.56885413036E+03  0.13276687317E+04  0.46999998093E+01 0.  1.
</event>
<event>
 5   0  0.2943123E-05  0.2197367E+04  0.7818609E-02  0.8519525E-01
        1   -1    0    0  501    0  0.00000000000E+00  0.00000000000E+00  0.81203754710E+03  0.81203754711E+03  0.50400001928E-02 0. -1.
       -1   -1    0    0    0  501  0.00000000000E+00  0.00000000000E+00 -0.14865144723E+04  0.14865144723E+04  0.50400001928E-02 0.  1.
    10030    2    1    2    0    0  0.00000000000E+00  0.00000000000E+00 -0.67447692524E+03  0.22985520195E+04  0.21973671208E+04 0.  0.
        1    1    3    3  502    0  0.27995713622E+03  0.19222885125E+03  0.75575814016E+03  0.82855192704E+03  0.50400001928E-02 0. -1.
       -1    1    3    3    0  502 -0.27995713622E+03 -0.19222885125E+03 -0.14302350654E+04  0.14700000924E+04  0.50400001928E-02 0.  1.
</event>
<event>
 5   0  0.6978115E-05  0.2445235E+04  0.7818609E-02  0.8422760E-01
       -2   -1    0    0    0  501  0.00000000000E+00  0.00000000000E+00  0.12798087516E+04  0.12798087516E+04  0.25500000920E-02 0.  1.
        2   -1    0    0  501    0  0.00000000000E+00  0.00000000000E+00 -0.11679821984E+04  0.11679821984E+04  0.25500000920E-02 0. -1.
    10030    2    1    2    0    0  0.00000000000E+00  0.00000000000E+00  0.11182655319E+03  0.24477909500E+04  0.24452352355E+04 0.  0.
        4    1    3    3  502    0  0.72725214280E+03  0.87020752098E+03 -0.40133038837E+03  0.12030064432E+04  0.12699999809E+01 0. -1.
       -4    1    3    3    0  502 -0.72725214280E+03 -0.87020752098E+03  0.51315694156E+03  0.12447845068E+04  0.12699999809E+01 0.  1.
</event>
<event>
 5   0  0.2943123E-05  0.2383189E+04  0.7818609E-02  0.8445824E-01
        1   -1    0    0  501    0  0.00000000000E+00  0.00000000000E+00  0.23558744840E+04  0.23558744840E+04  0.50400001928E-02 0. -1.
       -1   -1    0    0    0  501  0.00000000000E+00  0.00000000000E+00 -0.60270510913E+03  0.60270510915E+03  0.50400001928E-02 0.  1.
    10030    2    1    2    0    0  0.00000000000E+00  0.00000000000E+00  0.17531693749E+04  0.29585795932E+04  0.23831891138E+04 0.  0.
        1    1    3    3  502    0  0.12078913300E+02  0.94118956830E+03 -0.30526155839E+02  0.94176193905E+03  0.50400001928E-02 0. -1.
       -1    1    3    3    0  502 -0.12078913300E+02 -0.94118956830E+03  0.17836955307E+04  0.20168176541E+04  0.50400001928E-02 0.  1.
</event>
<event>
 5   0  0.6978115E-05  0.1493265E+04  0.7818609E-02  0.8888944E-01
        2   -1    0    0  501    0  0.00000000000E+00  0.00000000000E+00  0.13906766171E+04  0.13906766171E+04  0.25500000920E-02 0. -1.
       -2   -1    0    0    0  501  0.00000000000E+00  0.00000000000E+00 -0.40085504355E+03  0.40085504356E+03  0.25500000920E-02 0.  1.
    10030    2    1    2    0    0  0.00000000000E+00  0.00000000000E+00  0.98982157352E+03  0.17915316606E+04  0.14932645257E+04 0.  0.
        4    1    3    3  502    0  0.42334182401E+03  0.80747180108E+02  0.12263791343E+04  0.12999022275E+04  0.12699999809E+01 0. -1.
       -4    1    3    3    0  502 -0.42334182401E+03 -0.80747180108E+02 -0.23655756081E+03  0.49162943313E+03  0.12699999809E+01 0.  1.
</event>
<event>
 5   0  0.6337926E-05  0.2448441E+04  0.7818609E-02  0.8421587E-01
        2   -1    0    0  501    0  0.00000000000E+00  0.00000000000E+00  0.10229369632E+04  0.10229369633E+04  0.25500000920E-02 0.  1.
       -2   -1    0    0    0  501  0.00000000000E+00  0.00000000000E+00 -0.14651109706E+04  0.14651109706E+04  0.25500000920E-02 0. -1.
    10030    2    1    2    0    0  0.00000000000E+00  0.00000000000E+00 -0.44217400736E+03  0.24880479339E+04  0.24484412732E+04 0.  0.
        1    1    3    3  502    0 -0.70204439866E+03  0.93354842327E+03 -0.59353629316E+03  0.13102153745E+04  0.50400001928E-02 0. -1.
       -1    1    3    3    0  502  0.70204439866E+03 -0.93354842327E+03  0.15136228580E+03  0.11778325594E+04  0.50400001928E-02 0.  1.
</event>
<event>
 5   0  0.6600166E-05  0.2354178E+04  0.7818609E-02  0.8456861E-01
        2   -1    0    0  501    0  0.00000000000E+00  0.00000000000E+00  0.14650503556E+04  0.14650503556E+04  0.25500000920E-02 0.  1.
       -2   -1    0    0    0  501  0.00000000000E+00  0.00000000000E+00 -0.94572768471E+03  0.94572768472E+03  0.25500000920E-02 0. -1.
    10030    2    1    2    0    0  0.00000000000E+00  0.00000000000E+00  0.51932267086E+03  0.24107780403E+04  0.23541781417E+04 0.  0.
        5    1    3    3  502    0  0.33870166162E+03 -0.16892567543E+03  0.14010261630E+04  0.14512584535E+04  0.46999998093E+01 0.  1.
       -5    1    3    3    0  502 -0.33870166162E+03  0.16892567543E+03 -0.88170349214E+03  0.95951958680E+03  0.46999998093E+01 0. -1.
</event>
<event>
 5   0  0.2943123E-05  0.2566838E+04  0.7818609E-02  0.8379554E-01
        1   -1    0    0  501    0  0.00000000000E+00  0.00000000000E+00  0.20133769882E+04  0.20133769882E+04  0.50400001928E-02 0.  1.
       -1   -1    0    0    0  501  0.00000000000E+00  0.00000000000E+00 -0.81811039844E+03  0.81811039845E+03  0.50400001928E-02 0. -1.
    10030    2    1    2    0    0  0.00000000000E+00  0.00000000000E+00  0.11952665897E+04  0.28314873866E+04  0.25668382497E+04 0.  0.
        1    1    3    3  502    0  0.24728577325E+03  0.72844654706E+03 -0.53560323084E+03  0.93736622858E+03  0.50400001928E-02 0. -1.
       -1    1    3    3    0  502 -0.24728577325E+03 -0.72844654706E+03  0.17308698206E+04  0.18941211580E+04  0.50400001928E-02 0.  1.
</event>
<event>
 5   0  0.2847158E-05  0.2389241E+04  0.7818609E-02  0.8443543E-01
       -1   -1    0    0    0  501  0.00000000000E+00  0.00000000000E+00  0.81235044111E+03  0.81235044112E+03  0.50400001928E-02 0. -1.
        1   -1    0    0  501    0  0.00000000000E+00  0.00000000000E+00 -0.17567762941E+04  0.17567762941E+04  0.50400001928E-02 0.  1.
    10030    2    1    2    0    0  0.00000000000E+00  0.00000000000E+00 -0.94442585300E+03  0.25691267352E+04  0.23892408815E+04 0.  0.
        5    1    3    3  502    0 -0.21145106214E+03 -0.10185185059E+04  0.15938095459E+03  0.10523858025E+04  0.46999998093E+01 0. -1.
       -5    1    3    3    0  502  0.21145106214E+03  0.10185185059E+04 -0.11038068076E+04  0.15167409327E+04  0.46999998093E+01 0.  1.
</event>
<event>
 5   0  0.6978115E-05  0.2493602E+04  0.7818609E-02  0.8405268E-01
       -2   -1    0    0    0  501  0.00000000000E+00  0.00000000000E+00  0.65069693104E+03  0.65069693104E+03  0.25500000920E-02 0.  1.
        2   -1    0    0  501    0  0.00000000000E+00  0.00000000000E+00 -0.23889964736E+04  0.23889964736E+04  0.25500000920E-02 0. -1.
    10030    2    1    2    0    0  0.00000000000E+00  0.00000000000E+00 -0.17382995426E+04  0.30396934047E+04  0.24936019519E+04 0.  0.
        4    1    3    3  502    0  0.16917581445E+03 -0.39880861100E+03 -0.22943039701E+04  0.23348449808E+04  0.12699999809E+01 0. -1.
       -4    1    3    3    0  502 -0.16917581445E+03  0.39880861100E+03  0.55600442746E+03  0.70484842389E+03  0.12699999809E+01 0.  1.
</event>
<event>
 5   0  0.2901816E-05  0.2360424E+04  0.7818609E-02  0.8454471E-01
        1   -1    0    0  501    0  0.00000000000E+00  0.00000000000E+00  0.20783046468E+04  0.20783046468E+04  0.50400001928E-02 0. -1.
       -1   -1    0    0    0  501  0.00000000000E+00  0.00000000000E+00 -0.67020995367E+03  0.67020995369E+03  0.50400001928E-02 0.  1.
    10030    2    1    2    0    0  0.00000000000E+00  0.00000000000E+00  0.14080946931E+04  0.27485146005E+04  0.23604240814E+04 0.  0.
        4    1    3    3  502    0  0.54923614698E+03 -0.45974059028E+03  0.17962897105E+04  0.19338252487E+04  0.12699999809E+01 0. -1.
       -4    1    3    3    0  502 -0.54923614698E+03  0.45974059028E+03 -0.38819501739E+03  0.81468935180E+03  0.12699999809E+01 0.  1.
</event>
<event>
 5   0  0.6978115E-05  0.2361523E+04  0.7818609E-02  0.8454051E-01
       -2   -1    0    0    0  501  0.00000000000E+00  0.00000000000E+00  0.29948175321E+04  0.29948175321E+04  0.25500000920E-02 0. -1.
        2   -1    0    0  501    0  0.00000000000E+00  0.00000000000E+00 -0.46553677886E+03  0.46553677886E+03  0.25500000920E-02 0.  1.
    10030    2    1    2    0    0  0.00000000000E+00  0.00000000000E+00  0.25292807532E+04  0.34603543109E+04  0.23615229892E+04 0.  0.
        4    1    3    3  502    0  0.11588774903E+04  0.16964160043E+03  0.14840490494E+04  0.18905497888E+04  0.12699999809E+01 0.  1.
       -4    1    3    3    0  502 -0.11588774903E+04 -0.16964160043E+03  0.10452317038E+04  0.15698045221E+04  0.12699999809E+01 0. -1.
</event>
<event>
 5   0  0.2915546E-05  0.2428658E+04  0.7818609E-02  0.8428852E-01
       -1   -1    0    0    0  501  0.00000000000E+00  0.00000000000E+00  0.14078455355E+04  0.14078455355E+04  0.50400001928E-02 0. -1.
        1   -1    0    0  501    0  0.00000000000E+00  0.00000000000E+00 -0.10474127729E+04  0.10474127729E+04  0.50400001928E-02 0.  1.
    10030    2    1    2    0    0  0.00000000000E+00  0.00000000000E+00  0.36043276262E+03  0.24552583084E+04  0.24286583919E+04 0.  0.
        2    1    3    3  502    0 -0.66268178906E+03 -0.45207059160E+03  0.11018372134E+04  0.13629234087E+04  0.25500000920E-02 0. -1.
       -2    1    3    3    0  502  0.66268178906E+03  0.45207059160E+03 -0.74140445074E+03  0.10923348996E+04  0.25500000920E-02 0.  1.
</event>
<event>
 5   0  0.6337926E-05  0.2481729E+04  0.7818609E-02  0.8409524E-01
        2   -1    0    0  501    0  0.00000000000E+00  0.00000000000E+00  0.77800885865E+03  0.77800885866E+03  0.25500000920E-02 0. -1.
       -2   -1    0    0    0  501  0.00000000000E+00  0.00000000000E+00 -0.19790836921E+04  0.19790836922E+04  0.25500000920E-02 0.  1.
    10030    2    1    2    0    0  0.00000000000E+00  0.00000000000E+00 -0.12010748335E+04  0.27570925508E+04  0.24817289494E+04 0.  0.
        1    1    3    3  502    0 -0.39595995607E+03  0.31282892334E+03 -0.18599417792E+04  0.19271817880E+04  0.50400001928E-02 0.  1.
       -1    1    3    3    0  502  0.39595995607E+03 -0.31282892334E+03  0.65886694567E+03  0.82991076280E+03  0.50400001928E-02 0. -1.
</event>
<event>
 5   0  0.2943123E-05  0.2379338E+04  0.7818609E-02  0.8447280E-01
        1   -1    0    0  501    0  0.00000000000E+00  0.00000000000E+00  0.11948395080E+04  0.11948395080E+04  0.50400001928E-02 0.  1.
       -1   -1    0    0    0  501  0.00000000000E+00  0.00000000000E+00 -0.11845205408E+04  0.11845205409E+04  0.50400001928E-02 0. -1.
    10030    2    1    2    0    0  0.00000000000E+00  0.00000000000E+00  0.10318967163E+02  0.23793600489E+04  0.23793376728E+04 0.  0.
        1    1    3    3  502    0 -0.19622601143E+03  0.73845603642E+03  0.91702878028E+03  0.11936346799E+04  0.50400001928E-02 0.  1.
       -1    1    3    3    0  502  0.19622601143E+03 -0.73845603642E+03 -0.90670981312E+03  0.11857253689E+04  0.50400001928E-02 0. -1.
</event>
<event>
 5   0  0.2943123E-05  0.2384928E+04  0.7818609E-02  0.8445168E-01
       -1   -1    0    0    0  501  0.00000000000E+00  0.00000000000E+00  0.83251733521E+03  0.83251733523E+03  0.50400001928E-02 0.  1.
        1   -1    0    0  501    0  0.00000000000E+00  0.00000000000E+00 -0.17080369346E+04  0.17080369347E+04  0.50400001928E-02 0. -1.
    10030    2    1    2    0    0  0.00000000000E+00  0.00000000000E+00 -0.87551959943E+03  0.25405542699E+04  0.23849279715E+04 0.  0.
        1    1    3    3  502    0 -0.97311512275E+02  0.89683193706E+03  0.39299723274E+03  0.98398367808E+03  0.50400001928E-02 0.  1.
       -1    1    3    3    0  502  0.97311512275E+02 -0.89683193706E+03 -0.12685168322E+04  0.15565705918E+04  0.50400001928E-02 0. -1.
</event>
<event>
 5   0  0.2943244E-05  0.2411713E+04  0.7818609E-02  0.8435131E-01
        1   -1    0    0  501    0  0.00000000000E+00  0.00000000000E+00  0.21043351320E+04  0.21043351320E+04  0.50400001928E-02 0.  1.
       -1   -1    0    0    0  501  0.00000000000E+00  0.00000000000E+00 -0.69099722819E+03  0.69099722821E+03  0.50400001928E-02 0. -1.
    10030    2    1    2    0    0  0.00000000000E+00  0.00000000000E+00  0.14133379038E+04  0.27953323602E+04  0.24117128713E+04 0.  0.
        3    1    3    3  502    0 -0.55586113368E+03 -0.10502571877E+04  0.94439876205E+03  0.15178638912E+04  0.10100000352E+00 0.  1.
       -3    1    3    3    0  502  0.55586113368E+03  0.10502571877E+04  0.46893914176E+03  0.12774684690E+04  0.10100000352E+00 0. -1.
</event>
<event>
 5   0  0.6714629E-05  0.2451269E+04  0.7818609E-02  0.8420555E-01
       -2   -1    0    0    0  501  0.00000000000E+00  0.00000000000E+00  0.67441355351E+03  0.67441355352E+03  0.25500000920E-02 0. -1.
        2   -1    0    0  501    0  0.00000000000E+00  0.00000000000E+00 -0.22273871634E+04  0.22273871634E+04  0.25500000920E-02 0.  1.
    10030    2    1    2    0    0  0.00000000000E+00  0.00000000000E+00 -0.15529736099E+04  0.29018007170E+04  0.24512691341E+04 0.  0.
        3    1    3    3  502    0  0.63932034111E+03  0.73778378651E+03  0.10074034324E+03  0.98142959052E+03  0.10100000352E+00 0. -1.
       -3    1    3    3    0  502 -0.63932034111E+03 -0.73778378651E+03 -0.16537139532E+04  0.19203711264E+04  0.10100000352E+00 0.  1.
</event>
<event>
 5   0  0.6703961E-05  0.2405042E+04  0.7818609E-02  0.8437618E-01
       -2   -1    0    0    0  501  0.00000000000E+00  0.00000000000E+00  0.11034578823E+04  0.11034578823E+04  0.25500000920E-02 0.  1.
        2   -1    0    0  501    0  0.00000000000E+00  0.00000000000E+00 -0.13104775090E+04  0.13104775090E+04  0.25500000920E-02 0. -1.
    10030    2    1    2    0    0  0.00000000000E+00  0.00000000000E+00 -0.20701962672E+03  0.24139353913E+04  0.24050419845E+04 0.  0.
        2    1    3    3  502    0  0.98693665852E+03 -0.60366797203E+03 -0.43274373235E+03  0.12352028685E+04  0.25500000920E-02 0. -1.
       -2    1    3    3    0  502 -0.98693665852E+03  0.60366797203E+03  0.22572410563E+03  0.11787325228E+04  0.25500000920E-02 0.  1.
</event>
<event>
 5   0  0.2901816E-05  0.2437701E+04  0.7818609E-02  0.8425522E-01
        1   -1    0    0  501    0  0.00000000000E+00  0.00000000000E+00  0.12996362217E+04  0.12996362217E+04  0.50400001928E-02 0.  1.
       -1   -1    0    0    0  501  0.00000000000E+00  0.00000000000E+00 -0.11430862331E+04  0.11430862331E+04  0.50400001928E-02 0. -1.
    10030    2    1    2    0    0  0.00000000000E+00  0.00000000000E+00  0.15654998863E+03  0.24427224549E+04  0.24377007799E+04 0.  0.
        4    1    3    3  502    0 -0.10741296819E+04 -0.57452239216E+03  0.12036279820E+03  0.12240585643E+04  0.12699999809E+01 0. -1.
       -4    1    3    3    0  502  0.10741296819E+04  0.57452239216E+03  0.36187190423E+02  0.12186638906E+04  0.12699999809E+01 0.  1.
</event>
<event>
 5   0  0.6337926E-05  0.2419953E+04  0.7818609E-02  0.8432071E-01
       -2   -1    0    0    0  501  0.00000000000E+00  0.00000000000E+00  0.63327777555E+03  0.63327777555E+03  0.25500000920E-02 0.  1.
        2   -1    0    0  501    0  0.00000000000E+00  0.00000000000E+00 -0.23118499550E+04  0.23118499550E+04  0.25500000920E-02 0. -1.
    10030    2    1    2    0    0  0.00000000000E+00  0.00000000000E+00 -0.16785721795E+04  0.29451277306E+04  0.24199530549E+04 0.  0.
        1    1    3    3  502    0  0.94505365727E+03 -0.53837260681E+02  0.77944161105E+02  0.94978953355E+03  0.50400001928E-02 0.  1.
       -1    1    3    3    0  502 -0.94505365727E+03  0.53837260681E+02 -0.17565163406E+04  0.19953381970E+04  0.50400001928E-02 0. -1.
</event>
<event>
 5   0  0.6600166E-05  0.2461433E+04  0.7818609E-02  0.8416855E-01
        2   -1    0    0  501    0  0.00000000000E+00  0.00000000000E+00  0.16259848125E+04  0.16259848125E+04  0.25500000920E-02 0.  1.
       -2   -1    0    0    0  501  0.00000000000E+00  0.00000000000E+00 -0.93153576083E+03  0.93153576083E+03  0.25500000920E-02 0. -1.
    10030    2    1    2    0    0  0.00000000000E+00  0.00000000000E+00  0.69444905171E+03  0.25575205734E+04  0.24614329155E+04 0.  0.
        5    1    3    3  502    0  0.61574798450E+03 -0.40063311750E+03 -0.67873650208E+03  0.10001788863E+04  0.46999998093E+01 0. -1.
       -5    1    3    3    0  502 -0.61574798450E+03  0.40063311750E+03  0.13731855538E+04  0.15573416871E+04  0.46999998093E+01 0.  1.
</event>
<event>
 5   0  0.2901816E-05  0.2387132E+04  0.7818609E-02  0.8444337E-01
        1   -1    0    0  501    0  0.00000000000E+00  0.00000000000E+00  0.14988803518E+04  0.14988803518E+04  0.50400001928E-02 0.  1.
       -1   -1    0    0    0  501  0.00000000000E+00  0.00000000000E+00 -0.95044286744E+03  0.95044286746E+03  0.50400001928E-02 0. -1.
    10030    2    1    2    0    0  0.00000000000E+00  0.00000000000E+00  0.54843748434E+03  0.24493232193E+04  0.23871322875E+04 0.  0.
        4    1    3    3  502    0  0.64274660613E+03 -0.60463427967E+03 -0.55039355243E+03  0.10400194649E+04  0.12699999809E+01 0. -1.
       -4    1    3    3    0  502 -0.64274660613E+03  0.60463427967E+03  0.10988310368E+04  0.14093037544E+04  0.12699999809E+01 0.  1.
</event>
<event>
 5   0  0.6337926E-05  0.2230520E+04  0.7818609E-02  0.8505832E-01
        2   -1    0    0  501    0  0.00000000000E+00  0.00000000000E+00  0.14774768289E+04  0.14774768289E+04  0.25500000920E-02 0.  1.
       -2   -1    0    0    0  501  0.00000000000E+00  0.00000000000E+00 -0.84184361963E+03  0.84184361963E+03  0.25500000920E-02 0. -1.
    10030    2    1    2    0    0  0.00000000000E+00  0.00000000000E+00  0.63563320927E+03  0.23193204485E+04  0.22305196180E+04 0.  0.
        1    1    3    3  502    0 -0.26850416587E+03 -0.52617293735E+03 -0.66581010889E+03  0.89008738234E+03  0.50400001928E-02 0. -1.
       -1    1    3    3    0  502  0.26850416587E+03  0.52617293735E+03  0.13014433182E+04  0.14292330662E+04  0.50400001928E-02 0.  1.
</event>
<event>
 5   0  0.2943123E-05  0.2376881E+04  0.7818609E-02  0.8448210E-01
       -1   -1    0    0    0  501  0.00000000000E+00  0.00000000000E+00  0.13391491073E+04  0.13391491073E+04  0.50400001928E-02 0.  1.
        1   -1    0    0  501    0  0.00000000000E+00  0.00000000000E+00 -0.10546926893E+04  0.10546926893E+04  0.50400001928E-02 0. -1.
    10030    2    1    2    0    0  0.00000000000E+00  0.00000000000E+00  0.28445641802E+03  0.23938417966E+04  0.23768809591E+04 0.  0.
        1    1    3    3  502    0  0.69757090999E+02 -0.11002617414E+04  0.58918414325E+03  0.12500319620E+04  0.50400001928E-02 0.  1.
       -1    1    3    3    0  502 -0.69757090999E+02  0.11002617414E+04 -0.30472772522E+03  0.11438098347E+04  0.50400001928E-02 0. -1.
</event>
<event>
 5   0  0.6337926E-05  0.2390876E+04  0.7818609E-02  0.8442927E-01
        2   -1    0    0  501    0  0.00000000000E+00  0.00000000000E+00  0.25598315062E+04  0.25598315062E+04  0.25500000920E-02 0.  1.
       -2   -1    0    0    0  501  0.00000000000E+00  0.00000000000E+00 -0.55826801023E+03  0.55826801023E+03  0.25500000920E-02 0. -1.
    10030    2    1    2    0    0  0.00000000000E+00  0.00000000000E+00  0.20015634960E+04  0.31180995165E+04  0.23908760248E+04 0.  0.
        1    1    3    3  502    0 -0.84138152332E+03  0.71100441276E+03  0.16063726582E+04  0.19477893264E+04  0.50400001928E-02 0.  1.
       -1    1    3    3    0  502  0.84138152332E+03 -0.71100441276E+03  0.39519083775E+03  0.11703101901E+04  0.50400001928E-02 0. -1.
</event>
<event>
 5   0  0.2901816E-05  0.2368818E+04  0.7818609E-02  0.8451271E-01
       -1   -1    0    0    0  501  0.00000000000E+00  0.00000000000E+00  0.12419506826E+04  0.12419506826E+04  0.50400001928E-02 0. -1.
        1   -1    0    0  501    0  0.00000000000E+00  0.00000000000E+00 -0.11295330678E+04  0.11295330679E+04  0.50400001928E-02 0.  1.
    10030    2    1    2    0    0  0.00000000000E+00  0.00000000000E+00  0.11241761480E+03  0.23714837505E+04  0.23688177344E+04 0.  0.
        4    1    3    3  502    0  0.10594520659E+04 -0.34514711108E+03 -0.34581199615E+03  0.11666845151E+04  0.12699999809E+01 0.  1.
       -4    1    3    3    0  502 -0.10594520659E+04  0.34514711108E+03  0.45822961095E+03  0.12047992354E+04  0.12699999809E+01 0. -1.
</event>
<event>
 5   0  0.6703961E-05  0.2400762E+04  0.7818609E-02  0.8439219E-01
       -2   -1    0    0    0  501  0.00000000000E+00  0.00000000000E+00  0.10982647399E+04  0.10982647399E+04  0.25500000920E-02 0.  1.
        2   -1    0    0  501    0  0.00000000000E+00  0.00000000000E+00 -0.13119914546E+04  0.13119914546E+04  0.25500000920E-02 0. -1.
    10030    2    1    2    0    0  0.00000000000E+00  0.00000000000E+00 -0.21372671474E+03  0.24102561945E+04  0.24007615072E+04 0.  0.
        2    1    3    3  502    0  0.84694836473E+03 -0.20220482313E+03 -0.93639113009E+03  0.12786855249E+04  0.25500000920E-02 0.  1.
       -2    1    3    3    0  502 -0.84694836473E+03  0.20220482313E+03  0.72266441535E+03  0.11315706696E+04  0.25500000920E-02 0. -1.
</event>
<event>
 5   0  0.6703961E-05  0.2293950E+04  0.7818609E-02  0.8480311E-01
       -2   -1    0    0    0  501  0.00000000000E+00  0.00000000000E+00  0.63394131024E+03  0.63394131024E+03  0.25500000920E-02 0. -1.
        2   -1    0    0  501    0  0.00000000000E+00  0.00000000000E+00 -0.20751938191E+04  0.20751938191E+04  0.25500000920E-02 0.  1.
    10030    2    1    2    0    0  0.00000000000E+00  0.00000000000E+00 -0.14412525089E+04  0.27091351293E+04  0.22939495101E+04 0.  0.
        2    1    3    3  502    0 -0.10794368017E+04 -0.28728865317E+03 -0.41304082752E+03  0.11909329554E+04  0.25500000920E-02 0. -1.
       -2    1    3    3    0  502  0.10794368017E+04  0.28728865317E+03 -0.10282116813E+04  0.15182021739E+04  0.25500000920E-02 0.  1.
</event>
<event>
 5   0  0.2901816E-05  0.1977553E+04  0.7818609E-02  0.8617188E-01
       -1   -1    0    0    0  501  0.00000000000E+00  0.00000000000E+00  0.83548135612E+03  0.83548135614E+03  0.50400001928E-02 0.  1.
        1   -1    0    0  501    0  0.00000000000E+00  0.00000000000E+00 -0.11701985829E+04  0.11701985829E+04  0.50400001928E-02 0. -1.
    10030    2    1    2    0    0  0.00000000000E+00  0.00000000000E+00 -0.33471722681E+03  0.20056799391E+04  0.19775531336E+04 0.  0.
        4    1    3    3  502    0  0.58147051032E+03 -0.29211236323E+03 -0.92242017691E+03  0.11288481664E+04  0.12699999809E+01 0. -1.
       -4    1    3    3    0  502 -0.58147051032E+03  0.29211236323E+03  0.58770295010E+03  0.87683177268E+03  0.12699999809E+01 0.  1.
</event>
<event>
 5   0  0.2847158E-05  0.1751287E+04  0.7818609E-02  0.8732642E-01
       -1   -1    0    0    0  501  0.00000000000E+00  0.00000000000E+00  0.51755819731E+03  0.51755819733E+03  0.50400001928E-02 0.  1.
        1   -1    0    0  501    0  0.00000000000E+00  0.00000000000E+00 -0.14814793210E+04  0.14814793210E+04  0.50400001928E-02 0. -1.
    10030    2    1    2    0    0  0.00000000000E+00  0.00000000000E+00 -0.96392112371E+03  0.19990375184E+04  0.17512872600E+04 0.  0.
        5    1    3    3  502    0 -0.22825784322E+03 -0.87865833926E+02 -0.14416813259E+04  0.14622890218E+04  0.46999998093E+01 0. -1.
       -5    1    3    3    0  502  0.22825784322E+03  0.87865833926E+02  0.47776020221E+03  0.53674849657E+03  0.46999998093E+01 0.  1.
</event>
<event>
 5   0  0.2915546E-05  0.2377466E+04  0.7818609E-02  0.8447988E-01
        1   -1    0    0  501    0  0.00000000000E+00  0.00000000000E+00  0.15252120849E+04  0.15252120849E+04  0.50400001928E-02 0. -1.
       -1   -1    0    0    0  501  0.00000000000E+00  0.00000000000E+00 -0.92648500706E+03  0.92648500708E+03  0.50400001928E-02 0.  1.
    10030    2    1    2    0    0  0.00000000000E+00  0.00000000000E+00  0.59872707787E+03  0.24516970920E+04  0.23774659866E+04 0.  0.
        2    1    3    3  502    0 -0.45196568012E+02 -0.75215231980E+03  0.12474775766E+04  0.14573867524E+04  0.25500000920E-02 0. -1.
       -2    1    3    3    0  502  0.45196568012E+02  0.75215231980E+03 -0.64875049871E+03  0.99431033964E+03  0.25500000920E-02 0.  1.
</event>
<event>
 5   0  0.6714629E-05  0.2402173E+04  0.7818609E-02  0.8438690E-01
       -2   -1    0    0    0  501  0.00000000000E+00  0.00000000000E+00  0.16534473320E+04  0.16534473320E+04  0.25500000920E-02 0. -1.
        2   -1    0    0  501    0  0.00000000000E+00  0.00000000000E+00 -0.87248571300E+03  0.87248571300E+03  0.25500000920E-02 0.  1.
    10030    2    1    2    0    0  0.00000000000E+00  0.00000000000E+00  0.78096161902E+03  0.25259330450E+04  0.24021733280E+04 0.  0.
        3    1    3    3  502    0 -0.11201565127E+04 -0.38266836358E+03  0.17646751263E+03  0.11967984302E+04  0.10100000352E+00 0.  1.
       -3    1    3    3    0  502  0.11201565127E+04  0.38266836358E+03  0.60449410639E+03  0.13291346148E+04  0.10100000352E+00 0. -1.
</event>
<event>
 5   0  0.2915546E-05  0.2469718E+04  0.7818609E-02  0.8413854E-01
        1   -1    0    0  501    0  0.00000000000E+00  0.00000000000E+00  0.19028067142E+04  0.19028067142E+04  0.50400001928E-02 0. -1.
       -1   -1    0    0    0  501  0.00000000000E+00  0.00000000000E+00 -0.80138276671E+03  0.80138276673E+03  0.50400001928E-02 0.  1.
    10030    2    1    2    0    0  0.00000000000E+00  0.00000000000E+00  0.11014239475E+04  0.27041894810E+04  0.24697178051E+04 0.  0.
        2    1    3    3  502    0 -0.29837631697E+03 -0.62987191835E+03 -0.56543255161E+03  0.89748595002E+03  0.25500000920E-02 0.  1.
       -2    1    3    3    0  502  0.29837631697E+03  0.62987191835E+03  0.16668564991E+04  0.18067035309E+04  0.25500000920E-02 0. -1.
</event>
<event>
 5   0  0.2943123E-05  0.2163614E+04  0.7818609E-02  0.8533727E-01
        1   -1    0    0  501    0  0.00000000000E+00  0.00000000000E+00  0.18248921565E+04  0.18248921565E+04  0.50400001928E-02 0. -1.
       -1   -1    0    0    0  501  0.00000000000E+00  0.00000000000E+00 -0.64130140703E+03  0.64130140705E+03  0.50400001928E-02 0.  1.
    10030    2    1    2    0    0  0.00000000000E+00  0.00000000000E+00  0.11835907495E+04  0.24661935635E+04  0.21636135585E+04 0.  0.
        1    1    3    3  502    0 -0.55317794222E+03 -0.56729694594E+03 -0.24773618819E+03  0.83018364209E+03  0.50400001928E-02 0.  1.
       -1    1    3    3    0  502  0.55317794222E+03  0.56729694594E+03  0.14313269377E+04  0.16360099215E+04  0.50400001928E-02 0. -1.
</event>
<event>
 5   0  0.6337926E-05  0.2374730E+04  0.7818609E-02  0.8449025E-01
        2   -1    0    0  501    0  0.00000000000E+00  0.00000000000E+00  0.86299688925E+03  0.86299688926E+03  0.25500000920E-02 0.  1.
       -2   -1    0    0    0  501  0.00000000000E+00  0.00000000000E+00 -0.16336505984E+04  0.16336505984E+04  0.25500000920E-02 0. -1.
    10030    2    1    2    0    0  0.00000000000E+00  0.00000000000E+00 -0.77065370911E+03  0.24966474876E+04  0.23747297821E+04 0.  0.
        1    1    3    3  502    0 -0.11858719225E+04 -0.82921800842E+01 -0.32335658124E+03  0.12291950437E+04  0.50400001928E-02 0.  1.
       -1    1    3    3    0  502  0.11858719225E+04  0.82921800842E+01 -0.44729712787E+03  0.12674524439E+04  0.50400001928E-02 0. -1.
</event>
<event>
 5   0  0.2847158E-05  0.2385881E+04  0.7818609E-02  0.8444808E-01
       -1   -1    0    0    0  501  0.00000000000E+00  0.00000000000E+00  0.62786893190E+03  0.62786893192E+03  0.50400001928E-02 0.  1.
        1   -1    0    0  501    0  0.00000000000E+00  0.00000000000E+00 -0.22665676463E+04  0.22665676463E+04  0.50400001928E-02 0. -1.
    10030    2    1    2    0    0  0.00000000000E+00  0.00000000000E+00 -0.16386987144E+04  0.28944365782E+04  0.23858813107E+04 0.  0.
        5    1    3    3  502    0 -0.53997144694E+03 -0.10348978499E+04 -0.52094703415E+03  0.12782764277E+04  0.46999998093E+01 0.  1.
       -5    1    3    3    0  502  0.53997144694E+03  0.10348978499E+04 -0.11177516802E+04  0.16161601505E+04  0.46999998093E+01 0. -1.
</event>
<event>
 5   0  0.2847158E-05  0.2367198E+04  0.7818609E-02  0.8451887E-01
        1   -1    0    0  501    0  0.00000000000E+00  0.00000000000E+00  0.70765763838E+03  0.70765763839E+03  0.50400001928E-02 0. -1.
       -1   -1    0    0    0  501  0.00000000000E+00  0.00000000000E+00 -0.19796387443E+04  0.19796387443E+04  0.50400001928E-02 0.  1.
    10030    2    1    2    0    0  0.00000000000E+00  0.00000000000E+00 -0.12719811059E+04  0.26872963827E+04  0.23671979035E+04 0.  0.
        5    1    3    3  502    0  0.77949612807E+02  0.67956521937E+03 -0.17325234683E+04  0.18626713848E+04  0.46999998093E+01 0.  1.
       -5    1    3    3    0  502 -0.77949612807E+02 -0.67956521937E+03  0.46054236242E+03  0.82462499786E+03  0.46999998093E+01 0. -1.
</event>
<event>
 5   0  0.6703961E-05  0.2385830E+04  0.7818609E-02  0.8444828E-01
        2   -1    0    0  501    0  0.00000000000E+00  0.00000000000E+00  0.13610746455E+04  0.13610746455E+04  0.25500000920E-02 0. -1.
       -2   -1    0    0    0  501  0.00000000000E+00  0.00000000000E+00 -0.10455316863E+04  0.10455316863E+04  0.25500000920E-02 0.  1.
    10030    2    1    2    0    0  0.00000000000E+00  0.00000000000E+00  0.31554295921E+03  0.24066063319E+04  0.23858303958E+04 0.  0.
        2    1    3    3  502    0 -0.48105020909E+02  0.15491663636E+03 -0.10343547646E+04  0.10469971520E+04  0.25500000920E-02 0.  1.
       -2    1    3    3    0  502  0.48105020909E+02 -0.15491663636E+03  0.13498977238E+04  0.13596091799E+04  0.25500000920E-02 0. -1.
</event>
<event>
 5   0  0.6703961E-05  0.2321408E+04  0.7818609E-02  0.8469528E-01
       -2   -1    0    0    0  501  0.00000000000E+00  0.00000000000E+00  0.79580053633E+03  0.79580053633E+03  0.25500000920E-02 0. -1.
        2   -1    0    0  501    0  0.00000000000E+00  0.00000000000E+00 -0.16929295703E+04  0.16929295703E+04  0.25500000920E-02 0.  1.
    10030    2    1    2    0    0  0.00000000000E+00  0.00000000000E+00 -0.89712903396E+03  0.24887301066E+04  0.23214084173E+04 0.  0.
        2    1    3    3  502    0 -0.64701013471E+02 -0.48664883681E+03 -0.15761440543E+04  0.16508311214E+04  0.25500000920E-02 0.  1.
       -2    1    3    3    0  502  0.64701013471E+02  0.48664883681E+03  0.67901502036E+03  0.83789898519E+03  0.25500000920E-02 0. -1.
</event>
<event>
 5   0  0.2943244E-05  0.2401382E+04  0.7818609E-02  0.8438986E-01
        1   -1    0    0  501    0  0.00000000000E+00  0.00000000000E+00  0.19022168290E+04  0.19022168290E+04  0.50400001928E-02 0.  1.
       -1   -1    0    0    0  501  0.00000000000E+00  0.00000000000E+00 -0.75788367071E+03  0.75788367073E+03  0.50400001928E-02 0. -1.
    10030    2    1    2    0    0  0.00000000000E+00  0.00000000000E+00  0.11443331583E+04  0.26601004997E+04  0.24013821627E+04 0.  0.
        3    1    3    3  502    0 -0.28104702243E+03 -0.86043043600E+03 -0.30170480118E+03  0.95412460469E+03  0.10100000352E+00 0. -1.
       -3    1    3    3    0  502  0.28104702243E+03  0.86043043600E+03  0.14460379595E+04  0.17059758950E+04  0.10100000352E+00 0.  1.
</event>
<event>
 5   0  0.6600166E-05  0.2445698E+04  0.7818609E-02  0.8422591E-01
        2   -1    0    0  501    0  0.00000000000E+00  0.00000000000E+00  0.15913457779E+04  0.15913457779E+04  0.25500000920E-02 0. -1.
       -2   -1    0    0    0  501  0.00000000000E+00  0.00000000000E+00 -0.93968214321E+03  0.93968214321E+03  0.25500000920E-02 0.  1.
    10030    2    1    2    0    0  0.00000000000E+00  0.00000000000E+00  0.65166363471E+03  0.25310279211E+04  0.24456976192E+04 0.  0.
        5    1    3    3  502    0 -0.11532034257E+04  0.32486716812E+03  0.57915864024E+03  0.13307380052E+04  0.46999998093E+01 0. -1.
       -5    1    3    3    0  502  0.11532034257E+04 -0.32486716812E+03  0.72504994476E+02  0.12002899159E+04  0.46999998093E+01 0.  1.
</event>
<event>
 5   0  0.2901816E-05  0.2382393E+04  0.7818609E-02  0.8446125E-01
       -1   -1    0    0    0  501  0.00000000000E+00  0.00000000000E+00  0.14074326344E+04  0.14074326344E+04  0.50400001928E-02 0. -1.
        1   -1    0    0  501    0  0.00000000000E+00  0.00000000000E+00 -0.10081826617E+04  0.10081826617E+04  0.50400001928E-02 0.  1.
    10030    2    1    2    0    0  0.00000000000E+00  0.00000000000E+00  0.39924997268E+03  0.24156152961E+04  0.23823930654E+04 0.  0.
        4    1    3    3  502    0 -0.16304638800E+03 -0.66348908617E+03 -0.78976168199E+03  0.10442830169E+04  0.12699999809E+01 0.  1.
       -4    1    3    3    0  502  0.16304638800E+03  0.66348908617E+03  0.11890116547E+04  0.13713322792E+04  0.12699999809E+01 0. -1.
</event>
<event>
 5   0  0.6703961E-05  0.2348511E+04  0.7818609E-02  0.8459036E-01
        2   -1    0    0  501    0  0.00000000000E+00  0.00000000000E+00  0.57402983339E+03  0.57402983340E+03  0.25500000920E-02 0. -1.
       -2   -1    0    0    0  501  0.00000000000E+00  0.00000000000E+00 -0.24020973459E+04  0.24020973459E+04  0.25500000920E-02 0.  1.
    10030    2    1    2    0    0  0.00000000000E+00  0.00000000000E+00 -0.18280675125E+04  0.29761271792E+04  0.23485106253E+04 0.  0.
        2    1    3    3  502    0  0.26638655456E+03  0.22933937517E+03  0.50579410903E+03  0.61594320046E+03  0.25500000920E-02 0. -1.
       -2    1    3    3    0  502 -0.26638655456E+03 -0.22933937517E+03 -0.23338616215E+04  0.23601839788E+04  0.25500000920E-02 0.  1.
</event>
<event>
 5   0  0.2943244E-05  0.2484323E+04  0.7818609E-02  0.8408592E-01
       -1   -1    0    0    0  501  0.00000000000E+00  0.00000000000E+00  0.76183609714E+03  0.76183609716E+03  0.50400001928E-02 0.  1.
        1   -1    0    0  501    0  0.00000000000E+00  0.00000000000E+00 -0.20253241861E+04  0.20253241861E+04  0.50400001928E-02 0. -1.
    10030    2    1    2    0    0  0.00000000000E+00  0.00000000000E+00 -0.12634880890E+04  0.27871602833E+04  0.24843229045E+04 0.  0.
        3    1    3    3  502    0  0.62267842404E+03 -0.98775249262E+03 -0.15631589923E+03  0.11780569074E+04  0.10100000352E+00 0.  1.
       -3    1    3    3    0  502 -0.62267842404E+03  0.98775249262E+03 -0.11071721897E+04  0.16091033759E+04  0.10100000352E+00 0. -1.
</event>
<event>
 5   0  0.2847158E-05  0.1601037E+04  0.7818609E-02  0.8819911E-01
        1   -1    0    0  501    0  0.00000000000E+00  0.00000000000E+00  0.93524180675E+03  0.93524180676E+03  0.50400001928E-02 0. -1.
       -1   -1    0    0    0  501  0.00000000000E+00  0.00000000000E+00 -0.68520207901E+03  0.68520207903E+03  0.50400001928E-02 0.  1.
    10030    2    1    2    0    0  0.00000000000E+00  0.00000000000E+00  0.25003972774E+03  0.16204438858E+04  0.16010367021E+04 0.  0.
        5    1    3    3  502    0  0.19131526145E+03 -0.25603139234E+03  0.86784677336E+03  0.92484253533E+03  0.46999998093E+01 0. -1.
       -5    1    3    3    0  502 -0.19131526145E+03  0.25603139234E+03 -0.61780704563E+03  0.69560135045E+03  0.46999998093E+01 0.  1.
</event>
<event>
 5   0  0.2915546E-05  0.2425110E+04  0.7818609E-02  0.8430162E-01
       -1   -1    0    0    0  501  0.00000000000E+00  0.00000000000E+00  0.17953505335E+04  0.17953505335E+04  0.50400001928E-02 0.  1.
        1   -1    0    0  501    0  0.00000000000E+00  0.00000000000E+00 -0.81894324309E+03  0.81894324311E+03  0.50400001928E-02 0. -1.
    10030    2    1    2    0    0  0.00000000000E+00  0.00000000000E+00  0.97640729038E+03  0.26142937766E+04  0.24251104621E+04 0.  0.
        2    1    3    3  502    0  0.76099087218E+03 -0.80222816626E+03  0.10246294096E+04  0.15074954611E+04  0.25500000920E-02 0.  1.
       -2    1    3    3    0  502 -0.76099087218E+03  0.80222816626E+03 -0.48222119248E+02  0.11067983154E+04  0.25500000920E-02 0. -1.
</event>
<event>
 5   0  0.2847158E-05  0.2587357E+04  0.7818609E-02  0.8372509E-01
        1   -1    0    0  501    0  0.00000000000E+00  0.00000000000E+00  0.99062358094E+03  0.99062358095E+03  0.50400001928E-02 0.  1.
       -1   -1    0    0    0  501  0.00000000000E+00  0.00000000000E+00 -0.16894445555E+04  0.16894445555E+04  0.50400001928E-02 0. -1.
    10030    2    1    2    0    0  0.00000000000E+00  0.00000000000E+00 -0.69882097456E+03  0.26800681365E+04  0.25873566553E+04 0.  0.
        5    1    3    3  502    0  0.60405639662E+03  0.42816069254E+03 -0.14482602688E+04  0.16265563640E+04  0.46999998093E+01 0. -1.
       -5    1    3    3    0  502 -0.60405639662E+03 -0.42816069254E+03  0.74943929428E+03  0.10535117725E+04  0.46999998093E+01 0.  1.
</event>
<event>
 5   0  0.6703961E-05  0.2409566E+04  0.7818609E-02  0.8435931E-01
        2   -1    0    0  501    0  0.00000000000E+00  0.00000000000E+00  0.20403926698E+04  0.20403926698E+04  0.25500000920E-02 0. -1.
       -2   -1    0    0    0  501  0.00000000000E+00  0.00000000000E+00 -0.71138343506E+03  0.71138343507E+03  0.25500000920E-02 0.  1.
    10030    2    1    2    0    0  0.00000000000E+00  0.00000000000E+00  0.13290092348E+04  0.27517761049E+04  0.24095655595E+04 0.  0.
        2    1    3    3  502    0  0.68963512417E+03 -0.98372384619E+03  0.76787074202E+03  0.14258101860E+04  0.25500000920E-02 0. -1.
       -2    1    3    3    0  502 -0.68963512417E+03  0.98372384619E+03  0.56113849276E+03  0.13259659189E+04  0.25500000920E-02 0.  1.
</event>
<event>
 5   0  0.6703961E-05  0.2336406E+04  0.7818609E-02  0.8463704E-01
       -2   -1    0    0    0  501  0.00000000000E+00  0.00000000000E+00  0.12526753837E+04  0.12526753837E+04  0.25500000920E-02 0. -1.
        2   -1    0    0  501    0  0.00000000000E+00  0.00000000000E+00 -0.10894268781E+04  0.10894268781E+04  0.25500000920E-02 0.  1.
    10030    2    1    2    0    0  0.00000000000E+00  0.00000000000E+00  0.16324850559E+03  0.23421022618E+04  0.23364059858E+04 0.  0.
        2    1    3    3  502    0 -0.17312863251E+03  0.11013059027E+04 -0.26829701713E+03  0.11466610241E+04  0.25500000920E-02 0. -1.
       -2    1    3    3    0  502  0.17312863251E+03 -0.11013059027E+04  0.43154552272E+03  0.11954412377E+04  0.25500000920E-02 0.  1.
</event>
<event>
 5   0  0.2901816E-05  0.2408282E+04  0.7818609E-02  0.8436409E-01
       -1   -1    0    0    0  501  0.00000000000E+00  0.00000000000E+00  0.63561735162E+03  0.63561735164E+03  0.50400001928E-02 0.  1.
        1   -1    0    0  501    0  0.00000000000E+00  0.00000000000E+00 -0.22811774537E+04  0.22811774537E+04  0.50400001928E-02 0. -1.
    10030    2    1    2    0    0  0.00000000000E+00  0.00000000000E+00 -0.16455601021E+04  0.29167948054E+04  0.24082823520E+04 0.  0.
        4    1    3    3  502    0  0.10595372088E+04 -0.12627125661E+03 -0.14986317121E+04  0.18396907752E+04  0.12699999809E+01 0. -1.
       -4    1    3    3    0  502 -0.10595372088E+04  0.12627125661E+03 -0.14692839002E+03  0.10771040301E+04  0.12699999809E+01 0.  1.
</event>
<event>
 5   0  0.6978115E-05  0.1695408E+04  0.7818609E-02  0.8763988E-01
       -2   -1    0    0    0  501  0.00000000000E+00  0.00000000000E+00  0.88519907962E+03  0.88519907962E+03  0.25500000920E-02 0.  1.
        2   -1    0    0  501    0  0.00000000000E+00  0.00000000000E+00 -0.81179724630E+03  0.81179724631E+03  0.25500000920E-02 0. -1.
    10030    2    1    2    0    0  0.00000000000E+00  0.00000000000E+00  0.73401833315E+02  0.16969963259E+04  0.16954081223E+04 0.  0.
        4    1    3    3  502    0  0.32049418521E+03 -0.78081986119E+03  0.11554261605E+03  0.85190837970E+03  0.12699999809E+01 0. -1.
       -4    1    3    3    0  502 -0.32049418521E+03  0.78081986119E+03 -0.42140782734E+02  0.84508794623E+03  0.12699999809E+01 0.  1.
</event>
<event>
 5   0  0.2339125E-05  0.2402458E+04  0.7818609E-02  0.8438584E-01
        3   -1    0    0  501    0  0.00000000000E+00  0.00000000000E+00  0.11079531221E+04  0.11079531267E+04  0.10100000352E+00 0.  1.
       -3   -1    0    0    0  501  0.00000000000E+00  0.00000000000E+00 -0.13023577806E+04  0.13023577845E+04  0.10100000352E+00 0. -1.
    10030    2    1    2    0    0  0.00000000000E+00  0.00000000000E+00 -0.19440465846E+03  0.24103109112E+04  0.24024582238E+04 0.  0.
        2    1    3    3  502    0 -0.98605016406E+03 -0.18715282259E+03  0.56497795980E+03  0.11517470209E+04  0.25500000920E-02 0. -1.
       -2    1    3    3    0  502  0.98605016406E+03  0.18715282259E+03 -0.75938261826E+03  0.12585638903E+04  0.25500000920E-02 0.  1.
</event>
<event>
 5   0  0.2847158E-05  0.2580152E+04  0.7818609E-02  0.8374974E-01
        1   -1    0    0  501    0  0.00000000000E+00  0.00000000000E+00  0.12620934009E+04  0.12620934009E+04  0.50400001928E-02 0.  1.
       -1   -1    0    0    0  501  0.00000000000E+00  0.00000000000E+00 -0.13186791151E+04  0.13186791151E+04  0.50400001928E-02 0. -1.
    10030    2    1    2    0    0  0.00000000000E+00  0.00000000000E+00 -0.56585714196E+02  0.25807725160E+04  0.25801520955E+04 0.  0.
        5    1    3    3  502    0  0.37876486166E+03  0.38907225072E+03  0.11422167527E+04  0.12647218021E+04  0.46999998093E+01 0.  1.
       -5    1    3    3    0  502 -0.37876486166E+03 -0.38907225072E+03 -0.11988024669E+04  0.13160507138E+04  0.46999998093E+01 0. -1.
</event>
<event>
 5   0  0.2943244E-05  0.1665684E+04  0.7818609E-02  0.8781182E-01
       -1   -1    0    0    0  501  0.00000000000E+00  0.00000000000E+00  0.15180143869E+04  0.15180143869E+04  0.50400001928E-02 0.  1.
        1   -1    0    0  501    0  0.00000000000E+00  0.00000000000E+00 -0.45692945954E+03  0.45692945957E+03  0.50400001928E-02 0. -1.
    10030    2    1    2    0    0  0.00000000000E+00  0.00000000000E+00  0.10610849273E+04  0.19749438464E+04  0.16656836355E+04 0.  0.
        3    1    3    3  502    0  0.55973814214E+03  0.14766829718E+03 -0.17938593177E+03  0.60604623295E+03  0.10100000352E+00 0. -1.
       -3    1    3    3    0  502 -0.55973814214E+03 -0.14766829718E+03  0.12404708591E+04  0.13688976135E+04  0.10100000352E+00 0.  1.
</event>
<event>
 5   0  0.6703961E-05  0.2353548E+04  0.7818609E-02  0.8457102E-01
        2   -1    0    0  501    0  0.00000000000E+00  0.00000000000E+00  0.13636489311E+04  0.13636489311E+04  0.25500000920E-02 0. -1.
       -2   -1    0    0    0  501  0.00000000000E+00  0.00000000000E+00 -0.10155088391E+04  0.10155088391E+04  0.25500000920E-02 0.  1.
    10030    2    1    2    0    0  0.00000000000E+00  0.00000000000E+00  0.34814009197E+03  0.23791577702E+04  0.23535484214E+04 0.  0.
        2    1    3    3  502    0  0.68809853588E+03  0.70398418229E+03 -0.47771256220E+03  0.10942041017E+04  0.25500000920E-02 0.  1.
       -2    1    3    3    0  502 -0.68809853588E+03 -0.70398418229E+03  0.82585265416E+03  0.12849536686E+04  0.25500000920E-02 0. -1.
</event>
<event>
 5   0  0.2943123E-05  0.2260020E+04  0.7818609E-02  0.8493854E-01
       -1   -1    0    0    0  501  0.00000000000E+00  0.00000000000E+00  0.61267821169E+03  0.61267821171E+03  0.50400001928E-02 0. -1.
        1   -1    0    0  501    0  0.00000000000E+00  0.00000000000E+00 -0.20841645187E+04  0.20841645187E+04  0.50400001928E-02 0.  1.
    10030    2    1    2    0    0  0.00000000000E+00  0.00000000000E+00 -0.14714863070E+04  0.26968427305E+04  0.22600196373E+04 0.  0.
        1    1    3    3  502    0  0.52261045862E+03 -0.10001315037E+04 -0.80671564384E+03  0.13871462959E+04  0.50400001928E-02 0.  1.
       -1    1    3    3    0  502 -0.52261045862E+03  0.10001315037E+04 -0.66477066320E+03  0.13096964346E+04  0.50400001928E-02 0. -1.
</event>
<event>
 5   0  0.6703961E-05  0.2363567E+04  0.7818609E-02  0.8453271E-01
        2   -1    0    0  501    0  0.00000000000E+00  0.00000000000E+00  0.78211465778E+03  0.78211465779E+03  0.25500000920E-02 0.  1.
       -2   -1    0    0    0  501  0.00000000000E+00  0.00000000000E+00 -0.17856868732E+04  0.17856868732E+04  0.25500000920E-02 0. -1.
    10030    2    1    2    0    0  0.00000000000E+00  0.00000000000E+00 -0.10035722154E+04  0.25678015310E+04  0.23635666927E+04 0.  0.
        2    1    3    3  502    0  0.59150150773E+03 -0.89770242472E+03  0.31405526173E+02  0.10755138233E+04  0.25500000920E-02 0.  1.
       -2    1    3    3    0  502 -0.59150150773E+03  0.89770242472E+03 -0.10349777416E+04  0.14922877077E+04  0.25500000920E-02 0. -1.
</event>
<event>
 5   0  0.6703961E-05  0.2301893E+04  0.7818609E-02  0.8477175E-01
       -2   -1    0    0    0  501  0.00000000000E+00  0.00000000000E+00  0.82447991846E+03  0.82447991847E+03  0.25500000920E-02 0.  1.
        2   -1    0    0  501    0  0.00000000000E+00  0.00000000000E+00 -0.16066827612E+04  0.16066827612E+04  0.25500000920E-02 0. -1.
    10030    2    1    2    0    0  0.00000000000E+00  0.00000000000E+00 -0.78220284275E+03  0.24311626797E+04  0.23018928489E+04 0.  0.
        2    1    3    3  502    0  0.79305852772E+03 -0.43081435221E+03 -0.11454488392E+04  0.14582852525E+04  0.25500000920E-02 0. -1.
       -2    1    3    3    0  502 -0.79305852772E+03  0.43081435221E+03  0.36324599640E+03  0.97287742721E+03  0.25500000920E-02 0.  1.
</event>
<event>
 5   0  0.2943244E-05  0.2328496E+04  0.7818609E-02  0.8466770E-01
        1   -1    0    0  501    0  0.00000000000E+00  0.00000000000E+00  0.15071515397E+04  0.15071515397E+04  0.50400001928E-02 0. -1.
       -1   -1    0    0    0  501  0.00000000000E+00  0.00000000000E+00 -0.89936112014E+03  0.89936112015E+03  0.50400001928E-02 0.  1.
    10030    2    1    2    0    0  0.00000000000E+00  0.00000000000E+00  0.60779041954E+03  0.24065126598E+04  0.23284960786E+04 0.  0.
        3    1    3    3  502    0  0.10752899350E+04 -0.97881927058E+02  0.75396761773E+03  0.13169269132E+04  0.10100000352E+00 0. -1.
       -3    1    3    3    0  502 -0.10752899350E+04  0.97881927058E+02 -0.14617719819E+03  0.10895857467E+04  0.10100000352E+00 0.  1.
</event>
<event>
 5   0  0.2943123E-05  0.1606581E+04  0.7818609E-02  0.8816515E-01
        1   -1    0    0  501    0  0.00000000000E+00  0.00000000000E+00  0.67052313434E+03  0.67052313436E+03  0.50400001928E-02 0. -1.
       -1   -1    0    0    0  501  0.00000000000E+00  0.00000000000E+00 -0.96234630712E+03  0.96234630714E+03  0.50400001928E-02 0.  1.
    10030    2    1    2    0    0  0.00000000000E+00  0.00000000000E+00 -0.29182317278E+03  0.16328694415E+04  0.16065807944E+04 0.  0.
        1    1    3    3  502    0  0.70407294858E+03 -0.38663680947E+03 -0.13748601506E+03  0.81492891943E+03  0.50400001928E-02 0.  1.
       -1    1    3    3    0  502 -0.70407294858E+03  0.38663680947E+03 -0.15433715772E+03  0.81794052207E+03  0.50400001928E-02 0. -1.
</event>
<event>
 5   0  0.2943244E-05  0.2418611E+04  0.7818609E-02  0.8432568E-01
       -1   -1    0    0    0  501  0.00000000000E+00  0.00000000000E+00  0.12652222229E+04  0.12652222229E+04  0.50400001928E-02 0.  1.
        1   -1    0    0  501    0  0.00000000000E+00  0.00000000000E+00 -0.11558604658E+04  0.11558604658E+04  0.50400001928E-02 0. -1.
    10030    2    1    2    0    0  0.00000000000E+00  0.00000000000E+00  0.10936175710E+03  0.24210826888E+04  0.24186114595E+04 0.  0.
        3    1    3    3  502    0  0.42333138951E+03 -0.53041966863E+03 -0.94727431865E+03  0.11652824272E+04  0.10100000352E+00 0. -1.
       -3    1    3    3    0  502 -0.42333138951E+03  0.53041966863E+03  0.10566360757E+04  0.12558002616E+04  0.10100000352E+00 0.  1.
</event>
<event>
 5   0  0.2847158E-05  0.2480418E+04  0.7818609E-02  0.8409995E-01
       -1   -1    0    0    0  501  0.00000000000E+00  0.00000000000E+00  0.18922287668E+04  0.18922287668E+04  0.50400001928E-02 0. -1.
        1   -1    0    0  501    0  0.00000000000E+00  0.00000000000E+00 -0.81286053791E+03  0.81286053792E+03  0.50400001928E-02 0.  1.
    10030    2    1    2    0    0  0.00000000000E+00  0.00000000000E+00  0.10793682289E+04  0.27050893048E+04  0.24804177820E+04 0.  0.
        5    1    3    3  502    0 -0.73403316991E+03  0.90082354299E+03  0.67061924964E+02  0.11639618301E+04  0.46999998093E+01 0. -1.
       -5    1    3    3    0  502  0.73403316991E+03 -0.90082354299E+03  0.10123063040E+04  0.15411274747E+04  0.46999998093E+01 0.  1.
</event>
<event>
 5   0  0.2901816E-05  0.2418055E+04  0.7818609E-02  0.8432775E-01
        1   -1    0    0  501    0  0.00000000000E+00  0.00000000000E+00  0.15700469887E+04  0.15700469887E+04  0.50400001928E-02 0. -1.
       -1   -1    0    0    0  501  0.00000000000E+00  0.00000000000E+00 -0.93102147013E+03  0.93102147015E+03  0.50400001928E-02 0.  1.
    10030    2    1    2    0    0  0.00000000000E+00  0.00000000000E+00  0.63902551855E+03  0.25010684588E+04  0.24180549668E+04 0.  0.
        4    1    3    3  502    0 -0.70014625349E+03  0.68352177972E+03  0.10540616470E+04  0.14382122125E+04  0.12699999809E+01 0.  1.
       -4    1    3    3    0  502  0.70014625349E+03 -0.68352177972E+03 -0.41503612841E+03  0.10628562464E+04  0.12699999809E+01 0. -1.
</event>
<event>
 5   0  0.2901816E-05  0.2094236E+04  0.7818609E-02  0.8563787E-01
        1   -1    0    0  501    0  0.00000000000E+00  0.00000000000E+00  0.17599398692E+04  0.17599398692E+04  0.50400001928E-02 0.  1.
       -1   -1    0    0    0  501  0.00000000000E+00  0.00000000000E+00 -0.62300758702E+03  0.62300758704E+03  0.50400001928E-02 0. -1.
    10030    2    1    2    0    0  0.00000000000E+00  0.00000000000E+00  0.11369322822E+04  0.23829474563E+04  0.20942357950E+04 0.  0.
        4    1    3    3  502    0 -0.73249974442E+03 -0.41325083694E+03  0.12782593888E+04  0.15301244419E+04  0.12699999809E+01 0.  1.
       -4    1    3    3    0  502  0.73249974442E+03  0.41325083694E+03 -0.14132710662E+03  0.85282301432E+03  0.12699999809E+01 0. -1.
</event>
<event>
 5   0  0.6337926E-05  0.1893335E+04  0.7818609E-02  0.8658181E-01
        2   -1    0    0  501    0  0.00000000000E+00  0.00000000000E+00  0.14605014275E+04  0.14605014275E+04  0.25500000920E-02 0. -1.
       -2   -1    0    0    0  501  0.00000000000E+00  0.00000000000E+00 -0.61361082014E+03  0.61361082014E+03  0.25500000920E-02 0.  1.
    10030    2    1    2    0    0  0.00000000000E+00  0.00000000000E+00  0.84689060735E+03  0.20741122476E+04  0.18933351301E+04 0.  0.
        1    1    3    3  502    0  0.37326701301E+03  0.49150186157E+03  0.12098121569E+04  0.13581413026E+04  0.50400001928E-02 0. -1.
       -1    1    3    3    0  502 -0.37326701301E+03 -0.49150186157E+03 -0.36292154955E+03  0.71597094500E+03  0.50400001928E-02 0.  1.
</event>
<event>
 5   0  0.6714629E-05  0.2276962E+04  0.7818609E-02  0.8487060E-01
        2   -1    0    0  501    0  0.00000000000E+00  0.00000000000E+00  0.12556253258E+04  0.12556253258E+04  0.25500000920E-02 0.  1.
       -2   -1    0    0    0  501  0.00000000000E+00  0.00000000000E+00 -0.10322656015E+04  0.10322656015E+04  0.25500000920E-02 0. -1.
    10030    2    1    2    0    0  0.00000000000E+00  0.00000000000E+00  0.22335972434E+03  0.22878909273E+04  0.22769618637E+04 0.  0.
        3    1    3    3  502    0 -0.13308702238E+03  0.11304143346E+04  0.87271318174E+02  0.11415625329E+04  0.10100000352E+00 0.  1.
       -3    1    3    3    0  502  0.13308702238E+03 -0.11304143346E+04  0.13608840617E+03  0.11463283944E+04  0.10100000352E+00 0. -1.
</event>
<event>
 5   0  0.2847158E-05  0.2375009E+04  0.7818609E-02  0.8448920E-01
       -1   -1    0    0    0  501  0.00000000000E+00  0.00000000000E+00  0.11882213526E+04  0.11882213526E+04  0.50400001928E-02 0.  1.
        1   -1    0    0  501    0  0.00000000000E+00  0.00000000000E+00 -0.11867878565E+04  0.11867878565E+04  0.50400001928E-02 0. -1.
    10030    2    1    2    0    0  0.00000000000E+00  0.00000000000E+00  0.14334961515E+01  0.23750092091E+04  0.23750087765E+04 0.  0.
        5    1    3    3  502    0 -0.11259928463E+03  0.99022998139E+03 -0.64496949081E+03  0.11871148845E+04  0.46999998093E+01 0. -1.
       -5    1    3    3    0  502  0.11259928463E+03 -0.99022998139E+03  0.64640298696E+03  0.11878943246E+04  0.46999998093E+01 0.  1.
</event>
<event>
 5   0  0.6703961E-05  0.2362281E+04  0.7818609E-02  0.8453762E-01
        2   -1    0    0  501    0  0.00000000000E+00  0.00000000000E+00  0.15241860165E+04  0.15241860165E+04  0.25500000920E-02 0. -1.
       -2   -1    0    0    0  501  0.00000000000E+00  0.00000000000E+00 -0.91530347570E+03  0.91530347570E+03  0.25500000920E-02 0.  1.
    10030    2    1    2    0    0  0.00000000000E+00  0.00000000000E+00  0.60888254077E+03  0.24394894922E+04  0.23622808965E+04 0.  0.
        2    1    3    3  502    0  0.40931213029E+03 -0.10745499462E+04  0.58326354092E+03  0.12893371805E+04  0.25500000920E-02 0. -1.
       -2    1    3    3    0  502 -0.40931213029E+03  0.10745499462E+04  0.25618999845E+02  0.11501523117E+04  0.25500000920E-02 0.  1.
</event>
<event>
 5   0  0.6978115E-05  0.2362263E+04  0.7818609E-02  0.8453768E-01
        2   -1    0    0  501    0  0.00000000000E+00  0.00000000000E+00  0.17173821549E+04  0.17173821549E+04  0.25500000920E-02 0. -1.
       -2   -1    0    0    0  501  0.00000000000E+00  0.00000000000E+00 -0.81232464381E+03  0.81232464381E+03  0.25500000920E-02 0.  1.
    10030    2    1    2    0    0  0.00000000000E+00  0.00000000000E+00  0.90505751109E+03  0.25297067987E+04  0.23622631922E+04 0.  0.
        4    1    3    3  502    0  0.10638648432E+03 -0.24189302301E+03  0.16853189150E+04  0.17059108349E+04  0.12699999809E+01 0. -1.
       -4    1    3    3    0  502 -0.10638648432E+03  0.24189302301E+03 -0.78026140390E+03  0.82379596378E+03  0.12699999809E+01 0.  1.
</event>
<event>
 5   0  0.2901816E-05  0.2387513E+04  0.7818609E-02  0.8444193E-01
        1   -1    0    0  501    0  0.00000000000E+00  0.00000000000E+00  0.16497750846E+04  0.16497750846E+04  0.50400001928E-02 0. -1.
       -1   -1    0    0    0  501  0.00000000000E+00  0.00000000000E+00 -0.86378715361E+03  0.86378715362E+03  0.50400001928E-02 0.  1.
    10030    2    1    2    0    0  0.00000000000E+00  0.00000000000E+00  0.78598793098E+03  0.25135622382E+04  0.23875129524E+04 0.  0.
        4    1    3    3  502    0 -0.83016152201E+03 -0.43022502849E+03  0.11743291777E+04  0.15011037134E+04  0.12699999809E+01 0. -1.
       -4    1    3    3    0  502  0.83016152201E+03  0.43022502849E+03 -0.38834124671E+03  0.10124585249E+04  0.12699999809E+01 0.  1.
</event>
<event>
 5   0  0.6600166E-05  0.2323915E+04  0.7818609E-02  0.8468551E-01
        2   -1    0    0  501    0  0.00000000000E+00  0.00000000000E+00  0.17667479081E+04  0.17667479081E+04  0.25500000920E-02 0.  1.
       -2   -1    0    0    0  501  0.00000000000E+00  0.00000000000E+00 -0.76419810851E+03  0.76419810851E+03  0.25500000920E-02 0. -1.
    10030    2    1    2    0    0  0.00000000000E+00  0.00000000000E+00  0.10025497996E+04  0.25309460166E+04  0.23239151530E+04 0.  0.
        5    1    3    3  502    0  0.93341832516E+03  0.89666773810E+02 -0.24601141804E+03  0.96946047257E+03  0.46999998093E+01 0. -1.
       -5    1    3    3    0  502 -0.93341832516E+03 -0.89666773810E+02  0.12485612176E+04  0.15614855440E+04  0.46999998093E+01 0.  1.
</event>
<event>
 5   0  0.6337926E-05  0.2382021E+04  0.7818609E-02  0.8446265E-01
        2   -1    0    0  501    0  0.00000000000E+00  0.00000000000E+00  0.12184757868E+04  0.12184757868E+04  0.25500000920E-02 0. -1.
       -2   -1    0    0    0  501  0.00000000000E+00  0.00000000000E+00 -0.11641641593E+04  0.11641641593E+04  0.25500000920E-02 0.  1.
    10030    2    1    2    0    0  0.00000000000E+00  0.00000000000E+00  0.54311627516E+02  0.23826399460E+04  0.23820208562E+04 0.  0.
        1    1    3    3  502    0  0.23252746082E+03  0.41589958477E+03  0.11189816980E+04  0.12162078462E+04  0.50400001928E-02 0. -1.
       -1    1    3    3    0  502 -0.23252746082E+03 -0.41589958477E+03 -0.10646700705E+04  0.11664320999E+04  0.50400001928E-02 0.  1.
</event>
<event>
 5   0  0.2901816E-05  0.1831351E+04  0.7818609E-02  0.8689803E-01
        1   -1    0    0  501    0  0.00000000000E+00  0.00000000000E+00  0.47412149048E+03  0.47412149051E+03  0.50400001928E-02 0.  1.
       -1   -1    0    0    0  501  0.00000000000E+00  0.00000000000E+00 -0.17684531293E+04  0.17684531294E+04  0.50400001928E-02 0. -1.
    10030    2    1    2    0    0  0.00000000000E+00  0.00000000000E+00 -0.12943316389E+04  0.22425746199E+04  0.18313510134E+04 0.  0.
        4    1    3    3  502    0  0.35288933003E+03 -0.39722954765E+03 -0.15603671336E+04  0.16483535414E+04  0.12699999809E+01 0. -1.
       -4    1    3    3    0  502 -0.35288933003E+03  0.39722954765E+03  0.26603549474E+03  0.59422107850E+03  0.12699999809E+01 0.  1.
</event>
<event>
 5   0  0.2943123E-05  0.2288444E+04  0.7818609E-02  0.8482491E-01
        1   -1    0    0  501    0  0.00000000000E+00  0.00000000000E+00  0.15367096742E+04  0.15367096742E+04  0.50400001928E-02 0. -1.
       -1   -1    0    0    0  501  0.00000000000E+00  0.00000000000E+00 -0.85197866795E+03  0.85197866797E+03  0.50400001928E-02 0.  1.
    10030    2    1    2    0    0  0.00000000000E+00  0.00000000000E+00  0.68473100620E+03  0.23886883421E+04  0.22884438916E+04 0.  0.
        1    1    3    3  502    0 -0.98312384097E+03 -0.57973143631E+03  0.42731117015E+03  0.12186943264E+04  0.50400001928E-02 0.  1.
       -1    1    3    3    0  502  0.98312384097E+03  0.57973143631E+03  0.25741983605E+03  0.11699940158E+04  0.50400001928E-02 0. -1.
</event>
<event>
 5   0  0.6978115E-05  0.2368280E+04  0.7818609E-02  0.8451476E-01
       -2   -1    0    0    0  501  0.00000000000E+00  0.00000000000E+00  0.13540053735E+04  0.13540053735E+04  0.25500000920E-02 0.  1.
        2   -1    0    0  501    0  0.00000000000E+00  0.00000000000E+00 -0.10355846710E+04  0.10355846710E+04  0.25500000920E-02 0. -1.
    10030    2    1    2    0    0  0.00000000000E+00  0.00000000000E+00  0.31842070250E+03  0.23895900444E+04  0.23682797210E+04 0.  0.
        4    1    3    3  502    0 -0.17658433490E+03 -0.36645629236E+03  0.12812932133E+04  0.13443162399E+04  0.12699999809E+01 0.  1.
       -4    1    3    3    0  502  0.17658433490E+03  0.36645629236E+03 -0.96287251079E+03  0.10452738045E+04  0.12699999809E+01 0. -1.
</event>
<event>
 5   0  0.6714629E-05  0.2388194E+04  0.7818609E-02  0.8443937E-01
        2   -1    0    0  501    0  0.00000000000E+00  0.00000000000E+00  0.17048591313E+04  0.17048591313E+04  0.25500000920E-02 0.  1.
       -2   -1    0    0    0  501  0.00000000000E+00  0.00000000000E+00 -0.83635523341E+03  0.83635523341E+03  0.25500000920E-02 0. -1.
    10030    2    1    2    0    0  0.00000000000E+00  0.00000000000E+00  0.86850389791E+03  0.25412143647E+04  0.23881941770E+04 0.  0.
        3    1    3    3  502    0  0.80272203734E+02 -0.47022206987E+03 -0.73056381993E+03  0.87251127607E+03  0.10100000352E+00 0. -1.
       -3    1    3    3    0  502 -0.80272203734E+02  0.47022206987E+03  0.15990677178E+04  0.16687030887E+04  0.10100000352E+00 0.  1.
</event>
<event>
 5   0  0.6703961E-05  0.2414421E+04  0.7818609E-02  0.8434124E-01
       -2   -1    0    0    0  501  0.00000000000E+00  0.00000000000E+00  0.58560899046E+03  0.58560899046E+03  0.25500000920E-02 0.  1.
        2   -1    0    0  501    0  0.00000000000E+00  0.00000000000E+00 -0.24886190269E+04  0.24886190269E+04  0.25500000920E-02 0. -1.
    10030    2    1    2    0    0  0.00000000000E+00  0.00000000000E+00 -0.19030100364E+04  0.30742280173E+04  0.24144214015E+04 0.  0.
        2    1    3    3  502    0  0.95576511830E+03  0.46821445174E+03 -0.22602076005E+03  0.10880244106E+04  0.25500000920E-02 0.  1.
       -2    1    3    3    0  502 -0.95576511830E+03 -0.46821445174E+03 -0.16769892764E+04  0.19862036067E+04  0.25500000920E-02 0. -1.
</event>
<event>
 5   0  0.6703961E-05  0.1898948E+04  0.7818609E-02  0.8655380E-01
       -2   -1    0    0    0  501  0.00000000000E+00  0.00000000000E+00  0.60339940912E+03  0.60339940912E+03  0.25500000920E-02 0.  1.
        2   -1    0    0  501    0  0.00000000000E+00  0.00000000000E+00 -0.14940359722E+04  0.14940359722E+04  0.25500000920E-02 0. -1.
    10030    2    1    2    0    0  0.00000000000E+00  0.00000000000E+00 -0.89063656308E+03  0.20974353813E+04  0.18989475220E+04 0.  0.
        2    1    3    3  502    0 -0.37706148391E+03 -0.86032987627E+03 -0.59819655566E+03  0.11136345800E+04  0.25500000920E-02 0. -1.
       -2    1    3    3    0  502  0.37706148391E+03  0.86032987627E+03 -0.29244000742E+03  0.98380080128E+03  0.25500000920E-02 0.  1.
</event>
<event>
 5   0  0.6978115E-05  0.2356737E+04  0.7818609E-02  0.8455881E-01
       -2   -1    0    0    0  501  0.00000000000E+00  0.00000000000E+00  0.14424235368E+04  0.14424235368E+04  0.25500000920E-02 0.  1.
        2   -1    0    0  501    0  0.00000000000E+00  0.00000000000E+00 -0.96265220975E+03  0.96265220976E+03  0.25500000920E-02 0. -1.
    10030    2    1    2    0    0  0.00000000000E+00  0.00000000000E+00  0.47977132703E+03  0.24050757465E+04  0.23567369010E+04 0.  0.
        4    1    3    3  502    0 -0.94980378609E+03  0.21785099628E+03  0.91601886018E+03  0.13374148398E+04  0.12699999809E+01 0.  1.
       -4    1    3    3    0  502  0.94980378609E+03 -0.21785099628E+03 -0.43624753316E+03  0.10676609067E+04  0.12699999809E+01 0. -1.
</event>
<event>
 5   0  0.6600166E-05  0.2398477E+04  0.7818609E-02  0.8440074E-01
       -2   -1    0    0    0  501  0.00000000000E+00  0.00000000000E+00  0.74403179418E+03  0.74403179419E+03  0.25500000920E-02 0.  1.
        2   -1    0    0  501    0  0.00000000000E+00  0.00000000000E+00 -0.19329449893E+04  0.19329449893E+04  0.25500000920E-02 0. -1.
    10030    2    1    2    0    0  0.00000000000E+00  0.00000000000E+00 -0.11889131951E+04  0.26769767835E+04  0.23984766236E+04 0.  0.
        5    1    3    3  502    0 -0.48760187901E+03 -0.57092596147E+03  0.44923869177E+03  0.87495687783E+03  0.46999998093E+01 0.  1.
       -5    1    3    3    0  502  0.48760187901E+03  0.57092596147E+03 -0.16381518869E+04  0.18020199057E+04  0.46999998093E+01 0. -1.
</event>
<event>
 5   0  0.6600166E-05  0.2354821E+04  0.7818609E-02  0.8456614E-01
        2   -1    0    0  501    0  0.00000000000E+00  0.00000000000E+00  0.25349117343E+04  0.25349117343E+04  0.25500000920E-02 0.  1.
       -2   -1    0    0    0  501  0.00000000000E+00  0.00000000000E+00 -0.54688122832E+03  0.54688122832E+03  0.25500000920E-02 0. -1.
    10030    2    1    2    0    0  0.00000000000E+00  0.00000000000E+00  0.19880305060E+04  0.30817929627E+04  0.23548211337E+04 0.  0.
        5    1    3    3  502    0  0.52953323488E+03  0.10876572097E+02 -0.38216071735E+03  0.65314060549E+03  0.46999998093E+01 0. -1.
       -5    1    3    3    0  502 -0.52953323488E+03 -0.10876572097E+02  0.23701912234E+04  0.24286523572E+04  0.46999998093E+01 0.  1.
</event>
<event>
 5   0  0.6714629E-05  0.2358643E+04  0.7818609E-02  0.8455151E-01
       -2   -1    0    0    0  501  0.00000000000E+00  0.00000000000E+00  0.10704174549E+04  0.10704174549E+04  0.25500000920E-02 0.  1.
        2   -1    0    0  501    0  0.00000000000E+00  0.00000000000E+00 -0.12993053316E+04  0.12993053316E+04  0.25500000920E-02 0. -1.
    10030    2    1    2    0    0  0.00000000000E+00  0.00000000000E+00 -0.22888787663E+03  0.23697227865E+04  0.23586429202E+04 0.  0.
        3    1    3    3  502    0  0.22864469459E+03 -0.49209344913E+03 -0.11664370032E+04  0.12864717842E+04  0.10100000352E+00 0. -1.
       -3    1    3    3    0  502 -0.22864469459E+03  0.49209344913E+03  0.93754912655E+03  0.10832510023E+04  0.10100000352E+00 0.  1.
</event>
<event>
 5   0  0.2943123E-05  0.2364696E+04  0.7818609E-02  0.8452840E-01
        1   -1    0    0  501    0  0.00000000000E+00  0.00000000000E+00  0.23051955289E+04  0.23051955289E+04  0.50400001928E-02 0.  1.
       -1   -1    0    0    0  501  0.00000000000E+00  0.00000000000E+00 -0.60643324276E+03  0.60643324278E+03  0.50400001928E-02 0. -1.
    10030    2    1    2    0    0  0.00000000000E+00  0.00000000000E+00  0.16987622862E+04  0.29116287717E+04  0.23646963440E+04 0.  0.
        1    1    3    3  502    0  0.14552622457E+03  0.34064086721E+03 -0.53314134082E+03  0.64919471021E+03  0.50400001928E-02 0. -1.
       -1    1    3    3    0  502 -0.14552622457E+03 -0.34064086721E+03  0.22319036270E+04  0.22624340615E+04  0.50400001928E-02 0.  1.
</event>
<event>
 5   0  0.2943123E-05  0.2433658E+04  0.7818609E-02  0.8427009E-01
        1   -1    0    0  501    0  0.00000000000E+00  0.00000000000E+00  0.20205881670E+04  0.20205881670E+04  0.50400001928E-02 0. -1.
       -1   -1    0    0    0  501  0.00000000000E+00  0.00000000000E+00 -0.73279301300E+03  0.73279301301E+03  0.50400001928E-02 0.  1.
    10030    2    1    2    0    0  0.00000000000E+00  0.00000000000E+00  0.12877951540E+04  0.27533811801E+04  0.24336580622E+04 0.  0.
        1    1    3    3  502    0  0.71598787071E+03  0.96700700259E+03  0.84920940421E+03  0.14727178230E+04  0.50400001928E-02 0. -1.
       -1    1    3    3    0  502 -0.71598787071E+03 -0.96700700259E+03  0.43858574984E+03  0.12806633570E+04  0.50400001928E-02 0.  1.
</event>
<event>
 5   0  0.6703961E-05  0.2410010E+04  0.7818609E-02  0.8435765E-01
       -2   -1    0    0    0  501  0.00000000000E+00  0.00000000000E+00  0.69805545321E+03  0.69805545322E+03  0.25500000920E-02 0. -1.
        2   -1    0    0  501    0  0.00000000000E+00  0.00000000000E+00 -0.20801175517E+04  0.20801175517E+04  0.25500000920E-02 0.  1.
    10030    2    1    2    0    0  0.00000000000E+00  0.00000000000E+00 -0.13820620985E+04  0.27781730049E+04  0.24100102907E+04 0.  0.
        2    1    3    3  502    0 -0.36800653873E+03  0.11718537133E+03 -0.20068373494E+04  0.20436627341E+04  0.25500000920E-02 0.  1.
       -2    1    3    3    0  502  0.36800653873E+03 -0.11718537133E+03  0.62477525090E+03  0.73451027083E+03  0.25500000920E-02 0. -1.
</event>
<event>
 5   0  0.6978115E-05  0.2369770E+04  0.7818609E-02  0.8450909E-01
        2   -1    0    0  501    0  0.00000000000E+00  0.00000000000E+00  0.16972884570E+04  0.16972884570E+04  0.25500000920E-02 0.  1.
       -2   -1    0    0    0  501  0.00000000000E+00  0.00000000000E+00 -0.82717354608E+03  0.82717354608E+03  0.25500000920E-02 0. -1.
    10030    2    1    2    0    0  0.00000000000E+00  0.00000000000E+00  0.87011491095E+03  0.25244620031E+04  0.23697697033E+04 0.  0.
        4    1    3    3  502    0  0.64617852836E+03  0.85406016403E+03  0.97508588095E+03  0.14483644370E+04  0.12699999809E+01 0. -1.
       -4    1    3    3    0  502 -0.64617852836E+03 -0.85406016403E+03 -0.10497097000E+03  0.10760975661E+04  0.12699999809E+01 0.  1.
</event>
<event>
 5   0  0.2847158E-05  0.2388131E+04  0.7818609E-02  0.8443960E-01
       -1   -1    0    0    0  501  0.00000000000E+00  0.00000000000E+00  0.18530754278E+04  0.18530754278E+04  0.50400001928E-02 0.  1.
        1   -1    0    0  501    0  0.00000000000E+00  0.00000000000E+00 -0.76941976871E+03  0.76941976872E+03  0.50400001928E-02 0. -1.
    10030    2    1    2    0    0  0.00000000000E+00  0.00000000000E+00  0.10836556591E+04  0.26224951965E+04  0.23881313758E+04 0.  0.
        5    1    3    3  502    0 -0.83357248181E+03  0.36309119837E+03 -0.30814182257E+03  0.96002696503E+03  0.46999998093E+01 0. -1.
       -5    1    3    3    0  502  0.83357248181E+03 -0.36309119837E+03  0.13917974817E+04  0.16624682315E+04  0.46999998093E+01 0.  1.
</event>
<event>
 5   0  0.2339125E-05  0.2381666E+04  0.7818609E-02  0.8446400E-01
       -3   -1    0    0    0  501  0.00000000000E+00  0.00000000000E+00  0.93670521651E+03  0.93670522196E+03  0.10100000352E+00 0.  1.
        3   -1    0    0  501    0  0.00000000000E+00  0.00000000000E+00 -0.15139056337E+04  0.15139056371E+04  0.10100000352E+00 0. -1.
    10030    2    1    2    0    0  0.00000000000E+00  0.00000000000E+00 -0.57720041718E+03  0.24506108590E+04  0.23816660683E+04 0.  0.
        3    1    3    3  502    0 -0.24157941474E+03  0.10413234930E+04 -0.82854614614E+03  0.13524806680E+04  0.10100000352E+00 0. -1.
       -3    1    3    3    0  502  0.24157941474E+03 -0.10413234930E+04  0.25134572896E+03  0.10981301910E+04  0.10100000352E+00 0.  1.
</event>
<event>
 5   0  0.6337926E-05  0.2464031E+04  0.7818609E-02  0.8415913E-01
        2   -1    0    0  501    0  0.00000000000E+00  0.00000000000E+00  0.28675830159E+04  0.28675830159E+04  0.25500000920E-02 0.  1.
       -2   -1    0    0    0  501  0.00000000000E+00  0.00000000000E+00 -0.52931739902E+03  0.52931739902E+03  0.25500000920E-02 0. -1.
    10030    2    1    2    0    0  0.00000000000E+00  0.00000000000E+00  0.23382656169E+04  0.33969004149E+04  0.24640305059E+04 0.  0.
        1    1    3    3  502    0 -0.56538975477E+03 -0.34373917475E+03 -0.26357138452E+03  0.71224438911E+03  0.50400001928E-02 0. -1.
       -1    1    3    3    0  502  0.56538975477E+03  0.34373917475E+03  0.26018370014E+04  0.26846560258E+04  0.50400001928E-02 0.  1.
</event>
<event>
 5   0  0.2847158E-05  0.1975242E+04  0.7818609E-02  0.8618284E-01
        1   -1    0    0  501    0  0.00000000000E+00  0.00000000000E+00  0.76034699615E+03  0.76034699616E+03  0.50400001928E-02 0.  1.
       -1   -1    0    0    0  501  0.00000000000E+00  0.00000000000E+00 -0.12828294515E+04  0.12828294516E+04  0.50400001928E-02 0. -1.
    10030    2    1    2    0    0  0.00000000000E+00  0.00000000000E+00 -0.52248245540E+03  0.20431764477E+04  0.19752422840E+04 0.  0.
        5    1    3    3  502    0  0.48960634618E+03 -0.24792772753E+03  0.58808970650E+03  0.80439674613E+03  0.46999998093E+01 0.  1.
       -5    1    3    3    0  502 -0.48960634618E+03  0.24792772753E+03 -0.11105721619E+04  0.12387797016E+04  0.46999998093E+01 0. -1.
</event>
<event>
 5   0  0.2901816E-05  0.2396071E+04  0.7818609E-02  0.8440976E-01
        1   -1    0    0  501    0  0.00000000000E+00  0.00000000000E+00  0.14658598071E+04  0.14658598071E+04  0.50400001928E-02 0. -1.
       -1   -1    0    0    0  501  0.00000000000E+00  0.00000000000E+00 -0.97914468521E+03  0.97914468522E+03  0.50400001928E-02 0.  1.
    10030    2    1    2    0    0  0.00000000000E+00  0.00000000000E+00  0.48671512185E+03  0.24450044923E+04  0.23960708165E+04 0.  0.
        4    1    3    3  502    0 -0.49021629489E+03  0.90881904286E+03 -0.37652129439E+03  0.10991059851E+04  0.12699999809E+01 0.  1.
       -4    1    3    3    0  502  0.49021629489E+03 -0.90881904286E+03  0.86323641624E+03  0.13458985072E+04  0.12699999809E+01 0. -1.
</event>
<event>
 5   0  0.2943123E-05  0.2394995E+04  0.7818609E-02  0.8441380E-01
       -1   -1    0    0    0  501  0.00000000000E+00  0.00000000000E+00  0.67122194841E+03  0.67122194843E+03  0.50400001928E-02 0.  1.
        1   -1    0    0  501    0  0.00000000000E+00  0.00000000000E+00 -0.21364024147E+04  0.21364024147E+04  0.50400001928E-02 0. -1.
    10030    2    1    2    0    0  0.00000000000E+00  0.00000000000E+00 -0.14651804663E+04  0.28076243631E+04  0.23949949406E+04 0.  0.
        1    1    3    3  502    0  0.34964404396E+03  0.42197172209E+03 -0.19807822123E+04  0.20551908098E+04  0.50400001928E-02 0. -1.
       -1    1    3    3    0  502 -0.34964404396E+03 -0.42197172209E+03  0.51560174605E+03  0.75243355339E+03  0.50400001928E-02 0.  1.
</event>
<event>
 5   0  0.2943123E-05  0.2398279E+04  0.7818609E-02  0.8440148E-01
        1   -1    0    0  501    0  0.00000000000E+00  0.00000000000E+00  0.14160592213E+04  0.14160592213E+04  0.50400001928E-02 0. -1.
       -1   -1    0    0    0  501  0.00000000000E+00  0.00000000000E+00 -0.10154486692E+04  0.10154486693E+04  0.50400001928E-02 0.  1.
    10030    2    1    2    0    0  0.00000000000E+00  0.00000000000E+00  0.40061055210E+03  0.24315078906E+04  0.23982789262E+04 0.  0.
        1    1    3    3  502    0 -0.76616084174E+03  0.86945350349E+03  0.51276953976E+03  0.12672349550E+04  0.50400001928E-02 0. -1.
       -1    1    3    3    0  502  0.76616084174E+03 -0.86945350349E+03 -0.11215898766E+03  0.11642729356E+04  0.50400001928E-02 0.  1.
</event>
<event>
 5   0  0.2943123E-05  0.2221481E+04  0.7818609E-02  0.8509540E-01
       -1   -1    0    0    0  501  0.00000000000E+00  0.00000000000E+00  0.12203411391E+04  0.12203411392E+04  0.50400001928E-02 0.  1.
        1   -1    0    0  501    0  0.00000000000E+00  0.00000000000E+00 -0.10109829491E+04  0.10109829491E+04  0.50400001928E-02 0. -1.
    10030    2    1    2    0    0  0.00000000000E+00  0.00000000000E+00  0.20935819003E+03  0.22313240883E+04  0.22214806628E+04 0.  0.
        1    1    3    3  502    0  0.80454993081E+03 -0.34174787779E+03 -0.58366905498E+03  0.10510764810E+04  0.50400001928E-02 0. -1.
       -1    1    3    3    0  502 -0.80454993081E+03  0.34174787779E+03  0.79302724500E+03  0.11802476073E+04  0.50400001928E-02 0.  1.
</event>
<event>
 5   0  0.2915546E-05  0.2419734E+04  0.7818609E-02  0.8432152E-01
       -1   -1    0    0    0  501  0.00000000000E+00  0.00000000000E+00  0.88028833791E+03  0.88028833793E+03  0.50400001928E-02 0.  1.
        1   -1    0    0  501    0  0.00000000000E+00  0.00000000000E+00 -0.16628391531E+04  0.16628391531E+04  0.50400001928E-02 0. -1.
    10030    2    1    2    0    0  0.00000000000E+00  0.00000000000E+00 -0.78255081521E+03  0.25431274911E+04  0.24197337989E+04 0.  0.
        2    1    3    3  502    0 -0.42557989039E+03  0.11118112239E+04 -0.61799685786E+03  0.13413286536E+04  0.25500000920E-02 0. -1.
       -2    1    3    3    0  502  0.42557989039E+03 -0.11118112239E+04 -0.16455395735E+03  0.12017988374E+04  0.25500000920E-02 0.  1.
</event>
<event>
 5   0  0.2847158E-05  0.2394755E+04  0.7818609E-02  0.8441470E-01
       -1   -1    0    0    0  501  0.00000000000E+00  0.00000000000E+00  0.15345065399E+04  0.15345065399E+04  0.50400001928E-02 0.  1.
        1   -1    0    0  501    0  0.00000000000E+00  0.00000000000E+00 -0.93431494746E+03  0.93431494747E+03  0.50400001928E-02 0. -1.
    10030    2    1    2    0    0  0.00000000000E+00  0.00000000000E+00  0.60019159241E+03  0.24688214873E+04  0.23947545989E+04 0.  0.
        5    1    3    3  502    0 -0.11942797374E+03 -0.19183618235E+03  0.15123147082E+04  0.15291115160E+04  0.46999998093E+01 0.  1.
       -5    1    3    3    0  502  0.11942797374E+03  0.19183618235E+03 -0.91212311582E+03  0.93970997131E+03  0.46999998093E+01 0. -1.
</event>
<event>
 5   0  0.6714629E-05  0.2410164E+04  0.7818609E-02  0.8435708E-01
       -2   -1    0    0    0  501  0.00000000000E+00  0.00000000000E+00  0.20647037430E+04  0.20647037430E+04  0.25500000920E-02 0.  1.
        2   -1    0    0  501    0  0.00000000000E+00  0.00000000000E+00 -0.70335654649E+03  0.70335654650E+03  0.25500000920E-02 0. -1.
    10030    2    1    2    0    0  0.00000000000E+00  0.00000000000E+00  0.13613471965E+04  0.27680602895E+04  0.24101642220E+04 0.  0.
        3    1    3    3  502    0 -0.47811334172E+03 -0.83647214744E+03  0.15120002486E+04  0.17928811402E+04  0.10100000352E+00 0.  1.
       -3    1    3    3    0  502  0.47811334172E+03  0.83647214744E+03 -0.15065305206E+03  0.97517914932E+03  0.10100000352E+00 0. -1.
</event>
<event>
 5   0  0.2943244E-05  0.2442280E+04  0.7818609E-02  0.8423842E-01
        1   -1    0    0  501    0  0.00000000000E+00  0.00000000000E+00  0.16368640811E+04  0.16368640811E+04  0.50400001928E-02 0.  1.
       -1   -1    0    0    0  501  0.00000000000E+00  0.00000000000E+00 -0.91099963611E+03  0.91099963613E+03  0.50400001928E-02 0. -1.
    10030    2    1    2    0    0  0.00000000000E+00  0.00000000000E+00  0.72586444494E+03  0.25478637172E+04  0.24422797401E+04 0.  0.
        3    1    3    3  502    0  0.11715103599E+04  0.29383747959E+03  0.55073011582E+03  0.13274338621E+04  0.10100000352E+00 0.  1.
       -3    1    3    3    0  502 -0.11715103599E+04 -0.29383747959E+03  0.17513432912E+03  0.12204298551E+04  0.10100000352E+00 0. -1.
</event>
<event>
 5   0  0.2915546E-05  0.2362217E+04  0.7818609E-02  0.8453786E-01
        1   -1    0    0  501    0  0.00000000000E+00  0.00000000000E+00  0.58178013356E+03  0.58178013358E+03  0.50400001928E-02 0.  1.
       -1   -1    0    0    0  501  0.00000000000E+00  0.00000000000E+00 -0.23978427422E+04  0.23978427422E+04  0.50400001928E-02 0. -1.
    10030    2    1    2    0    0  0.00000000000E+00  0.00000000000E+00 -0.18160626086E+04  0.29796228758E+04  0.23622169848E+04 0.  0.
        2    1    3    3  502    0  0.23183806385E+03  0.73393667092E+03  0.22200536420E+03  0.80106073834E+03  0.25500000920E-02 0.  1.
       -2    1    3    3    0  502 -0.23183806385E+03 -0.73393667092E+03 -0.20380679728E+04  0.21785621374E+04  0.25500000920E-02 0. -1.
</event>
<event>
 5   0  0.6600166E-05  0.2445182E+04  0.7818609E-02  0.8422779E-01
        2   -1    0    0  501    0  0.00000000000E+00  0.00000000000E+00  0.22050160789E+04  0.22050160789E+04  0.25500000920E-02 0.  1.
       -2   -1    0    0    0  501  0.00000000000E+00  0.00000000000E+00 -0.67787633322E+03  0.67787633322E+03  0.25500000920E-02 0. -1.
    10030    2    1    2    0    0  0.00000000000E+00  0.00000000000E+00  0.15271397457E+04  0.28828924121E+04  0.24451815591E+04 0.  0.
        5    1    3    3  502    0 -0.95785237111E+03  0.60348073835E+03  0.13077513810E+04  0.17297126729E+04  0.46999998093E+01 0.  1.
       -5    1    3    3    0  502  0.95785237111E+03 -0.60348073835E+03  0.21938836473E+03  0.11531797392E+04  0.46999998093E+01 0. -1.
</event>
<event>
 5   0  0.6714629E-05  0.2359128E+04  0.7818609E-02  0.8454966E-01
       -2   -1    0    0    0  501  0.00000000000E+00  0.00000000000E+00  0.16057202443E+04  0.16057202443E+04  0.25500000920E-02 0.  1.
        2   -1    0    0  501    0  0.00000000000E+00  0.00000000000E+00 -0.86650912081E+03  0.86650912081E+03  0.25500000920E-02 0. -1.
    10030    2    1    2    0    0  0.00000000000E+00  0.00000000000E+00  0.73921112348E+03  0.24722293651E+04  0.23591280060E+04 0.  0.
        3    1    3    3  502    0  0.54487360471E+03 -0.32963282203E+03 -0.67088328437E+03  0.92500239671E+03  0.10100000352E+00 0. -1.
       -3    1    3    3    0  502 -0.54487360471E+03  0.32963282203E+03  0.14100944079E+04  0.15472269684E+04  0.10100000352E+00 0.  1.
</event>
<event>
 5   0  0.2943123E-05  0.2361636E+04  0.7818609E-02  0.8454008E-01
       -1   -1    0    0    0  501  0.00000000000E+00  0.00000000000E+00  0.57373863188E+03  0.57373863190E+03  0.50400001928E-02 0.  1.
        1   -1    0    0  501    0  0.00000000000E+00  0.00000000000E+00 -0.24302556862E+04  0.24302556862E+04  0.50400001928E-02 0. -1.
    10030    2    1    2    0    0  0.00000000000E+00  0.00000000000E+00 -0.18565170543E+04  0.30039943181E+04  0.23616363586E+04 0.  0.
        1    1    3    3  502    0 -0.79019278738E+03 -0.72236274361E+03 -0.15618598711E+04  0.18935730331E+04  0.50400001928E-02 0. -1.
       -1    1    3    3    0  502  0.79019278738E+03  0.72236274361E+03 -0.29465718323E+03  0.11104212850E+04  0.50400001928E-02 0.  1.
</event>
<event>
 5   0  0.6978115E-05  0.2357687E+04  0.7818609E-02  0.8455517E-01
        2   -1    0    0  501    0  0.00000000000E+00  0.00000000000E+00  0.10891393211E+04  0.10891393212E+04  0.25500000920E-02 0.  1.
       -2   -1    0    0    0  501  0.00000000000E+00  0.00000000000E+00 -0.12759361459E+04  0.12759361459E+04  0.25500000920E-02 0. -1.
    10030    2    1    2    0    0  0.00000000000E+00  0.00000000000E+00 -0.18679682472E+03  0.23650754670E+04  0.23576871953E+04 0.  0.
        4    1    3    3  502    0  0.48823717590E+03  0.12841741939E+03 -0.11620084646E+04  0.12669379852E+04  0.12699999809E+01 0. -1.
       -4    1    3    3    0  502 -0.48823717590E+03 -0.12841741939E+03  0.97521163990E+03  0.10981374818E+04  0.12699999809E+01 0.  1.
</event>
<event>
 5   0  0.6337926E-05  0.2402007E+04  0.7818609E-02  0.8438752E-01
        2   -1    0    0  501    0  0.00000000000E+00  0.00000000000E+00  0.11424480197E+04  0.11424480197E+04  0.25500000920E-02 0. -1.
       -2   -1    0    0    0  501  0.00000000000E+00  0.00000000000E+00 -0.12625604509E+04  0.12625604509E+04  0.25500000920E-02 0.  1.
    10030    2    1    2    0    0  0.00000000000E+00  0.00000000000E+00 -0.12011243121E+03  0.24050084705E+04  0.24020072330E+04 0.  0.
        1    1    3    3  502    0  0.17347810609E+03  0.21099182740E+03  0.11109338199E+04  0.11440219214E+04  0.50400001928E-02 0. -1.
       -1    1    3    3    0  502 -0.17347810609E+03 -0.21099182740E+03 -0.12310462511E+04  0.12609865491E+04  0.50400001928E-02 0.  1.
</event>
<event>
 5   0  0.6714629E-05  0.2386687E+04  0.7818609E-02  0.8444505E-01
        2   -1    0    0  501    0  0.00000000000E+00  0.00000000000E+00  0.14332246551E+04  0.14332246551E+04  0.25500000920E-02 0.  1.
       -2   -1    0    0    0  501  0.00000000000E+00  0.00000000000E+00 -0.99361140883E+03  0.99361140883E+03  0.25500000920E-02 0. -1.
    10030    2    1    2    0    0  0.00000000000E+00  0.00000000000E+00  0.43961324627E+03  0.24268360639E+04  0.23866867149E+04 0.  0.
        3    1    3    3  502    0  0.38027204575E+03 -0.45483597224E+03 -0.83327258819E+03  0.10226562506E+04  0.10100000352E+00 0. -1.
       -3    1    3    3    0  502 -0.38027204575E+03  0.45483597224E+03  0.12728858345E+04  0.14041798133E+04  0.10100000352E+00 0.  1.
</event>
<event>
 5   0  0.2847158E-05  0.2252700E+04  0.7818609E-02  0.8496808E-01
        1   -1    0    0  501    0  0.00000000000E+00  0.00000000000E+00  0.11175376443E+04  0.11175376443E+04  0.50400001928E-02 0. -1.
       -1   -1    0    0    0  501  0.00000000000E+00  0.00000000000E+00 -0.11352319820E+04  0.11352319820E+04  0.50400001928E-02 0.  1.
    10030    2    1    2    0    0  0.00000000000E+00  0.00000000000E+00 -0.17694337726E+02  0.22527696264E+04  0.22527001354E+04 0.  0.
        5    1    3    3  502    0  0.13685707778E+03  0.44313375076E+03 -0.10353022358E+04  0.11344470857E+04  0.46999998093E+01 0.  1.
       -5    1    3    3    0  502 -0.13685707778E+03 -0.44313375076E+03  0.10176078981E+04  0.11183225407E+04  0.46999998093E+01 0. -1.
</event>
<event>
 5   0  0.2915546E-05  0.2351818E+04  0.7818609E-02  0.8457766E-01
        1   -1    0    0  501    0  0.00000000000E+00  0.00000000000E+00  0.23137785662E+04  0.23137785662E+04  0.50400001928E-02 0.  1.
       -1   -1    0    0    0  501  0.00000000000E+00  0.00000000000E+00 -0.59762058293E+03  0.59762058295E+03  0.50400001928E-02 0. -1.
    10030    2    1    2    0    0  0.00000000000E+00  0.00000000000E+00  0.17161579833E+04  0.29113991492E+04  0.23518177613E+04 0.  0.
        2    1    3    3  502    0  0.11332610306E+04 -0.14437240118E+03  0.12030118222E+04  0.16590242307E+04  0.25500000920E-02 0. -1.
       -2    1    3    3    0  502 -0.11332610306E+04  0.14437240118E+03  0.51314616106E+03  0.12523749184E+04  0.25500000920E-02 0.  1.
</event>
<event>
 5   0  0.2943123E-05  0.2325810E+04  0.7818609E-02  0.8467814E-01
        1   -1    0    0  501    0  0.00000000000E+00  0.00000000000E+00  0.15804726012E+04  0.15804726012E+04  0.50400001928E-02 0. -1.
       -1   -1    0    0    0  501  0.00000000000E+00  0.00000000000E+00 -0.85566067640E+03  0.85566067642E+03  0.50400001928E-02 0.  1.
    10030    2    1    2    0    0  0.00000000000E+00  0.00000000000E+00  0.72481192476E+03  0.24361332776E+04  0.23258101857E+04 0.  0.
        1    1    3    3  502    0  0.56138788402E+03  0.97482893323E+03  0.53634049891E+02  0.11261991017E+04  0.50400001928E-02 0. -1.
       -1    1    3    3    0  502 -0.56138788402E+03 -0.97482893323E+03  0.67117787487E+03  0.13099341759E+04  0.50400001928E-02 0.  1.
</event>
<event>
 5   0  0.6703961E-05  0.2380470E+04  0.7818609E-02  0.8446852E-01
       -2   -1    0    0    0  501  0.00000000000E+00  0.00000000000E+00  0.89631769420E+03  0.89631769421E+03  0.25500000920E-02 0. -1.
        2   -1    0    0  501    0  0.00000000000E+00  0.00000000000E+00 -0.15805324873E+04  0.15805324873E+04  0.25500000920E-02 0.  1.
    10030    2    1    2    0    0  0.00000000000E+00  0.00000000000E+00 -0.68421479312E+03  0.24768501815E+04  0.23804698987E+04 0.  0.
        2    1    3    3  502    0 -0.11641971147E+04 -0.21913704302E+03 -0.46202681968E+03  0.12715521018E+04  0.25500000920E-02 0.  1.
       -2    1    3    3    0  502  0.11641971147E+04  0.21913704302E+03 -0.22218797344E+03  0.12052980797E+04  0.25500000920E-02 0. -1.
</event>
<event>
 5   0  0.6978115E-05  0.2408227E+04  0.7818609E-02  0.8436430E-01
        2   -1    0    0  501    0  0.00000000000E+00  0.00000000000E+00  0.14931979175E+04  0.14931979175E+04  0.25500000920E-02 0.  1.
       -2   -1    0    0    0  501  0.00000000000E+00  0.00000000000E+00 -0.97099633148E+03  0.97099633148E+03  0.25500000920E-02 0. -1.
    10030    2    1    2    0    0  0.00000000000E+00  0.00000000000E+00  0.52220158599E+03  0.24641942490E+04  0.24082273149E+04 0.  0.
        4    1    3    3  502    0 -0.35780593509E+03 -0.45735246489E+03  0.13404572411E+04  0.14608297616E+04  0.12699999809E+01 0.  1.
       -4    1    3    3    0  502  0.35780593509E+03  0.45735246489E+03 -0.81825565514E+03  0.10033644873E+04  0.12699999809E+01 0. -1.
</event>
<event>
 5   0  0.2915546E-05  0.2387227E+04  0.7818609E-02  0.8444301E-01
       -1   -1    0    0    0  501  0.00000000000E+00  0.00000000000E+00  0.58886287965E+03  0.58886287968E+03  0.50400001928E-02 0.  1.
        1   -1    0    0  501    0  0.00000000000E+00  0.00000000000E+00 -0.24194311884E+04  0.24194311884E+04  0.50400001928E-02 0. -1.
    10030    2    1    2    0    0  0.00000000000E+00  0.00000000000E+00 -0.18305683087E+04  0.30082940681E+04  0.23872270246E+04 0.  0.
        2    1    3    3  502    0 -0.70174580656E+03  0.96546695528E+03 -0.90039513371E+03  0.14950869592E+04  0.25500000920E-02 0.  1.
       -2    1    3    3    0  502  0.70174580656E+03 -0.96546695528E+03 -0.93017317502E+03  0.15132071089E+04  0.25500000920E-02 0. -1.
</event>
<event>
 5   0  0.2847158E-05  0.2392507E+04  0.7818609E-02  0.8442314E-01
        1   -1    0    0  501    0  0.00000000000E+00  0.00000000000E+00  0.91794766690E+03  0.91794766692E+03  0.50400001928E-02 0.  1.
       -1   -1    0    0    0  501  0.00000000000E+00  0.00000000000E+00 -0.15589371385E+04  0.15589371385E+04  0.50400001928E-02 0. -1.
    10030    2    1    2    0    0  0.00000000000E+00  0.00000000000E+00 -0.64098947161E+03  0.24768848054E+04  0.23925072281E+04 0.  0.
        5    1    3    3  502    0 -0.22151982404E+03 -0.38342482836E+03  0.82996409277E+03  0.94071681006E+03  0.46999998093E+01 0.  1.
       -5    1    3    3    0  502  0.22151982404E+03  0.38342482836E+03 -0.14709535644E+04  0.15361679954E+04  0.46999998093E+01 0. -1.
</event>
<event>
 5   0  0.2915546E-05  0.2248258E+04  0.7818609E-02  0.8498606E-01
       -1   -1    0    0    0  501  0.00000000000E+00  0.00000000000E+00  0.59025366671E+03  0.59025366673E+03  0.50400001928E-02 0.  1.
        1   -1    0    0  501    0  0.00000000000E+00  0.00000000000E+00 -0.21408865946E+04  0.21408865946E+04  0.50400001928E-02 0. -1.
    10030    2    1    2    0    0  0.00000000000E+00  0.00000000000E+00 -0.15506329279E+04  0.27311402613E+04  0.22482581369E+04 0.  0.
        2    1    3    3  502    0 -0.43161958219E+02  0.73379109767E+02 -0.21369650169E+04  0.21386600786E+04  0.25500000920E-02 0. -1.
       -2    1    3    3    0  502  0.43161958219E+02 -0.73379109767E+02  0.58633208898E+03  0.59248018276E+03  0.25500000920E-02 0.  1.
</event>
<event>
 5   0  0.2339125E-05  0.2437608E+04  0.7818609E-02  0.8425556E-01
        3   -1    0    0  501    0  0.00000000000E+00  0.00000000000E+00  0.82982438307E+03  0.82982438922E+03  0.10100000352E+00 0.  1.
       -3   -1    0    0    0  501  0.00000000000E+00  0.00000000000E+00 -0.17901176065E+04  0.17901176093E+04  0.10100000352E+00 0. -1.
    10030    2    1    2    0    0  0.00000000000E+00  0.00000000000E+00 -0.96029322338E+03  0.26199419985E+04  0.24376080490E+04 0.  0.
        1    1    3    3  502    0  0.85227874525E+03 -0.44989335465E+03 -0.12820803305E+04  0.16039055658E+04  0.50400001928E-02 0. -1.
       -1    1    3    3    0  502 -0.85227874525E+03  0.44989335465E+03  0.32178710715E+03  0.10160364327E+04  0.50400001928E-02 0.  1.
</event>
<event>
 5   0  0.6703961E-05  0.2375791E+04  0.7818609E-02  0.8448623E-01
       -2   -1    0    0    0  501  0.00000000000E+00  0.00000000000E+00  0.81510786020E+03  0.81510786020E+03  0.25500000920E-02 0.  1.
        2   -1    0    0  501    0  0.00000000000E+00  0.00000000000E+00 -0.17311771109E+04  0.17311771109E+04  0.25500000920E-02 0. -1.
    10030    2    1    2    0    0  0.00000000000E+00  0.00000000000E+00 -0.91606925070E+03  0.25462849711E+04  0.23757912960E+04 0.  0.
        2    1    3    3  502    0 -0.15132633422E+03  0.47128185963E+02 -0.17197938026E+04  0.17270817725E+04  0.25500000920E-02 0. -1.
       -2    1    3    3    0  502  0.15132633422E+03 -0.47128185963E+02  0.80372455189E+03  0.81920319864E+03  0.25500000920E-02 0.  1.
</event>
<event>
 5   0  0.6714629E-05  0.2319681E+04  0.7818609E-02  0.8470201E-01
       -2   -1    0    0    0  501  0.00000000000E+00  0.00000000000E+00  0.16313061039E+04  0.16313061039E+04  0.25500000920E-02 0. -1.
        2   -1    0    0  501    0  0.00000000000E+00  0.00000000000E+00 -0.82463395055E+03  0.82463395055E+03  0.25500000920E-02 0.  1.
    10030    2    1    2    0    0  0.00000000000E+00  0.00000000000E+00  0.80667215336E+03  0.24559400545E+04  0.23196813549E+04 0.  0.
        3    1    3    3  502    0  0.93080785513E+03  0.13001829989E+03  0.11229075298E+04  0.14643187331E+04  0.10100000352E+00 0. -1.
       -3    1    3    3    0  502 -0.93080785513E+03 -0.13001829989E+03 -0.31623537642E+03  0.99162132136E+03  0.10100000352E+00 0.  1.
</event>
<event>
 5   0  0.6703961E-05  0.2420442E+04  0.7818609E-02  0.8431890E-01
       -2   -1    0    0    0  501  0.00000000000E+00  0.00000000000E+00  0.69028195542E+03  0.69028195542E+03  0.25500000920E-02 0. -1.
        2   -1    0    0  501    0  0.00000000000E+00  0.00000000000E+00 -0.21217919561E+04  0.21217919561E+04  0.25500000920E-02 0.  1.
    10030    2    1    2    0    0  0.00000000000E+00  0.00000000000E+00 -0.14315100007E+04  0.28120739115E+04  0.24204418608E+04 0.  0.
        2    1    3    3  502    0 -0.53773702583E+03  0.72852953566E+03 -0.16486163016E+04  0.18809178885E+04  0.25500000920E-02 0.  1.
       -2    1    3    3    0  502  0.53773702583E+03 -0.72852953566E+03  0.21710630095E+03  0.93115602302E+03  0.25500000920E-02 0. -1.
</event>
<event>
 5   0  0.2943244E-05  0.2412762E+04  0.7818609E-02  0.8434741E-01
       -1   -1    0    0    0  501  0.00000000000E+00  0.00000000000E+00  0.71309780240E+03  0.71309780242E+03  0.50400001928E-02 0.  1.
        1   -1    0    0  501    0  0.00000000000E+00  0.00000000000E+00 -0.20408918209E+04  0.20408918209E+04  0.50400001928E-02 0. -1.
    10030    2    1    2    0    0  0.00000000000E+00  0.00000000000E+00 -0.13277940185E+04  0.27539896233E+04  0.24127622945E+04 0.  0.
        3    1    3    3  502    0  0.12041761124E+04  0.27640696002E+02 -0.58689224093E+03  0.13398681392E+04  0.10100000352E+00 0. -1.
       -3    1    3    3    0  502 -0.12041761124E+04 -0.27640696002E+02 -0.74090177758E+03  0.14141214842E+04  0.10100000352E+00 0.  1.
</event>
<event>
 5   0  0.2847158E-05  0.2441453E+04  0.7818609E-02  0.8424145E-01
        1   -1    0    0  501    0  0.00000000000E+00  0.00000000000E+00  0.16240046448E+04  0.16240046448E+04  0.50400001928E-02 0.  1.
       -1   -1    0    0    0  501  0.00000000000E+00  0.00000000000E+00 -0.91759193703E+03  0.91759193704E+03  0.50400001928E-02 0. -1.
    10030    2    1    2    0    0  0.00000000000E+00  0.00000000000E+00  0.70641270773E+03  0.25415965818E+04  0.24414533112E+04 0.  0.
        5    1    3    3  502    0 -0.17912644462E+03 -0.91689010798E+03 -0.46475667053E+03  0.10434532122E+04  0.46999998093E+01 0. -1.
       -5    1    3    3    0  502  0.17912644462E+03  0.91689010798E+03  0.11711693783E+04  0.14981433696E+04  0.46999998093E+01 0.  1.
</event>
<event>
 5   0  0.6600166E-05  0.2396813E+04  0.7818609E-02  0.8440698E-01
       -2   -1    0    0    0  501  0.00000000000E+00  0.00000000000E+00  0.97805195743E+03  0.97805195743E+03  0.25500000920E-02 0.  1.
        2   -1    0    0  501    0  0.00000000000E+00  0.00000000000E+00 -0.14684063151E+04  0.14684063151E+04  0.25500000920E-02 0. -1.
    10030    2    1    2    0    0  0.00000000000E+00  0.00000000000E+00 -0.49035435763E+03  0.24464582725E+04  0.23968126091E+04 0.  0.
        5    1    3    3  502    0  0.39014593510E+02 -0.10736547281E+04 -0.78711626436E+03  0.13318523632E+04  0.46999998093E+01 0.  1.
       -5    1    3    3    0  502 -0.39014593510E+02  0.10736547281E+04  0.29676190674E+03  0.11146059093E+04  0.46999998093E+01 0. -1.
</event>
<event>
 5   0  0.2847158E-05  0.2373629E+04  0.7818609E-02  0.8449443E-01
        1   -1    0    0  501    0  0.00000000000E+00  0.00000000000E+00  0.11889573808E+04  0.11889573808E+04  0.50400001928E-02 0. -1.
       -1   -1    0    0    0  501  0.00000000000E+00  0.00000000000E+00 -0.11846759269E+04  0.11846759270E+04  0.50400001928E-02 0.  1.
    10030    2    1    2    0    0  0.00000000000E+00  0.00000000000E+00  0.42814538226E+01  0.23736333077E+04  0.23736294464E+04 0.  0.
        5    1    3    3  502    0 -0.37813456618E+03  0.81812051473E+03  0.77428197707E+03  0.11882094078E+04  0.46999998093E+01 0. -1.
       -5    1    3    3    0  502  0.37813456618E+03 -0.81812051473E+03 -0.77000052324E+03  0.11854238999E+04  0.46999998093E+01 0.  1.
</event>
<event>
 5   0  0.2915546E-05  0.2398063E+04  0.7818609E-02  0.8440229E-01
        1   -1    0    0  501    0  0.00000000000E+00  0.00000000000E+00  0.11806165520E+04  0.11806165520E+04  0.50400001928E-02 0. -1.
       -1   -1    0    0    0  501  0.00000000000E+00  0.00000000000E+00 -0.12177341434E+04  0.12177341434E+04  0.50400001928E-02 0.  1.
    10030    2    1    2    0    0  0.00000000000E+00  0.00000000000E+00 -0.37117591385E+02  0.23983506954E+04  0.23980634567E+04 0.  0.
        2    1    3    3  502    0 -0.11563171832E+03  0.11948647931E+02 -0.12120850051E+04  0.12176467156E+04  0.25500000920E-02 0.  1.
       -2    1    3    3    0  502  0.11563171832E+03 -0.11948647931E+02  0.11749674137E+04  0.11807039797E+04  0.25500000920E-02 0. -1.
</event>
<event>
 5   0  0.6600166E-05  0.2331917E+04  0.7818609E-02  0.8465442E-01
       -2   -1    0    0    0  501  0.00000000000E+00  0.00000000000E+00  0.11668361620E+04  0.11668361620E+04  0.25500000920E-02 0.  1.
        2   -1    0    0  501    0  0.00000000000E+00  0.00000000000E+00 -0.11650813835E+04  0.11650813835E+04  0.25500000920E-02 0. -1.
    10030    2    1    2    0    0  0.00000000000E+00  0.00000000000E+00  0.17547784702E+01  0.23319175455E+04  0.23319168852E+04 0.  0.
        5    1    3    3  502    0  0.38737058830E+03  0.40604016206E+03 -0.10211368012E+04  0.11651897024E+04  0.46999998093E+01 0. -1.
       -5    1    3    3    0  502 -0.38737058830E+03 -0.40604016206E+03  0.10228915797E+04  0.11667278430E+04  0.46999998093E+01 0.  1.
</event>
<event>
 5   0  0.2943123E-05  0.2397505E+04  0.7818609E-02  0.8440438E-01
        1   -1    0    0  501    0  0.00000000000E+00  0.00000000000E+00  0.73979326814E+03  0.73979326816E+03  0.50400001928E-02 0.  1.
       -1   -1    0    0    0  501  0.00000000000E+00  0.00000000000E+00 -0.19424452877E+04  0.19424452877E+04  0.50400001928E-02 0. -1.
    10030    2    1    2    0    0  0.00000000000E+00  0.00000000000E+00 -0.12026520196E+04  0.26822385559E+04  0.23975053265E+04 0.  0.
        1    1    3    3  502    0 -0.10750313497E+04  0.23670841995E+03 -0.11323371583E+04  0.15792120564E+04  0.50400001928E-02 0. -1.
       -1    1    3    3    0  502  0.10750313497E+04 -0.23670841995E+03 -0.70314861294E+02  0.11030264995E+04  0.50400001928E-02 0.  1.
</event>
<event>
 5   0  0.6714629E-05  0.2396675E+04  0.7818609E-02  0.8440749E-01
        2   -1    0    0  501    0  0.00000000000E+00  0.00000000000E+00  0.12205140301E+04  0.12205140301E+04  0.25500000920E-02 0. -1.
       -2   -1    0    0    0  501  0.00000000000E+00  0.00000000000E+00 -0.11765640992E+04  0.11765640992E+04  0.25500000920E-02 0.  1.
    10030    2    1    2    0    0  0.00000000000E+00  0.00000000000E+00  0.43949930952E+02  0.23970781293E+04  0.23966751890E+04 0.  0.
        3    1    3    3  502    0  0.26937537635E+02 -0.16776863186E+03  0.12084041566E+04  0.12202919981E+04  0.10100000352E+00 0. -1.
       -3    1    3    3    0  502 -0.26937537635E+02  0.16776863186E+03 -0.11644542256E+04  0.11767861312E+04  0.10100000352E+00 0.  1.
</event>
<event>
 5   0  0.6337926E-05  0.2384780E+04  0.7818609E-02  0.8445224E-01
        2   -1    0    0  501    0  0.00000000000E+00  0.00000000000E+00  0.18293504397E+04  0.18293504397E+04  0.25500000920E-02 0.  1.
       -2   -1    0    0    0  501  0.00000000000E+00  0.00000000000E+00 -0.77721260040E+03  0.77721260040E+03  0.25500000920E-02 0. -1.
    10030    2    1    2    0    0  0.00000000000E+00  0.00000000000E+00  0.10521378393E+04  0.26065630401E+04  0.23847802517E+04 0.  0.
        1    1    3    3  502    0  0.67245802747E+03  0.66697446792E+03 -0.26568775541E+03  0.98368934271E+03  0.50400001928E-02 0. -1.
       -1    1    3    3    0  502 -0.67245802747E+03 -0.66697446792E+03  0.13178255947E+04  0.16228736974E+04  0.50400001928E-02 0.  1.
</event>
<event>
 5   0  0.6714629E-05  0.2417555E+04  0.7818609E-02  0.8432960E-01
       -2   -1    0    0    0  501  0.00000000000E+00  0.00000000000E+00  0.87835795847E+03  0.87835795847E+03  0.25500000920E-02 0. -1.
        2   -1    0    0  501    0  0.00000000000E+00  0.00000000000E+00 -0.16634941186E+04  0.16634941186E+04  0.25500000920E-02 0.  1.
    10030    2    1    2    0    0  0.00000000000E+00  0.00000000000E+00 -0.78513616013E+03  0.25418520771E+04  0.24175552097E+04 0.  0.
        3    1    3    3  502    0 -0.38111232382E+03  0.10600392202E+04  0.68394696146E+02  0.11285422439E+04  0.10100000352E+00 0. -1.
       -3    1    3    3    0  502  0.38111232382E+03 -0.10600392202E+04 -0.85353085628E+03  0.14133098331E+04  0.10100000352E+00 0.  1.
</event>
<event>
 5   0  0.2915546E-05  0.2369294E+04  0.7818609E-02  0.8451090E-01
        1   -1    0    0  501    0  0.00000000000E+00  0.00000000000E+00  0.15585122116E+04  0.15585122116E+04  0.50400001928E-02 0.  1.
       -1   -1    0    0    0  501  0.00000000000E+00  0.00000000000E+00 -0.90046683266E+03  0.90046683268E+03  0.50400001928E-02 0. -1.
    10030    2    1    2    0    0  0.00000000000E+00  0.00000000000E+00  0.65804537896E+03  0.24589790443E+04  0.23692940340E+04 0.  0.
        2    1    3    3  502    0 -0.38658104830E+03 -0.12802400950E+03  0.14835862815E+04  0.15384613445E+04  0.25500000920E-02 0.  1.
       -2    1    3    3    0  502  0.38658104830E+03  0.12802400950E+03 -0.82554090252E+03  0.92051769981E+03  0.25500000920E-02 0. -1.
</event>
<event>
 5   0  0.6978115E-05  0.2426482E+04  0.7818609E-02  0.8429655E-01
       -2   -1    0    0    0  501  0.00000000000E+00  0.00000000000E+00  0.11974465559E+04  0.11974465559E+04  0.25500000920E-02 0. -1.
        2   -1    0    0  501    0  0.00000000000E+00  0.00000000000E+00 -0.12292436804E+04  0.12292436804E+04  0.25500000920E-02 0.  1.
    10030    2    1    2    0    0  0.00000000000E+00  0.00000000000E+00 -0.31797124498E+02  0.24266902364E+04  0.24264819072E+04 0.  0.
        4    1    3    3  502    0 -0.14247857789E+02  0.11604904565E+04 -0.36949772022E+03  0.12179783574E+04  0.12699999809E+01 0.  1.
       -4    1    3    3    0  502  0.14247857789E+02 -0.11604904565E+04  0.33770059572E+03  0.12087118789E+04  0.12699999809E+01 0. -1.
</event>
<event>
 5   0  0.2847158E-05  0.2421785E+04  0.7818609E-02  0.8431392E-01
        1   -1    0    0  501    0  0.00000000000E+00  0.00000000000E+00  0.24224758270E+04  0.24224758270E+04  0.50400001928E-02 0.  1.
       -1   -1    0    0    0  501  0.00000000000E+00  0.00000000000E+00 -0.60527355427E+03  0.60527355429E+03  0.50400001928E-02 0. -1.
    10030    2    1    2    0    0  0.00000000000E+00  0.00000000000E+00  0.18172022728E+04  0.30277493813E+04  0.24217849236E+04 0.  0.
        5    1    3    3  502    0  0.78541537841E+03 -0.26230044561E+03  0.20131562589E+04  0.21768093746E+04  0.46999998093E+01 0.  1.
       -5    1    3    3    0  502 -0.78541537841E+03  0.26230044561E+03 -0.19595398616E+03  0.85094000675E+03  0.46999998093E+01 0. -1.
</event>
<event>
 5   0  0.2339125E-05  0.2468854E+04  0.7818609E-02  0.8414166E-01
       -4   -1    0    0    0  501  0.00000000000E+00  0.00000000000E+00  0.10141328941E+04  0.10141336893E+04  0.12699999809E+01 0.  1.
        4   -1    0    0  501    0  0.00000000000E+00  0.00000000000E+00 -0.15025723957E+04  0.15025729324E+04  0.12699999809E+01 0. -1.
    10030    2    1    2    0    0  0.00000000000E+00  0.00000000000E+00 -0.48843950160E+03  0.25167066218E+04  0.24688537975E+04 0.  0.
        4    1    3    3  502    0 -0.71086179110E+03 -0.99249812638E+03 -0.57833959014E+02  0.12221797726E+04  0.12699999809E+01 0. -1.
       -4    1    3    3    0  502  0.71086179110E+03  0.99249812638E+03 -0.43060554258E+03  0.12945268491E+04  0.12699999809E+01 0.  1.
</event>
<event>
 5   0  0.2339125E-05  0.2410288E+04  0.7818609E-02  0.8435662E-01
       -3   -1    0    0    0  501  0.00000000000E+00  0.00000000000E+00  0.13786994752E+04  0.13786994789E+04  0.10100000352E+00 0. -1.
        3   -1    0    0  501    0  0.00000000000E+00  0.00000000000E+00 -0.10534362201E+04  0.10534362250E+04  0.10100000352E+00 0.  1.
    10030    2    1    2    0    0  0.00000000000E+00  0.00000000000E+00  0.32526325506E+03  0.24321357039E+04  0.24102879283E+04 0.  0.
        4    1    3    3  502    0  0.11925418589E+03 -0.71565714601E+03  0.11336345495E+04  0.13459255612E+04  0.12699999809E+01 0. -1.
       -4    1    3    3    0  502 -0.11925418589E+03  0.71565714601E+03 -0.80837129447E+03  0.10862101427E+04  0.12699999809E+01 0.  1.
</event>
<event>
 5   0  0.2915546E-05  0.2401902E+04  0.7818609E-02  0.8438792E-01
        1   -1    0    0  501    0  0.00000000000E+00  0.00000000000E+00  0.12815819666E+04  0.12815819666E+04  0.50400001928E-02 0.  1.
       -1   -1    0    0    0  501  0.00000000000E+00  0.00000000000E+00 -0.11253929311E+04  0.11253929311E+04  0.50400001928E-02 0. -1.
    10030    2    1    2    0    0  0.00000000000E+00  0.00000000000E+00  0.15618903551E+03  0.24069748977E+04  0.24019019845E+04 0.  0.
        2    1    3    3  502    0 -0.85518526220E+03  0.76841268739E+03 -0.26974576738E+03  0.11809160300E+04  0.25500000920E-02 0. -1.
       -2    1    3    3    0  502  0.85518526220E+03 -0.76841268739E+03  0.42593480289E+03  0.12260588677E+04  0.25500000920E-02 0.  1.
</event>
<event>
 5   0  0.2943244E-05  0.2390804E+04  0.7818609E-02  0.8442954E-01
        1   -1    0    0  501    0  0.00000000000E+00  0.00000000000E+00  0.14107766002E+04  0.14107766002E+04  0.50400001928E-02 0.  1.
       -1   -1    0    0    0  501  0.00000000000E+00  0.00000000000E+00 -0.10129073327E+04  0.10129073327E+04  0.50400001928E-02 0. -1.
    10030    2    1    2    0    0  0.00000000000E+00  0.00000000000E+00  0.39786926743E+03  0.24236839329E+04  0.23908040180E+04 0.  0.
        3    1    3    3  502    0 -0.32992634659E+03  0.94723361970E+03 -0.46030321700E+03  0.11036222117E+04  0.10100000352E+00 0. -1.
       -3    1    3    3    0  502  0.32992634659E+03 -0.94723361970E+03  0.85817248444E+03  0.13200617212E+04  0.10100000352E+00 0.  1.
</event>
<event>
 5   0  0.2847158E-05  0.2333279E+04  0.7818609E-02  0.8464914E-01
       -1   -1    0    0    0  501  0.00000000000E+00  0.00000000000E+00  0.67659307912E+03  0.67659307914E+03  0.50400001928E-02 0.  1.
        1   -1    0    0  501    0  0.00000000000E+00  0.00000000000E+00 -0.20116193351E+04  0.20116193351E+04  0.50400001928E-02 0. -1.
    10030    2    1    2    0    0  0.00000000000E+00  0.00000000000E+00 -0.13350262560E+04  0.26882124143E+04  0.23332789975E+04 0.  0.
        5    1    3    3  502    0 -0.76662985675E+03  0.46342575570E+03 -0.15285552268E+04  0.17717189223E+04  0.46999998093E+01 0. -1.
       -5    1    3    3    0  502  0.76662985675E+03 -0.46342575570E+03  0.19352897078E+03  0.91649349197E+03  0.46999998093E+01 0.  1.
</event>
<event>
 5   0  0.6600166E-05  0.2297824E+04  0.7818609E-02  0.8478780E-01
       -2   -1    0    0    0  501  0.00000000000E+00  0.00000000000E+00  0.95960200710E+03  0.95960200711E+03  0.25500000920E-02 0. -1.
        2   -1    0    0  501    0  0.00000000000E+00  0.00000000000E+00 -0.13755686057E+04  0.13755686057E+04  0.25500000920E-02 0.  1.
    10030    2    1    2    0    0  0.00000000000E+00  0.00000000000E+00 -0.41596659860E+03  0.23351706128E+04  0.22978236616E+04 0.  0.
        5    1    3    3  502    0 -0.95568856292E+03 -0.45813499403E+03 -0.65875545915E+03  0.12478818642E+04  0.46999998093E+01 0.  1.
       -5    1    3    3    0  502  0.95568856292E+03  0.45813499403E+03  0.24278886055E+03  0.10872887486E+04  0.46999998093E+01 0. -1.
</event>
<event>
 5   0  0.2943123E-05  0.2417220E+04  0.7818609E-02  0.8433085E-01
        1   -1    0    0  501    0  0.00000000000E+00  0.00000000000E+00  0.10185681974E+04  0.10185681975E+04  0.50400001928E-02 0. -1.
       -1   -1    0    0    0  501  0.00000000000E+00  0.00000000000E+00 -0.14341095245E+04  0.14341095245E+04  0.50400001928E-02 0.  1.
    10030    2    1    2    0    0  0.00000000000E+00  0.00000000000E+00 -0.41554132709E+03  0.24526777220E+04  0.24172201831E+04 0.  0.
        1    1    3    3  502    0 -0.15088873616E+03 -0.89583474776E+03  0.60107437232E+03  0.10893014767E+04  0.50400001928E-02 0. -1.
       -1    1    3    3    0  502  0.15088873616E+03  0.89583474776E+03 -0.10166156994E+04  0.13633762453E+04  0.50400001928E-02 0.  1.
</event>
<event>
 5   0  0.2847158E-05  0.2431752E+04  0.7818609E-02  0.8427711E-01
        1   -1    0    0  501    0  0.00000000000E+00  0.00000000000E+00  0.25922754182E+04  0.25922754182E+04  0.50400001928E-02 0.  1.
       -1   -1    0    0    0  501  0.00000000000E+00  0.00000000000E+00 -0.57029240020E+03  0.57029240022E+03  0.50400001928E-02 0. -1.
    10030    2    1    2    0    0  0.00000000000E+00  0.00000000000E+00  0.20219830180E+04  0.31625678184E+04  0.24317524300E+04 0.  0.
        5    1    3    3  502    0  0.99133288807E+03  0.50384075848E+03  0.16504194086E+04  0.19901011832E+04  0.46999998093E+01 0. -1.
       -5    1    3    3    0  502 -0.99133288807E+03 -0.50384075848E+03  0.37156360931E+03  0.11724666352E+04  0.46999998093E+01 0.  1.
</event>
<event>
 5   0  0.2901816E-05  0.2441071E+04  0.7818609E-02  0.8424285E-01
       -1   -1    0    0    0  501  0.00000000000E+00  0.00000000000E+00  0.83447202414E+03  0.83447202416E+03  0.50400001928E-02 0.  1.
        1   -1    0    0  501    0  0.00000000000E+00  0.00000000000E+00 -0.17852089975E+04  0.17852089975E+04  0.50400001928E-02 0. -1.
    10030    2    1    2    0    0  0.00000000000E+00  0.00000000000E+00 -0.95073697336E+03  0.26196810217E+04  0.24410710483E+04 0.  0.
        4    1    3    3  502    0 -0.80113649672E+03  0.27169481390E+03 -0.14195542272E+04  0.16525052421E+04  0.12699999809E+01 0. -1.
       -4    1    3    3    0  502  0.80113649672E+03 -0.27169481390E+03  0.46881725381E+03  0.96717577960E+03  0.12699999809E+01 0.  1.
</event>
<event>
 5   0  0.2915546E-05  0.2376325E+04  0.7818609E-02  0.8448421E-01
        1   -1    0    0  501    0  0.00000000000E+00  0.00000000000E+00  0.21376366389E+04  0.21376366389E+04  0.50400001928E-02 0. -1.
       -1   -1    0    0    0  501  0.00000000000E+00  0.00000000000E+00 -0.66041648704E+03  0.66041648706E+03  0.50400001928E-02 0.  1.
    10030    2    1    2    0    0  0.00000000000E+00  0.00000000000E+00  0.14772201519E+04  0.27980531260E+04  0.23763252973E+04 0.  0.
        2    1    3    3  502    0  0.93538330088E+03 -0.27239081805E+02 -0.12347739743E+03  0.94389117742E+03  0.25500000920E-02 0.  1.
       -2    1    3    3    0  502 -0.93538330088E+03  0.27239081805E+02  0.16006975493E+04  0.18541619486E+04  0.25500000920E-02 0. -1.
</event>
<event>
 5   0  0.6703961E-05  0.2296759E+04  0.7818609E-02  0.8479200E-01
       -2   -1    0    0    0  501  0.00000000000E+00  0.00000000000E+00  0.10795469796E+04  0.10795469796E+04  0.25500000920E-02 0. -1.
        2   -1    0    0  501    0  0.00000000000E+00  0.00000000000E+00 -0.12216007861E+04  0.12216007861E+04  0.25500000920E-02 0.  1.
    10030    2    1    2    0    0  0.00000000000E+00  0.00000000000E+00 -0.14205380654E+03  0.23011477657E+04  0.22967589677E+04 0.  0.
        2    1    3    3  502    0 -0.11272665964E+04 -0.15876001813E+03 -0.22244714850E+03  0.11599213148E+04  0.25500000920E-02 0.  1.
       -2    1    3    3    0  502  0.11272665964E+04  0.15876001813E+03  0.80393341962E+02  0.11412264509E+04  0.25500000920E-02 0. -1.
</event>
<event>
 5   0  0.6714629E-05  0.2391098E+04  0.7818609E-02  0.8442844E-01
       -2   -1    0    0    0  501  0.00000000000E+00  0.00000000000E+00  0.48657572654E+03  0.48657572655E+03  0.25500000920E-02 0.  1.
        2   -1    0    0  501    0  0.00000000000E+00  0.00000000000E+00 -0.29375438856E+04  0.29375438856E+04  0.25500000920E-02 0. -1.
    10030    2    1    2    0    0  0.00000000000E+00  0.00000000000E+00 -0.24509681590E+04  0.34241196121E+04  0.23910981163E+04 0.  0.
        3    1    3    3  502    0 -0.59403015134E+03 -0.61242425514E+03 -0.26163992617E+02  0.85359232289E+03  0.10100000352E+00 0.  1.
       -3    1    3    3    0  502  0.59403015134E+03  0.61242425514E+03 -0.24248041664E+04  0.25705272892E+04  0.10100000352E+00 0. -1.
</event>
<event>
 5   0  0.6978115E-05  0.2391496E+04  0.7818609E-02  0.8442694E-01
       -2   -1    0    0    0  501  0.00000000000E+00  0.00000000000E+00  0.16620419622E+04  0.16620419622E+04  0.25500000920E-02 0.  1.
        2   -1    0    0  501    0  0.00000000000E+00  0.00000000000E+00 -0.86027543408E+03  0.86027543408E+03  0.25500000920E-02 0. -1.
    10030    2    1    2    0    0  0.00000000000E+00  0.00000000000E+00  0.80176652808E+03  0.25223173962E+04  0.23914964942E+04 0.  0.
        4    1    3    3  502    0 -0.11852210317E+04 -0.30918029138E+02  0.56464239516E+03  0.13132126507E+04  0.12699999809E+01 0.  1.
       -4    1    3    3    0  502  0.11852210317E+04  0.30918029138E+02  0.23712413292E+03  0.12091047456E+04  0.12699999809E+01 0. -1.
</event>
<event>
 5   0  0.2847158E-05  0.2411878E+04  0.7818609E-02  0.8435070E-01
        1   -1    0    0  501    0  0.00000000000E+00  0.00000000000E+00  0.10683243827E+04  0.10683243827E+04  0.50400001928E-02 0. -1.
       -1   -1    0    0    0  501  0.00000000000E+00  0.00000000000E+00 -0.13612803682E+04  0.13612803682E+04  0.50400001928E-02 0.  1.
    10030    2    1    2    0    0  0.00000000000E+00  0.00000000000E+00 -0.29295598546E+03  0.24296047509E+04  0.24118781139E+04 0.  0.
        5    1    3    3  502    0 -0.11979952587E+04 -0.11955309903E+03 -0.21613340871E+03  0.12232012605E+04  0.46999998093E+01 0.  1.
       -5    1    3    3    0  502  0.11979952587E+04  0.11955309903E+03 -0.76822576748E+02  0.12064034904E+04  0.46999998093E+01 0. -1.
</event>
<event>
 5   0  0.6337926E-05  0.2378426E+04  0.7818609E-02  0.8447625E-01
       -2   -1    0    0    0  501  0.00000000000E+00  0.00000000000E+00  0.92258266419E+03  0.92258266420E+03  0.25500000920E-02 0. -1.
        2   -1    0    0  501    0  0.00000000000E+00  0.00000000000E+00 -0.15329007107E+04  0.15329007107E+04  0.25500000920E-02 0.  1.
    10030    2    1    2    0    0  0.00000000000E+00  0.00000000000E+00 -0.61031804654E+03  0.24554833749E+04  0.23784260524E+04 0.  0.
        1    1    3    3  502    0  0.38147404108E+03  0.10413538000E+03 -0.14630393388E+04  0.15155364490E+04  0.50400001928E-02 0.  1.
       -1    1    3    3    0  502 -0.38147404108E+03 -0.10413538000E+03  0.85272129222E+03  0.93994692596E+03  0.50400001928E-02 0. -1.
</event>
<event>
 5   0  0.6600166E-05  0.2382107E+04  0.7818609E-02  0.8446233E-01
       -2   -1    0    0    0  501  0.00000000000E+00  0.00000000000E+00  0.11828856261E+04  0.11828856261E+04  0.25500000920E-02 0.  1.
        2   -1    0    0  501    0  0.00000000000E+00  0.00000000000E+00 -0.11992772972E+04  0.11992772973E+04  0.25500000920E-02 0. -1.
    10030    2    1    2    0    0  0.00000000000E+00  0.00000000000E+00 -0.16391671108E+02  0.23821629234E+04  0.23821065272E+04 0.  0.
        5    1    3    3  502    0  0.57889161516E+03 -0.10178476109E+04 -0.22604618020E+03  0.11925804907E+04  0.46999998093E+01 0. -1.
       -5    1    3    3    0  502 -0.57889161516E+03  0.10178476109E+04  0.20965450909E+03  0.11895824327E+04  0.46999998093E+01 0.  1.
</event>
<event>
 5   0  0.2901816E-05  0.2410144E+04  0.7818609E-02  0.8435716E-01
       -1   -1    0    0    0  501  0.00000000000E+00  0.00000000000E+00  0.12369573151E+04  0.12369573151E+04  0.50400001928E-02 0. -1.
        1   -1    0    0  501    0  0.00000000000E+00  0.00000000000E+00 -0.11740086561E+04  0.11740086561E+04  0.50400001928E-02 0.  1.
    10030    2    1    2    0    0  0.00000000000E+00  0.00000000000E+00  0.62948659052E+02  0.24109659712E+04  0.24101440581E+04 0.  0.
        4    1    3    3  502    0  0.20132805860E+03 -0.71528300257E+03 -0.91755053298E+03  0.11807046008E+04  0.12699999809E+01 0.  1.
       -4    1    3    3    0  502 -0.20132805860E+03  0.71528300257E+03  0.98049919203E+03  0.12302613704E+04  0.12699999809E+01 0. -1.
</event>
<event>
 5   0  0.2915546E-05  0.2353103E+04  0.7818609E-02  0.8457273E-01
        1   -1    0    0  501    0  0.00000000000E+00  0.00000000000E+00  0.26699022065E+04  0.26699022065E+04  0.50400001928E-02 0.  1.
       -1   -1    0    0    0  501  0.00000000000E+00  0.00000000000E+00 -0.51847345648E+03  0.51847345651E+03  0.50400001928E-02 0. -1.
    10030    2    1    2    0    0  0.00000000000E+00  0.00000000000E+00  0.21514287500E+04  0.31883756630E+04  0.23531029944E+04 0.  0.
        2    1    3    3  502    0  0.40401316790E+03 -0.45322233457E+03 -0.28980433957E+03  0.67277312642E+03  0.25500000920E-02 0. -1.
       -2    1    3    3    0  502 -0.40401316790E+03  0.45322233457E+03  0.24412330896E+04  0.25156025366E+04  0.25500000920E-02 0.  1.
</event>
<event>
 5   0  0.2915546E-05  0.2351826E+04  0.7818609E-02  0.8457763E-01
       -1   -1    0    0    0  501  0.00000000000E+00  0.00000000000E+00  0.16032434004E+04  0.16032434004E+04  0.50400001928E-02 0. -1.
        1   -1    0    0  501    0  0.00000000000E+00  0.00000000000E+00 -0.86248388540E+03  0.86248388542E+03  0.50400001928E-02 0.  1.
    10030    2    1    2    0    0  0.00000000000E+00  0.00000000000E+00  0.74075951502E+03  0.24657272858E+04  0.23518261817E+04 0.  0.
        2    1    3    3  502    0 -0.44786071277E+03 -0.39931478358E+02  0.15095557278E+04  0.15750975323E+04  0.25500000920E-02 0. -1.
       -2    1    3    3    0  502  0.44786071277E+03  0.39931478358E+02 -0.76879621280E+03  0.89062975350E+03  0.25500000920E-02 0.  1.
</event>
<event>
 5   0  0.2943244E-05  0.2241125E+04  0.7818609E-02  0.8501503E-01
       -1   -1    0    0    0  501  0.00000000000E+00  0.00000000000E+00  0.10193389032E+04  0.10193389032E+04  0.50400001928E-02 0.  1.
        1   -1    0    0  501    0  0.00000000000E+00  0.00000000000E+00 -0.12318377797E+04  0.12318377798E+04  0.50400001928E-02 0. -1.
    10030    2    1    2    0    0  0.00000000000E+00  0.00000000000E+00 -0.21249887655E+03  0.22511766830E+04  0.22411248705E+04 0.  0.
        3    1    3    3  502    0 -0.90607443883E+03  0.65874823757E+03 -0.78923898146E+02  0.11230089586E+04  0.10100000352E+00 0. -1.
       -3    1    3    3    0  502  0.90607443883E+03 -0.65874823757E+03 -0.13357497840E+03  0.11281677243E+04  0.10100000352E+00 0.  1.
</event>
<event>
 5   0  0.2915546E-05  0.2444723E+04  0.7818609E-02  0.8422947E-01
       -1   -1    0    0    0  501  0.00000000000E+00  0.00000000000E+00  0.79037842529E+03  0.79037842531E+03  0.50400001928E-02 0. -1.
        1   -1    0    0  501    0  0.00000000000E+00  0.00000000000E+00 -0.18904460746E+04  0.18904460746E+04  0.50400001928E-02 0.  1.
    10030    2    1    2    0    0  0.00000000000E+00  0.00000000000E+00 -0.11000676493E+04  0.26808244999E+04  0.24447231267E+04 0.  0.
        2    1    3    3  502    0  0.11413616232E+04 -0.33737582156E+03 -0.24448638702E+03  0.12150318487E+04  0.25500000920E-02 0. -1.
       -2    1    3    3    0  502 -0.11413616232E+04  0.33737582156E+03 -0.85558126233E+03  0.14657926512E+04  0.25500000920E-02 0.  1.
</event>
<event>
 5   0  0.6703961E-05  0.2411338E+04  0.7818609E-02  0.8435271E-01
       -2   -1    0    0    0  501  0.00000000000E+00  0.00000000000E+00  0.97634430682E+03  0.97634430683E+03  0.25500000920E-02 0. -1.
        2   -1    0    0  501    0  0.00000000000E+00  0.00000000000E+00 -0.14888577678E+04  0.14888577678E+04  0.25500000920E-02 0.  1.
    10030    2    1    2    0    0  0.00000000000E+00  0.00000000000E+00 -0.51251346099E+03  0.24652020746E+04  0.24113380562E+04 0.  0.
        2    1    3    3  502    0 -0.92855068356E+03  0.73418546358E+03 -0.49028756056E+03  0.12812558522E+04  0.25500000920E-02 0.  1.
       -2    1    3    3    0  502  0.92855068356E+03 -0.73418546358E+03 -0.22225900434E+02  0.11839462224E+04  0.25500000920E-02 0. -1.
</event>
<event>
 5   0  0.6703961E-05  0.2429813E+04  0.7818609E-02  0.8428426E-01
       -2   -1    0    0    0  501  0.00000000000E+00  0.00000000000E+00  0.57420607108E+03  0.57420607109E+03  0.25500000920E-02 0. -1.
        2   -1    0    0  501    0  0.00000000000E+00  0.00000000000E+00 -0.25705021761E+04  0.25705021761E+04  0.25500000920E-02 0.  1.
    10030    2    1    2    0    0  0.00000000000E+00  0.00000000000E+00 -0.19962961051E+04  0.31447082472E+04  0.24298131247E+04 0.  0.
        2    1    3    3  502    0  0.77775252442E+03  0.13777315188E+03 -0.21928435711E+04  0.23307602532E+04  0.25500000920E-02 0.  1.
       -2    1    3    3    0  502 -0.77775252442E+03 -0.13777315188E+03  0.19654746601E+03  0.81394799405E+03  0.25500000920E-02 0. -1.
</event>
<event>
 5   0  0.6714629E-05  0.2063113E+04  0.7818609E-02  0.8577669E-01
        2   -1    0    0  501    0  0.00000000000E+00  0.00000000000E+00  0.16304958699E+04  0.16304958699E+04  0.25500000920E-02 0.  1.
       -2   -1    0    0    0  501  0.00000000000E+00  0.00000000000E+00 -0.65262894344E+03  0.65262894345E+03  0.25500000920E-02 0. -1.
    10030    2    1    2    0    0  0.00000000000E+00  0.00000000000E+00  0.97786692649E+03  0.22831248134E+04  0.20631129847E+04 0.  0.
        3    1    3    3  502    0 -0.10032594588E+04 -0.10935648789E+03  0.25256681179E+03  0.10403260969E+04  0.10100000352E+00 0. -1.
       -3    1    3    3    0  502  0.10032594588E+04  0.10935648789E+03  0.72530011470E+03  0.12427987165E+04  0.10100000352E+00 0.  1.
</event>
<event>
 5   0  0.2943123E-05  0.2388738E+04  0.7818609E-02  0.8443732E-01
       -1   -1    0    0    0  501  0.00000000000E+00  0.00000000000E+00  0.66492069552E+03  0.66492069554E+03  0.50400001928E-02 0. -1.
        1   -1    0    0  501    0  0.00000000000E+00  0.00000000000E+00 -0.21453949785E+04  0.21453949785E+04  0.50400001928E-02 0.  1.
    10030    2    1    2    0    0  0.00000000000E+00  0.00000000000E+00 -0.14804742830E+04  0.28103156740E+04  0.23887381785E+04 0.  0.
        1    1    3    3  502    0 -0.92912540751E+03 -0.49931310673E+02 -0.16212278667E+04  0.18692637467E+04  0.50400001928E-02 0.  1.
       -1    1    3    3    0  502  0.92912540751E+03  0.49931310673E+02  0.14075358376E+03  0.94105192738E+03  0.50400001928E-02 0. -1.
</event>
<event>
 5   0  0.2915546E-05  0.2396808E+04  0.7818609E-02  0.8440700E-01
        1   -1    0    0  501    0  0.00000000000E+00  0.00000000000E+00  0.19696748477E+04  0.19696748478E+04  0.50400001928E-02 0.  1.
       -1   -1    0    0    0  501  0.00000000000E+00  0.00000000000E+00 -0.72914144968E+03  0.72914144970E+03  0.50400001928E-02 0. -1.
    10030    2    1    2    0    0  0.00000000000E+00  0.00000000000E+00  0.12405333981E+04  0.26988162975E+04  0.23968075216E+04 0.  0.
        2    1    3    3  502    0 -0.59601107184E+03 -0.93071879456E+03  0.11420151217E+04  0.15892341585E+04  0.25500000920E-02 0.  1.
       -2    1    3    3    0  502  0.59601107184E+03  0.93071879456E+03  0.98518276351E+02  0.11095821390E+04  0.25500000920E-02 0. -1.
</event>
<event>
 5   0  0.2915546E-05  0.2409198E+04  0.7818609E-02  0.8436068E-01
       -1   -1    0    0    0  501  0.00000000000E+00  0.00000000000E+00  0.10589766234E+04  0.10589766235E+04  0.50400001928E-02 0.  1.
        1   -1    0    0  501    0  0.00000000000E+00  0.00000000000E+00 -0.13702466818E+04  0.13702466818E+04  0.50400001928E-02 0. -1.
    10030    2    1    2    0    0  0.00000000000E+00  0.00000000000E+00 -0.31127005835E+03  0.24292233052E+04  0.24091983765E+04 0.  0.
        2    1    3    3  502    0 -0.71220145759E+03 -0.96695118893E+03 -0.25040393493E+03  0.12267549261E+04  0.25500000920E-02 0.  1.
       -2    1    3    3    0  502  0.71220145759E+03  0.96695118893E+03 -0.60866123416E+02  0.12024683792E+04  0.25500000920E-02 0. -1.
</event>
<event>
 5   0  0.6714629E-05  0.2001946E+04  0.7818609E-02  0.8605711E-01
        2   -1    0    0  501    0  0.00000000000E+00  0.00000000000E+00  0.17417462813E+04  0.17417462813E+04  0.25500000920E-02 0. -1.
       -2   -1    0    0    0  501  0.00000000000E+00  0.00000000000E+00 -0.57525446855E+03  0.57525446855E+03  0.25500000920E-02 0.  1.
    10030    2    1    2    0    0  0.00000000000E+00  0.00000000000E+00  0.11664918127E+04  0.23170007498E+04  0.20019463843E+04 0.  0.
        3    1    3    3  502    0  0.91788537244E+03  0.18468153417E+03  0.99297346832E+03  0.13647773243E+04  0.10100000352E+00 0.  1.
       -3    1    3    3    0  502 -0.91788537244E+03 -0.18468153417E+03  0.17351834440E+03  0.95222342549E+03  0.10100000352E+00 0. -1.
</event>
<event>
 5   0  0.6703961E-05  0.2303809E+04  0.7818609E-02  0.8476421E-01
       -2   -1    0    0    0  501  0.00000000000E+00  0.00000000000E+00  0.62634077640E+03  0.62634077640E+03  0.25500000920E-02 0. -1.
        2   -1    0    0  501    0  0.00000000000E+00  0.00000000000E+00 -0.21184697723E+04  0.21184697723E+04  0.25500000920E-02 0.  1.
    10030    2    1    2    0    0  0.00000000000E+00  0.00000000000E+00 -0.14921289959E+04  0.27448105487E+04  0.23038090216E+04 0.  0.
        2    1    3    3  502    0  0.10058369176E+04  0.10460933798E+03 -0.88907635024E+02  0.10151628372E+04  0.25500000920E-02 0. -1.
       -2    1    3    3    0  502 -0.10058369176E+04 -0.10460933798E+03 -0.14032213609E+04  0.17296477115E+04  0.25500000920E-02 0.  1.
</event>
<event>
 5   0  0.6703961E-05  0.2426764E+04  0.7818609E-02  0.8429551E-01
       -2   -1    0    0    0  501  0.00000000000E+00  0.00000000000E+00  0.64015327409E+03  0.64015327410E+03  0.25500000920E-02 0. -1.
        2   -1    0    0  501    0  0.00000000000E+00  0.00000000000E+00 -0.22999122342E+04  0.22999122342E+04  0.25500000920E-02 0.  1.
    10030    2    1    2    0    0  0.00000000000E+00  0.00000000000E+00 -0.16597589601E+04  0.29400655083E+04  0.24267643865E+04 0.  0.
        2    1    3    3  502    0  0.50717225866E+03 -0.23727519829E+03  0.47427369113E+03  0.73379748826E+03  0.25500000920E-02 0. -1.
       -2    1    3    3    0  502 -0.50717225866E+03  0.23727519829E+03 -0.21340326512E+04  0.22062680200E+04  0.25500000920E-02 0.  1.
</event>
<event>
 5   0  0.2901816E-05  0.2458231E+04  0.7818609E-02  0.8418019E-01
        1   -1    0    0  501    0  0.00000000000E+00  0.00000000000E+00  0.16796526062E+04  0.16796526062E+04  0.50400001928E-02 0.  1.
       -1   -1    0    0    0  501  0.00000000000E+00  0.00000000000E+00 -0.89942736613E+03  0.89942736614E+03  0.50400001928E-02 0. -1.
    10030    2    1    2    0    0  0.00000000000E+00  0.00000000000E+00  0.78022524010E+03  0.25790799724E+04  0.24582314941E+04 0.  0.
        4    1    3    3  502    0  0.72413306349E+03  0.10125996830E+03 -0.64643569499E+03  0.97596259943E+03  0.12699999809E+01 0. -1.
       -4    1    3    3    0  502 -0.72413306349E+03 -0.10125996830E+03  0.14266609351E+04  0.16031173729E+04  0.12699999809E+01 0.  1.
</event>
<event>
 5   0  0.2847158E-05  0.2099859E+04  0.7818609E-02  0.8561306E-01
       -1   -1    0    0    0  501  0.00000000000E+00  0.00000000000E+00  0.85161865159E+03  0.85161865160E+03  0.50400001928E-02 0. -1.
        1   -1    0    0  501    0  0.00000000000E+00  0.00000000000E+00 -0.12944192865E+04  0.12944192865E+04  0.50400001928E-02 0.  1.
    10030    2    1    2    0    0  0.00000000000E+00  0.00000000000E+00 -0.44280063495E+03  0.21460379381E+04  0.20998586690E+04 0.  0.
        5    1    3    3  502    0 -0.62758037968E+03  0.52216997540E+03 -0.89607804650E+03  0.12122279371E+04  0.46999998093E+01 0.  1.
       -5    1    3    3    0  502  0.62758037968E+03 -0.52216997540E+03  0.45327741155E+03  0.93381000101E+03  0.46999998093E+01 0. -1.
</event>
<event>
 5   0  0.6337926E-05  0.2339539E+04  0.7818609E-02  0.8462492E-01
       -2   -1    0    0    0  501  0.00000000000E+00  0.00000000000E+00  0.13134526772E+04  0.13134526772E+04  0.25500000920E-02 0.  1.
        2   -1    0    0  501    0  0.00000000000E+00  0.00000000000E+00 -0.10418046744E+04  0.10418046744E+04  0.25500000920E-02 0. -1.
    10030    2    1    2    0    0  0.00000000000E+00  0.00000000000E+00  0.27164800275E+03  0.23552573516E+04  0.23395393894E+04 0.  0.
        1    1    3    3  502    0 -0.21964828375E+03 -0.26690030660E+03 -0.98921702832E+03  0.10478699687E+04  0.50400001928E-02 0. -1.
       -1    1    3    3    0  502  0.21964828375E+03  0.26690030660E+03  0.12608650311E+04  0.13073873828E+04  0.50400001928E-02 0.  1.
</event>
<event>
 5   0  0.6714629E-05  0.2416367E+04  0.7818609E-02  0.8433401E-01
       -2   -1    0    0    0  501  0.00000000000E+00  0.00000000000E+00  0.10792074695E+04  0.10792074695E+04  0.25500000920E-02 0.  1.
        2   -1    0    0  501    0  0.00000000000E+00  0.00000000000E+00 -0.13525738457E+04  0.13525738457E+04  0.25500000920E-02 0. -1.
    10030    2    1    2    0    0  0.00000000000E+00  0.00000000000E+00 -0.27336637617E+03  0.24317813152E+04  0.24163673540E+04 0.  0.
        3    1    3    3  502    0 -0.55935364817E+03  0.63731111495E+03 -0.10027925064E+04  0.13132535102E+04  0.10100000352E+00 0. -1.
       -3    1    3    3    0  502  0.55935364817E+03 -0.63731111495E+03  0.72942613024E+03  0.11185278050E+04  0.10100000352E+00 0.  1.
</event>
<event>
 5   0  0.2915546E-05  0.2377701E+04  0.7818609E-02  0.8447900E-01
       -1   -1    0    0    0  501  0.00000000000E+00  0.00000000000E+00  0.84189444349E+03  0.84189444350E+03  0.50400001928E-02 0. -1.
        1   -1    0    0  501    0  0.00000000000E+00  0.00000000000E+00 -0.16787912336E+04  0.16787912336E+04  0.50400001928E-02 0.  1.
    10030    2    1    2    0    0  0.00000000000E+00  0.00000000000E+00 -0.83689679011E+03  0.25206856771E+04  0.23777005794E+04 0.  0.
        2    1    3    3  502    0  0.47657561301E+03  0.98668300956E+03 -0.90737374398E+03  0.14226717076E+04  0.25500000920E-02 0.  1.
       -2    1    3    3    0  502 -0.47657561301E+03 -0.98668300956E+03  0.70476953861E+02  0.10980139695E+04  0.25500000920E-02 0. -1.
</event>
<event>
 5   0  0.6714629E-05  0.2406298E+04  0.7818609E-02  0.8437149E-01
        2   -1    0    0  501    0  0.00000000000E+00  0.00000000000E+00  0.19720894715E+04  0.19720894715E+04  0.25500000920E-02 0. -1.
       -2   -1    0    0    0  501  0.00000000000E+00  0.00000000000E+00 -0.73402752927E+03  0.73402752927E+03  0.25500000920E-02 0.  1.
    10030    2    1    2    0    0  0.00000000000E+00  0.00000000000E+00  0.12380619423E+04  0.27061170008E+04  0.24062983708E+04 0.  0.
        3    1    3    3  502    0 -0.48882188411E+03  0.10301182353E+04  0.10509079291E+04  0.15506443495E+04  0.10100000352E+00 0. -1.
       -3    1    3    3    0  502  0.48882188411E+03 -0.10301182353E+04  0.18715401322E+03  0.11554726513E+04  0.10100000352E+00 0.  1.
</event>
<event>
 5   0  0.6703961E-05  0.2402783E+04  0.7818609E-02  0.8438462E-01
       -2   -1    0    0    0  501  0.00000000000E+00  0.00000000000E+00  0.65673180656E+03  0.65673180656E+03  0.25500000920E-02 0. -1.
        2   -1    0    0  501    0  0.00000000000E+00  0.00000000000E+00 -0.21977644318E+04  0.21977644318E+04  0.25500000920E-02 0.  1.
    10030    2    1    2    0    0  0.00000000000E+00  0.00000000000E+00 -0.15410326252E+04  0.28544962383E+04  0.24027832242E+04 0.  0.
        2    1    3    3  502    0 -0.11340627398E+04 -0.37977283764E+03 -0.90605251654E+03  0.15004188977E+04  0.25500000920E-02 0.  1.
       -2    1    3    3    0  502  0.11340627398E+04  0.37977283764E+03 -0.63498010866E+03  0.13540773406E+04  0.25500000920E-02 0. -1.
</event>
<event>
 5   0  0.6714629E-05  0.1954194E+04  0.7818609E-02  0.8628341E-01
       -2   -1    0    0    0  501  0.00000000000E+00  0.00000000000E+00  0.95902482369E+03  0.95902482370E+03  0.25500000920E-02 0. -1.
        2   -1    0    0  501    0  0.00000000000E+00  0.00000000000E+00 -0.99550994208E+03  0.99550994208E+03  0.25500000920E-02 0.  1.
    10030    2    1    2    0    0  0.00000000000E+00  0.00000000000E+00 -0.36485118382E+02  0.19545347658E+04  0.19541942040E+04 0.  0.
        3    1    3    3  502    0  0.81589403737E+03 -0.43769699533E+03 -0.33047799538E+03  0.98309585269E+03  0.10100000352E+00 0. -1.
       -3    1    3    3    0  502 -0.81589403737E+03  0.43769699533E+03  0.29399287700E+03  0.97143891309E+03  0.10100000352E+00 0.  1.
</event>
<event>
 5   0  0.2943244E-05  0.2384742E+04  0.7818609E-02  0.8445238E-01
        1   -1    0    0  501    0  0.00000000000E+00  0.00000000000E+00  0.18982253861E+04  0.18982253861E+04  0.50400001928E-02 0.  1.
       -1   -1    0    0    0  501  0.00000000000E+00  0.00000000000E+00 -0.74898804517E+03  0.74898804519E+03  0.50400001928E-02 0. -1.
    10030    2    1    2    0    0  0.00000000000E+00  0.00000000000E+00  0.11492373409E+04  0.26472134313E+04  0.23847415971E+04 0.  0.
        3    1    3    3  502    0  0.10343163829E+04  0.27583084746E+03  0.11576449347E+04  0.15767164746E+04  0.10100000352E+00 0.  1.
       -3    1    3    3    0  502 -0.10343163829E+04 -0.27583084746E+03 -0.84075937493E+01  0.10704969567E+04  0.10100000352E+00 0. -1.
</event>
<event>
 5   0  0.2847158E-05  0.1675889E+04  0.7818609E-02  0.8775236E-01
       -1   -1    0    0    0  501  0.00000000000E+00  0.00000000000E+00  0.73777619019E+03  0.73777619021E+03  0.50400001928E-02 0. -1.
        1   -1    0    0  501    0  0.00000000000E+00  0.00000000000E+00 -0.95171296685E+03  0.95171296687E+03  0.50400001928E-02 0.  1.
    10030    2    1    2    0    0  0.00000000000E+00  0.00000000000E+00 -0.21393677666E+03  0.16894891571E+04  0.16758892169E+04 0.  0.
        5    1    3    3  502    0 -0.19592568529E+03  0.48162094601E+03 -0.76940313876E+03  0.92862742245E+03  0.46999998093E+01 0.  1.
       -5    1    3    3    0  502  0.19592568529E+03 -0.48162094601E+03  0.55546636210E+03  0.76086173463E+03  0.46999998093E+01 0. -1.
</event>
<event>
 5   0  0.6337926E-05  0.2397749E+04  0.7818609E-02  0.8440347E-01
        2   -1    0    0  501    0  0.00000000000E+00  0.00000000000E+00  0.24215021418E+04  0.24215021418E+04  0.25500000920E-02 0. -1.
       -2   -1    0    0    0  501  0.00000000000E+00  0.00000000000E+00 -0.59355705311E+03  0.59355705311E+03  0.25500000920E-02 0.  1.
    10030    2    1    2    0    0  0.00000000000E+00  0.00000000000E+00  0.18279450887E+04  0.30150591950E+04  0.23977486736E+04 0.  0.
        1    1    3    3  502    0 -0.49528008621E+03 -0.51125758019E+02  0.22853377699E+04  0.23389495354E+04  0.50400001928E-02 0. -1.
       -1    1    3    3    0  502  0.49528008621E+03  0.51125758019E+02 -0.45739268112E+03  0.67610965952E+03  0.50400001928E-02 0.  1.
</event>
<event>
 5   0  0.2915546E-05  0.2391096E+04  0.7818609E-02  0.8442845E-01
       -1   -1    0    0    0  501  0.00000000000E+00  0.00000000000E+00  0.11764010063E+04  0.11764010063E+04  0.50400001928E-02 0. -1.
        1   -1    0    0  501    0  0.00000000000E+00  0.00000000000E+00 -0.12150061749E+04  0.12150061749E+04  0.50400001928E-02 0.  1.
    10030    2    1    2    0    0  0.00000000000E+00  0.00000000000E+00 -0.38605168602E+02  0.23914071812E+04  0.23910955538E+04 0.  0.
        2    1    3    3  502    0 -0.73698584932E+03  0.48243430286E+03  0.78916128229E+03  0.11826523277E+04  0.25500000920E-02 0. -1.
       -2    1    3    3    0  502  0.73698584932E+03 -0.48243430286E+03 -0.82776645089E+03  0.12087548535E+04  0.25500000920E-02 0.  1.
</event>
<event>
 5   0  0.6703961E-05  0.2236887E+04  0.7818609E-02  0.8503230E-01
       -2   -1    0    0    0  501  0.00000000000E+00  0.00000000000E+00  0.11487585863E+04  0.11487585863E+04  0.25500000920E-02 0. -1.
        2   -1    0    0  501    0  0.00000000000E+00  0.00000000000E+00 -0.10889284000E+04  0.10889284000E+04  0.25500000920E-02 0.  1.
    10030    2    1    2    0    0  0.00000000000E+00  0.00000000000E+00  0.59830186350E+02  0.22376869863E+04  0.22368869881E+04 0.  0.
        2    1    3    3  502    0  0.81369946945E+03 -0.74184133851E+03 -0.16631941037E+03  0.11135966704E+04  0.25500000920E-02 0.  1.
       -2    1    3    3    0  502 -0.81369946945E+03  0.74184133851E+03  0.22614959672E+03  0.11240903159E+04  0.25500000920E-02 0. -1.
</event>
<event>
 5   0  0.2943123E-05  0.2393459E+04  0.7818609E-02  0.8441957E-01
        1   -1    0    0  501    0  0.00000000000E+00  0.00000000000E+00  0.17453454876E+04  0.17453454876E+04  0.50400001928E-02 0.  1.
       -1   -1    0    0    0  501  0.00000000000E+00  0.00000000000E+00 -0.82056020526E+03  0.82056020528E+03  0.50400001928E-02 0. -1.
    10030    2    1    2    0    0  0.00000000000E+00  0.00000000000E+00  0.92478528231E+03  0.25659056929E+04  0.23934586285E+04 0.  0.
        1    1    3    3  502    0 -0.33570491439E+03 -0.11469624309E+04  0.39509693485E+03  0.12586986118E+04  0.50400001928E-02 0.  1.
       -1    1    3    3    0  502  0.33570491439E+03  0.11469624309E+04  0.52968834746E+03  0.13072070811E+04  0.50400001928E-02 0. -1.
</event>
<event>
 5   0  0.6978115E-05  0.2342632E+04  0.7818609E-02  0.8461299E-01
       -2   -1    0    0    0  501  0.00000000000E+00  0.00000000000E+00  0.72878133092E+03  0.72878133092E+03  0.25500000920E-02 0. -1.
        2   -1    0    0  501    0  0.00000000000E+00  0.00000000000E+00 -0.18825693060E+04  0.18825693061E+04  0.25500000920E-02 0.  1.
    10030    2    1    2    0    0  0.00000000000E+00  0.00000000000E+00 -0.11537879751E+04  0.26113506370E+04  0.23426321644E+04 0.  0.
        4    1    3    3  502    0  0.66233998016E+02  0.97520476284E+03  0.14256209888E+03  0.98779392430E+03  0.12699999809E+01 0. -1.
       -4    1    3    3    0  502 -0.66233998016E+02 -0.97520476284E+03 -0.12963500740E+04  0.16235567127E+04  0.12699999809E+01 0.  1.
</event>
<event>
 5   0  0.2901816E-05  0.2406666E+04  0.7818609E-02  0.8437012E-01
       -1   -1    0    0    0  501  0.00000000000E+00  0.00000000000E+00  0.13417545277E+04  0.13417545278E+04  0.50400001928E-02 0. -1.
        1   -1    0    0  501    0  0.00000000000E+00  0.00000000000E+00 -0.10791917788E+04  0.10791917789E+04  0.50400001928E-02 0.  1.
    10030    2    1    2    0    0  0.00000000000E+00  0.00000000000E+00  0.26256274890E+03  0.24209463066E+04  0.24066661219E+04 0.  0.
        4    1    3    3  502    0  0.87057353909E+02 -0.27638471685E+03  0.13061331581E+04  0.13378912266E+04  0.12699999809E+01 0. -1.
       -4    1    3    3    0  502 -0.87057353909E+02  0.27638471685E+03 -0.10435704092E+04  0.10830550800E+04  0.12699999809E+01 0.  1.
</event>
<event>
 5   0  0.6600166E-05  0.2385258E+04  0.7818609E-02  0.8445043E-01
        2   -1    0    0  501    0  0.00000000000E+00  0.00000000000E+00  0.17476600414E+04  0.17476600414E+04  0.25500000920E-02 0.  1.
       -2   -1    0    0    0  501  0.00000000000E+00  0.00000000000E+00 -0.81386756586E+03  0.81386756587E+03  0.25500000920E-02 0. -1.
    10030    2    1    2    0    0  0.00000000000E+00  0.00000000000E+00  0.93379247550E+03  0.25615276072E+04  0.23852579096E+04 0.  0.
        5    1    3    3  502    0  0.92331067019E+03  0.23006500233E+03  0.12389914187E+04  0.15622273601E+04  0.46999998093E+01 0.  1.
       -5    1    3    3    0  502 -0.92331067019E+03 -0.23006500233E+03 -0.30519894322E+03  0.99930024713E+03  0.46999998093E+01 0. -1.
</event>
<event>
 5   0  0.2915546E-05  0.2316588E+04  0.7818609E-02  0.8471409E-01
       -1   -1    0    0    0  501  0.00000000000E+00  0.00000000000E+00  0.55682052747E+03  0.55682052749E+03  0.50400001928E-02 0. -1.
        1   -1    0    0  501    0  0.00000000000E+00  0.00000000000E+00 -0.24094751104E+04  0.24094751105E+04  0.50400001928E-02 0.  1.
    10030    2    1    2    0    0  0.00000000000E+00  0.00000000000E+00 -0.18526545830E+04  0.29662956379E+04  0.23165881826E+04 0.  0.
        2    1    3    3  502    0 -0.51776340757E+03 -0.72723406016E+03 -0.18713517295E+04  0.20733802401E+04  0.25500000920E-02 0.  1.
       -2    1    3    3    0  502  0.51776340757E+03  0.72723406016E+03  0.18697146480E+02  0.89291539789E+03  0.25500000920E-02 0. -1.
</event>
<event>
 5   0  0.2847158E-05  0.2404815E+04  0.7818609E-02  0.8437703E-01
        1   -1    0    0  501    0  0.00000000000E+00  0.00000000000E+00  0.25926160283E+04  0.25926160283E+04  0.50400001928E-02 0. -1.
       -1   -1    0    0    0  501  0.00000000000E+00  0.00000000000E+00 -0.55765450568E+03  0.55765450570E+03  0.50400001928E-02 0.  1.
    10030    2    1    2    0    0  0.00000000000E+00  0.00000000000E+00  0.20349615227E+04  0.31502705340E+04  0.24048151777E+04 0.  0.
        5    1    3    3  502    0 -0.25073576902E+03 -0.54496608268E+03 -0.34761197483E+03  0.69333443026E+03  0.46999998093E+01 0.  1.
       -5    1    3    3    0  502  0.25073576902E+03  0.54496608268E+03  0.23825734975E+04  0.24569361038E+04  0.46999998093E+01 0. -1.
</event>
<event>
 5   0  0.6337926E-05  0.2371130E+04  0.7818609E-02  0.8450392E-01
        2   -1    0    0  501    0  0.00000000000E+00  0.00000000000E+00  0.16437779116E+04  0.16437779116E+04  0.25500000920E-02 0. -1.
       -2   -1    0    0    0  501  0.00000000000E+00  0.00000000000E+00 -0.85508199003E+03  0.85508199003E+03  0.25500000920E-02 0.  1.
    10030    2    1    2    0    0  0.00000000000E+00  0.00000000000E+00  0.78869592161E+03  0.24988599017E+04  0.23711304374E+04 0.  0.
        1    1    3    3  502    0 -0.39314837516E+03 -0.83268319762E+03 -0.39263008655E+03  0.10010421257E+04  0.50400001928E-02 0.  1.
       -1    1    3    3    0  502  0.39314837516E+03  0.83268319762E+03  0.11813260082E+04  0.14978177760E+04  0.50400001928E-02 0. -1.
</event>
<event>
 5   0  0.2943244E-05  0.1848913E+04  0.7818609E-02  0.8680712E-01
       -1   -1    0    0    0  501  0.00000000000E+00  0.00000000000E+00  0.88565514328E+03  0.88565514329E+03  0.50400001928E-02 0.  1.
        1   -1    0    0  501    0  0.00000000000E+00  0.00000000000E+00 -0.96495744455E+03  0.96495744457E+03  0.50400001928E-02 0. -1.
    10030    2    1    2    0    0  0.00000000000E+00  0.00000000000E+00 -0.79302301276E+02  0.18506125879E+04  0.18489126792E+04 0.  0.
        3    1    3    3  502    0 -0.59861221303E+03 -0.36775851309E+03 -0.64106680936E+03  0.95107810921E+03  0.10100000352E+00 0. -1.
       -3    1    3    3    0  502  0.59861221303E+03  0.36775851309E+03  0.56176450808E+03  0.89953447865E+03  0.10100000352E+00 0.  1.
</event>
<event>
 5   0  0.6337926E-05  0.2396383E+04  0.7818609E-02  0.8440859E-01
        2   -1    0    0  501    0  0.00000000000E+00  0.00000000000E+00  0.12596855619E+04  0.12596855619E+04  0.25500000920E-02 0.  1.
       -2   -1    0    0    0  501  0.00000000000E+00  0.00000000000E+00 -0.11396990084E+04  0.11396990084E+04  0.25500000920E-02 0. -1.
    10030    2    1    2    0    0  0.00000000000E+00  0.00000000000E+00  0.11998655354E+03  0.23993845704E+04  0.23963825954E+04 0.  0.
        1    1    3    3  502    0 -0.57378646016E+03 -0.95282746038E+03  0.50614244594E+03  0.12220029651E+04  0.50400001928E-02 0.  1.
       -1    1    3    3    0  502  0.57378646016E+03  0.95282746038E+03 -0.38615589240E+03  0.11773816052E+04  0.50400001928E-02 0. -1.
</event>
<event>
 5   0  0.2943244E-05  0.2126653E+04  0.7818609E-02  0.8549593E-01
        1   -1    0    0  501    0  0.00000000000E+00  0.00000000000E+00  0.50878636961E+03  0.50878636964E+03  0.50400001928E-02 0.  1.
       -1   -1    0    0    0  501  0.00000000000E+00  0.00000000000E+00 -0.22222745730E+04  0.22222745730E+04  0.50400001928E-02 0. -1.
    10030    2    1    2    0    0  0.00000000000E+00  0.00000000000E+00 -0.17134882034E+04  0.27310609426E+04  0.21266527806E+04 0.  0.
        3    1    3    3  502    0  0.12600918466E+02 -0.60974096767E+03  0.26185796733E+03  0.66371110888E+03  0.10100000352E+00 0.  1.
       -3    1    3    3    0  502 -0.12600918466E+02  0.60974096767E+03 -0.19753461707E+04  0.20673498338E+04  0.10100000352E+00 0. -1.
</event>
<event>
 5   0  0.2847158E-05  0.2209919E+04  0.7818609E-02  0.8514311E-01
        1   -1    0    0  501    0  0.00000000000E+00  0.00000000000E+00  0.91663685882E+03  0.91663685884E+03  0.50400001928E-02 0.  1.
       -1   -1    0    0    0  501  0.00000000000E+00  0.00000000000E+00 -0.13319729240E+04  0.13319729240E+04  0.50400001928E-02 0. -1.
    10030    2    1    2    0    0  0.00000000000E+00  0.00000000000E+00 -0.41533606520E+03  0.22486097829E+04  0.22099189823E+04 0.  0.
        5    1    3    3  502    0 -0.76336831883E+03 -0.55476304147E+03  0.37721768333E+03  0.10162718598E+04  0.46999998093E+01 0. -1.
       -5    1    3    3    0  502  0.76336831883E+03  0.55476304147E+03 -0.79255374853E+03  0.12323379231E+04  0.46999998093E+01 0.  1.
</event>
<event>
 5   0  0.6978115E-05  0.2509371E+04  0.7818609E-02  0.8399655E-01
        2   -1    0    0  501    0  0.00000000000E+00  0.00000000000E+00  0.98868531010E+03  0.98868531010E+03  0.25500000920E-02 0. -1.
       -2   -1    0    0    0  501  0.00000000000E+00  0.00000000000E+00 -0.15922515505E+04  0.15922515505E+04  0.25500000920E-02 0.  1.
    10030    2    1    2    0    0  0.00000000000E+00  0.00000000000E+00 -0.60356624037E+03  0.25809368606E+04  0.25093710112E+04 0.  0.
        4    1    3    3  502    0 -0.10903768790E+04  0.18437746081E+03  0.30784119871E+03  0.11479044397E+04  0.12699999809E+01 0. -1.
       -4    1    3    3    0  502  0.10903768790E+04 -0.18437746081E+03 -0.91140743908E+03  0.14330324208E+04  0.12699999809E+01 0.  1.
</event>
<event>
 5   0  0.6703961E-05  0.2375172E+04  0.7818609E-02  0.8448858E-01
        2   -1    0    0  501    0  0.00000000000E+00  0.00000000000E+00  0.23153557508E+04  0.23153557508E+04  0.25500000920E-02 0. -1.
       -2   -1    0    0    0  501  0.00000000000E+00  0.00000000000E+00 -0.60913355847E+03  0.60913355848E+03  0.25500000920E-02 0.  1.
    10030    2    1    2    0    0  0.00000000000E+00  0.00000000000E+00  0.17062221924E+04  0.29244893093E+04  0.23751723202E+04 0.  0.
        2    1    3    3  502    0  0.63041892125E+03  0.22785942515E+03  0.20601451850E+04  0.21664593504E+04  0.25500000920E-02 0. -1.
       -2    1    3    3    0  502 -0.63041892125E+03 -0.22785942515E+03 -0.35392299259E+03  0.75802995890E+03  0.25500000920E-02 0.  1.
</event>
<event>
 5   0  0.2901816E-05  0.2416364E+04  0.7818609E-02  0.8433402E-01
       -1   -1    0    0    0  501  0.00000000000E+00  0.00000000000E+00  0.11219435055E+04  0.11219435055E+04  0.50400001928E-02 0.  1.
        1   -1    0    0  501    0  0.00000000000E+00  0.00000000000E+00 -0.13010493032E+04  0.13010493032E+04  0.50400001928E-02 0. -1.
    10030    2    1    2    0    0  0.00000000000E+00  0.00000000000E+00 -0.17910579762E+03  0.24229928087E+04  0.24163640587E+04 0.  0.
        4    1    3    3  502    0  0.78499055721E+03  0.11659951834E+03 -0.10030385825E+04  0.12790205759E+04  0.12699999809E+01 0. -1.
       -4    1    3    3    0  502 -0.78499055721E+03 -0.11659951834E+03  0.82393278489E+03  0.11439722328E+04  0.12699999809E+01 0.  1.
</event>
<event>
 5   0  0.6600166E-05  0.2406915E+04  0.7818609E-02  0.8436919E-01
       -2   -1    0    0    0  501  0.00000000000E+00  0.00000000000E+00  0.15396329297E+04  0.15396329297E+04  0.25500000920E-02 0. -1.
        2   -1    0    0  501    0  0.00000000000E+00  0.00000000000E+00 -0.94068554122E+03  0.94068554122E+03  0.25500000920E-02 0.  1.
    10030    2    1    2    0    0  0.00000000000E+00  0.00000000000E+00  0.59894738846E+03  0.24803184709E+04  0.24069154000E+04 0.  0.
        5    1    3    3  502    0 -0.78707237250E+03 -0.83606825234E+03 -0.71784554033E+02  0.11505077811E+04  0.46999998093E+01 0.  1.
       -5    1    3    3    0  502  0.78707237250E+03  0.83606825234E+03  0.67073194250E+03  0.13298106898E+04  0.46999998093E+01 0. -1.
</event>
<event>
 5   0  0.2943123E-05  0.2367935E+04  0.7818609E-02  0.8451607E-01
        1   -1    0    0  501    0  0.00000000000E+00  0.00000000000E+00  0.20906192129E+04  0.20906192129E+04  0.50400001928E-02 0.  1.
       -1   -1    0    0    0  501  0.00000000000E+00  0.00000000000E+00 -0.67050919591E+03  0.67050919593E+03  0.50400001928E-02 0. -1.
    10030    2    1    2    0    0  0.00000000000E+00  0.00000000000E+00  0.14201100170E+04  0.27611284088E+04  0.23679353094E+04 0.  0.
        1    1    3    3  502    0 -0.49239042252E+03  0.10249162357E+04  0.32529810820E+03  0.11826751361E+04  0.50400001928E-02 0.  1.
       -1    1    3    3    0  502  0.49239042252E+03 -0.10249162357E+04  0.10948119088E+04  0.15784532727E+04  0.50400001928E-02 0. -1.
</event>
<event>
 5   0  0.6978115E-05  0.2410473E+04  0.7818609E-02  0.8435593E-01
        2   -1    0    0  501    0  0.00000000000E+00  0.00000000000E+00  0.17629844491E+04  0.17629844491E+04  0.25500000920E-02 0.  1.
       -2   -1    0    0    0  501  0.00000000000E+00  0.00000000000E+00 -0.82394073828E+03  0.82394073828E+03  0.25500000920E-02 0. -1.
    10030    2    1    2    0    0  0.00000000000E+00  0.00000000000E+00  0.93904371083E+03  0.25869251874E+04  0.24104727408E+04 0.  0.
        4    1    3    3  502    0 -0.10260678880E+04  0.16428400688E+03  0.11247807535E+04  0.15313190072E+04  0.12699999809E+01 0.  1.
       -4    1    3    3    0  502  0.10260678880E+04 -0.16428400688E+03 -0.18573704267E+03  0.10556061801E+04  0.12699999809E+01 0. -1.
</event>
<event>
 5   0  0.2915546E-05  0.2361584E+04  0.7818609E-02  0.8454028E-01
       -1   -1    0    0    0  501  0.00000000000E+00  0.00000000000E+00  0.71290307837E+03  0.71290307839E+03  0.50400001928E-02 0.  1.
        1   -1    0    0  501    0  0.00000000000E+00  0.00000000000E+00 -0.19557631909E+04  0.19557631909E+04  0.50400001928E-02 0. -1.
    10030    2    1    2    0    0  0.00000000000E+00  0.00000000000E+00 -0.12428601125E+04  0.26686662693E+04  0.23615838748E+04 0.  0.
        2    1    3    3  502    0  0.82163692703E+03 -0.79894586662E+03 -0.30007963648E+03  0.11846727505E+04  0.25500000920E-02 0.  1.
       -2    1    3    3    0  502 -0.82163692703E+03  0.79894586662E+03 -0.94278047603E+03  0.14839935187E+04  0.25500000920E-02 0. -1.
</event>
<event>
 5   0  0.2915546E-05  0.2315110E+04  0.7818609E-02  0.8471987E-01
       -1   -1    0    0    0  501  0.00000000000E+00  0.00000000000E+00  0.13083705317E+04  0.13083705317E+04  0.50400001928E-02 0.  1.
        1   -1    0    0  501    0  0.00000000000E+00  0.00000000000E+00 -0.10241243747E+04  0.10241243748E+04  0.50400001928E-02 0. -1.
    10030    2    1    2    0    0  0.00000000000E+00  0.00000000000E+00  0.28424615690E+03  0.23324949064E+04  0.23151104965E+04 0.  0.
        2    1    3    3  502    0 -0.32927436464E+03  0.10721767019E+04 -0.14629506197E+03  0.11310997889E+04  0.25500000920E-02 0. -1.
       -2    1    3    3    0  502  0.32927436464E+03 -0.10721767019E+04  0.43054121887E+03  0.12013951175E+04  0.25500000920E-02 0.  1.
</event>
<event>
 5   0  0.6703961E-05  0.2346500E+04  0.7818609E-02  0.8459809E-01
        2   -1    0    0  501    0  0.00000000000E+00  0.00000000000E+00  0.17846288002E+04  0.17846288002E+04  0.25500000920E-02 0. -1.
       -2   -1    0    0    0  501  0.00000000000E+00  0.00000000000E+00 -0.77131737777E+03  0.77131737778E+03  0.25500000920E-02 0.  1.
    10030    2    1    2    0    0  0.00000000000E+00  0.00000000000E+00  0.10133114224E+04  0.25559461780E+04  0.23464996966E+04 0.  0.
        2    1    3    3  502    0  0.89491293200E+03  0.15522239554E+03 -0.30229946253E+03  0.95726073407E+03  0.25500000920E-02 0.  1.
       -2    1    3    3    0  502 -0.89491293200E+03 -0.15522239554E+03  0.13156108850E+04  0.15986854439E+04  0.25500000920E-02 0. -1.
</event>
<event>
 5   0  0.2847158E-05  0.2303880E+04  0.7818609E-02  0.8476393E-01
        1   -1    0    0  501    0  0.00000000000E+00  0.00000000000E+00  0.10373034832E+04  0.10373034832E+04  0.50400001928E-02 0. -1.
       -1   -1    0    0    0  501  0.00000000000E+00  0.00000000000E+00 -0.12792449254E+04  0.12792449254E+04  0.50400001928E-02 0.  1.
    10030    2    1    2    0    0  0.00000000000E+00  0.00000000000E+00 -0.24194144219E+03  0.23165484086E+04  0.23038795255E+04 0.  0.
        5    1    3    3  502    0  0.11267414539E+04 -0.68090263877E+02 -0.35193043169E+03  0.11823957488E+04  0.46999998093E+01 0.  1.
       -5    1    3    3    0  502 -0.11267414539E+04  0.68090263877E+02  0.10998898950E+03  0.11341526598E+04  0.46999998093E+01 0. -1.
</event>
<event>
 5   0  0.2901816E-05  0.2383650E+04  0.7818609E-02  0.8445650E-01
       -1   -1    0    0    0  501  0.00000000000E+00  0.00000000000E+00  0.11129027954E+04  0.11129027954E+04  0.50400001928E-02 0.  1.
        1   -1    0    0  501    0  0.00000000000E+00  0.00000000000E+00 -0.12763441031E+04  0.12763441031E+04  0.50400001928E-02 0. -1.
    10030    2    1    2    0    0  0.00000000000E+00  0.00000000000E+00 -0.16344130766E+03  0.23892468985E+04  0.23836500752E+04 0.  0.
        4    1    3    3  502    0  0.84195907166E+03  0.68940309164E+03 -0.56894180715E+03  0.12279528061E+04  0.12699999809E+01 0. -1.
       -4    1    3    3    0  502 -0.84195907166E+03 -0.68940309164E+03  0.40550049949E+03  0.11612940924E+04  0.12699999809E+01 0.  1.
</event>
<event>
 5   0  0.2847158E-05  0.2283739E+04  0.7818609E-02  0.8484360E-01
       -1   -1    0    0    0  501  0.00000000000E+00  0.00000000000E+00  0.15036084561E+04  0.15036084561E+04  0.50400001928E-02 0.  1.
        1   -1    0    0  501    0  0.00000000000E+00  0.00000000000E+00 -0.86715762338E+03  0.86715762340E+03  0.50400001928E-02 0. -1.
    10030    2    1    2    0    0  0.00000000000E+00  0.00000000000E+00  0.63645083269E+03  0.23707660795E+04  0.22837386324E+04 0.  0.
        5    1    3    3  502    0 -0.68782999149E+03 -0.53711926496E+02  0.12627596586E+04  0.14389506988E+04  0.46999998093E+01 0.  1.
       -5    1    3    3    0  502  0.68782999149E+03  0.53711926496E+02 -0.62630882590E+03  0.93181538066E+03  0.46999998093E+01 0. -1.
</event>
<event>
 5   0  0.6703961E-05  0.2391887E+04  0.7818609E-02  0.8442547E-01
       -2   -1    0    0    0  501  0.00000000000E+00  0.00000000000E+00  0.13926135403E+04  0.13926135403E+04  0.25500000920E-02 0. -1.
        2   -1    0    0  501    0  0.00000000000E+00  0.00000000000E+00 -0.10270479861E+04  0.10270479861E+04  0.25500000920E-02 0.  1.
    10030    2    1    2    0    0  0.00000000000E+00  0.00000000000E+00  0.36556555419E+03  0.24196615264E+04  0.23918870642E+04 0.  0.
        2    1    3    3  502    0 -0.72654122625E+03 -0.58049136951E+02 -0.77640944520E+03  0.10649147770E+04  0.25500000920E-02 0.  1.
       -2    1    3    3    0  502  0.72654122625E+03  0.58049136951E+02  0.11419749994E+04  0.13547467494E+04  0.25500000920E-02 0. -1.
</event>
<event>
 5   0  0.6703961E-05  0.1851222E+04  0.7818609E-02  0.8679525E-01
       -2   -1    0    0    0  501  0.00000000000E+00  0.00000000000E+00  0.34974205446E+03  0.34974205447E+03  0.25500000920E-02 0. -1.
        2   -1    0    0  501    0  0.00000000000E+00  0.00000000000E+00 -0.24496777966E+04  0.24496777966E+04  0.25500000920E-02 0.  1.
    10030    2    1    2    0    0  0.00000000000E+00  0.00000000000E+00 -0.20999357421E+04  0.27994198511E+04  0.18512215917E+04 0.  0.
        2    1    3    3  502    0 -0.11323357718E+02  0.77388116313E+03 -0.18176764457E+04  0.19755930589E+04  0.25500000920E-02 0.  1.
       -2    1    3    3    0  502  0.11323357718E+02 -0.77388116313E+03 -0.28225929643E+03  0.82382679218E+03  0.25500000920E-02 0. -1.
</event>
<event>
 5   0  0.2943123E-05  0.2405800E+04  0.7818609E-02  0.8437335E-01
        1   -1    0    0  501    0  0.00000000000E+00  0.00000000000E+00  0.18134966912E+04  0.18134966913E+04  0.50400001928E-02 0. -1.
       -1   -1    0    0    0  501  0.00000000000E+00  0.00000000000E+00 -0.79788833403E+03  0.79788833404E+03  0.50400001928E-02 0.  1.
    10030    2    1    2    0    0  0.00000000000E+00  0.00000000000E+00  0.10156083572E+04  0.26113850253E+04  0.24057995376E+04 0.  0.
        1    1    3    3  502    0 -0.10718485374E+04  0.44379450669E+03  0.16257686018E+03  0.11714282252E+04  0.50400001928E-02 0.  1.
       -1    1    3    3    0  502  0.10718485374E+04 -0.44379450669E+03  0.85303149704E+03  0.14399568001E+04  0.50400001928E-02 0. -1.
</event>
<event>
 5   0  0.6714629E-05  0.2455652E+04  0.7818609E-02  0.8418957E-01
        2   -1    0    0  501    0  0.00000000000E+00  0.00000000000E+00  0.11421431811E+04  0.11421431811E+04  0.25500000920E-02 0.  1.
       -2   -1    0    0    0  501  0.00000000000E+00  0.00000000000E+00 -0.13199371042E+04  0.13199371042E+04  0.25500000920E-02 0. -1.
    10030    2    1    2    0    0  0.00000000000E+00  0.00000000000E+00 -0.17779392315E+03  0.24620802853E+04  0.24556523883E+04 0.  0.
        3    1    3    3  502    0 -0.79751032426E+03  0.76924687320E+03  0.44144290339E+03  0.11927427704E+04  0.10100000352E+00 0.  1.
       -3    1    3    3    0  502  0.79751032426E+03 -0.76924687320E+03 -0.61923682655E+03  0.12693375149E+04  0.10100000352E+00 0. -1.
</event>
<event>
 5   0  0.6714629E-05  0.2397308E+04  0.7818609E-02  0.8440512E-01
       -2   -1    0    0    0  501  0.00000000000E+00  0.00000000000E+00  0.83315583305E+03  0.83315583305E+03  0.25500000920E-02 0. -1.
        2   -1    0    0  501    0  0.00000000000E+00  0.00000000000E+00 -0.17244929003E+04  0.17244929003E+04  0.25500000920E-02 0.  1.
    10030    2    1    2    0    0  0.00000000000E+00  0.00000000000E+00 -0.89133706723E+03  0.25576487333E+04  0.23973079226E+04 0.  0.
        3    1    3    3  502    0 -0.97951352243E+03 -0.93532820176E+02 -0.11759784225E+04  0.15333363589E+04  0.10100000352E+00 0.  1.
       -3    1    3    3    0  502  0.97951352243E+03  0.93532820176E+02  0.28464135530E+03  0.10243123744E+04  0.10100000352E+00 0. -1.
</event>
<event>
 5   0  0.6978115E-05  0.2400354E+04  0.7818609E-02  0.8439371E-01
       -2   -1    0    0    0  501  0.00000000000E+00  0.00000000000E+00  0.11319444714E+04  0.11319444714E+04  0.25500000920E-02 0. -1.
        2   -1    0    0  501    0  0.00000000000E+00  0.00000000000E+00 -0.12725223337E+04  0.12725223337E+04  0.25500000920E-02 0.  1.
    10030    2    1    2    0    0  0.00000000000E+00  0.00000000000E+00 -0.14057786230E+03  0.24044668050E+04  0.24003538241E+04 0.  0.
        4    1    3    3  502    0  0.46350465766E+03  0.10403960070E+04  0.30872772267E+03  0.11800740818E+04  0.12699999809E+01 0. -1.
       -4    1    3    3    0  502 -0.46350465766E+03 -0.10403960070E+04 -0.44930558497E+03  0.12243927232E+04  0.12699999809E+01 0.  1.
</event>
<event>
 5   0  0.2901816E-05  0.2282660E+04  0.7818609E-02  0.8484789E-01
        1   -1    0    0  501    0  0.00000000000E+00  0.00000000000E+00  0.10531205337E+04  0.10531205337E+04  0.50400001928E-02 0. -1.
       -1   -1    0    0    0  501  0.00000000000E+00  0.00000000000E+00 -0.12369283911E+04  0.12369283911E+04  0.50400001928E-02 0.  1.
    10030    2    1    2    0    0  0.00000000000E+00  0.00000000000E+00 -0.18380785737E+03  0.22900489249E+04  0.22826604544E+04 0.  0.
        4    1    3    3  502    0 -0.10095567538E+04 -0.85339191077E+02  0.43529242499E+03  0.11027097192E+04  0.12699999809E+01 0. -1.
       -4    1    3    3    0  502  0.10095567538E+04  0.85339191077E+02 -0.61910028236E+03  0.11873392056E+04  0.12699999809E+01 0.  1.
</event>
<event>
 5   0  0.2901816E-05  0.2415306E+04  0.7818609E-02  0.8433795E-01
        1   -1    0    0  501    0  0.00000000000E+00  0.00000000000E+00  0.15862267209E+04  0.15862267209E+04  0.50400001928E-02 0. -1.
       -1   -1    0    0    0  501  0.00000000000E+00  0.00000000000E+00 -0.91943105065E+03  0.91943105066E+03  0.50400001928E-02 0.  1.
    10030    2    1    2    0    0  0.00000000000E+00  0.00000000000E+00  0.66679567027E+03  0.25056577716E+04  0.24153062751E+04 0.  0.
        4    1    3    3  502    0  0.59742429314E+03  0.92936820261E+03  0.83926949758E+03  0.13874494385E+04  0.12699999809E+01 0. -1.
       -4    1    3    3    0  502 -0.59742429314E+03 -0.92936820261E+03 -0.17247382731E+03  0.11182083330E+04  0.12699999809E+01 0.  1.
</event>
<event>
 5   0  0.6600166E-05  0.1792419E+04  0.7818609E-02  0.8710341E-01
       -2   -1    0    0    0  501  0.00000000000E+00  0.00000000000E+00  0.57100200467E+03  0.57100200467E+03  0.25500000920E-02 0.  1.
        2   -1    0    0  501    0  0.00000000000E+00  0.00000000000E+00 -0.14066348067E+04  0.14066348067E+04  0.25500000920E-02 0. -1.
    10030    2    1    2    0    0  0.00000000000E+00  0.00000000000E+00 -0.83563280200E+03  0.19776368113E+04  0.17924188065E+04 0.  0.
        5    1    3    3  502    0  0.33079849552E+03 -0.23100630984E+03 -0.13007440694E+04  0.13618916198E+04  0.46999998093E+01 0. -1.
       -5    1    3    3    0  502 -0.33079849552E+03  0.23100630984E+03  0.46511126745E+03  0.61574519156E+03  0.46999998093E+01 0.  1.
</event>
<event>
 5   0  0.2901816E-05  0.2405818E+04  0.7818609E-02  0.8437329E-01
        1   -1    0    0  501    0  0.00000000000E+00  0.00000000000E+00  0.11921912018E+04  0.11921912018E+04  0.50400001928E-02 0.  1.
       -1   -1    0    0    0  501  0.00000000000E+00  0.00000000000E+00 -0.12137230461E+04  0.12137230461E+04  0.50400001928E-02 0. -1.
    10030    2    1    2    0    0  0.00000000000E+00  0.00000000000E+00 -0.21531844353E+02  0.24059142479E+04  0.24058178959E+04 0.  0.
        4    1    3    3  502    0  0.42259842749E+03  0.29151560566E+03  0.10771276101E+04  0.11932209689E+04  0.12699999809E+01 0.  1.
       -4    1    3    3    0  502 -0.42259842749E+03 -0.29151560566E+03 -0.10986594545E+04  0.12126932790E+04  0.12699999809E+01 0. -1.
</event>
<event>
 5   0  0.6714629E-05  0.2407361E+04  0.7818609E-02  0.8436753E-01
        2   -1    0    0  501    0  0.00000000000E+00  0.00000000000E+00  0.14235333440E+04  0.14235333440E+04  0.25500000920E-02 0. -1.
       -2   -1    0    0    0  501  0.00000000000E+00  0.00000000000E+00 -0.10177816871E+04  0.10177816871E+04  0.25500000920E-02 0.  1.
    10030    2    1    2    0    0  0.00000000000E+00  0.00000000000E+00  0.40575165689E+03  0.24413150310E+04  0.24073605201E+04 0.  0.
        3    1    3    3  502    0  0.25848653872E+03 -0.87712403142E+03 -0.59090584401E+03  0.10887293437E+04  0.10100000352E+00 0.  1.
       -3    1    3    3    0  502 -0.25848653872E+03  0.87712403142E+03  0.99665750090E+03  0.13525856873E+04  0.10100000352E+00 0. -1.
</event>
<event>
 5   0  0.6714629E-05  0.2528800E+04  0.7818609E-02  0.8392796E-01
        2   -1    0    0  501    0  0.00000000000E+00  0.00000000000E+00  0.16714407048E+04  0.16714407048E+04  0.25500000920E-02 0. -1.
       -2   -1    0    0    0  501  0.00000000000E+00  0.00000000000E+00 -0.95648500323E+03  0.95648500323E+03  0.25500000920E-02 0.  1.
    10030    2    1    2    0    0  0.00000000000E+00  0.00000000000E+00  0.71495570157E+03  0.26279257080E+04  0.25288004808E+04 0.  0.
        3    1    3    3  502    0  0.82696524733E+01  0.51491844966E+03 -0.84255958340E+03  0.98747964978E+03  0.10100000352E+00 0.  1.
       -3    1    3    3    0  502 -0.82696524733E+01 -0.51491844966E+03  0.15575152850E+04  0.16404460583E+04  0.10100000352E+00 0. -1.
</event>
<event>
 5   0  0.2901816E-05  0.2448130E+04  0.7818609E-02  0.8421701E-01
        1   -1    0    0  501    0  0.00000000000E+00  0.00000000000E+00  0.99619555741E+03  0.99619555742E+03  0.50400001928E-02 0. -1.
       -1   -1    0    0    0  501  0.00000000000E+00  0.00000000000E+00 -0.15040575987E+04  0.15040575987E+04  0.50400001928E-02 0.  1.
    10030    2    1    2    0    0  0.00000000000E+00  0.00000000000E+00 -0.50786204129E+03  0.25002531561E+04  0.24481303053E+04 0.  0.
        4    1    3    3  502    0 -0.53873304845E+03 -0.10798397208E+04 -0.44512181399E+02  0.12075885339E+04  0.12699999809E+01 0. -1.
       -4    1    3    3    0  502  0.53873304845E+03  0.10798397208E+04 -0.46334985989E+03  0.12926646222E+04  0.12699999809E+01 0.  1.
</event>
<event>
 5   0  0.2943244E-05  0.2355599E+04  0.7818609E-02  0.8456316E-01
       -1   -1    0    0    0  501  0.00000000000E+00  0.00000000000E+00  0.84863266170E+03  0.84863266171E+03  0.50400001928E-02 0. -1.
        1   -1    0    0  501    0  0.00000000000E+00  0.00000000000E+00 -0.16346432695E+04  0.16346432695E+04  0.50400001928E-02 0.  1.
    10030    2    1    2    0    0  0.00000000000E+00  0.00000000000E+00 -0.78601060782E+03  0.24832759312E+04  0.23555990056E+04 0.  0.
        3    1    3    3  502    0  0.28273664967E+02  0.81474538220E+03  0.50312933110E+03  0.95799194775E+03  0.10100000352E+00 0. -1.
       -3    1    3    3    0  502 -0.28273664967E+02 -0.81474538220E+03 -0.12891399389E+04  0.15252839835E+04  0.10100000352E+00 0.  1.
</event>
<event>
 5   0  0.2901816E-05  0.1541423E+04  0.7818609E-02  0.8857365E-01
       -1   -1    0    0    0  501  0.00000000000E+00  0.00000000000E+00  0.61150631240E+03  0.61150631242E+03  0.50400001928E-02 0.  1.
        1   -1    0    0  501    0  0.00000000000E+00  0.00000000000E+00 -0.97136565339E+03  0.97136565340E+03  0.50400001928E-02 0. -1.
    10030    2    1    2    0    0  0.00000000000E+00  0.00000000000E+00 -0.35985934099E+03  0.15828719658E+04  0.15414230162E+04 0.  0.
        4    1    3    3  502    0 -0.64024688551E+03 -0.13185134688E+02 -0.62030233674E+03  0.89155287226E+03  0.12699999809E+01 0. -1.
       -4    1    3    3    0  502  0.64024688551E+03  0.13185134688E+02  0.26044299575E+03  0.69131909355E+03  0.12699999809E+01 0.  1.
</event>
<event>
 5   0  0.6600166E-05  0.2406647E+04  0.7818609E-02  0.8437019E-01
        2   -1    0    0  501    0  0.00000000000E+00  0.00000000000E+00  0.25595538215E+04  0.25595538215E+04  0.25500000920E-02 0. -1.
       -2   -1    0    0    0  501  0.00000000000E+00  0.00000000000E+00 -0.56571858782E+03  0.56571858782E+03  0.25500000920E-02 0.  1.
    10030    2    1    2    0    0  0.00000000000E+00  0.00000000000E+00  0.19938352337E+04  0.31252724094E+04  0.24066467737E+04 0.  0.
        5    1    3    3  502    0  0.87430896958E+03 -0.44550326411E+03  0.19013587535E+04  0.21396440200E+04  0.46999998093E+01 0. -1.
       -5    1    3    3    0  502 -0.87430896958E+03  0.44550326411E+03  0.92476480218E+02  0.98562838941E+03  0.46999998093E+01 0.  1.
</event>
<event>
 5   0  0.2901816E-05  0.2424604E+04  0.7818609E-02  0.8430349E-01
        1   -1    0    0  501    0  0.00000000000E+00  0.00000000000E+00  0.73828922081E+03  0.73828922083E+03  0.50400001928E-02 0. -1.
       -1   -1    0    0    0  501  0.00000000000E+00  0.00000000000E+00 -0.19906510320E+04  0.19906510320E+04  0.50400001928E-02 0.  1.
    10030    2    1    2    0    0  0.00000000000E+00  0.00000000000E+00 -0.12523618112E+04  0.27289402528E+04  0.24246040496E+04 0.  0.
        4    1    3    3  502    0  0.73788462380E+03  0.78356521329E+03 -0.12540822793E+04  0.16526258311E+04  0.12699999809E+01 0. -1.
       -4    1    3    3    0  502 -0.73788462380E+03 -0.78356521329E+03  0.17204680902E+01  0.10763144217E+04  0.12699999809E+01 0.  1.
</event>
<event>
 5   0  0.2339125E-05  0.2377939E+04  0.7818609E-02  0.8447809E-01
        3   -1    0    0  501    0  0.00000000000E+00  0.00000000000E+00  0.71097252921E+03  0.71097253639E+03  0.10100000352E+00 0. -1.
       -3   -1    0    0    0  501  0.00000000000E+00  0.00000000000E+00 -0.19883311033E+04  0.19883311058E+04  0.10100000352E+00 0.  1.
    10030    2    1    2    0    0  0.00000000000E+00  0.00000000000E+00 -0.12773585741E+04  0.26993036422E+04  0.23779392814E+04 0.  0.
        3    1    3    3  502    0  0.11115718151E+04 -0.39497767679E+03 -0.80723778755E+03  0.14294167066E+04  0.10100000352E+00 0.  1.
       -3    1    3    3    0  502 -0.11115718151E+04  0.39497767679E+03 -0.47012078651E+03  0.12698869356E+04  0.10100000352E+00 0. -1.
</event>
<event>
 5   0  0.2915546E-05  0.2387781E+04  0.7818609E-02  0.8444093E-01
       -1   -1    0    0    0  501  0.00000000000E+00  0.00000000000E+00  0.15532214120E+04  0.15532214120E+04  0.50400001928E-02 0.  1.
        1   -1    0    0  501    0  0.00000000000E+00  0.00000000000E+00 -0.91768890072E+03  0.91768890073E+03  0.50400001928E-02 0. -1.
    10030    2    1    2    0    0  0.00000000000E+00  0.00000000000E+00  0.63553251124E+03  0.24709103127E+04  0.23877806014E+04 0.  0.
        2    1    3    3  502    0 -0.57878992552E+03 -0.15751621874E+02 -0.76267545364E+03  0.95755926138E+03  0.25500000920E-02 0. -1.
       -2    1    3    3    0  502  0.57878992552E+03  0.15751621874E+02  0.13982079649E+04  0.15133510513E+04  0.25500000920E-02 0.  1.
</event>
<event>
 5   0  0.2847158E-05  0.2429029E+04  0.7818609E-02  0.8428715E-01
       -1   -1    0    0    0  501  0.00000000000E+00  0.00000000000E+00  0.10924105038E+04  0.10924105038E+04  0.50400001928E-02 0.  1.
        1   -1    0    0  501    0  0.00000000000E+00  0.00000000000E+00 -0.13502665629E+04  0.13502665629E+04  0.50400001928E-02 0. -1.
    10030    2    1    2    0    0  0.00000000000E+00  0.00000000000E+00 -0.25785605906E+03  0.24426770667E+04  0.24290289222E+04 0.  0.
        5    1    3    3  502    0 -0.25379401749E+03 -0.41303391790E+03  0.99088834809E+03  0.11031274763E+04  0.46999998093E+01 0.  1.
       -5    1    3    3    0  502  0.25379401749E+03  0.41303391790E+03 -0.12487444072E+04  0.13395495904E+04  0.46999998093E+01 0. -1.
</event>
<event>
 5   0  0.6703961E-05  0.2390981E+04  0.7818609E-02  0.8442888E-01
       -2   -1    0    0    0  501  0.00000000000E+00  0.00000000000E+00  0.11232680638E+04  0.11232680638E+04  0.25500000920E-02 0.  1.
        2   -1    0    0  501    0  0.00000000000E+00  0.00000000000E+00 -0.12723563579E+04  0.12723563579E+04  0.25500000920E-02 0. -1.
    10030    2    1    2    0    0  0.00000000000E+00  0.00000000000E+00 -0.14908829418E+03  0.23956244217E+04  0.23909807717E+04 0.  0.
        2    1    3    3  502    0  0.11705602067E+04 -0.13734135280E+03 -0.27524148387E+03  0.12103023255E+04  0.25500000920E-02 0. -1.
       -2    1    3    3    0  502 -0.11705602067E+04  0.13734135280E+03  0.12615318969E+03  0.11853220962E+04  0.25500000920E-02 0.  1.
</event>
<event>
 5   0  0.6978115E-05  0.2396978E+04  0.7818609E-02  0.8440636E-01
        2   -1    0    0  501    0  0.00000000000E+00  0.00000000000E+00  0.11932938752E+04  0.11932938752E+04  0.25500000920E-02 0.  1.
       -2   -1    0    0    0  501  0.00000000000E+00  0.00000000000E+00 -0.12037067113E+04  0.12037067113E+04  0.25500000920E-02 0. -1.
    10030    2    1    2    0    0  0.00000000000E+00  0.00000000000E+00 -0.10412836147E+02  0.23970005865E+04  0.23969779691E+04 0.  0.
        4    1    3    3  502    0 -0.38108667644E+03  0.55182372258E+01  0.11310774782E+04  0.11935641501E+04  0.12699999809E+01 0.  1.
       -4    1    3    3    0  502  0.38108667644E+03 -0.55182372258E+01 -0.11414903143E+04  0.12034364364E+04  0.12699999809E+01 0. -1.
</event>
<event>
 5   0  0.6714629E-05  0.2392415E+04  0.7818609E-02  0.8442349E-01
       -2   -1    0    0    0  501  0.00000000000E+00  0.00000000000E+00  0.99304580941E+03  0.99304580941E+03  0.25500000920E-02 0. -1.
        2   -1    0    0  501    0  0.00000000000E+00  0.00000000000E+00 -0.14409328940E+04  0.14409328940E+04  0.25500000920E-02 0.  1.
    10030    2    1    2    0    0  0.00000000000E+00  0.00000000000E+00 -0.44788708460E+03  0.24339787034E+04  0.23924149908E+04 0.  0.
        3    1    3    3  502    0 -0.62785104277E+02 -0.10238364127E+04 -0.85004507160E+03  0.13322010371E+04  0.10100000352E+00 0. -1.
       -3    1    3    3    0  502  0.62785104277E+02  0.10238364127E+04  0.40215798700E+03  0.11017776663E+04  0.10100000352E+00 0.  1.
</event>
<event>
 5   0  0.2901816E-05  0.2248324E+04  0.7818609E-02  0.8498579E-01
       -1   -1    0    0    0  501  0.00000000000E+00  0.00000000000E+00  0.18746130914E+04  0.18746130914E+04  0.50400001928E-02 0. -1.
        1   -1    0    0  501    0  0.00000000000E+00  0.00000000000E+00 -0.67413405707E+03  0.67413405709E+03  0.50400001928E-02 0.  1.
    10030    2    1    2    0    0  0.00000000000E+00  0.00000000000E+00  0.12004790343E+04  0.25487471485E+04  0.22483242905E+04 0.  0.
        4    1    3    3  502    0  0.56313735185E+03  0.24021881351E+03  0.16690402318E+04  0.17777867318E+04  0.12699999809E+01 0. -1.
       -4    1    3    3    0  502 -0.56313735185E+03 -0.24021881351E+03 -0.46856119750E+03  0.77096041670E+03  0.12699999809E+01 0.  1.
</event>
<event>
 5   0  0.2943244E-05  0.2345385E+04  0.7818609E-02  0.8460238E-01
       -1   -1    0    0    0  501  0.00000000000E+00  0.00000000000E+00  0.72399248596E+03  0.72399248597E+03  0.50400001928E-02 0.  1.
        1   -1    0    0  501    0  0.00000000000E+00  0.00000000000E+00 -0.18994778421E+04  0.18994778421E+04  0.50400001928E-02 0. -1.
    10030    2    1    2    0    0  0.00000000000E+00  0.00000000000E+00 -0.11754853562E+04  0.26234703281E+04  0.23453849876E+04 0.  0.
        3    1    3    3  502    0 -0.54531581268E+03  0.56316209700E+03  0.38784196046E+03  0.87460978702E+03  0.10100000352E+00 0.  1.
       -3    1    3    3    0  502  0.54531581268E+03 -0.56316209700E+03 -0.15633273166E+04  0.17488605411E+04  0.10100000352E+00 0. -1.
</event>
<event>
 5   0  0.2847158E-05  0.2409820E+04  0.7818609E-02  0.8435836E-01
       -1   -1    0    0    0  501  0.00000000000E+00  0.00000000000E+00  0.10930373911E+04  0.10930373911E+04  0.50400001928E-02 0.  1.
        1   -1    0    0  501    0  0.00000000000E+00  0.00000000000E+00 -0.13282324497E+04  0.13282324497E+04  0.50400001928E-02 0. -1.
    10030    2    1    2    0    0  0.00000000000E+00  0.00000000000E+00 -0.23519505857E+03  0.24212698408E+04  0.24098196876E+04 0.  0.
        5    1    3    3  502    0  0.49768167208E+03 -0.43375970929E+03  0.89513567390E+03  0.11122609841E+04  0.46999998093E+01 0.  1.
       -5    1    3    3    0  502 -0.49768167208E+03  0.43375970929E+03 -0.11303307325E+04  0.13090088567E+04  0.46999998093E+01 0. -1.
</event>
<event>
 5   0  0.2847158E-05  0.2370034E+04  0.7818609E-02  0.8450808E-01
       -1   -1    0    0    0  501  0.00000000000E+00  0.00000000000E+00  0.13237714283E+04  0.13237714283E+04  0.50400001928E-02 0.  1.
        1   -1    0    0  501    0  0.00000000000E+00  0.00000000000E+00 -0.10608066302E+04  0.10608066302E+04  0.50400001928E-02 0. -1.
    10030    2    1    2    0    0  0.00000000000E+00  0.00000000000E+00  0.26296479816E+03  0.23845780585E+04  0.23700341837E+04 0.  0.
        5    1    3    3  502    0  0.36956236491E+03  0.10106105294E+04 -0.36788319259E+03  0.11372203467E+04  0.46999998093E+01 0. -1.
       -5    1    3    3    0  502 -0.36956236491E+03 -0.10106105294E+04  0.63084799075E+03  0.12473577118E+04  0.46999998093E+01 0.  1.
</event>
<event>
 5   0  0.6703961E-05  0.2418041E+04  0.7818609E-02  0.8432780E-01
        2   -1    0    0  501    0  0.00000000000E+00  0.00000000000E+00  0.19713538542E+04  0.19713538542E+04  0.25500000920E-02 0. -1.
       -2   -1    0    0    0  501  0.00000000000E+00  0.00000000000E+00 -0.74148578668E+03  0.74148578669E+03  0.25500000920E-02 0.  1.
    10030    2    1    2    0    0  0.00000000000E+00  0.00000000000E+00  0.12298680675E+04  0.27128396409E+04  0.24180412432E+04 0.  0.
        2    1    3    3  502    0  0.98358298809E+03 -0.39266503945E+03  0.12692233412E+04  0.16530424125E+04  0.25500000920E-02 0.  1.
       -2    1    3    3    0  502 -0.98358298809E+03  0.39266503945E+03 -0.39355273712E+02  0.10597972284E+04  0.25500000920E-02 0. -1.
</event>
<event>
 5   0  0.6703961E-05  0.2520949E+04  0.7818609E-02  0.8395560E-01
        2   -1    0    0  501    0  0.00000000000E+00  0.00000000000E+00  0.14887222969E+04  0.14887222969E+04  0.25500000920E-02 0.  1.
       -2   -1    0    0    0  501  0.00000000000E+00  0.00000000000E+00 -0.10672213092E+04  0.10672213092E+04  0.25500000920E-02 0. -1.
    10030    2    1    2    0    0  0.00000000000E+00  0.00000000000E+00  0.42150098773E+03  0.25559436062E+04  0.25209491536E+04 0.  0.
        2    1    3    3  502    0 -0.37380443677E+03  0.16620701632E+01  0.14312311786E+04  0.14792414293E+04  0.25500000920E-02 0.  1.
       -2    1    3    3    0  502  0.37380443677E+03 -0.16620701632E+01 -0.10097301909E+04  0.10767021769E+04  0.25500000920E-02 0. -1.
</event>
<event>
 5   0  0.2943244E-05  0.2405302E+04  0.7818609E-02  0.8437521E-01
       -1   -1    0    0    0  501  0.00000000000E+00  0.00000000000E+00  0.54771153123E+03  0.54771153125E+03  0.50400001928E-02 0. -1.
        1   -1    0    0  501    0  0.00000000000E+00  0.00000000000E+00 -0.26407499876E+04  0.26407499876E+04  0.50400001928E-02 0.  1.
    10030    2    1    2    0    0  0.00000000000E+00  0.00000000000E+00 -0.20930384564E+04  0.31884615188E+04  0.24053018267E+04 0.  0.
        3    1    3    3  502    0 -0.22885342818E+03  0.10439208837E+04 -0.31536550437E+03  0.11142711136E+04  0.10100000352E+00 0. -1.
       -3    1    3    3    0  502  0.22885342818E+03 -0.10439208837E+04 -0.17776729520E+04  0.20741904053E+04  0.10100000352E+00 0.  1.
</event>
<event>
 5   0  0.2943123E-05  0.2375707E+04  0.7818609E-02  0.8448655E-01
        1   -1    0    0  501    0  0.00000000000E+00  0.00000000000E+00  0.21422678046E+04  0.21422678046E+04  0.50400001928E-02 0. -1.
       -1   -1    0    0    0  501  0.00000000000E+00  0.00000000000E+00 -0.65864569598E+03  0.65864569600E+03  0.50400001928E-02 0.  1.
    10030    2    1    2    0    0  0.00000000000E+00  0.00000000000E+00  0.14836221086E+04  0.28009135006E+04  0.23757066057E+04 0.  0.
        1    1    3    3  502    0  0.11700504506E+04 -0.11472074904E+02  0.98298636563E+03  0.15282054379E+04  0.50400001928E-02 0. -1.
       -1    1    3    3    0  502 -0.11700504506E+04  0.11472074904E+02  0.50063574295E+03  0.12727080626E+04  0.50400001928E-02 0.  1.
</event>
<event>
 5   0  0.6337926E-05  0.1924514E+04  0.7818609E-02  0.8642750E-01
        2   -1    0    0  501    0  0.00000000000E+00  0.00000000000E+00  0.19667896462E+04  0.19667896462E+04  0.25500000920E-02 0. -1.
       -2   -1    0    0    0  501  0.00000000000E+00  0.00000000000E+00 -0.47078664478E+03  0.47078664478E+03  0.25500000920E-02 0.  1.
    10030    2    1    2    0    0  0.00000000000E+00  0.00000000000E+00  0.14960030014E+04  0.24375762910E+04  0.19245137553E+04 0.  0.
        1    1    3    3  502    0 -0.24269874766E+03  0.90533883718E+03  0.10237502616E+04  0.13880222226E+04  0.50400001928E-02 0.  1.
       -1    1    3    3    0  502  0.24269874766E+03 -0.90533883718E+03  0.47225273982E+03  0.10495540684E+04  0.50400001928E-02 0. -1.
</event>
<event>
 5   0  0.6600166E-05  0.2378485E+04  0.7818609E-02  0.8447603E-01
       -2   -1    0    0    0  501  0.00000000000E+00  0.00000000000E+00  0.18354367738E+04  0.18354367738E+04  0.25500000920E-02 0.  1.
        2   -1    0    0  501    0  0.00000000000E+00  0.00000000000E+00 -0.77055098201E+03  0.77055098202E+03  0.25500000920E-02 0. -1.
    10030    2    1    2    0    0  0.00000000000E+00  0.00000000000E+00  0.10648857917E+04  0.26059877558E+04  0.23784849030E+04 0.  0.
        5    1    3    3  502    0 -0.72128177246E+03  0.94166616500E+03  0.62601013050E+03  0.13412282934E+04  0.46999998093E+01 0.  1.
       -5    1    3    3    0  502  0.72128177246E+03 -0.94166616500E+03  0.43887566125E+03  0.12647594624E+04  0.46999998093E+01 0. -1.
</event>
<event>
 5   0  0.2915546E-05  0.2317940E+04  0.7818609E-02  0.8470881E-01
       -1   -1    0    0    0  501  0.00000000000E+00  0.00000000000E+00  0.10571024854E+04  0.10571024855E+04  0.50400001928E-02 0. -1.
        1   -1    0    0  501    0  0.00000000000E+00  0.00000000000E+00 -0.12706539831E+04  0.12706539831E+04  0.50400001928E-02 0.  1.
    10030    2    1    2    0    0  0.00000000000E+00  0.00000000000E+00 -0.21355149766E+03  0.23277564686E+04  0.23179400197E+04 0.  0.
        2    1    3    3  502    0  0.32952585295E+03 -0.87058200333E+02  0.10056360975E+04  0.10618240808E+04  0.25500000920E-02 0. -1.
       -2    1    3    3    0  502 -0.32952585295E+03  0.87058200333E+02 -0.12191875952E+04  0.12659323877E+04  0.25500000920E-02 0.  1.
</event>
<event>
 5   0  0.2915546E-05  0.1523686E+04  0.7818609E-02  0.8868853E-01
        1   -1    0    0  501    0  0.00000000000E+00  0.00000000000E+00  0.76858633758E+03  0.76858633760E+03  0.50400001928E-02 0. -1.
       -1   -1    0    0    0  501  0.00000000000E+00  0.00000000000E+00 -0.75515860807E+03  0.75515860808E+03  0.50400001928E-02 0.  1.
    10030    2    1    2    0    0  0.00000000000E+00  0.00000000000E+00  0.13427729513E+02  0.15237449457E+04  0.15236857798E+04 0.  0.
        2    1    3    3  502    0  0.42164659673E+03 -0.26170617618E+03 -0.57134717280E+03  0.75677841345E+03  0.25500000920E-02 0.  1.
       -2    1    3    3    0  502 -0.42164659673E+03  0.26170617618E+03  0.58477490231E+03  0.76696653223E+03  0.25500000920E-02 0. -1.
</event>
<event>
 5   0  0.2943244E-05  0.2377154E+04  0.7818609E-02  0.8448107E-01
       -1   -1    0    0    0  501  0.00000000000E+00  0.00000000000E+00  0.79234395704E+03  0.79234395705E+03  0.50400001928E-02 0. -1.
        1   -1    0    0  501    0  0.00000000000E+00  0.00000000000E+00 -0.17829570766E+04  0.17829570766E+04  0.50400001928E-02 0.  1.
    10030    2    1    2    0    0  0.00000000000E+00  0.00000000000E+00 -0.99061311959E+03  0.25753010337E+04  0.23771539835E+04 0.  0.
        3    1    3    3  502    0  0.31367235612E+01  0.10486993921E+04  0.11072851198E+03  0.10545335782E+04  0.10100000352E+00 0. -1.
       -3    1    3    3    0  502 -0.31367235612E+01 -0.10486993921E+04 -0.11013416316E+04  0.15207674555E+04  0.10100000352E+00 0.  1.
</event>
<event>
 5   0  0.6714629E-05  0.2432881E+04  0.7818609E-02  0.8427295E-01
        2   -1    0    0  501    0  0.00000000000E+00  0.00000000000E+00  0.15358037401E+04  0.15358037401E+04  0.25500000920E-02 0.  1.
       -2   -1    0    0    0  501  0.00000000000E+00  0.00000000000E+00 -0.96348718558E+03  0.96348718558E+03  0.25500000920E-02 0. -1.
    10030    2    1    2    0    0  0.00000000000E+00  0.00000000000E+00  0.57231655457E+03  0.24992909257E+04  0.24328807806E+04 0.  0.
        3    1    3    3  502    0  0.60048481387E+03 -0.46423181634E+03  0.12627033020E+04  0.14732660419E+04  0.10100000352E+00 0.  1.
       -3    1    3    3    0  502 -0.60048481387E+03  0.46423181634E+03 -0.69038674747E+03  0.10260248838E+04  0.10100000352E+00 0. -1.
</event>
<event>
 5   0  0.2847158E-05  0.2378327E+04  0.7818609E-02  0.8447662E-01
        1   -1    0    0  501    0  0.00000000000E+00  0.00000000000E+00  0.19243641630E+04  0.19243641630E+04  0.50400001928E-02 0. -1.
       -1   -1    0    0    0  501  0.00000000000E+00  0.00000000000E+00 -0.73484553628E+03  0.73484553630E+03  0.50400001928E-02 0.  1.
    10030    2    1    2    0    0  0.00000000000E+00  0.00000000000E+00  0.11895186267E+04  0.26592096993E+04  0.23783274925E+04 0.  0.
        5    1    3    3  502    0 -0.53114117513E+03 -0.62082540703E+03  0.15608353468E+04  0.17617503239E+04  0.46999998093E+01 0. -1.
       -5    1    3    3    0  502  0.53114117513E+03  0.62082540703E+03 -0.37131672006E+03  0.89745937542E+03  0.46999998093E+01 0.  1.
</event>
<event>
 5   0  0.2915546E-05  0.2414958E+04  0.7818609E-02  0.8433925E-01
        1   -1    0    0  501    0  0.00000000000E+00  0.00000000000E+00  0.12039926976E+04  0.12039926976E+04  0.50400001928E-02 0.  1.
       -1   -1    0    0    0  501  0.00000000000E+00  0.00000000000E+00 -0.12109749984E+04  0.12109749984E+04  0.50400001928E-02 0. -1.
    10030    2    1    2    0    0  0.00000000000E+00  0.00000000000E+00 -0.69823007837E+01  0.24149676961E+04  0.24149576022E+04 0.  0.
        2    1    3    3  502    0  0.10417396718E+04 -0.24004390116E+03 -0.56488679636E+03  0.12091069891E+04  0.25500000920E-02 0. -1.
       -2    1    3    3    0  502 -0.10417396718E+04  0.24004390116E+03  0.55790449557E+03  0.12058607070E+04  0.25500000920E-02 0.  1.
</event>
<event>
 5   0  0.6714629E-05  0.2346896E+04  0.7818609E-02  0.8459657E-01
        2   -1    0    0  501    0  0.00000000000E+00  0.00000000000E+00  0.11999406041E+04  0.11999406041E+04  0.25500000920E-02 0. -1.
       -2   -1    0    0    0  501  0.00000000000E+00  0.00000000000E+00 -0.11475400484E+04  0.11475400484E+04  0.25500000920E-02 0.  1.
    10030    2    1    2    0    0  0.00000000000E+00  0.00000000000E+00  0.52400555686E+02  0.23474806526E+04  0.23468957361E+04 0.  0.
        3    1    3    3  502    0  0.77431235121E+03  0.87628446039E+03 -0.71526764636E+02  0.11715588594E+04  0.10100000352E+00 0. -1.
       -3    1    3    3    0  502 -0.77431235121E+03 -0.87628446039E+03  0.12392732032E+03  0.11759217932E+04  0.10100000352E+00 0.  1.
</event>
<event>
 5   0  0.6600166E-05  0.2363566E+04  0.7818609E-02  0.8453271E-01
       -2   -1    0    0    0  501  0.00000000000E+00  0.00000000000E+00  0.80593998988E+03  0.80593998989E+03  0.25500000920E-02 0. -1.
        2   -1    0    0  501    0  0.00000000000E+00  0.00000000000E+00 -0.17328966142E+04  0.17328966142E+04  0.25500000920E-02 0.  1.
    10030    2    1    2    0    0  0.00000000000E+00  0.00000000000E+00 -0.92695662435E+03  0.25388366041E+04  0.23635656790E+04 0.  0.
        5    1    3    3  502    0  0.15939906243E+03  0.12034916447E+03 -0.17146256197E+04  0.17262256771E+04  0.46999998093E+01 0.  1.
       -5    1    3    3    0  502 -0.15939906243E+03 -0.12034916447E+03  0.78766899535E+03  0.81261092703E+03  0.46999998093E+01 0. -1.
</event>
<event>
 5   0  0.6600166E-05  0.1896669E+04  0.7818609E-02  0.8656516E-01
       -2   -1    0    0    0  501  0.00000000000E+00  0.00000000000E+00  0.56317629322E+03  0.56317629323E+03  0.25500000920E-02 0. -1.
        2   -1    0    0  501    0  0.00000000000E+00  0.00000000000E+00 -0.15969045215E+04  0.15969045215E+04  0.25500000920E-02 0.  1.
    10030    2    1    2    0    0  0.00000000000E+00  0.00000000000E+00 -0.10337282283E+04  0.21600808148E+04  0.18966694694E+04 0.  0.
        5    1    3    3  502    0  0.79328101006E+02  0.84539873657E+03 -0.35931636100E+02  0.84988537102E+03  0.46999998093E+01 0. -1.
       -5    1    3    3    0  502 -0.79328101006E+02 -0.84539873657E+03 -0.99779659222E+03  0.13101954438E+04  0.46999998093E+01 0.  1.
</event>
<event>
 5   0  0.6600166E-05  0.1679756E+04  0.7818609E-02  0.8772995E-01
        2   -1    0    0  501    0  0.00000000000E+00  0.00000000000E+00  0.11406190999E+04  0.11406190999E+04  0.25500000920E-02 0. -1.
       -2   -1    0    0    0  501  0.00000000000E+00  0.00000000000E+00 -0.61843186383E+03  0.61843186384E+03  0.25500000920E-02 0.  1.
    10030    2    1    2    0    0  0.00000000000E+00  0.00000000000E+00  0.52218723611E+03  0.17590509638E+04  0.16797561679E+04 0.  0.
        5    1    3    3  502    0  0.36565997933E+03  0.83514680591E+01 -0.53063587032E+03  0.64449475123E+03  0.46999998093E+01 0.  1.
       -5    1    3    3    0  502 -0.36565997933E+03 -0.83514680591E+01  0.10528231064E+04  0.11145562125E+04  0.46999998093E+01 0. -1.
</event>
<event>
 5   0  0.6703961E-05  0.2380516E+04  0.7818609E-02  0.8446834E-01
       -2   -1    0    0    0  501  0.00000000000E+00  0.00000000000E+00  0.11558840490E+04  0.11558840490E+04  0.25500000920E-02 0.  1.
        2   -1    0    0  501    0  0.00000000000E+00  0.00000000000E+00 -0.12256544564E+04  0.12256544564E+04  0.25500000920E-02 0. -1.
    10030    2    1    2    0    0  0.00000000000E+00  0.00000000000E+00 -0.69770407458E+02  0.23815385054E+04  0.23805162766E+04 0.  0.
        2    1    3    3  502    0  0.24098249436E+03  0.49250789501E+03  0.10220143057E+04  0.11598059451E+04  0.25500000920E-02 0.  1.
       -2    1    3    3    0  502 -0.24098249436E+03 -0.49250789501E+03 -0.10917847131E+04  0.12217325603E+04  0.25500000920E-02 0. -1.
</event>
<event>
 5   0  0.6978115E-05  0.2399790E+04  0.7818609E-02  0.8439582E-01
        2   -1    0    0  501    0  0.00000000000E+00  0.00000000000E+00  0.19045628890E+04  0.19045628890E+04  0.25500000920E-02 0. -1.
       -2   -1    0    0    0  501  0.00000000000E+00  0.00000000000E+00 -0.75594660399E+03  0.75594660400E+03  0.25500000920E-02 0.  1.
    10030    2    1    2    0    0  0.00000000000E+00  0.00000000000E+00  0.11486162850E+04  0.26605094930E+04  0.23997898642E+04 0.  0.
        4    1    3    3  502    0 -0.43536493833E+03  0.45881546066E+03  0.17047388461E+04  0.18182932665E+04  0.12699999809E+01 0. -1.
       -4    1    3    3    0  502  0.43536493833E+03 -0.45881546066E+03 -0.55612256108E+03  0.84221622658E+03  0.12699999809E+01 0.  1.
</event>
<event>
 5   0  0.6714629E-05  0.2316818E+04  0.7818609E-02  0.8471319E-01
       -2   -1    0    0    0  501  0.00000000000E+00  0.00000000000E+00  0.93640531838E+03  0.93640531839E+03  0.25500000920E-02 0. -1.
        2   -1    0    0  501    0  0.00000000000E+00  0.00000000000E+00 -0.14330453931E+04  0.14330453931E+04  0.25500000920E-02 0.  1.
    10030    2    1    2    0    0  0.00000000000E+00  0.00000000000E+00 -0.49664007469E+03  0.23694507115E+04  0.23168179277E+04 0.  0.
        3    1    3    3  502    0 -0.99359836471E+03 -0.73174740012E+02 -0.85277913447E+03  0.13114208002E+04  0.10100000352E+00 0.  1.
       -3    1    3    3    0  502  0.99359836471E+03  0.73174740012E+02  0.35613905978E+03  0.10580299112E+04  0.10100000352E+00 0. -1.
</event>
<event>
 5   0  0.6600166E-05  0.2572792E+04  0.7818609E-02  0.8377502E-01
        2   -1    0    0  501    0  0.00000000000E+00  0.00000000000E+00  0.16428279949E+04  0.16428279949E+04  0.25500000920E-02 0. -1.
       -2   -1    0    0    0  501  0.00000000000E+00  0.00000000000E+00 -0.10072966979E+04  0.10072966979E+04  0.25500000920E-02 0.  1.
    10030    2    1    2    0    0  0.00000000000E+00  0.00000000000E+00  0.63553129706E+03  0.26501246928E+04  0.25727924242E+04 0.  0.
        5    1    3    3  502    0 -0.49345301882E+03 -0.26059013152E+03  0.15116509908E+04  0.16113701953E+04  0.46999998093E+01 0. -1.
       -5    1    3    3    0  502  0.49345301882E+03  0.26059013152E+03 -0.87611969370E+03  0.10387544975E+04  0.46999998093E+01 0.  1.
</event>
<event>
 5   0  0.6337926E-05  0.2413023E+04  0.7818609E-02  0.8434644E-01
       -2   -1    0    0    0  501  0.00000000000E+00  0.00000000000E+00  0.14468318873E+04  0.14468318873E+04  0.25500000920E-02 0.  1.
        2   -1    0    0  501    0  0.00000000000E+00  0.00000000000E+00 -0.10061082208E+04  0.10061082208E+04  0.25500000920E-02 0. -1.
    10030    2    1    2    0    0  0.00000000000E+00  0.00000000000E+00  0.44072366651E+03  0.24529401081E+04  0.24130225494E+04 0.  0.
        1    1    3    3  502    0 -0.30070106024E+03 -0.50256771215E+03 -0.85192145765E+03  0.10338112028E+04  0.50400001928E-02 0. -1.
       -1    1    3    3    0  502  0.30070106024E+03  0.50256771215E+03  0.12926451242E+04  0.14191289053E+04  0.50400001928E-02 0.  1.
</event>
<event>
 5   0  0.2339125E-05  0.2319332E+04  0.7818609E-02  0.8470338E-01
       -3   -1    0    0    0  501  0.00000000000E+00  0.00000000000E+00  0.14377059990E+04  0.14377060026E+04  0.10100000352E+00 0. -1.
        3   -1    0    0  501    0  0.00000000000E+00  0.00000000000E+00 -0.93539659054E+03  0.93539659600E+03  0.10100000352E+00 0.  1.
    10030    2    1    2    0    0  0.00000000000E+00  0.00000000000E+00  0.50230940846E+03  0.23731025986E+04  0.23193320593E+04 0.  0.
        4    1    3    3  502    0 -0.39713929201E+03  0.42134195312E+03  0.12792251718E+04  0.14041607144E+04  0.12699999809E+01 0. -1.
       -4    1    3    3    0  502  0.39713929201E+03 -0.42134195312E+03 -0.77691576333E+03  0.96894188419E+03  0.12699999809E+01 0.  1.
</event>
<event>
 5   0  0.6337926E-05  0.2401975E+04  0.7818609E-02  0.8438764E-01
        2   -1    0    0  501    0  0.00000000000E+00  0.00000000000E+00  0.14163786140E+04  0.14163786140E+04  0.25500000920E-02 0. -1.
       -2   -1    0    0    0  501  0.00000000000E+00  0.00000000000E+00 -0.10183516919E+04  0.10183516919E+04  0.25500000920E-02 0.  1.
    10030    2    1    2    0    0  0.00000000000E+00  0.00000000000E+00  0.39802692209E+03  0.24347303059E+04  0.24019754852E+04 0.  0.
        1    1    3    3  502    0  0.90969051106E+03  0.61815098158E+03  0.68800682664E+03  0.12973052283E+04  0.50400001928E-02 0. -1.
       -1    1    3    3    0  502 -0.90969051106E+03 -0.61815098158E+03 -0.28997990455E+03  0.11374250775E+04  0.50400001928E-02 0.  1.
</event>
<event>
 5   0  0.2915546E-05  0.2434556E+04  0.7818609E-02  0.8426679E-01
       -1   -1    0    0    0  501  0.00000000000E+00  0.00000000000E+00  0.17157273109E+04  0.17157273109E+04  0.50400001928E-02 0.  1.
        1   -1    0    0  501    0  0.00000000000E+00  0.00000000000E+00 -0.86363679685E+03  0.86363679686E+03  0.50400001928E-02 0. -1.
    10030    2    1    2    0    0  0.00000000000E+00  0.00000000000E+00  0.85209051401E+03  0.25793641077E+04  0.24345555973E+04 0.  0.
        2    1    3    3  502    0 -0.38561280889E+03 -0.11238381861E+04  0.70646900753E+03  0.13823197769E+04  0.25500000920E-02 0.  1.
       -2    1    3    3    0  502  0.38561280889E+03  0.11238381861E+04  0.14562150648E+03  0.11970443309E+04  0.25500000920E-02 0. -1.
</event>
<event>
 5   0  0.6714629E-05  0.2484917E+04  0.7818609E-02  0.8408379E-01
        2   -1    0    0  501    0  0.00000000000E+00  0.00000000000E+00  0.10490396461E+04  0.10490396462E+04  0.25500000920E-02 0.  1.
       -2   -1    0    0    0  501  0.00000000000E+00  0.00000000000E+00 -0.14715399218E+04  0.14715399218E+04  0.25500000920E-02 0. -1.
    10030    2    1    2    0    0  0.00000000000E+00  0.00000000000E+00 -0.42250027566E+03  0.25205795680E+04  0.24849174786E+04 0.  0.
        3    1    3    3  502    0 -0.72635294107E+03  0.40618503636E+03  0.72455643528E+03  0.11034296157E+04  0.10100000352E+00 0.  1.
       -3    1    3    3    0  502  0.72635294107E+03 -0.40618503636E+03 -0.11470567109E+04  0.14171499522E+04  0.10100000352E+00 0. -1.
</event>
<event>
 5   0  0.2901816E-05  0.2382722E+04  0.7818609E-02  0.8446001E-01
        1   -1    0    0  501    0  0.00000000000E+00  0.00000000000E+00  0.10645316463E+04  0.10645316463E+04  0.50400001928E-02 0. -1.
       -1   -1    0    0    0  501  0.00000000000E+00  0.00000000000E+00 -0.13333009705E+04  0.13333009705E+04  0.50400001928E-02 0.  1.
    10030    2    1    2    0    0  0.00000000000E+00  0.00000000000E+00 -0.26876932414E+03  0.23978326168E+04  0.23827220376E+04 0.  0.
        4    1    3    3  502    0 -0.43525953273E+03 -0.89458064219E+03 -0.79399086943E+03  0.12728505410E+04  0.12699999809E+01 0.  1.
       -4    1    3    3    0  502  0.43525953273E+03  0.89458064219E+03  0.52522154529E+03  0.11249820757E+04  0.12699999809E+01 0. -1.
</event>
<event>
 5   0  0.2943123E-05  0.2446432E+04  0.7818609E-02  0.8422322E-01
       -1   -1    0    0    0  501  0.00000000000E+00  0.00000000000E+00  0.21719212242E+04  0.21719212242E+04  0.50400001928E-02 0. -1.
        1   -1    0    0  501    0  0.00000000000E+00  0.00000000000E+00 -0.68890968137E+03  0.68890968139E+03  0.50400001928E-02 0.  1.
    10030    2    1    2    0    0  0.00000000000E+00  0.00000000000E+00  0.14830115428E+04  0.28608309055E+04  0.24464321438E+04 0.  0.
        1    1    3    3  502    0  0.31516292524E+03 -0.11370979764E+04  0.36450142100E+03  0.12349820903E+04  0.50400001928E-02 0.  1.
       -1    1    3    3    0  502 -0.31516292524E+03  0.11370979764E+04  0.11185101218E+04  0.16258488152E+04  0.50400001928E-02 0. -1.
</event>
<event>
 5   0  0.2847158E-05  0.2430317E+04  0.7818609E-02  0.8428240E-01
        1   -1    0    0  501    0  0.00000000000E+00  0.00000000000E+00  0.13934792689E+04  0.13934792689E+04  0.50400001928E-02 0. -1.
       -1   -1    0    0    0  501  0.00000000000E+00  0.00000000000E+00 -0.10596574698E+04  0.10596574698E+04  0.50400001928E-02 0.  1.
    10030    2    1    2    0    0  0.00000000000E+00  0.00000000000E+00  0.33382179915E+03  0.24531367387E+04  0.24303174413E+04 0.  0.
        5    1    3    3  502    0 -0.29471400414E+03 -0.44926101385E+03 -0.93322950068E+03  0.10768617338E+04  0.46999998093E+01 0.  1.
       -5    1    3    3    0  502  0.29471400414E+03  0.44926101385E+03  0.12670512998E+04  0.13762750049E+04  0.46999998093E+01 0. -1.
</event>
<event>
 5   0  0.6978115E-05  0.2401510E+04  0.7818609E-02  0.8438939E-01
        2   -1    0    0  501    0  0.00000000000E+00  0.00000000000E+00  0.11870428518E+04  0.11870428518E+04  0.25500000920E-02 0.  1.
       -2   -1    0    0    0  501  0.00000000000E+00  0.00000000000E+00 -0.12146250905E+04  0.12146250905E+04  0.25500000920E-02 0. -1.
    10030    2    1    2    0    0  0.00000000000E+00  0.00000000000E+00 -0.27582238724E+02  0.24016679423E+04  0.24015095513E+04 0.  0.
        4    1    3    3  502    0 -0.64067383444E+03 -0.90841173866E+03 -0.46784261583E+03  0.12060485791E+04  0.12699999809E+01 0. -1.
       -4    1    3    3    0  502  0.64067383444E+03  0.90841173866E+03  0.44026037710E+03  0.11956193632E+04  0.12699999809E+01 0.  1.
</event>
<event>
 5   0  0.2915546E-05  0.2401834E+04  0.7818609E-02  0.8438817E-01
       -1   -1    0    0    0  501  0.00000000000E+00  0.00000000000E+00  0.87409470676E+03  0.87409470678E+03  0.50400001928E-02 0.  1.
        1   -1    0    0  501    0  0.00000000000E+00  0.00000000000E+00 -0.16499377770E+04  0.16499377770E+04  0.50400001928E-02 0. -1.
    10030    2    1    2    0    0  0.00000000000E+00  0.00000000000E+00 -0.77584307020E+03  0.25240324837E+04  0.24018341969E+04 0.  0.
        2    1    3    3  502    0 -0.51351607619E+03  0.97757151863E+03  0.10817374786E+03  0.11095253013E+04  0.25500000920E-02 0.  1.
       -2    1    3    3    0  502  0.51351607619E+03 -0.97757151863E+03 -0.88401681806E+03  0.14145071824E+04  0.25500000920E-02 0. -1.
</event>
<event>
 5   0  0.6703961E-05  0.2388436E+04  0.7818609E-02  0.8443845E-01
        2   -1    0    0  501    0  0.00000000000E+00  0.00000000000E+00  0.26924202450E+04  0.26924202450E+04  0.25500000920E-02 0. -1.
       -2   -1    0    0    0  501  0.00000000000E+00  0.00000000000E+00 -0.52969338509E+03  0.52969338509E+03  0.25500000920E-02 0.  1.
    10030    2    1    2    0    0  0.00000000000E+00  0.00000000000E+00  0.21627268599E+04  0.32221136301E+04  0.23884364707E+04 0.  0.
        2    1    3    3  502    0 -0.40498711888E+03  0.11173982044E+04  0.12384789647E+04  0.17165149168E+04  0.25500000920E-02 0.  1.
       -2    1    3    3    0  502  0.40498711888E+03 -0.11173982044E+04  0.92424789518E+03  0.15055987133E+04  0.25500000920E-02 0. -1.
</event>
<event>
 5   0  0.6337926E-05  0.2431983E+04  0.7818609E-02  0.8427626E-01
        2   -1    0    0  501    0  0.00000000000E+00  0.00000000000E+00  0.15475558948E+04  0.15475558948E+04  0.25500000920E-02 0.  1.
       -2   -1    0    0    0  501  0.00000000000E+00  0.00000000000E+00 -0.95546477258E+03  0.95546477258E+03  0.25500000920E-02 0. -1.
    10030    2    1    2    0    0  0.00000000000E+00  0.00000000000E+00  0.59209112224E+03  0.25030206674E+04  0.24319828462E+04 0.  0.
        1    1    3    3  502    0 -0.39422510568E+02  0.12090711247E+04  0.42305198254E+03  0.12815537830E+04  0.50400001928E-02 0.  1.
       -1    1    3    3    0  502  0.39422510568E+02 -0.12090711247E+04  0.16903913970E+03  0.12214668844E+04  0.50400001928E-02 0. -1.
</event>
<event>
 5   0  0.6600166E-05  0.2347028E+04  0.7818609E-02  0.8459606E-01
       -2   -1    0    0    0  501  0.00000000000E+00  0.00000000000E+00  0.13886372561E+04  0.13886372561E+04  0.25500000920E-02 0.  1.
        2   -1    0    0  501    0  0.00000000000E+00  0.00000000000E+00 -0.99171667518E+03  0.99171667518E+03  0.25500000920E-02 0. -1.
    10030    2    1    2    0    0  0.00000000000E+00  0.00000000000E+00  0.39692058089E+03  0.23803539313E+04  0.23470276714E+04 0.  0.
        5    1    3    3  502    0  0.47900164612E+03 -0.26430498950E+03 -0.85445885054E+03  0.10146042192E+04  0.46999998093E+01 0. -1.
       -5    1    3    3    0  502 -0.47900164612E+03  0.26430498950E+03  0.12513794314E+04  0.13657497120E+04  0.46999998093E+01 0.  1.
</event>
<event>
 5   0  0.2915546E-05  0.2386405E+04  0.7818609E-02  0.8444611E-01
        1   -1    0    0  501    0  0.00000000000E+00  0.00000000000E+00  0.19399640942E+04  0.19399640942E+04  0.50400001928E-02 0.  1.
       -1   -1    0    0    0  501  0.00000000000E+00  0.00000000000E+00 -0.73389640265E+03  0.73389640266E+03  0.50400001928E-02 0. -1.
    10030    2    1    2    0    0  0.00000000000E+00  0.00000000000E+00  0.12060676916E+04  0.26738604969E+04  0.23864053889E+04 0.  0.
        2    1    3    3  502    0  0.65007519794E+03 -0.98127178393E+03  0.82214113907E+03  0.14357604708E+04  0.25500000920E-02 0.  1.
       -2    1    3    3    0  502 -0.65007519794E+03  0.98127178393E+03  0.38392655250E+03  0.12381000261E+04  0.25500000920E-02 0. -1.
</event>
<event>
 5   0  0.2901816E-05  0.2420298E+04  0.7818609E-02  0.8431943E-01
       -1   -1    0    0    0  501  0.00000000000E+00  0.00000000000E+00  0.71587853102E+03  0.71587853104E+03  0.50400001928E-02 0.  1.
        1   -1    0    0  501    0  0.00000000000E+00  0.00000000000E+00 -0.20456830183E+04  0.20456830183E+04  0.50400001928E-02 0. -1.
    10030    2    1    2    0    0  0.00000000000E+00  0.00000000000E+00 -0.13298044873E+04  0.27615615494E+04  0.24202979603E+04 0.  0.
        4    1    3    3  502    0 -0.79312931752E+03  0.80791858573E+03 -0.17723639515E+03  0.11459497843E+04  0.12699999809E+01 0.  1.
       -4    1    3    3    0  502  0.79312931752E+03 -0.80791858573E+03 -0.11525680922E+04  0.16156117651E+04  0.12699999809E+01 0. -1.
</event>
<event>
 5   0  0.6978115E-05  0.2403961E+04  0.7818609E-02  0.8438022E-01
        2   -1    0    0  501    0  0.00000000000E+00  0.00000000000E+00  0.12189903989E+04  0.12189903989E+04  0.25500000920E-02 0.  1.
       -2   -1    0    0    0  501  0.00000000000E+00  0.00000000000E+00 -0.11852077900E+04  0.11852077900E+04  0.25500000920E-02 0. -1.
    10030    2    1    2    0    0  0.00000000000E+00  0.00000000000E+00  0.33782608931E+02  0.24041981889E+04  0.24039608289E+04 0.  0.
        4    1    3    3  502    0 -0.22502929200E+03  0.77844075594E+03  0.90475545925E+03  0.12145749243E+04  0.12699999809E+01 0.  1.
       -4    1    3    3    0  502  0.22502929200E+03 -0.77844075594E+03 -0.87097285031E+03  0.11896232646E+04  0.12699999809E+01 0. -1.
</event>
<event>
 5   0  0.6714629E-05  0.2127430E+04  0.7818609E-02  0.8549256E-01
        2   -1    0    0  501    0  0.00000000000E+00  0.00000000000E+00  0.23319453878E+04  0.23319453878E+04  0.25500000920E-02 0.  1.
       -2   -1    0    0    0  501  0.00000000000E+00  0.00000000000E+00 -0.48521264917E+03  0.48521264917E+03  0.25500000920E-02 0. -1.
    10030    2    1    2    0    0  0.00000000000E+00  0.00000000000E+00  0.18467327386E+04  0.28171580369E+04  0.21274298102E+04 0.  0.
        3    1    3    3  502    0  0.51218711798E+02 -0.30662469514E+03  0.22704486137E+04  0.22916323828E+04  0.10100000352E+00 0.  1.
       -3    1    3    3    0  502 -0.51218711798E+02  0.30662469514E+03 -0.42371587514E+03  0.52552565414E+03  0.10100000352E+00 0. -1.
</event>
<event>
 5   0  0.2943123E-05  0.2275621E+04  0.7818609E-02  0.8487596E-01
        1   -1    0    0  501    0  0.00000000000E+00  0.00000000000E+00  0.11037389500E+04  0.11037389500E+04  0.50400001928E-02 0. -1.
       -1   -1    0    0    0  501  0.00000000000E+00  0.00000000000E+00 -0.11729339526E+04  0.11729339526E+04  0.50400001928E-02 0.  1.
    10030    2    1    2    0    0  0.00000000000E+00  0.00000000000E+00 -0.69195002581E+02  0.22766729026E+04  0.22756211365E+04 0.  0.
        1    1    3    3  502    0  0.68295508911E+03  0.65530285308E+03 -0.66636652490E+03  0.11575378303E+04  0.50400001928E-02 0.  1.
       -1    1    3    3    0  502 -0.68295508911E+03 -0.65530285308E+03  0.59717152232E+03  0.11191350723E+04  0.50400001928E-02 0. -1.
</event>
<event>
 5   0  0.2943123E-05  0.2422660E+04  0.7818609E-02  0.8431068E-01
       -1   -1    0    0    0  501  0.00000000000E+00  0.00000000000E+00  0.82923226023E+03  0.82923226025E+03  0.50400001928E-02 0.  1.
        1   -1    0    0  501    0  0.00000000000E+00  0.00000000000E+00 -0.17694925311E+04  0.17694925311E+04  0.50400001928E-02 0. -1.
    10030    2    1    2    0    0  0.00000000000E+00  0.00000000000E+00 -0.94026027083E+03  0.25987247913E+04  0.24226599357E+04 0.  0.
        1    1    3    3  502    0  0.18601165471E+03  0.79007229554E+02 -0.17512812029E+04  0.17629033807E+04  0.50400001928E-02 0. -1.
       -1    1    3    3    0  502 -0.18601165471E+03 -0.79007229554E+02  0.81102093212E+03  0.83582141057E+03  0.50400001928E-02 0.  1.
</event>
<event>
 5   0  0.2915546E-05  0.2165607E+04  0.7818609E-02  0.8532881E-01
        1   -1    0    0  501    0  0.00000000000E+00  0.00000000000E+00  0.20293078290E+04  0.20293078291E+04  0.50400001928E-02 0.  1.
       -1   -1    0    0    0  501  0.00000000000E+00  0.00000000000E+00 -0.57776502207E+03  0.57776502209E+03  0.50400001928E-02 0. -1.
    10030    2    1    2    0    0  0.00000000000E+00  0.00000000000E+00  0.14515428070E+04  0.26070728511E+04  0.21656066888E+04 0.  0.
        2    1    3    3  502    0 -0.65413249955E+03  0.74260344107E+03  0.12548014436E+04  0.15980850605E+04  0.25500000920E-02 0.  1.
       -2    1    3    3    0  502  0.65413249955E+03 -0.74260344107E+03  0.19674136340E+03  0.10089877907E+04  0.25500000920E-02 0. -1.
</event>
<event>
 5   0  0.2915546E-05  0.2414997E+04  0.7818609E-02  0.8433910E-01
       -1   -1    0    0    0  501  0.00000000000E+00  0.00000000000E+00  0.14728601282E+04  0.14728601282E+04  0.50400001928E-02 0. -1.
        1   -1    0    0  501    0  0.00000000000E+00  0.00000000000E+00 -0.98994603484E+03  0.98994603485E+03  0.50400001928E-02 0.  1.
    10030    2    1    2    0    0  0.00000000000E+00  0.00000000000E+00  0.48291409334E+03  0.24628061630E+04  0.24149965166E+04 0.  0.
        2    1    3    3  502    0  0.11467018115E+04  0.75157958524E+02  0.61957802166E+03  0.13055461264E+04  0.25500000920E-02 0. -1.
       -2    1    3    3    0  502 -0.11467018115E+04 -0.75157958524E+02 -0.13666392832E+03  0.11572600367E+04  0.25500000920E-02 0.  1.
</event>
<event>
 5   0  0.6600166E-05  0.2423056E+04  0.7818609E-02  0.8430922E-01
        2   -1    0    0  501    0  0.00000000000E+00  0.00000000000E+00  0.22970198642E+04  0.22970198642E+04  0.25500000920E-02 0. -1.
       -2   -1    0    0    0  501  0.00000000000E+00  0.00000000000E+00 -0.63900217187E+03  0.63900217187E+03  0.25500000920E-02 0.  1.
    10030    2    1    2    0    0  0.00000000000E+00  0.00000000000E+00  0.16580176924E+04  0.29360220361E+04  0.24230564848E+04 0.  0.
        5    1    3    3  502    0 -0.29535238267E+03 -0.44697585399E+03 -0.48765905521E+03  0.72446800352E+03  0.46999998093E+01 0.  1.
       -5    1    3    3    0  502  0.29535238267E+03  0.44697585399E+03  0.21456767476E+04  0.22115540326E+04  0.46999998093E+01 0. -1.
</event>
<event>
 5   0  0.2847158E-05  0.2427748E+04  0.7818609E-02  0.8429187E-01
        1   -1    0    0  501    0  0.00000000000E+00  0.00000000000E+00  0.47672697344E+03  0.47672697347E+03  0.50400001928E-02 0. -1.
       -1   -1    0    0    0  501  0.00000000000E+00  0.00000000000E+00 -0.30908481509E+04  0.30908481509E+04  0.50400001928E-02 0.  1.
    10030    2    1    2    0    0  0.00000000000E+00  0.00000000000E+00 -0.26141211775E+04  0.35675751244E+04  0.24277484914E+04 0.  0.
        5    1    3    3  502    0  0.91523911664E+03 -0.17150821079E+01 -0.13532202163E+03  0.92520253008E+03  0.46999998093E+01 0. -1.
       -5    1    3    3    0  502 -0.91523911664E+03  0.17150821079E+01 -0.24787991559E+04  0.26423725943E+04  0.46999998093E+01 0.  1.
</event>
<event>
 5   0  0.2943244E-05  0.2368485E+04  0.7818609E-02  0.8451397E-01
       -1   -1    0    0    0  501  0.00000000000E+00  0.00000000000E+00  0.10405167805E+04  0.10405167806E+04  0.50400001928E-02 0. -1.
        1   -1    0    0  501    0  0.00000000000E+00  0.00000000000E+00 -0.13478208541E+04  0.13478208541E+04  0.50400001928E-02 0.  1.
    10030    2    1    2    0    0  0.00000000000E+00  0.00000000000E+00 -0.30730407359E+03  0.23883376347E+04  0.23684849300E+04 0.  0.
        3    1    3    3  502    0 -0.11598073223E+04  0.77560283618E+02  0.74655949941E+02  0.11647927470E+04  0.10100000352E+00 0. -1.
       -3    1    3    3    0  502  0.11598073223E+04 -0.77560283618E+02 -0.38196002353E+03  0.12235448877E+04  0.10100000352E+00 0.  1.
</event>
<event>
 5   0  0.2847158E-05  0.2358650E+04  0.7818609E-02  0.8455149E-01
       -1   -1    0    0    0  501  0.00000000000E+00  0.00000000000E+00  0.49891562783E+03  0.49891562785E+03  0.50400001928E-02 0. -1.
        1   -1    0    0  501    0  0.00000000000E+00  0.00000000000E+00 -0.27876609889E+04  0.27876609889E+04  0.50400001928E-02 0.  1.
    10030    2    1    2    0    0  0.00000000000E+00  0.00000000000E+00 -0.22887453611E+04  0.32865766168E+04  0.23586501500E+04 0.  0.
        5    1    3    3  502    0  0.11009345686E+03  0.23690539231E+03 -0.27468237358E+04  0.27592222563E+04  0.46999998093E+01 0.  1.
       -5    1    3    3    0  502 -0.11009345686E+03 -0.23690539231E+03  0.45807837470E+03  0.52735436048E+03  0.46999998093E+01 0. -1.
</event>
<event>
 5   0  0.2901816E-05  0.2404816E+04  0.7818609E-02  0.8437703E-01
       -1   -1    0    0    0  501  0.00000000000E+00  0.00000000000E+00  0.10153519522E+04  0.10153519522E+04  0.50400001928E-02 0. -1.
        1   -1    0    0  501    0  0.00000000000E+00  0.00000000000E+00 -0.14239245603E+04  0.14239245603E+04  0.50400001928E-02 0.  1.
    10030    2    1    2    0    0  0.00000000000E+00  0.00000000000E+00 -0.40857260811E+03  0.24392765125E+04  0.24048156537E+04 0.  0.
        4    1    3    3  502    0  0.21893981941E+03  0.22953971681E+03  0.97214396654E+03  0.10225891798E+04  0.12699999809E+01 0. -1.
       -4    1    3    3    0  502 -0.21893981941E+03 -0.22953971681E+03 -0.13807165746E+04  0.14166873327E+04  0.12699999809E+01 0.  1.
</event>
<event>
 5   0  0.6703961E-05  0.2427365E+04  0.7818609E-02  0.8429329E-01
       -2   -1    0    0    0  501  0.00000000000E+00  0.00000000000E+00  0.99936043068E+03  0.99936043069E+03  0.25500000920E-02 0. -1.
        2   -1    0    0  501    0  0.00000000000E+00  0.00000000000E+00 -0.14739675944E+04  0.14739675944E+04  0.25500000920E-02 0.  1.
    10030    2    1    2    0    0  0.00000000000E+00  0.00000000000E+00 -0.47460716367E+03  0.24733280250E+04  0.24273647356E+04 0.  0.
        2    1    3    3  502    0  0.98398395972E+03  0.31896275223E+03 -0.88419779332E+03  0.13607966079E+04  0.25500000920E-02 0.  1.
       -2    1    3    3    0  502 -0.98398395972E+03 -0.31896275223E+03  0.40959062964E+03  0.11125314172E+04  0.25500000920E-02 0. -1.
</event>
<event>
 5   0  0.6337926E-05  0.2433068E+04  0.7818609E-02  0.8427226E-01
        2   -1    0    0  501    0  0.00000000000E+00  0.00000000000E+00  0.12058086044E+04  0.12058086044E+04  0.25500000920E-02 0. -1.
       -2   -1    0    0    0  501  0.00000000000E+00  0.00000000000E+00 -0.12273547519E+04  0.12273547519E+04  0.25500000920E-02 0.  1.
    10030    2    1    2    0    0  0.00000000000E+00  0.00000000000E+00 -0.21546147479E+02  0.24331633564E+04  0.24330679568E+04 0.  0.
        1    1    3    3  502    0  0.28109713750E+03 -0.11582099776E+04 -0.25468624025E+03  0.12187415780E+04  0.50400001928E-02 0.  1.
       -1    1    3    3    0  502 -0.28109713750E+03  0.11582099776E+04  0.23314009277E+03  0.12144217784E+04  0.50400001928E-02 0. -1.
</event>
<event>
 5   0  0.2847158E-05  0.2416913E+04  0.7818609E-02  0.8433199E-01
       -1   -1    0    0    0  501  0.00000000000E+00  0.00000000000E+00  0.14403370125E+04  0.14403370125E+04  0.50400001928E-02 0.  1.
        1   -1    0    0  501    0  0.00000000000E+00  0.00000000000E+00 -0.10139067220E+04  0.10139067220E+04  0.50400001928E-02 0. -1.
    10030    2    1    2    0    0  0.00000000000E+00  0.00000000000E+00  0.42643029054E+03  0.24542437345E+04  0.24169132206E+04 0.  0.
        5    1    3    3  502    0  0.11401984971E+04 -0.32402357772E+03 -0.25579556180E+02  0.11856307584E+04  0.46999998093E+01 0. -1.
       -5    1    3    3    0  502 -0.11401984971E+04  0.32402357772E+03  0.45200984672E+03  0.12686129761E+04  0.46999998093E+01 0.  1.
</event>
<event>
 5   0  0.2915546E-05  0.1549273E+04  0.7818609E-02  0.8852332E-01
       -1   -1    0    0    0  501  0.00000000000E+00  0.00000000000E+00  0.12092634801E+04  0.12092634801E+04  0.50400001928E-02 0. -1.
        1   -1    0    0  501    0  0.00000000000E+00  0.00000000000E+00 -0.49622057721E+03  0.49622057723E+03  0.50400001928E-02 0.  1.
    10030    2    1    2    0    0  0.00000000000E+00  0.00000000000E+00  0.71304290289E+03  0.17054840573E+04  0.15492726321E+04 0.  0.
        2    1    3    3  502    0 -0.61484280399E+03  0.36515226760E+03  0.68436442701E+03  0.98980933574E+03  0.25500000920E-02 0. -1.
       -2    1    3    3    0  502  0.61484280399E+03 -0.36515226760E+03  0.28678475880E+02  0.71567472160E+03  0.25500000920E-02 0.  1.
</event>
<event>
 5   0  0.2943244E-05  0.2398390E+04  0.7818609E-02  0.8440107E-01
       -1   -1    0    0    0  501  0.00000000000E+00  0.00000000000E+00  0.97504268954E+03  0.97504268956E+03  0.50400001928E-02 0.  1.
        1   -1    0    0  501    0  0.00000000000E+00  0.00000000000E+00 -0.14748773169E+04  0.14748773169E+04  0.50400001928E-02 0. -1.
    10030    2    1    2    0    0  0.00000000000E+00  0.00000000000E+00 -0.49983462733E+03  0.24499200064E+04  0.23983897480E+04 0.  0.
        3    1    3    3  502    0 -0.43953822095E+03  0.12756578172E+03 -0.13821551364E+04  0.14559600639E+04  0.10100000352E+00 0. -1.
       -3    1    3    3    0  502  0.43953822095E+03 -0.12756578172E+03  0.88232050911E+03  0.99395994252E+03  0.10100000352E+00 0.  1.
</event>
<event>
 5   0  0.6703961E-05  0.2156421E+04  0.7818609E-02  0.8536789E-01
       -2   -1    0    0    0  501  0.00000000000E+00  0.00000000000E+00  0.16206739023E+04  0.16206739023E+04  0.25500000920E-02 0. -1.
        2   -1    0    0  501    0  0.00000000000E+00  0.00000000000E+00 -0.71731727056E+03  0.71731727056E+03  0.25500000920E-02 0.  1.
    10030    2    1    2    0    0  0.00000000000E+00  0.00000000000E+00  0.90335663173E+03  0.23379911729E+04  0.21564205342E+04 0.  0.
        2    1    3    3  502    0  0.61106425101E+03 -0.61767422445E+03 -0.24052749421E+03  0.90154003898E+03  0.25500000920E-02 0.  1.
       -2    1    3    3    0  502 -0.61106425101E+03  0.61767422445E+03  0.11438841259E+04  0.14364511339E+04  0.25500000920E-02 0. -1.
</event>
<event>
 5   0  0.6337926E-05  0.2504328E+04  0.7818609E-02  0.8401445E-01
       -2   -1    0    0    0  501  0.00000000000E+00  0.00000000000E+00  0.13916337083E+04  0.13916337083E+04  0.25500000920E-02 0. -1.
        2   -1    0    0  501    0  0.00000000000E+00  0.00000000000E+00 -0.11266718959E+04  0.11266718959E+04  0.25500000920E-02 0.  1.
    10030    2    1    2    0    0  0.00000000000E+00  0.00000000000E+00  0.26496181233E+03  0.25183056042E+04  0.25043279246E+04 0.  0.
        1    1    3    3  502    0  0.83924841652E+03 -0.73291468610E+03  0.70699513716E+03  0.13195999264E+04  0.50400001928E-02 0. -1.
       -1    1    3    3    0  502 -0.83924841652E+03  0.73291468610E+03 -0.44203332483E+03  0.11987056778E+04  0.50400001928E-02 0.  1.
</event>
<event>
 5   0  0.2943123E-05  0.2377122E+04  0.7818609E-02  0.8448119E-01
       -1   -1    0    0    0  501  0.00000000000E+00  0.00000000000E+00  0.66985442623E+03  0.66985442625E+03  0.50400001928E-02 0.  1.
        1   -1    0    0  501    0  0.00000000000E+00  0.00000000000E+00 -0.21089325049E+04  0.21089325049E+04  0.50400001928E-02 0. -1.
    10030    2    1    2    0    0  0.00000000000E+00  0.00000000000E+00 -0.14390780787E+04  0.27787869312E+04  0.23771224395E+04 0.  0.
        1    1    3    3  502    0  0.38550426941E+03  0.62379071704E+03 -0.18129795452E+04  0.19556643965E+04  0.50400001928E-02 0. -1.
       -1    1    3    3    0  502 -0.38550426941E+03 -0.62379071704E+03  0.37390146651E+03  0.82312253467E+03  0.50400001928E-02 0.  1.
</event>
<event>
 5   0  0.6703961E-05  0.2411397E+04  0.7818609E-02  0.8435249E-01
        2   -1    0    0  501    0  0.00000000000E+00  0.00000000000E+00  0.16903824178E+04  0.16903824178E+04  0.25500000920E-02 0. -1.
       -2   -1    0    0    0  501  0.00000000000E+00  0.00000000000E+00 -0.85998842510E+03  0.85998842511E+03  0.25500000920E-02 0.  1.
    10030    2    1    2    0    0  0.00000000000E+00  0.00000000000E+00  0.83039399273E+03  0.25503708429E+04  0.24113973653E+04 0.  0.
        2    1    3    3  502    0  0.17739551400E+03  0.38035602569E+03 -0.78024032349E+03  0.88595419581E+03  0.25500000920E-02 0.  1.
       -2    1    3    3    0  502 -0.17739551400E+03 -0.38035602569E+03  0.16106343162E+04  0.16644166471E+04  0.25500000920E-02 0. -1.
</event>
<event>
 5   0  0.2901816E-05  0.2405768E+04  0.7818609E-02  0.8437347E-01
        1   -1    0    0  501    0  0.00000000000E+00  0.00000000000E+00  0.72421880473E+03  0.72421880475E+03  0.50400001928E-02 0.  1.
       -1   -1    0    0    0  501  0.00000000000E+00  0.00000000000E+00 -0.19979173610E+04  0.19979173610E+04  0.50400001928E-02 0. -1.
    10030    2    1    2    0    0  0.00000000000E+00  0.00000000000E+00 -0.12736985563E+04  0.27221361658E+04  0.24057675060E+04 0.  0.
        4    1    3    3  502    0  0.62230380410E+03 -0.10099401770E+04 -0.86226163761E+03  0.14665394404E+04  0.12699999809E+01 0.  1.
       -4    1    3    3    0  502 -0.62230380410E+03  0.10099401770E+04 -0.41143691869E+03  0.12555967254E+04  0.12699999809E+01 0. -1.
</event>
<event>
 5   0  0.2339125E-05  0.2416232E+04  0.7818609E-02  0.8433451E-01
        3   -1    0    0  501    0  0.00000000000E+00  0.00000000000E+00  0.11668143705E+04  0.11668143749E+04  0.10100000352E+00 0. -1.
       -3   -1    0    0    0  501  0.00000000000E+00  0.00000000000E+00 -0.12508796972E+04  0.12508797013E+04  0.10100000352E+00 0.  1.
    10030    2    1    2    0    0  0.00000000000E+00  0.00000000000E+00 -0.84065326712E+02  0.24176940761E+04  0.24162321218E+04 0.  0.
        5    1    3    3  502    0 -0.27350919274E+03  0.98242871212E+03  0.60608517157E+03  0.11863114170E+04  0.46999998093E+01 0. -1.
       -5    1    3    3    0  502  0.27350919274E+03 -0.98242871212E+03 -0.69015049828E+03  0.12313826591E+04  0.46999998093E+01 0.  1.
</event>
<event>
 5   0  0.2943244E-05  0.2406658E+04  0.7818609E-02  0.8437015E-01
       -1   -1    0    0    0  501  0.00000000000E+00  0.00000000000E+00  0.17408523775E+04  0.17408523775E+04  0.50400001928E-02 0. -1.
        1   -1    0    0  501    0  0.00000000000E+00  0.00000000000E+00 -0.83177700604E+03  0.83177700605E+03  0.50400001928E-02 0.  1.
    10030    2    1    2    0    0  0.00000000000E+00  0.00000000000E+00  0.90907537147E+03  0.25726293836E+04  0.24066582462E+04 0.  0.
        3    1    3    3  502    0  0.80539371450E+03 -0.63530660064E+03  0.11269890732E+04  0.15239350030E+04  0.10100000352E+00 0. -1.
       -3    1    3    3    0  502 -0.80539371450E+03  0.63530660064E+03 -0.21791370171E+03  0.10486943805E+04  0.10100000352E+00 0.  1.
</event>
<event>
 5   0  0.6600166E-05  0.2809058E+04  0.7818609E-02  0.8300462E-01
       -2   -1    0    0    0  501  0.00000000000E+00  0.00000000000E+00  0.94903988724E+03  0.94903988725E+03  0.25500000920E-02 0.  1.
        2   -1    0    0  501    0  0.00000000000E+00  0.00000000000E+00 -0.20786281975E+04  0.20786281975E+04  0.25500000920E-02 0. -1.
    10030    2    1    2    0    0  0.00000000000E+00  0.00000000000E+00 -0.11295883103E+04  0.30276680848E+04  0.28090575432E+04 0.  0.
        5    1    3    3  502    0  0.21708448479E+03  0.73499147459E+03  0.70380946298E+03  0.10405325518E+04  0.46999998093E+01 0.  1.
       -5    1    3    3    0  502 -0.21708448479E+03 -0.73499147459E+03 -0.18333977732E+04  0.19871355329E+04  0.46999998093E+01 0. -1.
</event>
<event>
 5   0  0.6703961E-05  0.2490493E+04  0.7818609E-02  0.8406380E-01
       -2   -1    0    0    0  501  0.00000000000E+00  0.00000000000E+00  0.14359472542E+04  0.14359472542E+04  0.25500000920E-02 0. -1.
        2   -1    0    0  501    0  0.00000000000E+00  0.00000000000E+00 -0.10798713938E+04  0.10798713938E+04  0.25500000920E-02 0.  1.
    10030    2    1    2    0    0  0.00000000000E+00  0.00000000000E+00  0.35607586031E+03  0.25158186480E+04  0.24904926122E+04 0.  0.
        2    1    3    3  502    0  0.69326875110E+03  0.40945228640E+03  0.11376271181E+04  0.13937245768E+04  0.25500000920E-02 0. -1.
       -2    1    3    3    0  502 -0.69326875110E+03 -0.40945228640E+03 -0.78155125780E+03  0.11220940712E+04  0.25500000920E-02 0.  1.
</event>
<event>
 5   0  0.2339125E-05  0.2417069E+04  0.7818609E-02  0.8433141E-01
       -3   -1    0    0    0  501  0.00000000000E+00  0.00000000000E+00  0.89768121490E+03  0.89768122058E+03  0.10100000352E+00 0. -1.
        3   -1    0    0  501    0  0.00000000000E+00  0.00000000000E+00 -0.16270319180E+04  0.16270319211E+04  0.10100000352E+00 0.  1.
    10030    2    1    2    0    0  0.00000000000E+00  0.00000000000E+00 -0.72935070311E+03  0.25247131417E+04  0.24170692998E+04 0.  0.
        2    1    3    3  502    0  0.33022170376E+03  0.62034965446E+03  0.66230797195E+03  0.96567692172E+03  0.25500000920E-02 0. -1.
       -2    1    3    3    0  502 -0.33022170376E+03 -0.62034965446E+03 -0.13916586751E+04  0.15590362200E+04  0.25500000920E-02 0.  1.
</event>
<event>
 5   0  0.2847158E-05  0.2395386E+04  0.7818609E-02  0.8441233E-01
       -1   -1    0    0    0  501  0.00000000000E+00  0.00000000000E+00  0.54245629699E+03  0.54245629702E+03  0.50400001928E-02 0. -1.
        1   -1    0    0  501    0  0.00000000000E+00  0.00000000000E+00 -0.26443956789E+04  0.26443956789E+04  0.50400001928E-02 0.  1.
    10030    2    1    2    0    0  0.00000000000E+00  0.00000000000E+00 -0.21019393819E+04  0.31868519759E+04  0.23953864722E+04 0.  0.
        5    1    3    3  502    0  0.71306956836E+03  0.37052799166E+03  0.13054427468E+03  0.81413948410E+03  0.46999998093E+01 0. -1.
       -5    1    3    3    0  502 -0.71306956836E+03 -0.37052799166E+03 -0.22324836566E+04  0.23727124918E+04  0.46999998093E+01 0.  1.
</event>
<event>
 5   0  0.2915546E-05  0.1771581E+04  0.7818609E-02  0.8721560E-01
       -1   -1    0    0    0  501  0.00000000000E+00  0.00000000000E+00  0.53554467471E+03  0.53554467474E+03  0.50400001928E-02 0. -1.
        1   -1    0    0  501    0  0.00000000000E+00  0.00000000000E+00 -0.14650962136E+04  0.14650962136E+04  0.50400001928E-02 0.  1.
    10030    2    1    2    0    0  0.00000000000E+00  0.00000000000E+00 -0.92955153889E+03  0.20006408883E+04  0.17715806221E+04 0.  0.
        2    1    3    3  502    0  0.53749035324E+02  0.75005668778E+03  0.63887860771E+02  0.75468910979E+03  0.25500000920E-02 0. -1.
       -2    1    3    3    0  502 -0.53749035324E+02 -0.75005668778E+03 -0.99343939966E+03  0.12459517786E+04  0.25500000920E-02 0.  1.
</event>
<event>
 5   0  0.2943123E-05  0.2129821E+04  0.7818609E-02  0.8548220E-01
       -1   -1    0    0    0  501  0.00000000000E+00  0.00000000000E+00  0.11394212764E+04  0.11394212764E+04  0.50400001928E-02 0. -1.
        1   -1    0    0  501    0  0.00000000000E+00  0.00000000000E+00 -0.99527203202E+03  0.99527203204E+03  0.50400001928E-02 0.  1.
    10030    2    1    2    0    0  0.00000000000E+00  0.00000000000E+00  0.14414924437E+03  0.21346933084E+04  0.21298207710E+04 0.  0.
        1    1    3    3  502    0  0.52803125213E+03 -0.81044949971E+03  0.51850211655E+03  0.10974925238E+04  0.50400001928E-02 0. -1.
       -1    1    3    3    0  502 -0.52803125213E+03  0.81044949971E+03 -0.37435287218E+03  0.10372007847E+04  0.50400001928E-02 0.  1.
</event>
<event>
 5   0  0.6703961E-05  0.2382259E+04  0.7818609E-02  0.8446175E-01
        2   -1    0    0  501    0  0.00000000000E+00  0.00000000000E+00  0.94152476634E+03  0.94152476634E+03  0.25500000920E-02 0. -1.
       -2   -1    0    0    0  501  0.00000000000E+00  0.00000000000E+00 -0.15069062746E+04  0.15069062746E+04  0.25500000920E-02 0.  1.
    10030    2    1    2    0    0  0.00000000000E+00  0.00000000000E+00 -0.56538150823E+03  0.24484310409E+04  0.23822590775E+04 0.  0.
        2    1    3    3  502    0  0.29641247631E+03 -0.10392898103E+04 -0.79740687570E+03  0.13430716256E+04  0.25500000920E-02 0.  1.
       -2    1    3    3    0  502 -0.29641247631E+03  0.10392898103E+04  0.23202536748E+03  0.11053594154E+04  0.25500000920E-02 0. -1.
</event>
<event>
 5   0  0.2943123E-05  0.2491596E+04  0.7818609E-02  0.8405986E-01
       -1   -1    0    0    0  501  0.00000000000E+00  0.00000000000E+00  0.61815113403E+03  0.61815113405E+03  0.50400001928E-02 0.  1.
        1   -1    0    0  501    0  0.00000000000E+00  0.00000000000E+00 -0.25107329494E+04  0.25107329495E+04  0.50400001928E-02 0. -1.
    10030    2    1    2    0    0  0.00000000000E+00  0.00000000000E+00 -0.18925818154E+04  0.31288840835E+04  0.24915958099E+04 0.  0.
        1    1    3    3  502    0  0.18689667447E+03 -0.16076938799E+03  0.58721327086E+03  0.63686465481E+03  0.50400001928E-02 0.  1.
       -1    1    3    3    0  502 -0.18689667447E+03  0.16076938799E+03 -0.24797950863E+04  0.24920194287E+04  0.50400001928E-02 0. -1.
</event>
<event>
 5   0  0.6600166E-05  0.2454216E+04  0.7818609E-02  0.8419480E-01
        2   -1    0    0  501    0  0.00000000000E+00  0.00000000000E+00  0.93922410487E+03  0.93922410487E+03  0.25500000920E-02 0. -1.
       -2   -1    0    0    0  501  0.00000000000E+00  0.00000000000E+00 -0.16032321208E+04  0.16032321208E+04  0.25500000920E-02 0.  1.
    10030    2    1    2    0    0  0.00000000000E+00  0.00000000000E+00 -0.66400801597E+03  0.25424562257E+04  0.24542161711E+04 0.  0.
        5    1    3    3  502    0  0.84204626745E+03 -0.58649412701E+03 -0.10290673495E+04  0.14532786991E+04  0.46999998093E+01 0.  1.
       -5    1    3    3    0  502 -0.84204626745E+03  0.58649412701E+03  0.36505933348E+03  0.10891775266E+04  0.46999998093E+01 0. -1.
</event>
<event>
 5   0  0.2943244E-05  0.2356440E+04  0.7818609E-02  0.8455994E-01
        1   -1    0    0  501    0  0.00000000000E+00  0.00000000000E+00  0.19397128076E+04  0.19397128076E+04  0.50400001928E-02 0.  1.
       -1   -1    0    0    0  501  0.00000000000E+00  0.00000000000E+00 -0.71567387704E+03  0.71567387706E+03  0.50400001928E-02 0. -1.
    10030    2    1    2    0    0  0.00000000000E+00  0.00000000000E+00  0.12240389305E+04  0.26553866846E+04  0.23564395052E+04 0.  0.
        3    1    3    3  502    0  0.17206417180E+03  0.45741702183E+03  0.18201129189E+04  0.18845815076E+04  0.10100000352E+00 0.  1.
       -3    1    3    3    0  502 -0.17206417180E+03 -0.45741702183E+03 -0.59607398839E+03  0.77080517701E+03  0.10100000352E+00 0. -1.
</event>
<event>
 5   0  0.2847158E-05  0.2368771E+04  0.7818609E-02  0.8451289E-01
       -1   -1    0    0    0  501  0.00000000000E+00  0.00000000000E+00  0.71607589034E+03  0.71607589036E+03  0.50400001928E-02 0. -1.
        1   -1    0    0  501    0  0.00000000000E+00  0.00000000000E+00 -0.19589671582E+04  0.19589671582E+04  0.50400001928E-02 0.  1.
    10030    2    1    2    0    0  0.00000000000E+00  0.00000000000E+00 -0.12428912679E+04  0.26750430486E+04  0.23687711177E+04 0.  0.
        5    1    3    3  502    0 -0.82463613813E+03 -0.83544076290E+03 -0.44374373892E+03  0.12549568217E+04  0.46999998093E+01 0. -1.
       -5    1    3    3    0  502  0.82463613813E+03  0.83544076290E+03 -0.79914752894E+03  0.14200862268E+04  0.46999998093E+01 0.  1.
</event>
<event>
 5   0  0.2847158E-05  0.2291156E+04  0.7818609E-02  0.8481416E-01
        1   -1    0    0  501    0  0.00000000000E+00  0.00000000000E+00  0.93484800728E+03  0.93484800730E+03  0.50400001928E-02 0. -1.
       -1   -1    0    0    0  501  0.00000000000E+00  0.00000000000E+00 -0.14038104792E+04  0.14038104793E+04  0.50400001928E-02 0.  1.
    10030    2    1    2    0    0  0.00000000000E+00  0.00000000000E+00 -0.46896247196E+03  0.23386584866E+04  0.22911564147E+04 0.  0.
        5    1    3    3  502    0  0.19249766028E+03  0.83594666397E+03  0.54051323091E+03  0.10139224906E+04  0.46999998093E+01 0. -1.
       -5    1    3    3    0  502 -0.19249766028E+03 -0.83594666397E+03 -0.10094757029E+04  0.13247359959E+04  0.46999998093E+01 0.  1.
</event>
<event>
 5   0  0.6703961E-05  0.2370875E+04  0.7818609E-02  0.8450489E-01
        2   -1    0    0  501    0  0.00000000000E+00  0.00000000000E+00  0.19555106828E+04  0.19555106828E+04  0.25500000920E-02 0. -1.
       -2   -1    0    0    0  501  0.00000000000E+00  0.00000000000E+00 -0.71861653504E+03  0.71861653505E+03  0.25500000920E-02 0.  1.
    10030    2    1    2    0    0  0.00000000000E+00  0.00000000000E+00  0.12368941477E+04  0.26741272178E+04  0.23708752064E+04 0.  0.
        2    1    3    3  502    0 -0.49689747948E+03 -0.41002713656E+03 -0.50393845019E+03  0.81791400490E+03  0.25500000920E-02 0.  1.
       -2    1    3    3    0  502  0.49689747948E+03  0.41002713656E+03  0.17408325979E+04  0.18562132129E+04  0.25500000920E-02 0. -1.
</event>
<event>
 5   0  0.2847158E-05  0.2431986E+04  0.7818609E-02  0.8427625E-01
        1   -1    0    0  501    0  0.00000000000E+00  0.00000000000E+00  0.15133440821E+04  0.15133440821E+04  0.50400001928E-02 0. -1.
       -1   -1    0    0    0  501  0.00000000000E+00  0.00000000000E+00 -0.97706696093E+03  0.97706696094E+03  0.50400001928E-02 0.  1.
    10030    2    1    2    0    0  0.00000000000E+00  0.00000000000E+00  0.53627712113E+03  0.24904110430E+04  0.24319856111E+04 0.  0.
        5    1    3    3  502    0  0.48828117500E+03 -0.10605944520E+04  0.61591083222E+03  0.13200936863E+04  0.46999998093E+01 0. -1.
       -5    1    3    3    0  502 -0.48828117500E+03  0.10605944520E+04 -0.79633711080E+02  0.11703173567E+04  0.46999998093E+01 0.  1.
</event>
<event>
 5   0  0.2943123E-05  0.2369514E+04  0.7818609E-02  0.8451006E-01
       -1   -1    0    0    0  501  0.00000000000E+00  0.00000000000E+00  0.14278288883E+04  0.14278288883E+04  0.50400001928E-02 0. -1.
        1   -1    0    0  501    0  0.00000000000E+00  0.00000000000E+00 -0.98306575781E+03  0.98306575782E+03  0.50400001928E-02 0.  1.
    10030    2    1    2    0    0  0.00000000000E+00  0.00000000000E+00  0.44476313047E+03  0.24108946461E+04  0.23695144550E+04 0.  0.
        1    1    3    3  502    0 -0.21220369034E+03  0.49801220988E+03  0.12946371449E+04  0.14032576044E+04  0.50400001928E-02 0. -1.
       -1    1    3    3    0  502  0.21220369034E+03 -0.49801220988E+03 -0.84987401442E+03  0.10076370417E+04  0.50400001928E-02 0.  1.
</event>
<event>
 5   0  0.6703961E-05  0.2348904E+04  0.7818609E-02  0.8458885E-01
        2   -1    0    0  501    0  0.00000000000E+00  0.00000000000E+00  0.13383006697E+04  0.13383006697E+04  0.25500000920E-02 0. -1.
       -2   -1    0    0    0  501  0.00000000000E+00  0.00000000000E+00 -0.10306636973E+04  0.10306636973E+04  0.25500000920E-02 0.  1.
    10030    2    1    2    0    0  0.00000000000E+00  0.00000000000E+00  0.30763697239E+03  0.23689643670E+04  0.23489043542E+04 0.  0.
        2    1    3    3  502    0  0.11175501164E+04 -0.24834798330E+03 -0.11060938220E+03  0.11501432167E+04  0.25500000920E-02 0.  1.
       -2    1    3    3    0  502 -0.11175501164E+04  0.24834798330E+03  0.41824635459E+03  0.12188211503E+04  0.25500000920E-02 0. -1.
</event>
<event>
 5   0  0.2915546E-05  0.2376767E+04  0.7818609E-02  0.8448253E-01
       -1   -1    0    0    0  501  0.00000000000E+00  0.00000000000E+00  0.12804434709E+04  0.12804434709E+04  0.50400001928E-02 0.  1.
        1   -1    0    0  501    0  0.00000000000E+00  0.00000000000E+00 -0.11029421383E+04  0.11029421383E+04  0.50400001928E-02 0. -1.
    10030    2    1    2    0    0  0.00000000000E+00  0.00000000000E+00  0.17750133259E+03  0.23833856092E+04  0.23767667616E+04 0.  0.
        2    1    3    3  502    0  0.95055454072E+03  0.44126594994E+01  0.80395606571E+03  0.12449573334E+04  0.25500000920E-02 0.  1.
       -2    1    3    3    0  502 -0.95055454072E+03 -0.44126594994E+01 -0.62645473312E+03  0.11384282758E+04  0.25500000920E-02 0. -1.
</event>
<event>
 5   0  0.2915546E-05  0.2443128E+04  0.7818609E-02  0.8423531E-01
        1   -1    0    0  501    0  0.00000000000E+00  0.00000000000E+00  0.13293601737E+04  0.13293601737E+04  0.50400001928E-02 0.  1.
       -1   -1    0    0    0  501  0.00000000000E+00  0.00000000000E+00 -0.11225085048E+04  0.11225085048E+04  0.50400001928E-02 0. -1.
    10030    2    1    2    0    0  0.00000000000E+00  0.00000000000E+00  0.20685166888E+03  0.24518686785E+04  0.24431275865E+04 0.  0.
        2    1    3    3  502    0 -0.26697353034E+03 -0.46985874935E+03  0.12028708773E+04  0.13186889162E+04  0.25500000920E-02 0.  1.
       -2    1    3    3    0  502  0.26697353034E+03  0.46985874935E+03 -0.99601920842E+03  0.11331797623E+04  0.25500000920E-02 0. -1.
</event>
<event>
 5   0  0.2901816E-05  0.2434211E+04  0.7818609E-02  0.8426805E-01
        1   -1    0    0  501    0  0.00000000000E+00  0.00000000000E+00  0.20665398872E+04  0.20665398872E+04  0.50400001928E-02 0. -1.
       -1   -1    0    0    0  501  0.00000000000E+00  0.00000000000E+00 -0.71682421282E+03  0.71682421284E+03  0.50400001928E-02 0.  1.
    10030    2    1    2    0    0  0.00000000000E+00  0.00000000000E+00  0.13497156744E+04  0.27833641000E+04  0.24342110245E+04 0.  0.
        4    1    3    3  502    0  0.36957274544E+03  0.11188339625E+04  0.10235040878E+04  0.15607484360E+04  0.12699999809E+01 0.  1.
       -4    1    3    3    0  502 -0.36957274544E+03 -0.11188339625E+04  0.32621158662E+03  0.12226156641E+04  0.12699999809E+01 0. -1.
</event>
<event>
 5   0  0.2901816E-05  0.2152681E+04  0.7818609E-02  0.8538386E-01
        1   -1    0    0  501    0  0.00000000000E+00  0.00000000000E+00  0.22750850722E+04  0.22750850722E+04  0.50400001928E-02 0.  1.
       -1   -1    0    0    0  501  0.00000000000E+00  0.00000000000E+00 -0.50921562142E+03  0.50921562144E+03  0.50400001928E-02 0. -1.
    10030    2    1    2    0    0  0.00000000000E+00  0.00000000000E+00  0.17658694507E+04  0.27843006936E+04  0.21526809878E+04 0.  0.
        4    1    3    3  502    0 -0.22409794283E+03  0.84109449993E+03  0.64043917865E+02  0.87279039987E+03  0.12699999809E+01 0. -1.
       -4    1    3    3    0  502  0.22409794283E+03 -0.84109449993E+03  0.17018255329E+04  0.19115102937E+04  0.12699999809E+01 0.  1.
</event>
<event>
 5   0  0.2847158E-05  0.2412206E+04  0.7818609E-02  0.8434948E-01
        1   -1    0    0  501    0  0.00000000000E+00  0.00000000000E+00  0.12866125738E+04  0.12866125738E+04  0.50400001928E-02 0.  1.
       -1   -1    0    0    0  501  0.00000000000E+00  0.00000000000E+00 -0.11306308947E+04  0.11306308947E+04  0.50400001928E-02 0. -1.
    10030    2    1    2    0    0  0.00000000000E+00  0.00000000000E+00  0.15598167910E+03  0.24172434686E+04  0.24122055680E+04 0.  0.
        5    1    3    3  502    0  0.74590955325E+03 -0.28803152946E+03 -0.82684492475E+03  0.11502338211E+04  0.46999998093E+01 0. -1.
       -5    1    3    3    0  502 -0.74590955325E+03  0.28803152946E+03  0.98282660386E+03  0.12670096475E+04  0.46999998093E+01 0.  1.
</event>
<event>
 5   0  0.2943244E-05  0.2401827E+04  0.7818609E-02  0.8438820E-01
        1   -1    0    0  501    0  0.00000000000E+00  0.00000000000E+00  0.17336899475E+04  0.17336899475E+04  0.50400001928E-02 0.  1.
       -1   -1    0    0    0  501  0.00000000000E+00  0.00000000000E+00 -0.83186351991E+03  0.83186351992E+03  0.50400001928E-02 0. -1.
    10030    2    1    2    0    0  0.00000000000E+00  0.00000000000E+00  0.90182642757E+03  0.25655534674E+04  0.24018271563E+04 0.  0.
        3    1    3    3  502    0  0.17521839967E+03 -0.32868883946E+03  0.16704290252E+04  0.17114528855E+04  0.10100000352E+00 0.  1.
       -3    1    3    3    0  502 -0.17521839967E+03  0.32868883946E+03 -0.76860259763E+03  0.85410058193E+03  0.10100000352E+00 0. -1.
</event>
<event>
 5   0  0.6600166E-05  0.2409143E+04  0.7818609E-02  0.8436088E-01
       -2   -1    0    0    0  501  0.00000000000E+00  0.00000000000E+00  0.91133189545E+03  0.91133189546E+03  0.25500000920E-02 0.  1.
        2   -1    0    0  501    0  0.00000000000E+00  0.00000000000E+00 -0.15921671719E+04  0.15921671719E+04  0.25500000920E-02 0. -1.
    10030    2    1    2    0    0  0.00000000000E+00  0.00000000000E+00 -0.68083527645E+03  0.25034990674E+04  0.24091431893E+04 0.  0.
        5    1    3    3  502    0  0.89654424043E+03  0.22216173271E+03  0.46305522344E+03  0.10332422951E+04  0.46999998093E+01 0.  1.
       -5    1    3    3    0  502 -0.89654424043E+03 -0.22216173271E+03 -0.11438904999E+04  0.14702567722E+04  0.46999998093E+01 0. -1.
</event>
<event>
 5   0  0.2847158E-05  0.2435209E+04  0.7818609E-02  0.8426438E-01
        1   -1    0    0  501    0  0.00000000000E+00  0.00000000000E+00  0.26948056358E+04  0.26948056359E+04  0.50400001928E-02 0. -1.
       -1   -1    0    0    0  501  0.00000000000E+00  0.00000000000E+00 -0.55015513131E+03  0.55015513133E+03  0.50400001928E-02 0.  1.
    10030    2    1    2    0    0  0.00000000000E+00  0.00000000000E+00  0.21446505045E+04  0.32449607672E+04  0.24352093532E+04 0.  0.
        5    1    3    3  502    0  0.67748519528E+03 -0.37588440109E+03 -0.17929440056E+03  0.79526338082E+03  0.46999998093E+01 0.  1.
       -5    1    3    3    0  502 -0.67748519528E+03  0.37588440109E+03  0.23239449051E+04  0.24496973864E+04  0.46999998093E+01 0. -1.
</event>
<event>
 5   0  0.6337926E-05  0.2403787E+04  0.7818609E-02  0.8438087E-01
       -2   -1    0    0    0  501  0.00000000000E+00  0.00000000000E+00  0.54117209478E+03  0.54117209479E+03  0.25500000920E-02 0. -1.
        2   -1    0    0  501    0  0.00000000000E+00  0.00000000000E+00 -0.26692944315E+04  0.26692944315E+04  0.25500000920E-02 0.  1.
    10030    2    1    2    0    0  0.00000000000E+00  0.00000000000E+00 -0.21281223367E+04  0.32104665263E+04  0.24037867286E+04 0.  0.
        1    1    3    3  502    0  0.62345942624E+02  0.45771311572E+03  0.41787448338E+03  0.62290239745E+03  0.50400001928E-02 0. -1.
       -1    1    3    3    0  502 -0.62345942624E+02 -0.45771311572E+03 -0.25459968201E+04  0.25875641289E+04  0.50400001928E-02 0.  1.
</event>
<event>
 5   0  0.2943244E-05  0.2407313E+04  0.7818609E-02  0.8436771E-01
       -1   -1    0    0    0  501  0.00000000000E+00  0.00000000000E+00  0.11833633909E+04  0.11833633909E+04  0.50400001928E-02 0.  1.
        1   -1    0    0  501    0  0.00000000000E+00  0.00000000000E+00 -0.12242980264E+04  0.12242980265E+04  0.50400001928E-02 0. -1.
    10030    2    1    2    0    0  0.00000000000E+00  0.00000000000E+00 -0.40934635594E+02  0.24076614173E+04  0.24073134104E+04 0.  0.
        3    1    3    3  502    0 -0.68309245977E+03  0.23820056972E+03 -0.98260151797E+03  0.12201887450E+04  0.10100000352E+00 0. -1.
       -3    1    3    3    0  502  0.68309245977E+03 -0.23820056972E+03  0.94166688238E+03  0.11874726724E+04  0.10100000352E+00 0.  1.
</event>
<event>
 5   0  0.2915546E-05  0.2296523E+04  0.7818609E-02  0.8479293E-01
       -1   -1    0    0    0  501  0.00000000000E+00  0.00000000000E+00  0.66675736917E+03  0.66675736919E+03  0.50400001928E-02 0. -1.
        1   -1    0    0  501    0  0.00000000000E+00  0.00000000000E+00 -0.19774884480E+04  0.19774884480E+04  0.50400001928E-02 0.  1.
    10030    2    1    2    0    0  0.00000000000E+00  0.00000000000E+00 -0.13107310788E+04  0.26442458171E+04  0.22965234553E+04 0.  0.
        2    1    3    3  502    0  0.51694932260E+03 -0.47511911810E+03  0.39079281541E+03  0.80355074706E+03  0.25500000920E-02 0. -1.
       -2    1    3    3    0  502 -0.51694932260E+03  0.47511911810E+03 -0.17015238942E+04  0.18406950701E+04  0.25500000920E-02 0.  1.
</event>
<event>
 5   0  0.6337926E-05  0.2352387E+04  0.7818609E-02  0.8457547E-01
        2   -1    0    0  501    0  0.00000000000E+00  0.00000000000E+00  0.14477156108E+04  0.14477156108E+04  0.25500000920E-02 0.  1.
       -2   -1    0    0    0  501  0.00000000000E+00  0.00000000000E+00 -0.95559613093E+03  0.95559613093E+03  0.25500000920E-02 0. -1.
    10030    2    1    2    0    0  0.00000000000E+00  0.00000000000E+00  0.49211947983E+03  0.24033117417E+04  0.23523872439E+04 0.  0.
        1    1    3    3  502    0 -0.10417491385E+04 -0.21887996944E+03 -0.26505200954E+03  0.10969969355E+04  0.50400001928E-02 0. -1.
       -1    1    3    3    0  502  0.10417491385E+04  0.21887996944E+03  0.75717148937E+03  0.13063148062E+04  0.50400001928E-02 0.  1.
</event>
<event>
 5   0  0.6714629E-05  0.2433420E+04  0.7818609E-02  0.8427096E-01
       -2   -1    0    0    0  501  0.00000000000E+00  0.00000000000E+00  0.72141508791E+03  0.72141508792E+03  0.25500000920E-02 0.  1.
        2   -1    0    0  501    0  0.00000000000E+00  0.00000000000E+00 -0.20520552523E+04  0.20520552523E+04  0.25500000920E-02 0. -1.
    10030    2    1    2    0    0  0.00000000000E+00  0.00000000000E+00 -0.13306401643E+04  0.27734703402E+04  0.24334203256E+04 0.  0.
        3    1    3    3  502    0  0.10273065343E+04 -0.39812608742E+03 -0.12537187963E+04  0.16690338305E+04  0.10100000352E+00 0. -1.
       -3    1    3    3    0  502 -0.10273065343E+04  0.39812608742E+03 -0.76921368070E+02  0.11044365097E+04  0.10100000352E+00 0.  1.
</event>
<event>
 5   0  0.6337926E-05  0.2253572E+04  0.7818609E-02  0.8496455E-01
       -2   -1    0    0    0  501  0.00000000000E+00  0.00000000000E+00  0.11324269717E+04  0.11324269717E+04  0.25500000920E-02 0.  1.
        2   -1    0    0  501    0  0.00000000000E+00  0.00000000000E+00 -0.11211727208E+04  0.11211727208E+04  0.25500000920E-02 0. -1.
    10030    2    1    2    0    0  0.00000000000E+00  0.00000000000E+00  0.11254250869E+02  0.22535996925E+04  0.22535715910E+04 0.  0.
        1    1    3    3  502    0  0.51608451717E+03 -0.12794404554E+03  0.99908469124E+03  0.11317610737E+04  0.50400001928E-02 0.  1.
       -1    1    3    3    0  502 -0.51608451717E+03  0.12794404554E+03 -0.98783044037E+03  0.11218386188E+04  0.50400001928E-02 0. -1.
</event>
<event>
 5   0  0.6714629E-05  0.2364258E+04  0.7818609E-02  0.8453007E-01
       -2   -1    0    0    0  501  0.00000000000E+00  0.00000000000E+00  0.78640927793E+03  0.78640927793E+03  0.25500000920E-02 0.  1.
        2   -1    0    0  501    0  0.00000000000E+00  0.00000000000E+00 -0.17769746165E+04  0.17769746165E+04  0.25500000920E-02 0. -1.
    10030    2    1    2    0    0  0.00000000000E+00  0.00000000000E+00 -0.99056533860E+03  0.25633838945E+04  0.23642582981E+04 0.  0.
        3    1    3    3  502    0 -0.67910408066E+03  0.53558853836E+03  0.37843708772E+03  0.94406147806E+03  0.10100000352E+00 0.  1.
       -3    1    3    3    0  502  0.67910408066E+03 -0.53558853836E+03 -0.13690024263E+04  0.16193224164E+04  0.10100000352E+00 0. -1.
</event>
<event>
 5   0  0.6703961E-05  0.2429504E+04  0.7818609E-02  0.8428540E-01
       -2   -1    0    0    0  501  0.00000000000E+00  0.00000000000E+00  0.14692155544E+04  0.14692155544E+04  0.25500000920E-02 0. -1.
        2   -1    0    0  501    0  0.00000000000E+00  0.00000000000E+00 -0.10043605379E+04  0.10043605379E+04  0.25500000920E-02 0.  1.
    10030    2    1    2    0    0  0.00000000000E+00  0.00000000000E+00  0.46485501654E+03  0.24735760923E+04  0.24295037555E+04 0.  0.
        2    1    3    3  502    0  0.11905297825E+04 -0.11113652372E+03  0.14275297727E+02  0.11957910662E+04  0.25500000920E-02 0.  1.
       -2    1    3    3    0  502 -0.11905297825E+04  0.11113652372E+03  0.45057971882E+03  0.12777850261E+04  0.25500000920E-02 0. -1.
</event>
<event>
 5   0  0.6337926E-05  0.2351689E+04  0.7818609E-02  0.8457815E-01
       -2   -1    0    0    0  501  0.00000000000E+00  0.00000000000E+00  0.29409620652E+04  0.29409620652E+04  0.25500000920E-02 0. -1.
        2   -1    0    0  501    0  0.00000000000E+00  0.00000000000E+00 -0.47012168476E+03  0.47012168477E+03  0.25500000920E-02 0.  1.
    10030    2    1    2    0    0  0.00000000000E+00  0.00000000000E+00  0.24708403804E+04  0.34110837500E+04  0.23516887897E+04 0.  0.
        1    1    3    3  502    0 -0.12749993081E+03  0.11590499452E+04  0.10156491754E+04  0.15463493316E+04  0.50400001928E-02 0.  1.
       -1    1    3    3    0  502  0.12749993081E+03 -0.11590499452E+04  0.14551912050E+04  0.18647344184E+04  0.50400001928E-02 0. -1.
</event>
<event>
 5   0  0.2847158E-05  0.2276000E+04  0.7818609E-02  0.8487444E-01
       -1   -1    0    0    0  501  0.00000000000E+00  0.00000000000E+00  0.48539271221E+03  0.48539271224E+03  0.50400001928E-02 0. -1.
        1   -1    0    0  501    0  0.00000000000E+00  0.00000000000E+00 -0.26680345451E+04  0.26680345451E+04  0.50400001928E-02 0.  1.
    10030    2    1    2    0    0  0.00000000000E+00  0.00000000000E+00 -0.21826418329E+04  0.31534272573E+04  0.22760004606E+04 0.  0.
        5    1    3    3  502    0 -0.57366783146E+03 -0.52472585434E+03  0.60064567562E+02  0.77978320406E+03  0.46999998093E+01 0. -1.
       -5    1    3    3    0  502  0.57366783146E+03  0.52472585434E+03 -0.22427064004E+04  0.23736440532E+04  0.46999998093E+01 0.  1.
</event>
<event>
 5   0  0.2847158E-05  0.2361429E+04  0.7818609E-02  0.8454087E-01
        1   -1    0    0  501    0  0.00000000000E+00  0.00000000000E+00  0.28149750563E+04  0.28149750563E+04  0.50400001928E-02 0.  1.
       -1   -1    0    0    0  501  0.00000000000E+00  0.00000000000E+00 -0.49523961568E+03  0.49523961570E+03  0.50400001928E-02 0. -1.
    10030    2    1    2    0    0  0.00000000000E+00  0.00000000000E+00  0.23197354406E+04  0.33102146720E+04  0.23614293680E+04 0.  0.
        5    1    3    3  502    0 -0.72654739687E+03  0.43263803246E+03  0.23149739733E+04  0.24645838136E+04  0.46999998093E+01 0.  1.
       -5    1    3    3    0  502  0.72654739687E+03 -0.43263803246E+03  0.47614672322E+01  0.84563085835E+03  0.46999998093E+01 0. -1.
</event>
<event>
 5   0  0.6703961E-05  0.2415762E+04  0.7818609E-02  0.8433626E-01
       -2   -1    0    0    0  501  0.00000000000E+00  0.00000000000E+00  0.13567925238E+04  0.13567925238E+04  0.25500000920E-02 0. -1.
        2   -1    0    0  501    0  0.00000000000E+00  0.00000000000E+00 -0.10753124688E+04  0.10753124688E+04  0.25500000920E-02 0.  1.
    10030    2    1    2    0    0  0.00000000000E+00  0.00000000000E+00  0.28148005499E+03  0.24321049926E+04  0.24157615101E+04 0.  0.
        2    1    3    3  502    0  0.73911043792E+03  0.87433569770E+03 -0.24686955874E+03  0.11711924397E+04  0.25500000920E-02 0. -1.
       -2    1    3    3    0  502 -0.73911043792E+03 -0.87433569770E+03  0.52834961373E+03  0.12609125529E+04  0.25500000920E-02 0.  1.
</event>
<event>
 5   0  0.2943244E-05  0.2403893E+04  0.7818609E-02  0.8438048E-01
        1   -1    0    0  501    0  0.00000000000E+00  0.00000000000E+00  0.27309054325E+04  0.27309054325E+04  0.50400001928E-02 0. -1.
       -1   -1    0    0    0  501  0.00000000000E+00  0.00000000000E+00 -0.52900957557E+03  0.52900957559E+03  0.50400001928E-02 0.  1.
    10030    2    1    2    0    0  0.00000000000E+00  0.00000000000E+00  0.22018958569E+04  0.32599150081E+04  0.24038927795E+04 0.  0.
        3    1    3    3  502    0 -0.11661405761E+03 -0.57989727025E+03  0.25198671519E+04  0.25883605150E+04  0.10100000352E+00 0. -1.
       -3    1    3    3    0  502  0.11661405761E+03  0.57989727025E+03 -0.31797129499E+03  0.67155449303E+03  0.10100000352E+00 0.  1.
</event>
<event>
 5   0  0.2847158E-05  0.2388883E+04  0.7818609E-02  0.8443677E-01
       -1   -1    0    0    0  501  0.00000000000E+00  0.00000000000E+00  0.12116792462E+04  0.12116792462E+04  0.50400001928E-02 0.  1.
        1   -1    0    0  501    0  0.00000000000E+00  0.00000000000E+00 -0.11774486073E+04  0.11774486073E+04  0.50400001928E-02 0. -1.
    10030    2    1    2    0    0  0.00000000000E+00  0.00000000000E+00  0.34230638889E+02  0.23891278535E+04  0.23888826182E+04 0.  0.
        5    1    3    3  502    0 -0.48507486049E+03 -0.66938305453E+03 -0.84511972612E+03  0.11822101063E+04  0.46999998093E+01 0. -1.
       -5    1    3    3    0  502  0.48507486049E+03  0.66938305453E+03  0.87935036501E+03  0.12069177472E+04  0.46999998093E+01 0.  1.
</event>
<event>
 5   0  0.6600166E-05  0.2348520E+04  0.7818609E-02  0.8459032E-01
        2   -1    0    0  501    0  0.00000000000E+00  0.00000000000E+00  0.16825089790E+04  0.16825089790E+04  0.25500000920E-02 0.  1.
       -2   -1    0    0    0  501  0.00000000000E+00  0.00000000000E+00 -0.81954221271E+03  0.81954221271E+03  0.25500000920E-02 0. -1.
    10030    2    1    2    0    0  0.00000000000E+00  0.00000000000E+00  0.86296676633E+03  0.25020511918E+04  0.23485204973E+04 0.  0.
        5    1    3    3  502    0 -0.22701508938E+03  0.20020707843E+03  0.16402227454E+04  0.16679242997E+04  0.46999998093E+01 0.  1.
       -5    1    3    3    0  502  0.22701508938E+03 -0.20020707843E+03 -0.77725597906E+03  0.83412689205E+03  0.46999998093E+01 0. -1.
</event>
<event>
 5   0  0.6714629E-05  0.2395674E+04  0.7818609E-02  0.8441125E-01
        2   -1    0    0  501    0  0.00000000000E+00  0.00000000000E+00  0.15092004808E+04  0.15092004808E+04  0.25500000920E-02 0.  1.
       -2   -1    0    0    0  501  0.00000000000E+00  0.00000000000E+00 -0.95071059833E+03  0.95071059833E+03  0.25500000920E-02 0. -1.
    10030    2    1    2    0    0  0.00000000000E+00  0.00000000000E+00  0.55848988247E+03  0.24599110791E+04  0.23956735104E+04 0.  0.
        3    1    3    3  502    0  0.53635039392E+03  0.68101446386E+03 -0.56957718850E+03  0.10372418372E+04  0.10100000352E+00 0. -1.
       -3    1    3    3    0  502 -0.53635039392E+03 -0.68101446386E+03  0.11280670710E+04  0.14226692419E+04  0.10100000352E+00 0.  1.
</event>
<event>
 5   0  0.2847158E-05  0.1983724E+04  0.7818609E-02  0.8614268E-01
        1   -1    0    0  501    0  0.00000000000E+00  0.00000000000E+00  0.10894328203E+04  0.10894328203E+04  0.50400001928E-02 0. -1.
       -1   -1    0    0    0  501  0.00000000000E+00  0.00000000000E+00 -0.90302954533E+03  0.90302954535E+03  0.50400001928E-02 0.  1.
    10030    2    1    2    0    0  0.00000000000E+00  0.00000000000E+00  0.18640327498E+03  0.19924623657E+04  0.19837237957E+04 0.  0.
        5    1    3    3  502    0  0.78745476930E+03  0.43824518298E+03 -0.32289866893E+03  0.95730324062E+03  0.46999998093E+01 0.  1.
       -5    1    3    3    0  502 -0.78745476930E+03 -0.43824518298E+03  0.50930194391E+03  0.10351591251E+04  0.46999998093E+01 0. -1.
</event>
<event>
 5   0  0.6703961E-05  0.2403546E+04  0.7818609E-02  0.8438177E-01
       -2   -1    0    0    0  501  0.00000000000E+00  0.00000000000E+00  0.14109288426E+04  0.14109288426E+04  0.25500000920E-02 0. -1.
        2   -1    0    0  501    0  0.00000000000E+00  0.00000000000E+00 -0.10236226193E+04  0.10236226193E+04  0.25500000920E-02 0.  1.
    10030    2    1    2    0    0  0.00000000000E+00  0.00000000000E+00  0.38730622334E+03  0.24345514620E+04  0.24035462780E+04 0.  0.
        2    1    3    3  502    0  0.96794384523E+03 -0.16553183278E+03  0.89536869582E+03  0.13289097699E+04  0.25500000920E-02 0. -1.
       -2    1    3    3    0  502 -0.96794384523E+03  0.16553183278E+03 -0.50806247248E+03  0.11056416920E+04  0.25500000920E-02 0.  1.
</event>
<event>
 5   0  0.2943123E-05  0.1815998E+04  0.7818609E-02  0.8697838E-01
        1   -1    0    0  501    0  0.00000000000E+00  0.00000000000E+00  0.12022027770E+04  0.12022027770E+04  0.50400001928E-02 0. -1.
       -1   -1    0    0    0  501  0.00000000000E+00  0.00000000000E+00 -0.68579302398E+03  0.68579302400E+03  0.50400001928E-02 0.  1.
    10030    2    1    2    0    0  0.00000000000E+00  0.00000000000E+00  0.51640975301E+03  0.18879958010E+04  0.18159981034E+04 0.  0.
        1    1    3    3  502    0  0.30357726146E+03  0.53209658797E+03 -0.43857254943E+03  0.75341344144E+03  0.50400001928E-02 0.  1.
       -1    1    3    3    0  502 -0.30357726146E+03 -0.53209658797E+03  0.95498230244E+03  0.11345823596E+04  0.50400001928E-02 0. -1.
</event>
<event>
 5   0  0.2339125E-05  0.2365009E+04  0.7818609E-02  0.8452721E-01
        3   -1    0    0  501    0  0.00000000000E+00  0.00000000000E+00  0.19444872593E+04  0.19444872619E+04  0.10100000352E+00 0. -1.
       -3   -1    0    0    0  501  0.00000000000E+00  0.00000000000E+00 -0.71911856093E+03  0.71911856802E+03  0.10100000352E+00 0.  1.
    10030    2    1    2    0    0  0.00000000000E+00  0.00000000000E+00  0.12253686984E+04  0.26636058300E+04  0.23650090001E+04 0.  0.
        3    1    3    3  502    0  0.92983911815E+03 -0.28800286855E+03 -0.14347769761E+03  0.98393714121E+03  0.10100000352E+00 0.  1.
       -3    1    3    3    0  502 -0.92983911815E+03  0.28800286855E+03  0.13688463960E+04  0.16796686888E+04  0.10100000352E+00 0. -1.
</event>
<event>
 5   0  0.6337926E-05  0.2426374E+04  0.7818609E-02  0.8429695E-01
       -2   -1    0    0    0  501  0.00000000000E+00  0.00000000000E+00  0.56080285517E+03  0.56080285517E+03  0.25500000920E-02 0.  1.
        2   -1    0    0  501    0  0.00000000000E+00  0.00000000000E+00 -0.26244920635E+04  0.26244920635E+04  0.25500000920E-02 0. -1.
    10030    2    1    2    0    0  0.00000000000E+00  0.00000000000E+00 -0.20636892083E+04  0.31852949187E+04  0.24263739552E+04 0.  0.
        1    1    3    3  502    0 -0.79035689067E+03  0.36075789888E+03 -0.21434617485E+04  0.23128420922E+04  0.50400001928E-02 0. -1.
       -1    1    3    3    0  502  0.79035689067E+03 -0.36075789888E+03  0.79772540148E+02  0.87245282647E+03  0.50400001928E-02 0.  1.
</event>
<event>
 5   0  0.2915546E-05  0.2319703E+04  0.7818609E-02  0.8470193E-01
        1   -1    0    0  501    0  0.00000000000E+00  0.00000000000E+00  0.16118264274E+04  0.16118264274E+04  0.50400001928E-02 0. -1.
       -1   -1    0    0    0  501  0.00000000000E+00  0.00000000000E+00 -0.83461558697E+03  0.83461558699E+03  0.50400001928E-02 0.  1.
    10030    2    1    2    0    0  0.00000000000E+00  0.00000000000E+00  0.77721084039E+03  0.24464420144E+04  0.23197029636E+04 0.  0.
        2    1    3    3  502    0  0.10291833391E+04  0.39475742627E+03  0.80532584632E+01  0.11023232856E+04  0.25500000920E-02 0. -1.
       -2    1    3    3    0  502 -0.10291833391E+04 -0.39475742627E+03  0.76915758193E+03  0.13441187287E+04  0.25500000920E-02 0.  1.
</event>
<event>
 5   0  0.2943244E-05  0.2379578E+04  0.7818609E-02  0.8447189E-01
       -1   -1    0    0    0  501  0.00000000000E+00  0.00000000000E+00  0.80434319319E+03  0.80434319320E+03  0.50400001928E-02 0.  1.
        1   -1    0    0  501    0  0.00000000000E+00  0.00000000000E+00 -0.17599428629E+04  0.17599428629E+04  0.50400001928E-02 0. -1.
    10030    2    1    2    0    0  0.00000000000E+00  0.00000000000E+00 -0.95559966974E+03  0.25642860561E+04  0.23795781662E+04 0.  0.
        3    1    3    3  502    0 -0.53610902477E+03  0.10083722707E+04 -0.11817337546E+03  0.11481256375E+04  0.10100000352E+00 0. -1.
       -3    1    3    3    0  502  0.53610902477E+03 -0.10083722707E+04 -0.83742629428E+03  0.14161604186E+04  0.10100000352E+00 0.  1.
</event>
<event>
 5   0  0.2847158E-05  0.2407119E+04  0.7818609E-02  0.8436843E-01
       -1   -1    0    0    0  501  0.00000000000E+00  0.00000000000E+00  0.88419638262E+03  0.88419638263E+03  0.50400001928E-02 0. -1.
        1   -1    0    0  501    0  0.00000000000E+00  0.00000000000E+00 -0.16382740515E+04  0.16382740515E+04  0.50400001928E-02 0.  1.
    10030    2    1    2    0    0  0.00000000000E+00  0.00000000000E+00 -0.75407766886E+03  0.25224704341E+04  0.24071194321E+04 0.  0.
        5    1    3    3  502    0 -0.25417542646E+03 -0.11630873108E+04 -0.19206772790E+03  0.12059391950E+04  0.46999998093E+01 0. -1.
       -5    1    3    3    0  502  0.25417542646E+03  0.11630873108E+04 -0.56200994096E+03  0.13165312391E+04  0.46999998093E+01 0.  1.
</event>
<event>
 5   0  0.2915546E-05  0.2431552E+04  0.7818609E-02  0.8427785E-01
       -1   -1    0    0    0  501  0.00000000000E+00  0.00000000000E+00  0.10791741538E+04  0.10791741538E+04  0.50400001928E-02 0.  1.
        1   -1    0    0  501    0  0.00000000000E+00  0.00000000000E+00 -0.13696683476E+04  0.13696683477E+04  0.50400001928E-02 0. -1.
    10030    2    1    2    0    0  0.00000000000E+00  0.00000000000E+00 -0.29049419386E+03  0.24488425015E+04  0.24315515048E+04 0.  0.
        2    1    3    3  502    0 -0.63595390990E+01  0.18483356915E+03  0.10649245121E+04  0.10808645190E+04  0.25500000920E-02 0.  1.
       -2    1    3    3    0  502  0.63595390990E+01 -0.18483356915E+03 -0.13554187059E+04  0.13679779824E+04  0.25500000920E-02 0. -1.
</event>
<event>
 5   0  0.6978115E-05  0.2568725E+04  0.7818609E-02  0.8378903E-01
       -2   -1    0    0    0  501  0.00000000000E+00  0.00000000000E+00  0.11946316938E+04  0.11946316938E+04  0.25500000920E-02 0.  1.
        2   -1    0    0  501    0  0.00000000000E+00  0.00000000000E+00 -0.13808328316E+04  0.13808328316E+04  0.25500000920E-02 0. -1.
    10030    2    1    2    0    0  0.00000000000E+00  0.00000000000E+00 -0.18620113784E+03  0.25754645254E+04  0.25687247143E+04 0.  0.
        4    1    3    3  502    0  0.17639993322E+03 -0.94493813959E+02  0.11789042741E+04  0.11957687560E+04  0.12699999809E+01 0.  1.
       -4    1    3    3    0  502 -0.17639993322E+03  0.94493813959E+02 -0.13651054120E+04  0.13796957694E+04  0.12699999809E+01 0. -1.
</event>
<event>
 5   0  0.2901816E-05  0.2133636E+04  0.7818609E-02  0.8546569E-01
       -1   -1    0    0    0  501  0.00000000000E+00  0.00000000000E+00  0.10132760251E+04  0.10132760251E+04  0.50400001928E-02 0. -1.
        1   -1    0    0  501    0  0.00000000000E+00  0.00000000000E+00 -0.11231893546E+04  0.11231893546E+04  0.50400001928E-02 0.  1.
    10030    2    1    2    0    0  0.00000000000E+00  0.00000000000E+00 -0.10991332948E+03  0.21364653798E+04  0.21336361871E+04 0.  0.
        4    1    3    3  502    0  0.10546703286E+04  0.13286126228E+03 -0.14517394135E+03  0.10728740388E+04  0.12699999809E+01 0. -1.
       -4    1    3    3    0  502 -0.10546703286E+04 -0.13286126228E+03  0.35260611879E+02  0.10635913410E+04  0.12699999809E+01 0.  1.
</event>
<event>
 5   0  0.2943244E-05  0.2376939E+04  0.7818609E-02  0.8448188E-01
       -1   -1    0    0    0  501  0.00000000000E+00  0.00000000000E+00  0.81217513001E+03  0.81217513003E+03  0.50400001928E-02 0. -1.
        1   -1    0    0  501    0  0.00000000000E+00  0.00000000000E+00 -0.17391067669E+04  0.17391067669E+04  0.50400001928E-02 0.  1.
    10030    2    1    2    0    0  0.00000000000E+00  0.00000000000E+00 -0.92693163686E+03  0.25512818969E+04  0.23769385895E+04 0.  0.
        3    1    3    3  502    0 -0.10840065923E+03 -0.96214846036E+03  0.27627169114E+03  0.10068795460E+04  0.10100000352E+00 0. -1.
       -3    1    3    3    0  502  0.10840065923E+03  0.96214846036E+03 -0.12032033280E+04  0.15444023509E+04  0.10100000352E+00 0.  1.
</event>
<event>
 5   0  0.2339125E-05  0.2421649E+04  0.7818609E-02  0.8431443E-01
       -4   -1    0    0    0  501  0.00000000000E+00  0.00000000000E+00  0.17127721930E+04  0.17127726638E+04  0.12699999809E+01 0.  1.
        4   -1    0    0  501    0  0.00000000000E+00  0.00000000000E+00 -0.85597756796E+03  0.85597851010E+03  0.12699999809E+01 0. -1.
    10030    2    1    2    0    0  0.00000000000E+00  0.00000000000E+00  0.85679462502E+03  0.25687511739E+04  0.24216493479E+04 0.  0.
        4    1    3    3  502    0  0.10438927837E+04  0.38148538689E+03 -0.81258711684E+02  0.11143822662E+04  0.12699999809E+01 0. -1.
       -4    1    3    3    0  502 -0.10438927837E+04 -0.38148538689E+03  0.93805333670E+03  0.14543689077E+04  0.12699999809E+01 0.  1.
</event>
<event>
 5   0  0.6337926E-05  0.2360822E+04  0.7818609E-02  0.8454319E-01
       -2   -1    0    0    0  501  0.00000000000E+00  0.00000000000E+00  0.73648919865E+03  0.73648919865E+03  0.25500000920E-02 0.  1.
        2   -1    0    0  501    0  0.00000000000E+00  0.00000000000E+00 -0.18919079967E+04  0.18919079967E+04  0.25500000920E-02 0. -1.
    10030    2    1    2    0    0  0.00000000000E+00  0.00000000000E+00 -0.11554187981E+04  0.26283971954E+04  0.23608217251E+04 0.  0.
        1    1    3    3  502    0 -0.52453295142E+02  0.49593658737E+03  0.61344229239E+03  0.79057946659E+03  0.50400001928E-02 0.  1.
       -1    1    3    3    0  502  0.52453295142E+02 -0.49593658737E+03 -0.17688610905E+04  0.18378177288E+04  0.50400001928E-02 0. -1.
</event>
<event>
 5   0  0.6714629E-05  0.2485070E+04  0.7818609E-02  0.8408324E-01
       -2   -1    0    0    0  501  0.00000000000E+00  0.00000000000E+00  0.94087179535E+03  0.94087179535E+03  0.25500000920E-02 0.  1.
        2   -1    0    0  501    0  0.00000000000E+00  0.00000000000E+00 -0.16409175978E+04  0.16409175978E+04  0.25500000920E-02 0. -1.
    10030    2    1    2    0    0  0.00000000000E+00  0.00000000000E+00 -0.70004580242E+03  0.25817893931E+04  0.24850698873E+04 0.  0.
        3    1    3    3  502    0  0.19963187693E+03  0.10451964216E+04 -0.10165569370E+04  0.14716237503E+04  0.10100000352E+00 0. -1.
       -3    1    3    3    0  502 -0.19963187693E+03 -0.10451964216E+04  0.31651113461E+03  0.11101656428E+04  0.10100000352E+00 0.  1.
</event>
<event>
 5   0  0.6714629E-05  0.2379133E+04  0.7818609E-02  0.8447357E-01
        2   -1    0    0  501    0  0.00000000000E+00  0.00000000000E+00  0.85916121810E+03  0.85916121811E+03  0.25500000920E-02 0. -1.
       -2   -1    0    0    0  501  0.00000000000E+00  0.00000000000E+00 -0.16470350539E+04  0.16470350539E+04  0.25500000920E-02 0.  1.
    10030    2    1    2    0    0  0.00000000000E+00  0.00000000000E+00 -0.78787383576E+03  0.25061962720E+04  0.23791331557E+04 0.  0.
        3    1    3    3  502    0 -0.10831443176E+04 -0.48950753086E+03 -0.34397611390E+03  0.12373919398E+04  0.10100000352E+00 0. -1.
       -3    1    3    3    0  502  0.10831443176E+04  0.48950753086E+03 -0.44389772185E+03  0.12688043321E+04  0.10100000352E+00 0.  1.
</event>
<event>
 5   0  0.2901816E-05  0.2242390E+04  0.7818609E-02  0.8500989E-01
        1   -1    0    0  501    0  0.00000000000E+00  0.00000000000E+00  0.12655108825E+04  0.12655108825E+04  0.50400001928E-02 0.  1.
       -1   -1    0    0    0  501  0.00000000000E+00  0.00000000000E+00 -0.99333648767E+03  0.99333648768E+03  0.50400001928E-02 0. -1.
    10030    2    1    2    0    0  0.00000000000E+00  0.00000000000E+00  0.27217439486E+03  0.22588473702E+04  0.22423899172E+04 0.  0.
        4    1    3    3  502    0  0.87008390841E+03 -0.20004399050E+03 -0.54713311221E+03  0.10471006930E+04  0.12699999809E+01 0. -1.
       -4    1    3    3    0  502 -0.87008390841E+03  0.20004399050E+03  0.81930750708E+03  0.12117466773E+04  0.12699999809E+01 0.  1.
</event>
<event>
 5   0  0.6337926E-05  0.2473166E+04  0.7818609E-02  0.8412608E-01
        2   -1    0    0  501    0  0.00000000000E+00  0.00000000000E+00  0.13778091618E+04  0.13778091618E+04  0.25500000920E-02 0. -1.
       -2   -1    0    0    0  501  0.00000000000E+00  0.00000000000E+00 -0.11098324903E+04  0.11098324903E+04  0.25500000920E-02 0.  1.
    10030    2    1    2    0    0  0.00000000000E+00  0.00000000000E+00  0.26797667143E+03  0.24876416521E+04  0.24731658846E+04 0.  0.
        1    1    3    3  502    0 -0.90154998090E+03 -0.40141273086E+03 -0.61549903184E+03  0.11630836628E+04  0.50400001928E-02 0.  1.
       -1    1    3    3    0  502  0.90154998090E+03  0.40141273086E+03  0.88347570326E+03  0.13245579892E+04  0.50400001928E-02 0. -1.
</event>
<event>
 5   0  0.2915546E-05  0.2401569E+04  0.7818609E-02  0.8438916E-01
       -1   -1    0    0    0  501  0.00000000000E+00  0.00000000000E+00  0.10795666438E+04  0.10795666438E+04  0.50400001928E-02 0.  1.
        1   -1    0    0  501    0  0.00000000000E+00  0.00000000000E+00 -0.13356132728E+04  0.13356132729E+04  0.50400001928E-02 0. -1.
    10030    2    1    2    0    0  0.00000000000E+00  0.00000000000E+00 -0.25604662908E+03  0.24151799166E+04  0.24015691024E+04 0.  0.
        2    1    3    3  502    0  0.21904707096E+03 -0.39734997181E+03 -0.12460862681E+04  0.13261220181E+04  0.25500000920E-02 0. -1.
       -2    1    3    3    0  502 -0.21904707096E+03  0.39734997181E+03  0.99003963904E+03  0.10890578985E+04  0.25500000920E-02 0.  1.
</event>
<event>
 5   0  0.2943123E-05  0.2538168E+04  0.7818609E-02  0.8389513E-01
        1   -1    0    0  501    0  0.00000000000E+00  0.00000000000E+00  0.15554346963E+04  0.15554346963E+04  0.50400001928E-02 0. -1.
       -1   -1    0    0    0  501  0.00000000000E+00  0.00000000000E+00 -0.10354495917E+04  0.10354495917E+04  0.50400001928E-02 0.  1.
    10030    2    1    2    0    0  0.00000000000E+00  0.00000000000E+00  0.51998510460E+03  0.25908842880E+04  0.25381680175E+04 0.  0.
        1    1    3    3  502    0 -0.15716606916E+03 -0.13839277890E+03  0.15376764192E+04  0.15518706469E+04  0.50400001928E-02 0. -1.
       -1    1    3    3    0  502  0.15716606916E+03  0.13839277890E+03 -0.10176913146E+04  0.10390136411E+04  0.50400001928E-02 0.  1.
</event>
<event>
 5   0  0.2847158E-05  0.2445440E+04  0.7818609E-02  0.8422685E-01
       -1   -1    0    0    0  501  0.00000000000E+00  0.00000000000E+00  0.17101199925E+04  0.17101199925E+04  0.50400001928E-02 0. -1.
        1   -1    0    0  501    0  0.00000000000E+00  0.00000000000E+00 -0.87423344835E+03  0.87423344836E+03  0.50400001928E-02 0.  1.
    10030    2    1    2    0    0  0.00000000000E+00  0.00000000000E+00  0.83588654410E+03  0.25843534408E+04  0.24454399180E+04 0.  0.
        5    1    3    3  502    0  0.11008574832E+04  0.18101355064E+03 -0.11084900725E+03  0.11211434771E+04  0.46999998093E+01 0.  1.
       -5    1    3    3    0  502 -0.11008574832E+04 -0.18101355064E+03  0.94673555135E+03  0.14632099637E+04  0.46999998093E+01 0. -1.
</event>
<event>
 5   0  0.6703961E-05  0.2415364E+04  0.7818609E-02  0.8433774E-01
        2   -1    0    0  501    0  0.00000000000E+00  0.00000000000E+00  0.11023008310E+04  0.11023008310E+04  0.25500000920E-02 0.  1.
       -2   -1    0    0    0  501  0.00000000000E+00  0.00000000000E+00 -0.13231380416E+04  0.13231380416E+04  0.25500000920E-02 0. -1.
    10030    2    1    2    0    0  0.00000000000E+00  0.00000000000E+00 -0.22083721059E+03  0.24254388725E+04  0.24153642895E+04 0.  0.
        2    1    3    3  502    0 -0.21366491773E+03  0.67137549285E+03  0.87453878208E+03  0.11230386595E+04  0.25500000920E-02 0.  1.
       -2    1    3    3    0  502  0.21366491773E+03 -0.67137549285E+03 -0.10953759927E+04  0.13024002130E+04  0.25500000920E-02 0. -1.
</event>
<event>
 5   0  0.6337926E-05  0.2333926E+04  0.7818609E-02  0.8464664E-01
       -2   -1    0    0    0  501  0.00000000000E+00  0.00000000000E+00  0.13980785660E+04  0.13980785660E+04  0.25500000920E-02 0. -1.
        2   -1    0    0  501    0  0.00000000000E+00  0.00000000000E+00 -0.97405268411E+03  0.97405268411E+03  0.25500000920E-02 0.  1.
    10030    2    1    2    0    0  0.00000000000E+00  0.00000000000E+00  0.42402588191E+03  0.23721312501E+04  0.23339256028E+04 0.  0.
        1    1    3    3  502    0 -0.11597105873E+04 -0.84683233045E+02  0.11190035283E+03  0.11681701867E+04  0.50400001928E-02 0.  1.
       -1    1    3    3    0  502  0.11597105873E+04  0.84683233045E+02  0.31212552907E+03  0.12039610634E+04  0.50400001928E-02 0. -1.
</event>
<event>
 5   0  0.6714629E-05  0.2418295E+04  0.7818609E-02  0.8432686E-01
       -2   -1    0    0    0  501  0.00000000000E+00  0.00000000000E+00  0.77620849159E+03  0.77620849160E+03  0.25500000920E-02 0. -1.
        2   -1    0    0  501    0  0.00000000000E+00  0.00000000000E+00 -0.18835625749E+04  0.18835625749E+04  0.25500000920E-02 0.  1.
    10030    2    1    2    0    0  0.00000000000E+00  0.00000000000E+00 -0.11073540833E+04  0.26597710665E+04  0.24182946595E+04 0.  0.
        3    1    3    3  502    0 -0.54382900044E+03 -0.82040880625E+03  0.21874367137E+03  0.10083002505E+04  0.10100000352E+00 0. -1.
       -3    1    3    3    0  502  0.54382900044E+03  0.82040880625E+03 -0.13260977547E+04  0.16514708160E+04  0.10100000352E+00 0.  1.
</event>
<event>
 5   0  0.2339125E-05  0.2327807E+04  0.7818609E-02  0.8467037E-01
       -3   -1    0    0    0  501  0.00000000000E+00  0.00000000000E+00  0.15267594853E+04  0.15267594886E+04  0.10100000352E+00 0. -1.
        3   -1    0    0  501    0  0.00000000000E+00  0.00000000000E+00 -0.88728509741E+03  0.88728510316E+03  0.10100000352E+00 0.  1.
    10030    2    1    2    0    0  0.00000000000E+00  0.00000000000E+00  0.63947438785E+03  0.24140445918E+04  0.23278066497E+04 0.  0.
        4    1    3    3  502    0 -0.27869293903E+03 -0.39415923261E+03 -0.77857234767E+03  0.91608283926E+03  0.12699999809E+01 0.  1.
       -4    1    3    3    0  502  0.27869293903E+03  0.39415923261E+03  0.14180467355E+04  0.14979617525E+04  0.12699999809E+01 0. -1.
</event>
<event>
 5   0  0.2339125E-05  0.2414996E+04  0.7818609E-02  0.8433911E-01
        4   -1    0    0  501    0  0.00000000000E+00  0.00000000000E+00  0.13272743855E+04  0.13272749931E+04  0.12699999809E+01 0.  1.
       -4   -1    0    0    0  501  0.00000000000E+00  0.00000000000E+00 -0.10985289940E+04  0.10985297281E+04  0.12699999809E+01 0. -1.
    10030    2    1    2    0    0  0.00000000000E+00  0.00000000000E+00  0.22874539151E+03  0.24258047213E+04  0.24149956712E+04 0.  0.
        4    1    3    3  502    0 -0.13234224704E+02  0.98257929133E+03 -0.59048895602E+03  0.11464362296E+04  0.12699999809E+01 0. -1.
       -4    1    3    3    0  502  0.13234224704E+02 -0.98257929133E+03  0.81923434753E+03  0.12793684917E+04  0.12699999809E+01 0.  1.
</event>
<event>
 5   0  0.6978115E-05  0.2067630E+04  0.7818609E-02  0.8575638E-01
        2   -1    0    0  501    0  0.00000000000E+00  0.00000000000E+00  0.24185437766E+04  0.24185437766E+04  0.25500000920E-02 0. -1.
       -2   -1    0    0    0  501  0.00000000000E+00  0.00000000000E+00 -0.44190801270E+03  0.44190801271E+03  0.25500000920E-02 0.  1.
    10030    2    1    2    0    0  0.00000000000E+00  0.00000000000E+00  0.19766357639E+04  0.28604517893E+04  0.20676304060E+04 0.  0.
        4    1    3    3  502    0 -0.72281040252E+03  0.56123053602E+03  0.32291465994E+03  0.97041747875E+03  0.12699999809E+01 0.  1.
       -4    1    3    3    0  502  0.72281040252E+03 -0.56123053602E+03  0.16537211040E+04  0.18900343106E+04  0.12699999809E+01 0. -1.
</event>
<event>
 5   0  0.6337926E-05  0.2256613E+04  0.7818609E-02  0.8495227E-01
        2   -1    0    0  501    0  0.00000000000E+00  0.00000000000E+00  0.13683973136E+04  0.13683973136E+04  0.25500000920E-02 0.  1.
       -2   -1    0    0    0  501  0.00000000000E+00  0.00000000000E+00 -0.93034044146E+03  0.93034044147E+03  0.25500000920E-02 0. -1.
    10030    2    1    2    0    0  0.00000000000E+00  0.00000000000E+00  0.43805687213E+03  0.22987377551E+04  0.22566128253E+04 0.  0.
        1    1    3    3  502    0  0.10152302148E+04 -0.37812467808E+03 -0.10214220263E+03  0.10881652865E+04  0.50400001928E-02 0.  1.
       -1    1    3    3    0  502 -0.10152302148E+04  0.37812467808E+03  0.54019907475E+03  0.12105724685E+04  0.50400001928E-02 0. -1.
</event>
<event>
 5   0  0.2943123E-05  0.1503576E+04  0.7818609E-02  0.8882078E-01
        1   -1    0    0  501    0  0.00000000000E+00  0.00000000000E+00  0.75630692256E+03  0.75630692258E+03  0.50400001928E-02 0. -1.
       -1   -1    0    0    0  501  0.00000000000E+00  0.00000000000E+00 -0.74729620087E+03  0.74729620089E+03  0.50400001928E-02 0.  1.
    10030    2    1    2    0    0  0.00000000000E+00  0.00000000000E+00  0.90107216883E+01  0.15036031235E+04  0.15035761237E+04 0.  0.
        1    1    3    3  502    0 -0.10375095204E+02  0.95963473734E+02  0.75008474810E+03  0.75626963462E+03  0.50400001928E-02 0. -1.
       -1    1    3    3    0  502  0.10375095204E+02 -0.95963473734E+02 -0.74107402641E+03  0.74733348884E+03  0.50400001928E-02 0.  1.
</event>
<event>
 5   0  0.2847158E-05  0.2695514E+04  0.7818609E-02  0.8336462E-01
        1   -1    0    0  501    0  0.00000000000E+00  0.00000000000E+00  0.19748989653E+04  0.19748989653E+04  0.50400001928E-02 0.  1.
       -1   -1    0    0    0  501  0.00000000000E+00  0.00000000000E+00 -0.91976815779E+03  0.91976815780E+03  0.50400001928E-02 0. -1.
    10030    2    1    2    0    0  0.00000000000E+00  0.00000000000E+00  0.10551308075E+04  0.28946671231E+04  0.26955141870E+04 0.  0.
        5    1    3    3  502    0 -0.60617977142E+03 -0.44342613533E+03 -0.67419876026E+03  0.10092802936E+04  0.46999998093E+01 0. -1.
       -5    1    3    3    0  502  0.60617977142E+03  0.44342613533E+03  0.17293295677E+04  0.18853868294E+04  0.46999998093E+01 0.  1.
</event>
<event>
 5   0  0.6600166E-05  0.2678790E+04  0.7818609E-02  0.8341920E-01
       -2   -1    0    0    0  501  0.00000000000E+00  0.00000000000E+00  0.10745333984E+04  0.10745333984E+04  0.25500000920E-02 0. -1.
        2   -1    0    0  501    0  0.00000000000E+00  0.00000000000E+00 -0.16695419623E+04  0.16695419623E+04  0.25500000920E-02 0.  1.
    10030    2    1    2    0    0  0.00000000000E+00  0.00000000000E+00 -0.59500856387E+03  0.27440753607E+04  0.26787897257E+04 0.  0.
        5    1    3    3  502    0  0.30166914821E+03 -0.33976812598E+03 -0.15881754976E+04  0.16518989544E+04  0.46999998093E+01 0.  1.
       -5    1    3    3    0  502 -0.30166914821E+03  0.33976812598E+03  0.99316693370E+03  0.10921764064E+04  0.46999998093E+01 0. -1.
</event>
<event>
 5   0  0.6600166E-05  0.2428067E+04  0.7818609E-02  0.8429070E-01
       -2   -1    0    0    0  501  0.00000000000E+00  0.00000000000E+00  0.59774896617E+03  0.59774896617E+03  0.25500000920E-02 0.  1.
        2   -1    0    0  501    0  0.00000000000E+00  0.00000000000E+00 -0.24657119452E+04  0.24657119452E+04  0.25500000920E-02 0. -1.
    10030    2    1    2    0    0  0.00000000000E+00  0.00000000000E+00 -0.18679629791E+04  0.30634609114E+04  0.24280665280E+04 0.  0.
        5    1    3    3  502    0  0.66567070264E+03  0.69697627857E+03 -0.25850445043E+01  0.96380609549E+03  0.46999998093E+01 0.  1.
       -5    1    3    3    0  502 -0.66567070264E+03 -0.69697627857E+03 -0.18653779346E+04  0.20996548159E+04  0.46999998093E+01 0. -1.
</event>
<event>
 5   0  0.6600166E-05  0.2313112E+04  0.7818609E-02  0.8472769E-01
       -2   -1    0    0    0  501  0.00000000000E+00  0.00000000000E+00  0.84738100343E+03  0.84738100343E+03  0.25500000920E-02 0.  1.
        2   -1    0    0  501    0  0.00000000000E+00  0.00000000000E+00 -0.15785358245E+04  0.15785358245E+04  0.25500000920E-02 0. -1.
    10030    2    1    2    0    0  0.00000000000E+00  0.00000000000E+00 -0.73115482110E+03  0.24259168280E+04  0.23131115589E+04 0.  0.
        5    1    3    3  502    0  0.10256797980E+04 -0.51463787333E+03 -0.51657080480E+03  0.12584667953E+04  0.46999998093E+01 0. -1.
       -5    1    3    3    0  502 -0.10256797980E+04  0.51463787333E+03 -0.21458401630E+03  0.11674500326E+04  0.46999998093E+01 0.  1.
</event>
<event>
 5   0  0.6978115E-05  0.2359998E+04  0.7818609E-02  0.8454634E-01
       -2   -1    0    0    0  501  0.00000000000E+00  0.00000000000E+00  0.53348430053E+03  0.53348430053E+03  0.25500000920E-02 0. -1.
        2   -1    0    0  501    0  0.00000000000E+00  0.00000000000E+00 -0.26100059203E+04  0.26100059203E+04  0.25500000920E-02 0.  1.
    10030    2    1    2    0    0  0.00000000000E+00  0.00000000000E+00 -0.20765216197E+04  0.31434902208E+04  0.23599976125E+04 0.  0.
        4    1    3    3  502    0  0.61572336967E+03  0.27524992125E+03  0.25144396307E+03  0.71979404455E+03  0.12699999809E+01 0. -1.
       -4    1    3    3    0  502 -0.61572336967E+03 -0.27524992125E+03 -0.23279655828E+04  0.24236961763E+04  0.12699999809E+01 0.  1.
</event>
<event>
 5   0  0.6978115E-05  0.2559614E+04  0.7818609E-02  0.8382050E-01
        2   -1    0    0  501    0  0.00000000000E+00  0.00000000000E+00  0.17045359068E+04  0.17045359068E+04  0.25500000920E-02 0. -1.
       -2   -1    0    0    0  501  0.00000000000E+00  0.00000000000E+00 -0.96090991136E+03  0.96090991136E+03  0.25500000920E-02 0.  1.
    10030    2    1    2    0    0  0.00000000000E+00  0.00000000000E+00  0.74362599548E+03  0.26654458182E+04  0.25596136014E+04 0.  0.
        4    1    3    3  502    0 -0.44071505327E+03 -0.11524547839E+04  0.72575156415E+03  0.14314673356E+04  0.12699999809E+01 0. -1.
       -4    1    3    3    0  502  0.44071505327E+03  0.11524547839E+04  0.17874431333E+02  0.12339784826E+04  0.12699999809E+01 0.  1.
</event>
<event>
 5   0  0.2847158E-05  0.2405477E+04  0.7818609E-02  0.8437456E-01
       -1   -1    0    0    0  501  0.00000000000E+00  0.00000000000E+00  0.11858807161E+04  0.11858807161E+04  0.50400001928E-02 0. -1.
        1   -1    0    0  501    0  0.00000000000E+00  0.00000000000E+00 -0.12198363252E+04  0.12198363253E+04  0.50400001928E-02 0.  1.
    10030    2    1    2    0    0  0.00000000000E+00  0.00000000000E+00 -0.33955609135E+02  0.24057170414E+04  0.24054773954E+04 0.  0.
        5    1    3    3  502    0 -0.97923742790E+03  0.56434617317E+03 -0.42831641151E+03  0.12086643793E+04  0.46999998093E+01 0.  1.
       -5    1    3    3    0  502  0.97923742790E+03 -0.56434617317E+03  0.39436080238E+03  0.11970526621E+04  0.46999998093E+01 0. -1.
</event>
<event>
 5   0  0.6714629E-05  0.2382026E+04  0.7818609E-02  0.8446263E-01
        2   -1    0    0  501    0  0.00000000000E+00  0.00000000000E+00  0.31750199616E+04  0.31750199616E+04  0.25500000920E-02 0.  1.
       -2   -1    0    0    0  501  0.00000000000E+00  0.00000000000E+00 -0.44677273954E+03  0.44677273955E+03  0.25500000920E-02 0. -1.
    10030    2    1    2    0    0  0.00000000000E+00  0.00000000000E+00  0.27282472220E+04  0.36217927011E+04  0.23820263360E+04 0.  0.
        3    1    3    3  502    0  0.33043409455E+03 -0.75938389945E+03  0.26655775207E+04  0.27912638941E+04  0.10100000352E+00 0.  1.
       -3    1    3    3    0  502 -0.33043409455E+03  0.75938389945E+03  0.62669701327E+02  0.83052880700E+03  0.10100000352E+00 0. -1.
</event>
<event>
 5   0  0.6703961E-05  0.2330085E+04  0.7818609E-02  0.8466152E-01
       -2   -1    0    0    0  501  0.00000000000E+00  0.00000000000E+00  0.13111318552E+04  0.13111318552E+04  0.25500000920E-02 0. -1.
        2   -1    0    0  501    0  0.00000000000E+00  0.00000000000E+00 -0.10352311229E+04  0.10352311229E+04  0.25500000920E-02 0.  1.
    10030    2    1    2    0    0  0.00000000000E+00  0.00000000000E+00  0.27590073229E+03  0.23463629781E+04  0.23300854085E+04 0.  0.
        2    1    3    3  502    0 -0.30361837840E+03 -0.10411922578E+04 -0.29053253346E+03  0.11227976623E+04  0.25500000920E-02 0. -1.
       -2    1    3    3    0  502  0.30361837840E+03  0.10411922578E+04  0.56643326575E+03  0.12235653158E+04  0.25500000920E-02 0.  1.
</event>
<event>
 5   0  0.2943123E-05  0.2360225E+04  0.7818609E-02  0.8454547E-01
       -1   -1    0    0    0  501  0.00000000000E+00  0.00000000000E+00  0.68822561550E+03  0.68822561552E+03  0.50400001928E-02 0. -1.
        1   -1    0    0  501    0  0.00000000000E+00  0.00000000000E+00 -0.20235589617E+04  0.20235589617E+04  0.50400001928E-02 0.  1.
    10030    2    1    2    0    0  0.00000000000E+00  0.00000000000E+00 -0.13353333462E+04  0.27117845773E+04  0.23602246605E+04 0.  0.
        1    1    3    3  502    0  0.39614728261E+03 -0.46591114140E+03  0.49195496216E+03  0.78487294897E+03  0.50400001928E-02 0. -1.
       -1    1    3    3    0  502 -0.39614728261E+03  0.46591114140E+03 -0.18272883084E+04  0.19269116283E+04  0.50400001928E-02 0.  1.
</event>
<event>
 5   0  0.6600166E-05  0.2359996E+04  0.7818609E-02  0.8454634E-01
        2   -1    0    0  501    0  0.00000000000E+00  0.00000000000E+00  0.11971851541E+04  0.11971851541E+04  0.25500000920E-02 0. -1.
       -2   -1    0    0    0  501  0.00000000000E+00  0.00000000000E+00 -0.11630580356E+04  0.11630580356E+04  0.25500000920E-02 0.  1.
    10030    2    1    2    0    0  0.00000000000E+00  0.00000000000E+00  0.34127118509E+02  0.23602431897E+04  0.23599964522E+04 0.  0.
        5    1    3    3  502    0  0.16904933323E+03 -0.68845753773E+03  0.96046609093E+03  0.11937623969E+04  0.46999998093E+01 0. -1.
       -5    1    3    3    0  502 -0.16904933323E+03  0.68845753773E+03 -0.92633897242E+03  0.11664807929E+04  0.46999998093E+01 0.  1.
</event>
<event>
 5   0  0.6703961E-05  0.2355092E+04  0.7818609E-02  0.8456510E-01
       -2   -1    0    0    0  501  0.00000000000E+00  0.00000000000E+00  0.11410520599E+04  0.11410520599E+04  0.25500000920E-02 0.  1.
        2   -1    0    0  501    0  0.00000000000E+00  0.00000000000E+00 -0.12152073127E+04  0.12152073127E+04  0.25500000920E-02 0. -1.
    10030    2    1    2    0    0  0.00000000000E+00  0.00000000000E+00 -0.74155252834E+02  0.23562593727E+04  0.23550921913E+04 0.  0.
        2    1    3    3  502    0  0.64200590807E+03  0.54207651225E+02  0.94906026666E+03  0.11470943489E+04  0.25500000920E-02 0.  1.
       -2    1    3    3    0  502 -0.64200590807E+03 -0.54207651225E+02 -0.10232155195E+04  0.12091650238E+04  0.25500000920E-02 0. -1.
</event>
<event>
 5   0  0.2943123E-05  0.2442220E+04  0.7818609E-02  0.8423864E-01
        1   -1    0    0  501    0  0.00000000000E+00  0.00000000000E+00  0.15031085727E+04  0.15031085727E+04  0.50400001928E-02 0.  1.
       -1   -1    0    0    0  501  0.00000000000E+00  0.00000000000E+00 -0.99201688293E+03  0.99201688294E+03  0.50400001928E-02 0. -1.
    10030    2    1    2    0    0  0.00000000000E+00  0.00000000000E+00  0.51109168978E+03  0.24951254557E+04  0.24422195487E+04 0.  0.
        1    1    3    3  502    0  0.62228295398E+03 -0.17266972049E+03  0.13143645038E+04  0.14644469796E+04  0.50400001928E-02 0.  1.
       -1    1    3    3    0  502 -0.62228295398E+03  0.17266972049E+03 -0.80327281404E+03  0.10306784760E+04  0.50400001928E-02 0. -1.
</event>
<event>
 5   0  0.6600166E-05  0.2389609E+04  0.7818609E-02  0.8443404E-01
        2   -1    0    0  501    0  0.00000000000E+00  0.00000000000E+00  0.12412280827E+04  0.12412280827E+04  0.25500000920E-02 0. -1.
       -2   -1    0    0    0  501  0.00000000000E+00  0.00000000000E+00 -0.11501172777E+04  0.11501172777E+04  0.25500000920E-02 0.  1.
    10030    2    1    2    0    0  0.00000000000E+00  0.00000000000E+00  0.91110805069E+02  0.23913453604E+04  0.23896090588E+04 0.  0.
        5    1    3    3  502    0 -0.11427515906E+03 -0.10217831613E+04  0.65463228583E+03  0.12188786487E+04  0.46999998093E+01 0.  1.
       -5    1    3    3    0  502  0.11427515906E+03  0.10217831613E+04 -0.56352148076E+03  0.11724667117E+04  0.46999998093E+01 0. -1.
</event>
<event>
 5   0  0.6600166E-05  0.2489368E+04  0.7818609E-02  0.8406783E-01
       -2   -1    0    0    0  501  0.00000000000E+00  0.00000000000E+00  0.12765857152E+04  0.12765857152E+04  0.25500000920E-02 0. -1.
        2   -1    0    0  501    0  0.00000000000E+00  0.00000000000E+00 -0.12135791385E+04  0.12135791385E+04  0.25500000920E-02 0.  1.
    10030    2    1    2    0    0  0.00000000000E+00  0.00000000000E+00  0.63006576739E+02  0.24901648537E+04  0.24893676245E+04 0.  0.
        5    1    3    3  502    0  0.47887400958E+03  0.12273938080E+03  0.11741608561E+04  0.12739941439E+04  0.46999998093E+01 0. -1.
       -5    1    3    3    0  502 -0.47887400958E+03 -0.12273938080E+03 -0.11111542794E+04  0.12161707098E+04  0.46999998093E+01 0.  1.
</event>
<event>
 5   0  0.6714629E-05  0.2472120E+04  0.7818609E-02  0.8412986E-01
        2   -1    0    0  501    0  0.00000000000E+00  0.00000000000E+00  0.14866805630E+04  0.14866805630E+04  0.25500000920E-02 0. -1.
       -2   -1    0    0    0  501  0.00000000000E+00  0.00000000000E+00 -0.10276881067E+04  0.10276881067E+04  0.25500000920E-02 0.  1.
    10030    2    1    2    0    0  0.00000000000E+00  0.00000000000E+00  0.45899245628E+03  0.25143686698E+04  0.24721196841E+04 0.  0.
        3    1    3    3  502    0 -0.10114103140E+03  0.76205696338E+03  0.12139657652E+04  0.14368970780E+04  0.10100000352E+00 0. -1.
       -3    1    3    3    0  502  0.10114103140E+03 -0.76205696338E+03 -0.75497330888E+03  0.10774715917E+04  0.10100000352E+00 0.  1.
</event>
<event>
 5   0  0.2915546E-05  0.2379277E+04  0.7818609E-02  0.8447303E-01
       -1   -1    0    0    0  501  0.00000000000E+00  0.00000000000E+00  0.82068757114E+03  0.82068757116E+03  0.50400001928E-02 0. -1.
        1   -1    0    0  501    0  0.00000000000E+00  0.00000000000E+00 -0.17244557401E+04  0.17244557401E+04  0.50400001928E-02 0.  1.
    10030    2    1    2    0    0  0.00000000000E+00  0.00000000000E+00 -0.90376816897E+03  0.25451433113E+04  0.23792766909E+04 0.  0.
        2    1    3    3  502    0 -0.29518608453E+03 -0.11318984547E+04 -0.22019684157E+03  0.11903006282E+04  0.25500000920E-02 0. -1.
       -2    1    3    3    0  502  0.29518608453E+03  0.11318984547E+04 -0.68357132740E+03  0.13548426831E+04  0.25500000920E-02 0.  1.
</event>
<event>
 5   0  0.2847158E-05  0.2540618E+04  0.7818609E-02  0.8388656E-01
        1   -1    0    0  501    0  0.00000000000E+00  0.00000000000E+00  0.24018172740E+04  0.24018172740E+04  0.50400001928E-02 0.  1.
       -1   -1    0    0    0  501  0.00000000000E+00  0.00000000000E+00 -0.67186024461E+03  0.67186024463E+03  0.50400001928E-02 0. -1.
    10030    2    1    2    0    0  0.00000000000E+00  0.00000000000E+00  0.17299570294E+04  0.30736775186E+04  0.25406184611E+04 0.  0.
        5    1    3    3  502    0  0.94032775711E+03  0.15906000487E+02  0.18980739482E+04  0.21182955635E+04  0.46999998093E+01 0.  1.
       -5    1    3    3    0  502 -0.94032775711E+03 -0.15906000487E+02 -0.16811691886E+03  0.95538195505E+03  0.46999998093E+01 0. -1.
</event>
<event>
 5   0  0.6703961E-05  0.2403374E+04  0.7818609E-02  0.8438242E-01
        2   -1    0    0  501    0  0.00000000000E+00  0.00000000000E+00  0.90711092239E+03  0.90711092239E+03  0.25500000920E-02 0. -1.
       -2   -1    0    0    0  501  0.00000000000E+00  0.00000000000E+00 -0.15919238236E+04  0.15919238236E+04  0.25500000920E-02 0.  1.
    10030    2    1    2    0    0  0.00000000000E+00  0.00000000000E+00 -0.68481290119E+03  0.24990347460E+04  0.24033738685E+04 0.  0.
        2    1    3    3  502    0 -0.10104673397E+03 -0.54289714541E+03 -0.14521754721E+04  0.15536284481E+04  0.25500000920E-02 0.  1.
       -2    1    3    3    0  502  0.10104673397E+03  0.54289714541E+03  0.76736257088E+03  0.94540629791E+03  0.25500000920E-02 0. -1.
</event>
<event>
 5   0  0.6337926E-05  0.2432819E+04  0.7818609E-02  0.8427318E-01
       -2   -1    0    0    0  501  0.00000000000E+00  0.00000000000E+00  0.11576425637E+04  0.11576425637E+04  0.25500000920E-02 0.  1.
        2   -1    0    0  501    0  0.00000000000E+00  0.00000000000E+00 -0.12781597942E+04  0.12781597942E+04  0.25500000920E-02 0. -1.
    10030    2    1    2    0    0  0.00000000000E+00  0.00000000000E+00 -0.12051723053E+03  0.24358023579E+04  0.24328190899E+04 0.  0.
        1    1    3    3  502    0 -0.45186864060E+02  0.11563918753E+04  0.31485820087E+03  0.11993413645E+04  0.50400001928E-02 0.  1.
       -1    1    3    3    0  502  0.45186864060E+02 -0.11563918753E+04 -0.43537543140E+03  0.12364609934E+04  0.50400001928E-02 0. -1.
</event>
<event>
 5   0  0.2915546E-05  0.2383382E+04  0.7818609E-02  0.8445751E-01
        1   -1    0    0  501    0  0.00000000000E+00  0.00000000000E+00  0.11484865382E+04  0.11484865382E+04  0.50400001928E-02 0.  1.
       -1   -1    0    0    0  501  0.00000000000E+00  0.00000000000E+00 -0.12365210304E+04  0.12365210304E+04  0.50400001928E-02 0. -1.
    10030    2    1    2    0    0  0.00000000000E+00  0.00000000000E+00 -0.88034492233E+02  0.23850075687E+04  0.23833822670E+04 0.  0.
        2    1    3    3  502    0 -0.20706323221E+02 -0.96594604192E+03  0.65405953742E+03  0.11667366396E+04  0.25500000920E-02 0.  1.
       -2    1    3    3    0  502  0.20706323221E+02  0.96594604192E+03 -0.74209402965E+03  0.12182709291E+04  0.25500000920E-02 0. -1.
</event>
<event>
 5   0  0.2943244E-05  0.2484574E+04  0.7818609E-02  0.8408502E-01
        1   -1    0    0  501    0  0.00000000000E+00  0.00000000000E+00  0.16530134861E+04  0.16530134861E+04  0.50400001928E-02 0.  1.
       -1   -1    0    0    0  501  0.00000000000E+00  0.00000000000E+00 -0.93361412138E+03  0.93361412140E+03  0.50400001928E-02 0. -1.
    10030    2    1    2    0    0  0.00000000000E+00  0.00000000000E+00  0.71939936468E+03  0.25866276075E+04  0.24845737932E+04 0.  0.
        3    1    3    3  502    0 -0.12363459340E+04 -0.14681493257E+02  0.48510453608E+03  0.13281917165E+04  0.10100000352E+00 0. -1.
       -3    1    3    3    0  502  0.12363459340E+04  0.14681493257E+02  0.23429482861E+03  0.12584358910E+04  0.10100000352E+00 0.  1.
</event>
<event>
 5   0  0.6703961E-05  0.2389245E+04  0.7818609E-02  0.8443541E-01
       -2   -1    0    0    0  501  0.00000000000E+00  0.00000000000E+00  0.72738658851E+03  0.72738658851E+03  0.25500000920E-02 0.  1.
        2   -1    0    0  501    0  0.00000000000E+00  0.00000000000E+00 -0.19619874353E+04  0.19619874353E+04  0.25500000920E-02 0. -1.
    10030    2    1    2    0    0  0.00000000000E+00  0.00000000000E+00 -0.12346008468E+04  0.26893740238E+04  0.23892453597E+04 0.  0.
        2    1    3    3  502    0 -0.69509854001E+03 -0.56952005491E+03 -0.15033317127E+04  0.17514340729E+04  0.25500000920E-02 0. -1.
       -2    1    3    3    0  502  0.69509854001E+03  0.56952005491E+03  0.26873086589E+03  0.93793995093E+03  0.25500000920E-02 0.  1.
</event>
<event>
 5   0  0.2943123E-05  0.2400727E+04  0.7818609E-02  0.8439231E-01
        1   -1    0    0  501    0  0.00000000000E+00  0.00000000000E+00  0.12257264578E+04  0.12257264578E+04  0.50400001928E-02 0. -1.
       -1   -1    0    0    0  501  0.00000000000E+00  0.00000000000E+00 -0.11755257960E+04  0.11755257960E+04  0.50400001928E-02 0.  1.
    10030    2    1    2    0    0  0.00000000000E+00  0.00000000000E+00  0.50200661793E+02  0.24012522538E+04  0.24007274481E+04 0.  0.
        1    1    3    3  502    0 -0.32602390663E+03  0.55569368300E+03 -0.98793201870E+03  0.11794476379E+04  0.50400001928E-02 0.  1.
       -1    1    3    3    0  502  0.32602390663E+03 -0.55569368300E+03  0.10381326805E+04  0.12218046159E+04  0.50400001928E-02 0. -1.
</event>
<event>
 5   0  0.2943123E-05  0.2394779E+04  0.7818609E-02  0.8441461E-01
       -1   -1    0    0    0  501  0.00000000000E+00  0.00000000000E+00  0.65743803522E+03  0.65743803524E+03  0.50400001928E-02 0. -1.
        1   -1    0    0  501    0  0.00000000000E+00  0.00000000000E+00 -0.21808002466E+04  0.21808002466E+04  0.50400001928E-02 0.  1.
    10030    2    1    2    0    0  0.00000000000E+00  0.00000000000E+00 -0.15233622114E+04  0.28382382818E+04  0.23947785111E+04 0.  0.
        1    1    3    3  502    0 -0.92732486566E+03  0.74343624106E+03 -0.93388779760E+03  0.15115473097E+04  0.50400001928E-02 0.  1.
       -1    1    3    3    0  502  0.92732486566E+03 -0.74343624106E+03 -0.58947441378E+03  0.13266909721E+04  0.50400001928E-02 0. -1.
</event>
<event>
 5   0  0.2915546E-05  0.2388008E+04  0.7818609E-02  0.8444007E-01
       -1   -1    0    0    0  501  0.00000000000E+00  0.00000000000E+00  0.87933142511E+03  0.87933142513E+03  0.50400001928E-02 0. -1.
        1   -1    0    0  501    0  0.00000000000E+00  0.00000000000E+00 -0.16212830766E+04  0.16212830766E+04  0.50400001928E-02 0.  1.
    10030    2    1    2    0    0  0.00000000000E+00  0.00000000000E+00 -0.74195165144E+03  0.25006145017E+04  0.23880076702E+04 0.  0.
        2    1    3    3  502    0  0.19531994541E+03  0.53631430946E+03 -0.14691726257E+04  0.15761507301E+04  0.25500000920E-02 0.  1.
       -2    1    3    3    0  502 -0.19531994541E+03 -0.53631430946E+03  0.72722097430E+03  0.92446377164E+03  0.25500000920E-02 0. -1.
</event>
<event>
 5   0  0.6978115E-05  0.2409162E+04  0.7818609E-02  0.8436081E-01
        2   -1    0    0  501    0  0.00000000000E+00  0.00000000000E+00  0.16701711684E+04  0.16701711684E+04  0.25500000920E-02 0. -1.
       -2   -1    0    0    0  501  0.00000000000E+00  0.00000000000E+00 -0.86878265796E+03  0.86878265797E+03  0.25500000920E-02 0.  1.
    10030    2    1    2    0    0  0.00000000000E+00  0.00000000000E+00  0.80138851041E+03  0.25389538263E+04  0.24091623000E+04 0.  0.
        4    1    3    3  502    0 -0.88738276983E+02 -0.47070242853E+03 -0.76410075476E+03  0.90182417042E+03  0.12699999809E+01 0.  1.
       -4    1    3    3    0  502  0.88738276983E+02  0.47070242853E+03  0.15654892652E+04  0.16371296559E+04  0.12699999809E+01 0. -1.
</event>
<event>
 5   0  0.6600166E-05  0.2417797E+04  0.7818609E-02  0.8432871E-01
       -2   -1    0    0    0  501  0.00000000000E+00  0.00000000000E+00  0.88123052917E+03  0.88123052917E+03  0.25500000920E-02 0.  1.
        2   -1    0    0  501    0  0.00000000000E+00  0.00000000000E+00 -0.16584027760E+04  0.16584027760E+04  0.25500000920E-02 0. -1.
    10030    2    1    2    0    0  0.00000000000E+00  0.00000000000E+00 -0.77717224682E+03  0.25396333052E+04  0.24177966464E+04 0.  0.
        5    1    3    3  502    0 -0.95332280825E+03  0.15298116806E+03  0.37552265820E+03  0.10359859899E+04  0.46999998093E+01 0.  1.
       -5    1    3    3    0  502  0.95332280825E+03 -0.15298116806E+03 -0.11526949050E+04  0.15036473152E+04  0.46999998093E+01 0. -1.
</event>
<event>
 5   0  0.6978115E-05  0.2429775E+04  0.7818609E-02  0.8428440E-01
        2   -1    0    0  501    0  0.00000000000E+00  0.00000000000E+00  0.21369199463E+04  0.21369199463E+04  0.25500000920E-02 0. -1.
       -2   -1    0    0    0  501  0.00000000000E+00  0.00000000000E+00 -0.69069084294E+03  0.69069084294E+03  0.25500000920E-02 0.  1.
    10030    2    1    2    0    0  0.00000000000E+00  0.00000000000E+00  0.14462291034E+04  0.28276107893E+04  0.24297745073E+04 0.  0.
        4    1    3    3  502    0 -0.11310789553E+04  0.42527845884E+03  0.86915297208E+03  0.14884992014E+04  0.12699999809E+01 0. -1.
       -4    1    3    3    0  502  0.11310789553E+04 -0.42527845884E+03  0.57707613132E+03  0.13391115879E+04  0.12699999809E+01 0.  1.
</event>
<event>
 5   0  0.6337926E-05  0.2403452E+04  0.7818609E-02  0.8438212E-01
       -2   -1    0    0    0  501  0.00000000000E+00  0.00000000000E+00  0.16147722384E+04  0.16147722384E+04  0.25500000920E-02 0. -1.
        2   -1    0    0  501    0  0.00000000000E+00  0.00000000000E+00 -0.89433348953E+03  0.89433348953E+03  0.25500000920E-02 0.  1.
    10030    2    1    2    0    0  0.00000000000E+00  0.00000000000E+00  0.72043874889E+03  0.25091057280E+04  0.24034515937E+04 0.  0.
        1    1    3    3  502    0 -0.71021855067E+03 -0.37407773884E+03 -0.57340971793E+03  0.98648023247E+03  0.50400001928E-02 0.  1.
       -1    1    3    3    0  502  0.71021855067E+03  0.37407773884E+03  0.12938484668E+04  0.15226254955E+04  0.50400001928E-02 0. -1.
</event>
<event>
 5   0  0.6600166E-05  0.2406923E+04  0.7818609E-02  0.8436916E-01
       -2   -1    0    0    0  501  0.00000000000E+00  0.00000000000E+00  0.76820225987E+03  0.76820225988E+03  0.25500000920E-02 0.  1.
        2   -1    0    0  501    0  0.00000000000E+00  0.00000000000E+00 -0.18853360067E+04  0.18853360067E+04  0.25500000920E-02 0. -1.
    10030    2    1    2    0    0  0.00000000000E+00  0.00000000000E+00 -0.11171337468E+04  0.26535382666E+04  0.24069228330E+04 0.  0.
        5    1    3    3  502    0  0.34462151473E+03  0.38874604256E+03 -0.17553387198E+04  0.18306074362E+04  0.46999998093E+01 0. -1.
       -5    1    3    3    0  502 -0.34462151473E+03 -0.38874604256E+03  0.63820497302E+03  0.82293083039E+03  0.46999998093E+01 0.  1.
</event>
<event>
 5   0  0.6714629E-05  0.1951815E+04  0.7818609E-02  0.8629486E-01
       -2   -1    0    0    0  501  0.00000000000E+00  0.00000000000E+00  0.41242375487E+03  0.41242375488E+03  0.25500000920E-02 0.  1.
        2   -1    0    0  501    0  0.00000000000E+00  0.00000000000E+00 -0.23092647676E+04  0.23092647676E+04  0.25500000920E-02 0. -1.
    10030    2    1    2    0    0  0.00000000000E+00  0.00000000000E+00 -0.18968410128E+04  0.27216885225E+04  0.19518152028E+04 0.  0.
        3    1    3    3  502    0 -0.42470582591E+03 -0.70075135117E+03 -0.16875631601E+04  0.18759789243E+04  0.10100000352E+00 0. -1.
       -3    1    3    3    0  502  0.42470582591E+03  0.70075135117E+03 -0.20927785264E+03  0.84570959823E+03  0.10100000352E+00 0.  1.
</event>
<event>
 5   0  0.6978115E-05  0.2388989E+04  0.7818609E-02  0.8443637E-01
       -2   -1    0    0    0  501  0.00000000000E+00  0.00000000000E+00  0.10101549206E+04  0.10101549206E+04  0.25500000920E-02 0.  1.
        2   -1    0    0  501    0  0.00000000000E+00  0.00000000000E+00 -0.14124735329E+04  0.14124735329E+04  0.25500000920E-02 0. -1.
    10030    2    1    2    0    0  0.00000000000E+00  0.00000000000E+00 -0.40231861231E+03  0.24226284535E+04  0.23889889823E+04 0.  0.
        4    1    3    3  502    0  0.67854899920E+02 -0.11911327631E+04 -0.14190772339E+03  0.12014744948E+04  0.12699999809E+01 0.  1.
       -4    1    3    3    0  502 -0.67854899920E+02  0.11911327631E+04 -0.26041088892E+03  0.12211539587E+04  0.12699999809E+01 0. -1.
</event>
<event>
 5   0  0.2943244E-05  0.2289037E+04  0.7818609E-02  0.8482256E-01
       -1   -1    0    0    0  501  0.00000000000E+00  0.00000000000E+00  0.67674292053E+03  0.67674292055E+03  0.50400001928E-02 0. -1.
        1   -1    0    0  501    0  0.00000000000E+00  0.00000000000E+00 -0.19356277487E+04  0.19356277487E+04  0.50400001928E-02 0.  1.
    10030    2    1    2    0    0  0.00000000000E+00  0.00000000000E+00 -0.12588848281E+04  0.26123706692E+04  0.22890368068E+04 0.  0.
        3    1    3    3  502    0 -0.26843843903E+03 -0.20422241613E+03  0.61873408851E+03  0.70469700814E+03  0.10100000352E+00 0. -1.
       -3    1    3    3    0  502  0.26843843903E+03  0.20422241613E+03 -0.18776189167E+04  0.19076736611E+04  0.10100000352E+00 0.  1.
</event>
<event>
 5   0  0.2915546E-05  0.2304157E+04  0.7818609E-02  0.8476284E-01
       -1   -1    0    0    0  501  0.00000000000E+00  0.00000000000E+00  0.74706163261E+03  0.74706163262E+03  0.50400001928E-02 0.  1.
        1   -1    0    0  501    0  0.00000000000E+00  0.00000000000E+00 -0.17766743796E+04  0.17766743796E+04  0.50400001928E-02 0. -1.
    10030    2    1    2    0    0  0.00000000000E+00  0.00000000000E+00 -0.10296127470E+04  0.25237360123E+04  0.23041573407E+04 0.  0.
        2    1    3    3  502    0 -0.47220644157E+03 -0.10498149916E+04 -0.56611985875E+03  0.12828024534E+04  0.25500000920E-02 0.  1.
       -2    1    3    3    0  502  0.47220644157E+03  0.10498149916E+04 -0.46349288829E+03  0.12409335589E+04  0.25500000920E-02 0. -1.
</event>
<event>
 5   0  0.2943244E-05  0.2452996E+04  0.7818609E-02  0.8419925E-01
        1   -1    0    0  501    0  0.00000000000E+00  0.00000000000E+00  0.11372529615E+04  0.11372529615E+04  0.50400001928E-02 0.  1.
       -1   -1    0    0    0  501  0.00000000000E+00  0.00000000000E+00 -0.13227461472E+04  0.13227461472E+04  0.50400001928E-02 0. -1.
    10030    2    1    2    0    0  0.00000000000E+00  0.00000000000E+00 -0.18549318571E+03  0.24599991087E+04  0.24529956977E+04 0.  0.
        3    1    3    3  502    0 -0.82616838817E+03  0.65157177575E+03 -0.72478159660E+03  0.12776573710E+04  0.10100000352E+00 0. -1.
       -3    1    3    3    0  502  0.82616838817E+03 -0.65157177575E+03  0.53928841089E+03  0.11823417378E+04  0.10100000352E+00 0.  1.
</event>
<event>
 5   0  0.6978115E-05  0.2361261E+04  0.7818609E-02  0.8454151E-01
       -2   -1    0    0    0  501  0.00000000000E+00  0.00000000000E+00  0.72010014817E+03  0.72010014817E+03  0.25500000920E-02 0.  1.
        2   -1    0    0  501    0  0.00000000000E+00  0.00000000000E+00 -0.19356862752E+04  0.19356862752E+04  0.25500000920E-02 0. -1.
    10030    2    1    2    0    0  0.00000000000E+00  0.00000000000E+00 -0.12155861270E+04  0.26557864234E+04  0.23612606578E+04 0.  0.
        4    1    3    3  502    0 -0.10324854610E+04  0.46699634267E+03 -0.98044213778E+03  0.14984592786E+04  0.12699999809E+01 0. -1.
       -4    1    3    3    0  502  0.10324854610E+04 -0.46699634267E+03 -0.23514398923E+03  0.11573271447E+04  0.12699999809E+01 0.  1.
</event>
<event>
 5   0  0.2943123E-05  0.2379863E+04  0.7818609E-02  0.8447081E-01
       -1   -1    0    0    0  501  0.00000000000E+00  0.00000000000E+00  0.94010135794E+03  0.94010135795E+03  0.50400001928E-02 0. -1.
        1   -1    0    0  501    0  0.00000000000E+00  0.00000000000E+00 -0.15061536434E+04  0.15061536434E+04  0.50400001928E-02 0.  1.
    10030    2    1    2    0    0  0.00000000000E+00  0.00000000000E+00 -0.56605228543E+03  0.24462550013E+04  0.23798630931E+04 0.  0.
        1    1    3    3  502    0 -0.80959569746E+03  0.86720889586E+03 -0.37746201665E+03  0.12449795325E+04  0.50400001928E-02 0.  1.
       -1    1    3    3    0  502  0.80959569746E+03 -0.86720889586E+03 -0.18859026878E+03  0.12012754688E+04  0.50400001928E-02 0. -1.
</event>
<event>
 5   0  0.2847158E-05  0.2063705E+04  0.7818609E-02  0.8577402E-01
        1   -1    0    0  501    0  0.00000000000E+00  0.00000000000E+00  0.62143040141E+03  0.62143040143E+03  0.50400001928E-02 0. -1.
       -1   -1    0    0    0  501  0.00000000000E+00  0.00000000000E+00 -0.17133374187E+04  0.17133374187E+04  0.50400001928E-02 0.  1.
    10030    2    1    2    0    0  0.00000000000E+00  0.00000000000E+00 -0.10919070173E+04  0.23347678202E+04  0.20637053665E+04 0.  0.
        5    1    3    3  502    0 -0.39148179456E+03  0.83399152439E+03 -0.10716321439E+04  0.14132294223E+04  0.46999998093E+01 0.  1.
       -5    1    3    3    0  502  0.39148179456E+03 -0.83399152439E+03 -0.20274873402E+02  0.92153839785E+03  0.46999998093E+01 0. -1.
</event>
<event>
 5   0  0.2943123E-05  0.2350167E+04  0.7818609E-02  0.8458400E-01
       -1   -1    0    0    0  501  0.00000000000E+00  0.00000000000E+00  0.15990328652E+04  0.15990328652E+04  0.50400001928E-02 0. -1.
        1   -1    0    0  501    0  0.00000000000E+00  0.00000000000E+00 -0.86353492994E+03  0.86353492995E+03  0.50400001928E-02 0.  1.
    10030    2    1    2    0    0  0.00000000000E+00  0.00000000000E+00  0.73549793529E+03  0.24625677952E+04  0.23501665756E+04 0.  0.
        1    1    3    3  502    0  0.70498141999E+03 -0.17939396266E+03  0.13347290056E+04  0.15200929297E+04  0.50400001928E-02 0. -1.
       -1    1    3    3    0  502 -0.70498141999E+03  0.17939396266E+03 -0.59923107036E+03  0.94247486549E+03  0.50400001928E-02 0.  1.
</event>
<event>
 5   0  0.2915546E-05  0.2339884E+04  0.7818609E-02  0.8462359E-01
        1   -1    0    0  501    0  0.00000000000E+00  0.00000000000E+00  0.19340421051E+04  0.19340421051E+04  0.50400001928E-02 0.  1.
       -1   -1    0    0    0  501  0.00000000000E+00  0.00000000000E+00 -0.70772224633E+03  0.70772224635E+03  0.50400001928E-02 0. -1.
    10030    2    1    2    0    0  0.00000000000E+00  0.00000000000E+00  0.12263198587E+04  0.26417643514E+04  0.23398842904E+04 0.  0.
        2    1    3    3  502    0 -0.31307713427E+03 -0.85480423954E+02  0.18822050936E+04  0.19099791123E+04  0.25500000920E-02 0.  1.
       -2    1    3    3    0  502  0.31307713427E+03  0.85480423954E+02 -0.65588523489E+03  0.73178523914E+03  0.25500000920E-02 0. -1.
</event>
<event>
 5   0  0.6600166E-05  0.2429870E+04  0.7818609E-02  0.8428405E-01
       -2   -1    0    0    0  501  0.00000000000E+00  0.00000000000E+00  0.17368059307E+04  0.17368059307E+04  0.25500000920E-02 0.  1.
        2   -1    0    0  501    0  0.00000000000E+00  0.00000000000E+00 -0.84987444048E+03  0.84987444048E+03  0.25500000920E-02 0. -1.
    10030    2    1    2    0    0  0.00000000000E+00  0.00000000000E+00  0.88693149021E+03  0.25866803712E+04  0.24298699295E+04 0.  0.
        5    1    3    3  502    0  0.44640040428E+03 -0.24958154673E+03  0.16166197661E+04  0.16955960096E+04  0.46999998093E+01 0.  1.
       -5    1    3    3    0  502 -0.44640040428E+03  0.24958154673E+03 -0.72968827594E+03  0.89108436158E+03  0.46999998093E+01 0. -1.
</event>
<event>
 5   0  0.6978115E-05  0.2294887E+04  0.7818609E-02  0.8479940E-01
       -2   -1    0    0    0  501  0.00000000000E+00  0.00000000000E+00  0.82880787592E+03  0.82880787593E+03  0.25500000920E-02 0.  1.
        2   -1    0    0  501    0  0.00000000000E+00  0.00000000000E+00 -0.15885789658E+04  0.15885789658E+04  0.25500000920E-02 0. -1.
    10030    2    1    2    0    0  0.00000000000E+00  0.00000000000E+00 -0.75977108990E+03  0.24173868418E+04  0.22948871505E+04 0.  0.
        4    1    3    3  502    0  0.19645719815E+03  0.11238810859E+04 -0.50855754982E+03  0.12491343084E+04  0.12699999809E+01 0. -1.
       -4    1    3    3    0  502 -0.19645719815E+03 -0.11238810859E+04 -0.25121354008E+03  0.11682525333E+04  0.12699999809E+01 0.  1.
</event>
<event>
 5   0  0.2943244E-05  0.2339060E+04  0.7818609E-02  0.8462678E-01
        1   -1    0    0  501    0  0.00000000000E+00  0.00000000000E+00  0.15114592666E+04  0.15114592666E+04  0.50400001928E-02 0.  1.
       -1   -1    0    0    0  501  0.00000000000E+00  0.00000000000E+00 -0.90495337022E+03  0.90495337023E+03  0.50400001928E-02 0. -1.
    10030    2    1    2    0    0  0.00000000000E+00  0.00000000000E+00  0.60650589639E+03  0.24164126368E+04  0.23390597746E+04 0.  0.
        3    1    3    3  502    0  0.71443408927E+03 -0.92594781056E+03  0.30100586050E+03  0.12076423121E+04  0.10100000352E+00 0.  1.
       -3    1    3    3    0  502 -0.71443408927E+03  0.92594781056E+03  0.30550003588E+03  0.12087703247E+04  0.10100000352E+00 0. -1.
</event>
<event>
 5   0  0.2915546E-05  0.2493068E+04  0.7818609E-02  0.8405459E-01
        1   -1    0    0  501    0  0.00000000000E+00  0.00000000000E+00  0.16612695016E+04  0.16612695016E+04  0.50400001928E-02 0. -1.
       -1   -1    0    0    0  501  0.00000000000E+00  0.00000000000E+00 -0.93533732147E+03  0.93533732149E+03  0.50400001928E-02 0.  1.
    10030    2    1    2    0    0  0.00000000000E+00  0.00000000000E+00  0.72593218008E+03  0.25966068230E+04  0.24930682829E+04 0.  0.
        2    1    3    3  502    0 -0.20637055762E+03 -0.84428353697E+02 -0.91439818713E+03  0.94119126568E+03  0.25500000920E-02 0.  1.
       -2    1    3    3    0  502  0.20637055762E+03  0.84428353697E+02  0.16403303672E+04  0.16554155574E+04  0.25500000920E-02 0. -1.
</event>
<event>
 5   0  0.6978115E-05  0.2401146E+04  0.7818609E-02  0.8439075E-01
        2   -1    0    0  501    0  0.00000000000E+00  0.00000000000E+00  0.10823689008E+04  0.10823689008E+04  0.25500000920E-02 0. -1.
       -2   -1    0    0    0  501  0.00000000000E+00  0.00000000000E+00 -0.13316855589E+04  0.13316855589E+04  0.25500000920E-02 0.  1.
    10030    2    1    2    0    0  0.00000000000E+00  0.00000000000E+00 -0.24931665812E+03  0.24140544597E+04  0.24011455887E+04 0.  0.
        4    1    3    3  502    0 -0.10876233311E+04  0.31974129648E+03 -0.52202288156E+03  0.12480659073E+04  0.12699999809E+01 0. -1.
       -4    1    3    3    0  502  0.10876233311E+04 -0.31974129648E+03  0.27270622344E+03  0.11659885524E+04  0.12699999809E+01 0.  1.
</event>
<event>
 5   0  0.2943123E-05  0.2409612E+04  0.7818609E-02  0.8435914E-01
        1   -1    0    0  501    0  0.00000000000E+00  0.00000000000E+00  0.12984404675E+04  0.12984404676E+04  0.50400001928E-02 0. -1.
       -1   -1    0    0    0  501  0.00000000000E+00  0.00000000000E+00 -0.11179240696E+04  0.11179240696E+04  0.50400001928E-02 0.  1.
    10030    2    1    2    0    0  0.00000000000E+00  0.00000000000E+00  0.18051639797E+03  0.24163645371E+04  0.24096122938E+04 0.  0.
        1    1    3    3  502    0  0.16135472752E+03  0.52412342710E+03  0.11660257572E+04  0.12885483233E+04  0.50400001928E-02 0. -1.
       -1    1    3    3    0  502 -0.16135472752E+03 -0.52412342710E+03 -0.98550935927E+03  0.11278162138E+04  0.50400001928E-02 0.  1.
</event>
<event>
 5   0  0.6337926E-05  0.2401792E+04  0.7818609E-02  0.8438833E-01
        2   -1    0    0  501    0  0.00000000000E+00  0.00000000000E+00  0.16156237104E+04  0.16156237104E+04  0.25500000920E-02 0.  1.
       -2   -1    0    0    0  501  0.00000000000E+00  0.00000000000E+00 -0.89262816775E+03  0.89262816775E+03  0.25500000920E-02 0. -1.
    10030    2    1    2    0    0  0.00000000000E+00  0.00000000000E+00  0.72299554261E+03  0.25082518781E+04  0.24017920246E+04 0.  0.
        1    1    3    3  502    0 -0.84391785624E+03  0.69590475295E+03 -0.15612362079E+03  0.11049232364E+04  0.50400001928E-02 0. -1.
       -1    1    3    3    0  502  0.84391785624E+03 -0.69590475295E+03  0.87911916340E+03  0.14033286418E+04  0.50400001928E-02 0.  1.
</event>
<event>
 5   0  0.2943123E-05  0.2423823E+04  0.7818609E-02  0.8430638E-01
        1   -1    0    0  501    0  0.00000000000E+00  0.00000000000E+00  0.17860914057E+04  0.17860914057E+04  0.50400001928E-02 0. -1.
       -1   -1    0    0    0  501  0.00000000000E+00  0.00000000000E+00 -0.82231487539E+03  0.82231487540E+03  0.50400001928E-02 0.  1.
    10030    2    1    2    0    0  0.00000000000E+00  0.00000000000E+00  0.96377653031E+03  0.26084062811E+04  0.24238230395E+04 0.  0.
        1    1    3    3  502    0 -0.19965540020E+03 -0.11337561456E+04  0.74276996267E+02  0.11535954008E+04  0.50400001928E-02 0.  1.
       -1    1    3    3    0  502  0.19965540020E+03  0.11337561456E+04  0.88949953404E+03  0.14548108803E+04  0.50400001928E-02 0. -1.
</event>
<event>
 5   0  0.2943123E-05  0.2360137E+04  0.7818609E-02  0.8454580E-01
       -1   -1    0    0    0  501  0.00000000000E+00  0.00000000000E+00  0.14626158773E+04  0.14626158773E+04  0.50400001928E-02 0. -1.
        1   -1    0    0  501    0  0.00000000000E+00  0.00000000000E+00 -0.95210382389E+03  0.95210382390E+03  0.50400001928E-02 0.  1.
    10030    2    1    2    0    0  0.00000000000E+00  0.00000000000E+00  0.51051205341E+03  0.24147197012E+04  0.23601374279E+04 0.  0.
        1    1    3    3  502    0 -0.68495416368E+03  0.17738488781E+03 -0.71100826497E+03  0.10030754496E+04  0.50400001928E-02 0.  1.
       -1    1    3    3    0  502  0.68495416368E+03 -0.17738488781E+03  0.12215203184E+04  0.14116442516E+04  0.50400001928E-02 0. -1.
</event>
<event>
 5   0  0.6714629E-05  0.2407206E+04  0.7818609E-02  0.8436811E-01
       -2   -1    0    0    0  501  0.00000000000E+00  0.00000000000E+00  0.11598090088E+04  0.11598090088E+04  0.25500000920E-02 0. -1.
        2   -1    0    0  501    0  0.00000000000E+00  0.00000000000E+00 -0.12490508926E+04  0.12490508926E+04  0.25500000920E-02 0.  1.
    10030    2    1    2    0    0  0.00000000000E+00  0.00000000000E+00 -0.89241883793E+02  0.24088599014E+04  0.24072062460E+04 0.  0.
        3    1    3    3  502    0  0.58872899537E+03  0.10477759668E+04 -0.10965913547E+03  0.12068394436E+04  0.10100000352E+00 0. -1.
       -3    1    3    3    0  502 -0.58872899537E+03 -0.10477759668E+04  0.20417251677E+02  0.12020204578E+04  0.10100000352E+00 0.  1.
</event>
<event>
 5   0  0.2847158E-05  0.2355593E+04  0.7818609E-02  0.8456318E-01
       -1   -1    0    0    0  501  0.00000000000E+00  0.00000000000E+00  0.78352648903E+03  0.78352648905E+03  0.50400001928E-02 0. -1.
        1   -1    0    0  501    0  0.00000000000E+00  0.00000000000E+00 -0.17704634622E+04  0.17704634622E+04  0.50400001928E-02 0.  1.
    10030    2    1    2    0    0  0.00000000000E+00  0.00000000000E+00 -0.98693697320E+03  0.25539899513E+04  0.23555933610E+04 0.  0.
        5    1    3    3  502    0  0.30152046100E+01 -0.90473512054E+03 -0.13110537592E+04  0.15929340160E+04  0.46999998093E+01 0.  1.
       -5    1    3    3    0  502 -0.30152046100E+01  0.90473512054E+03  0.32411678599E+03  0.96105593529E+03  0.46999998093E+01 0. -1.
</event>
<event>
 5   0  0.6714629E-05  0.2395759E+04  0.7818609E-02  0.8441093E-01
        2   -1    0    0  501    0  0.00000000000E+00  0.00000000000E+00  0.19604837176E+04  0.19604837176E+04  0.25500000920E-02 0. -1.
       -2   -1    0    0    0  501  0.00000000000E+00  0.00000000000E+00 -0.73191879435E+03  0.73191879436E+03  0.25500000920E-02 0.  1.
    10030    2    1    2    0    0  0.00000000000E+00  0.00000000000E+00  0.12285649232E+04  0.26924025119E+04  0.23957586514E+04 0.  0.
        3    1    3    3  502    0  0.81444417005E+03 -0.76128790590E+03  0.11067624320E+04  0.15709238278E+04  0.10100000352E+00 0. -1.
       -3    1    3    3    0  502 -0.81444417005E+03  0.76128790590E+03  0.12180249122E+03  0.11214786841E+04  0.10100000352E+00 0.  1.
</event>
<event>
 5   0  0.6978115E-05  0.2371788E+04  0.7818609E-02  0.8450142E-01
        2   -1    0    0  501    0  0.00000000000E+00  0.00000000000E+00  0.15222199989E+04  0.15222199989E+04  0.25500000920E-02 0. -1.
       -2   -1    0    0    0  501  0.00000000000E+00  0.00000000000E+00 -0.92387699469E+03  0.92387699469E+03  0.25500000920E-02 0.  1.
    10030    2    1    2    0    0  0.00000000000E+00  0.00000000000E+00  0.59834300423E+03  0.24460969936E+04  0.23717875435E+04 0.  0.
        4    1    3    3  502    0  0.89445016953E+03 -0.34206262720E+02 -0.50310242960E+03  0.10268032147E+04  0.12699999809E+01 0.  1.
       -4    1    3    3    0  502 -0.89445016953E+03  0.34206262720E+02  0.11014454338E+04  0.14192937789E+04  0.12699999809E+01 0. -1.
</event>
<event>
 5   0  0.6714629E-05  0.2417555E+04  0.7818609E-02  0.8432960E-01
        2   -1    0    0  501    0  0.00000000000E+00  0.00000000000E+00  0.17916990259E+04  0.17916990259E+04  0.25500000920E-02 0.  1.
       -2   -1    0    0    0  501  0.00000000000E+00  0.00000000000E+00 -0.81550718620E+03  0.81550718620E+03  0.25500000920E-02 0. -1.
    10030    2    1    2    0    0  0.00000000000E+00  0.00000000000E+00  0.97619183969E+03  0.26072062121E+04  0.24175553198E+04 0.  0.
        3    1    3    3  502    0 -0.41485608679E+03  0.10137905739E+04 -0.63144230180E+02  0.10972074118E+04  0.10100000352E+00 0. -1.
       -3    1    3    3    0  502  0.41485608679E+03 -0.10137905739E+04  0.10393360699E+04  0.15099988003E+04  0.10100000352E+00 0.  1.
</event>
<event>
 5   0  0.6337926E-05  0.2396680E+04  0.7818609E-02  0.8440748E-01
       -2   -1    0    0    0  501  0.00000000000E+00  0.00000000000E+00  0.71120255952E+03  0.71120255953E+03  0.25500000920E-02 0.  1.
        2   -1    0    0  501    0  0.00000000000E+00  0.00000000000E+00 -0.20191416617E+04  0.20191416617E+04  0.25500000920E-02 0. -1.
    10030    2    1    2    0    0  0.00000000000E+00  0.00000000000E+00 -0.13079391022E+04  0.27303442212E+04  0.23966799685E+04 0.  0.
        1    1    3    3  502    0 -0.92596768817E+03  0.63323690223E+03 -0.11340847404E+04  0.15951656128E+04  0.50400001928E-02 0. -1.
       -1    1    3    3    0  502  0.92596768817E+03 -0.63323690223E+03 -0.17385436176E+03  0.11351786084E+04  0.50400001928E-02 0.  1.
</event>
<event>
 5   0  0.2915546E-05  0.2404998E+04  0.7818609E-02  0.8437635E-01
        1   -1    0    0  501    0  0.00000000000E+00  0.00000000000E+00  0.14772860648E+04  0.14772860649E+04  0.50400001928E-02 0.  1.
       -1   -1    0    0    0  501  0.00000000000E+00  0.00000000000E+00 -0.97882456146E+03  0.97882456148E+03  0.50400001928E-02 0. -1.
    10030    2    1    2    0    0  0.00000000000E+00  0.00000000000E+00  0.49846150338E+03  0.24561106263E+04  0.24049980329E+04 0.  0.
        2    1    3    3  502    0 -0.10901714005E+03 -0.15528656589E+03  0.14619033391E+04  0.14741641792E+04  0.25500000920E-02 0.  1.
       -2    1    3    3    0  502  0.10901714005E+03  0.15528656589E+03 -0.96344183568E+03  0.98194644717E+03  0.25500000920E-02 0. -1.
</event>
<event>
 5   0  0.2901816E-05  0.1485023E+04  0.7818609E-02  0.8894474E-01
        1   -1    0    0  501    0  0.00000000000E+00  0.00000000000E+00  0.13436820626E+04  0.13436820626E+04  0.50400001928E-02 0. -1.
       -1   -1    0    0    0  501  0.00000000000E+00  0.00000000000E+00 -0.41030792196E+03  0.41030792199E+03  0.50400001928E-02 0.  1.
    10030    2    1    2    0    0  0.00000000000E+00  0.00000000000E+00  0.93337414066E+03  0.17539899846E+04  0.14850230906E+04 0.  0.
        4    1    3    3  502    0 -0.44825398536E+03 -0.33963498302E+03 -0.10592849858E+03  0.57228141398E+03  0.12699999809E+01 0. -1.
       -4    1    3    3    0  502  0.44825398536E+03  0.33963498302E+03  0.10393026392E+04  0.11817085706E+04  0.12699999809E+01 0.  1.
</event>
<event>
 5   0  0.6600166E-05  0.2575672E+04  0.7818609E-02  0.8376512E-01
       -2   -1    0    0    0  501  0.00000000000E+00  0.00000000000E+00  0.99376308659E+03  0.99376308659E+03  0.25500000920E-02 0.  1.
        2   -1    0    0  501    0  0.00000000000E+00  0.00000000000E+00 -0.16689300306E+04  0.16689300306E+04  0.25500000920E-02 0. -1.
    10030    2    1    2    0    0  0.00000000000E+00  0.00000000000E+00 -0.67516694400E+03  0.26626931172E+04  0.25756716083E+04 0.  0.
        5    1    3    3  502    0 -0.89486967182E+03  0.86462687962E+03 -0.68065028524E+03  0.14183364450E+04  0.46999998093E+01 0. -1.
       -5    1    3    3    0  502  0.89486967182E+03 -0.86462687962E+03  0.54833412480E+01  0.12443566722E+04  0.46999998093E+01 0.  1.
</event>
<event>
 5   0  0.2943123E-05  0.2444316E+04  0.7818609E-02  0.8423096E-01
       -1   -1    0    0    0  501  0.00000000000E+00  0.00000000000E+00  0.10291144952E+04  0.10291144952E+04  0.50400001928E-02 0.  1.
        1   -1    0    0  501    0  0.00000000000E+00  0.00000000000E+00 -0.14514124769E+04  0.14514124769E+04  0.50400001928E-02 0. -1.
    10030    2    1    2    0    0  0.00000000000E+00  0.00000000000E+00 -0.42229798168E+03  0.24805269721E+04  0.24443155430E+04 0.  0.
        1    1    3    3  502    0 -0.58076795483E+03 -0.15688149817E+03 -0.12907544747E+04  0.14240612121E+04  0.50400001928E-02 0. -1.
       -1    1    3    3    0  502  0.58076795483E+03  0.15688149817E+03  0.86845649299E+03  0.10564657600E+04  0.50400001928E-02 0.  1.
</event>
<event>
 5   0  0.2901816E-05  0.2588495E+04  0.7818609E-02  0.8372120E-01
       -1   -1    0    0    0  501  0.00000000000E+00  0.00000000000E+00  0.83904491033E+03  0.83904491034E+03  0.50400001928E-02 0. -1.
        1   -1    0    0  501    0  0.00000000000E+00  0.00000000000E+00 -0.19964094380E+04  0.19964094380E+04  0.50400001928E-02 0.  1.
    10030    2    1    2    0    0  0.00000000000E+00  0.00000000000E+00 -0.11573645277E+04  0.28354543484E+04  0.25884954533E+04 0.  0.
        4    1    3    3  502    0  0.47112636592E+03  0.40091127491E+03 -0.18239746092E+04  0.19260256724E+04  0.12699999809E+01 0.  1.
       -4    1    3    3    0  502 -0.47112636592E+03 -0.40091127491E+03  0.66661008147E+03  0.90942867595E+03  0.12699999809E+01 0. -1.
</event>
<event>
 5   0  0.2847158E-05  0.2396662E+04  0.7818609E-02  0.8440754E-01
       -1   -1    0    0    0  501  0.00000000000E+00  0.00000000000E+00  0.10503251793E+04  0.10503251793E+04  0.50400001928E-02 0. -1.
        1   -1    0    0  501    0  0.00000000000E+00  0.00000000000E+00 -0.13671930116E+04  0.13671930116E+04  0.50400001928E-02 0.  1.
    10030    2    1    2    0    0  0.00000000000E+00  0.00000000000E+00 -0.31686783232E+03  0.24175181910E+04  0.23966620497E+04 0.  0.
        5    1    3    3  502    0 -0.61163550029E+03 -0.95177507298E+03  0.23997327825E+03  0.11565392510E+04  0.46999998093E+01 0. -1.
       -5    1    3    3    0  502  0.61163550029E+03  0.95177507298E+03 -0.55684111057E+03  0.12609789400E+04  0.46999998093E+01 0.  1.
</event>
<event>
 5   0  0.6978115E-05  0.2420299E+04  0.7818609E-02  0.8431943E-01
       -2   -1    0    0    0  501  0.00000000000E+00  0.00000000000E+00  0.14090251493E+04  0.14090251493E+04  0.25500000920E-02 0. -1.
        2   -1    0    0  501    0  0.00000000000E+00  0.00000000000E+00 -0.10393440542E+04  0.10393440542E+04  0.25500000920E-02 0.  1.
    10030    2    1    2    0    0  0.00000000000E+00  0.00000000000E+00  0.36968109507E+03  0.24483692035E+04  0.24202990817E+04 0.  0.
        4    1    3    3  502    0  0.65164958020E+03 -0.10070074712E+04  0.22514320154E+02  0.11996748434E+04  0.12699999809E+01 0.  1.
       -4    1    3    3    0  502 -0.65164958020E+03  0.10070074712E+04  0.34716677491E+03  0.12486943601E+04  0.12699999809E+01 0. -1.
</event>
<event>
 5   0  0.2943123E-05  0.2390423E+04  0.7818609E-02  0.8443098E-01
        1   -1    0    0  501    0  0.00000000000E+00  0.00000000000E+00  0.11859423203E+04  0.11859423203E+04  0.50400001928E-02 0. -1.
       -1   -1    0    0    0  501  0.00000000000E+00  0.00000000000E+00 -0.12045534670E+04  0.12045534670E+04  0.50400001928E-02 0.  1.
    10030    2    1    2    0    0  0.00000000000E+00  0.00000000000E+00 -0.18611146681E+02  0.23904957873E+04  0.23904233378E+04 0.  0.
        1    1    3    3  502    0  0.43937226455E+02 -0.50395599184E+03  0.10736071164E+04  0.11868169033E+04  0.50400001928E-02 0. -1.
       -1    1    3    3    0  502 -0.43937226455E+02  0.50395599184E+03 -0.10922182630E+04  0.12036788840E+04  0.50400001928E-02 0.  1.
</event>
<event>
 5   0  0.6703961E-05  0.2344551E+04  0.7818609E-02  0.8460559E-01
        2   -1    0    0  501    0  0.00000000000E+00  0.00000000000E+00  0.10028968562E+04  0.10028968562E+04  0.25500000920E-02 0. -1.
       -2   -1    0    0    0  501  0.00000000000E+00  0.00000000000E+00 -0.13702606436E+04  0.13702606436E+04  0.25500000920E-02 0.  1.
    10030    2    1    2    0    0  0.00000000000E+00  0.00000000000E+00 -0.36736378744E+03  0.23731574998E+04  0.23445512079E+04 0.  0.
        2    1    3    3  502    0 -0.10158004307E+04 -0.64800618002E+01 -0.77591697718E+03  0.12782564929E+04  0.25500000920E-02 0.  1.
       -2    1    3    3    0  502  0.10158004307E+04  0.64800618002E+01  0.40855318975E+03  0.10949010069E+04  0.25500000920E-02 0. -1.
</event>
<event>
 5   0  0.6600166E-05  0.2478048E+04  0.7818609E-02  0.8410848E-01
        2   -1    0    0  501    0  0.00000000000E+00  0.00000000000E+00  0.89628233733E+03  0.89628233734E+03  0.25500000920E-02 0. -1.
       -2   -1    0    0    0  501  0.00000000000E+00  0.00000000000E+00 -0.17128308722E+04  0.17128308722E+04  0.25500000920E-02 0.  1.
    10030    2    1    2    0    0  0.00000000000E+00  0.00000000000E+00 -0.81654853484E+03  0.26091132095E+04  0.24780476651E+04 0.  0.
        5    1    3    3  502    0  0.52244126212E+02  0.52641622001E+03 -0.15879415574E+04  0.16737454900E+04  0.46999998093E+01 0.  1.
       -5    1    3    3    0  502 -0.52244126212E+02 -0.52641622001E+03  0.77139302260E+03  0.93536771952E+03  0.46999998093E+01 0. -1.
</event>
<event>
 5   0  0.2943244E-05  0.2339857E+04  0.7818609E-02  0.8462370E-01
       -1   -1    0    0    0  501  0.00000000000E+00  0.00000000000E+00  0.19873137479E+04  0.19873137479E+04  0.50400001928E-02 0.  1.
        1   -1    0    0  501    0  0.00000000000E+00  0.00000000000E+00 -0.68873530237E+03  0.68873530239E+03  0.50400001928E-02 0. -1.
    10030    2    1    2    0    0  0.00000000000E+00  0.00000000000E+00  0.12985784455E+04  0.26760490503E+04  0.23398573761E+04 0.  0.
        3    1    3    3  502    0 -0.66524318086E+03 -0.68135165804E+03  0.14266088053E+04  0.17152263014E+04  0.10100000352E+00 0.  1.
       -3    1    3    3    0  502  0.66524318086E+03  0.68135165804E+03 -0.12803035972E+03  0.96082274890E+03  0.10100000352E+00 0. -1.
</event>
<event>
 5   0  0.2847158E-05  0.2145422E+04  0.7818609E-02  0.8541494E-01
       -1   -1    0    0    0  501  0.00000000000E+00  0.00000000000E+00  0.80759418696E+03  0.80759418697E+03  0.50400001928E-02 0. -1.
        1   -1    0    0  501    0  0.00000000000E+00  0.00000000000E+00 -0.14248601993E+04  0.14248601993E+04  0.50400001928E-02 0.  1.
    10030    2    1    2    0    0  0.00000000000E+00  0.00000000000E+00 -0.61726601238E+03  0.22324543863E+04  0.21454219298E+04 0.  0.
        5    1    3    3  502    0  0.79651066754E+03 -0.31268833668E+03 -0.98177865109E+03  0.13023496647E+04  0.46999998093E+01 0.  1.
       -5    1    3    3    0  502 -0.79651066754E+03  0.31268833668E+03  0.36451263871E+03  0.93010472162E+03  0.46999998093E+01 0. -1.
</event>
<event>
 5   0  0.6703961E-05  0.2387363E+04  0.7818609E-02  0.8444250E-01
       -2   -1    0    0    0  501  0.00000000000E+00  0.00000000000E+00  0.56252060888E+03  0.56252060888E+03  0.25500000920E-02 0.  1.
        2   -1    0    0  501    0  0.00000000000E+00  0.00000000000E+00 -0.25330190448E+04  0.25330190448E+04  0.25500000920E-02 0. -1.
    10030    2    1    2    0    0  0.00000000000E+00  0.00000000000E+00 -0.19704984360E+04  0.30955396537E+04  0.23873629095E+04 0.  0.
        2    1    3    3  502    0  0.43705991549E+03  0.64113972781E+03 -0.21614012405E+04  0.22964618095E+04  0.25500000920E-02 0.  1.
       -2    1    3    3    0  502 -0.43705991549E+03 -0.64113972781E+03  0.19090280451E+03  0.79907784419E+03  0.25500000920E-02 0. -1.
</event>
<event>
 5   0  0.2901816E-05  0.2362113E+04  0.7818609E-02  0.8453826E-01
       -1   -1    0    0    0  501  0.00000000000E+00  0.00000000000E+00  0.71919777649E+03  0.71919777650E+03  0.50400001928E-02 0. -1.
        1   -1    0    0  501    0  0.00000000000E+00  0.00000000000E+00 -0.19395145951E+04  0.19395145951E+04  0.50400001928E-02 0.  1.
    10030    2    1    2    0    0  0.00000000000E+00  0.00000000000E+00 -0.12203168186E+04  0.26587123716E+04  0.23621131085E+04 0.  0.
        4    1    3    3  502    0 -0.10262435029E+04  0.18092903319E+03 -0.12358167044E+04  0.16165257752E+04  0.12699999809E+01 0.  1.
       -4    1    3    3    0  502  0.10262435029E+04 -0.18092903319E+03  0.15499885759E+02  0.10421865964E+04  0.12699999809E+01 0. -1.
</event>
<event>
 5   0  0.6714629E-05  0.2409832E+04  0.7818609E-02  0.8435832E-01
        2   -1    0    0  501    0  0.00000000000E+00  0.00000000000E+00  0.15143314457E+04  0.15143314457E+04  0.25500000920E-02 0.  1.
       -2   -1    0    0    0  501  0.00000000000E+00  0.00000000000E+00 -0.95872167680E+03  0.95872167680E+03  0.25500000920E-02 0. -1.
    10030    2    1    2    0    0  0.00000000000E+00  0.00000000000E+00  0.55560976893E+03  0.24730531225E+04  0.24098318472E+04 0.  0.
        3    1    3    3  502    0 -0.55685934680E+03  0.10682951274E+04  0.30018436196E+03  0.12415544582E+04  0.10100000352E+00 0.  1.
       -3    1    3    3    0  502  0.55685934680E+03 -0.10682951274E+04  0.25542540698E+03  0.12314986643E+04  0.10100000352E+00 0. -1.
</event>
<event>
 5   0  0.6600166E-05  0.2438113E+04  0.7818609E-02  0.8425371E-01
        2   -1    0    0  501    0  0.00000000000E+00  0.00000000000E+00  0.12712066407E+04  0.12712066407E+04  0.25500000920E-02 0.  1.
       -2   -1    0    0    0  501  0.00000000000E+00  0.00000000000E+00 -0.11690455998E+04  0.11690455998E+04  0.25500000920E-02 0. -1.
    10030    2    1    2    0    0  0.00000000000E+00  0.00000000000E+00  0.10216104089E+03  0.24402522405E+04  0.24381128192E+04 0.  0.
        5    1    3    3  502    0 -0.39935399070E+03  0.11155367312E+04 -0.23582521753E+03  0.12081148255E+04  0.46999998093E+01 0. -1.
       -5    1    3    3    0  502  0.39935399070E+03 -0.11155367312E+04  0.33798625842E+03  0.12321374150E+04  0.46999998093E+01 0.  1.
</event>
<event>
 5   0  0.6337926E-05  0.1610229E+04  0.7818609E-02  0.8814289E-01
        2   -1    0    0  501    0  0.00000000000E+00  0.00000000000E+00  0.10706397161E+04  0.10706397161E+04  0.25500000920E-02 0.  1.
       -2   -1    0    0    0  501  0.00000000000E+00  0.00000000000E+00 -0.60544084617E+03  0.60544084618E+03  0.25500000920E-02 0. -1.
    10030    2    1    2    0    0  0.00000000000E+00  0.00000000000E+00  0.46519886988E+03  0.16760805622E+04  0.16102285746E+04 0.  0.
        1    1    3    3  502    0 -0.26998842642E+03 -0.29836228987E+03 -0.49326807191E+03  0.63657458103E+03  0.50400001928E-02 0. -1.
       -1    1    3    3    0  502  0.26998842642E+03  0.29836228987E+03  0.95846694180E+03  0.10395059812E+04  0.50400001928E-02 0.  1.
</event>
<event>
 5   0  0.2901816E-05  0.2398580E+04  0.7818609E-02  0.8440036E-01
        1   -1    0    0  501    0  0.00000000000E+00  0.00000000000E+00  0.15770093250E+04  0.15770093250E+04  0.50400001928E-02 0. -1.
       -1   -1    0    0    0  501  0.00000000000E+00  0.00000000000E+00 -0.91204026281E+03  0.91204026283E+03  0.50400001928E-02 0.  1.
    10030    2    1    2    0    0  0.00000000000E+00  0.00000000000E+00  0.66496906216E+03  0.24890495878E+04  0.23985795790E+04 0.  0.
        4    1    3    3  502    0 -0.23511501767E+03  0.11705645644E+04  0.44986103080E+03  0.12758828437E+04  0.12699999809E+01 0.  1.
       -4    1    3    3    0  502  0.23511501767E+03 -0.11705645644E+04  0.21510803136E+03  0.12131667441E+04  0.12699999809E+01 0. -1.
</event>
<event>
 5   0  0.6337926E-05  0.2385082E+04  0.7818609E-02  0.8445110E-01
        2   -1    0    0  501    0  0.00000000000E+00  0.00000000000E+00  0.19393769542E+04  0.19393769542E+04  0.25500000920E-02 0. -1.
       -2   -1    0    0    0  501  0.00000000000E+00  0.00000000000E+00 -0.73330480046E+03  0.73330480046E+03  0.25500000920E-02 0.  1.
    10030    2    1    2    0    0  0.00000000000E+00  0.00000000000E+00  0.12060721537E+04  0.26726817546E+04  0.23850823302E+04 0.  0.
        1    1    3    3  502    0 -0.56730022525E+02  0.38044998688E+03  0.18679519486E+04  0.19071457654E+04  0.50400001928E-02 0. -1.
       -1    1    3    3    0  502  0.56730022525E+02 -0.38044998688E+03 -0.66187979489E+03  0.76553598928E+03  0.50400001928E-02 0.  1.
</event>
<event>
 5   0  0.2901816E-05  0.2442950E+04  0.7818609E-02  0.8423596E-01
       -1   -1    0    0    0  501  0.00000000000E+00  0.00000000000E+00  0.12064652906E+04  0.12064652906E+04  0.50400001928E-02 0. -1.
        1   -1    0    0  501    0  0.00000000000E+00  0.00000000000E+00 -0.12366717130E+04  0.12366717130E+04  0.50400001928E-02 0.  1.
    10030    2    1    2    0    0  0.00000000000E+00  0.00000000000E+00 -0.30206422352E+02  0.24431370036E+04  0.24429502636E+04 0.  0.
        4    1    3    3  502    0 -0.10660869730E+04 -0.51957996101E+03 -0.30752103862E+03  0.12251838931E+04  0.12699999809E+01 0. -1.
       -4    1    3    3    0  502  0.10660869730E+04  0.51957996101E+03  0.27731461627E+03  0.12179531104E+04  0.12699999809E+01 0.  1.
</event>
<event>
 5   0  0.6978115E-05  0.2452580E+04  0.7818609E-02  0.8420077E-01
       -2   -1    0    0    0  501  0.00000000000E+00  0.00000000000E+00  0.21319144175E+04  0.21319144175E+04  0.25500000920E-02 0.  1.
        2   -1    0    0  501    0  0.00000000000E+00  0.00000000000E+00 -0.70536927052E+03  0.70536927052E+03  0.25500000920E-02 0. -1.
    10030    2    1    2    0    0  0.00000000000E+00  0.00000000000E+00  0.14265451470E+04  0.28372836880E+04  0.24525797989E+04 0.  0.
        4    1    3    3  502    0 -0.37004144227E+02  0.10916026311E+04  0.13582342037E+04  0.17429192109E+04  0.12699999809E+01 0.  1.
       -4    1    3    3    0  502  0.37004144227E+02 -0.10916026311E+04  0.68310943268E+02  0.10943644771E+04  0.12699999809E+01 0. -1.
</event>
<event>
 5   0  0.2943123E-05  0.2446784E+04  0.7818609E-02  0.8422193E-01
        1   -1    0    0  501    0  0.00000000000E+00  0.00000000000E+00  0.18443129909E+04  0.18443129909E+04  0.50400001928E-02 0.  1.
       -1   -1    0    0    0  501  0.00000000000E+00  0.00000000000E+00 -0.81151542297E+03  0.81151542299E+03  0.50400001928E-02 0. -1.
    10030    2    1    2    0    0  0.00000000000E+00  0.00000000000E+00  0.10327975679E+04  0.26558284139E+04  0.24467843688E+04 0.  0.
        1    1    3    3  502    0 -0.73957946994E+03 -0.13425771600E+03  0.15641037109E+04  0.17353453101E+04  0.50400001928E-02 0.  1.
       -1    1    3    3    0  502  0.73957946994E+03  0.13425771600E+03 -0.53130614304E+03  0.92048310377E+03  0.50400001928E-02 0. -1.
</event>
<event>
 5   0  0.6600166E-05  0.2414617E+04  0.7818609E-02  0.8434051E-01
       -2   -1    0    0    0  501  0.00000000000E+00  0.00000000000E+00  0.10894810459E+04  0.10894810459E+04  0.25500000920E-02 0. -1.
        2   -1    0    0  501    0  0.00000000000E+00  0.00000000000E+00 -0.13378787997E+04  0.13378787997E+04  0.25500000920E-02 0.  1.
    10030    2    1    2    0    0  0.00000000000E+00  0.00000000000E+00 -0.24839775381E+03  0.24273598456E+04  0.24146168177E+04 0.  0.
        5    1    3    3  502    0  0.33035896708E+03 -0.11528824257E+04 -0.26384407143E+03  0.12279701620E+04  0.46999998093E+01 0.  1.
       -5    1    3    3    0  502 -0.33035896708E+03  0.11528824257E+04  0.15446317619E+02  0.11993896837E+04  0.46999998093E+01 0. -1.
</event>
<event>
 5   0  0.6600166E-05  0.2402493E+04  0.7818609E-02  0.8438571E-01
       -2   -1    0    0    0  501  0.00000000000E+00  0.00000000000E+00  0.71255825128E+03  0.71255825129E+03  0.25500000920E-02 0.  1.
        2   -1    0    0  501    0  0.00000000000E+00  0.00000000000E+00 -0.20250872296E+04  0.20250872296E+04  0.25500000920E-02 0. -1.
    10030    2    1    2    0    0  0.00000000000E+00  0.00000000000E+00 -0.13125289783E+04  0.27376454809E+04  0.24024925515E+04 0.  0.
        5    1    3    3  502    0  0.21862396538E+03 -0.28311566076E+03 -0.19629806788E+04  0.19953110412E+04  0.46999998093E+01 0. -1.
       -5    1    3    3    0  502 -0.21862396538E+03  0.28311566076E+03  0.65045170054E+03  0.74233443968E+03  0.46999998093E+01 0.  1.
</event>
<event>
 5   0  0.6703961E-05  0.2217243E+04  0.7818609E-02  0.8511285E-01
        2   -1    0    0  501    0  0.00000000000E+00  0.00000000000E+00  0.10549720603E+04  0.10549720603E+04  0.25500000920E-02 0.  1.
       -2   -1    0    0    0  501  0.00000000000E+00  0.00000000000E+00 -0.11649990661E+04  0.11649990661E+04  0.25500000920E-02 0. -1.
    10030    2    1    2    0    0  0.00000000000E+00  0.00000000000E+00 -0.11002700586E+03  0.22199711264E+04  0.22172428510E+04 0.  0.
        2    1    3    3  502    0 -0.63953789737E+03  0.25038406960E+03 -0.92633749189E+03  0.11531704355E+04  0.25500000920E-02 0. -1.
       -2    1    3    3    0  502  0.63953789737E+03 -0.25038406960E+03  0.81631048603E+03  0.10668006909E+04  0.25500000920E-02 0.  1.
</event>
<event>
 5   0  0.6703961E-05  0.2307038E+04  0.7818609E-02  0.8475151E-01
       -2   -1    0    0    0  501  0.00000000000E+00  0.00000000000E+00  0.61521661722E+03  0.61521661723E+03  0.25500000920E-02 0. -1.
        2   -1    0    0  501    0  0.00000000000E+00  0.00000000000E+00 -0.21628258604E+04  0.21628258604E+04  0.25500000920E-02 0.  1.
    10030    2    1    2    0    0  0.00000000000E+00  0.00000000000E+00 -0.15476092432E+04  0.27780424776E+04  0.23070382827E+04 0.  0.
        2    1    3    3  502    0 -0.93317474252E+03 -0.13179399521E+03 -0.15747488339E+04  0.18352162398E+04  0.25500000920E-02 0.  1.
       -2    1    3    3    0  502  0.93317474252E+03  0.13179399521E+03  0.27139590687E+02  0.94282623778E+03  0.25500000920E-02 0. -1.
</event>
<event>
 5   0  0.6337926E-05  0.2402592E+04  0.7818609E-02  0.8438534E-01
       -2   -1    0    0    0  501  0.00000000000E+00  0.00000000000E+00  0.98344951093E+03  0.98344951093E+03  0.25500000920E-02 0. -1.
        2   -1    0    0  501    0  0.00000000000E+00  0.00000000000E+00 -0.14673987738E+04  0.14673987738E+04  0.25500000920E-02 0.  1.
    10030    2    1    2    0    0  0.00000000000E+00  0.00000000000E+00 -0.48394926288E+03  0.24508482847E+04  0.24025924385E+04 0.  0.
        1    1    3    3  502    0 -0.11275826792E+04 -0.40022377916E+03 -0.13262631352E+03  0.12038320111E+04  0.50400001928E-02 0.  1.
       -1    1    3    3    0  502  0.11275826792E+04  0.40022377916E+03 -0.35132294936E+03  0.12470162736E+04  0.50400001928E-02 0. -1.
</event>
<event>
 5   0  0.2943244E-05  0.2165810E+04  0.7818609E-02  0.8532795E-01
       -1   -1    0    0    0  501  0.00000000000E+00  0.00000000000E+00  0.48660577994E+03  0.48660577997E+03  0.50400001928E-02 0. -1.
        1   -1    0    0  501    0  0.00000000000E+00  0.00000000000E+00 -0.24099243090E+04  0.24099243090E+04  0.50400001928E-02 0.  1.
    10030    2    1    2    0    0  0.00000000000E+00  0.00000000000E+00 -0.19233185291E+04  0.28965300890E+04  0.21658098698E+04 0.  0.
        3    1    3    3  502    0  0.83462927652E+03  0.24491642345E+03 -0.98972921741E+02  0.87543459672E+03  0.10100000352E+00 0. -1.
       -3    1    3    3    0  502 -0.83462927652E+03 -0.24491642345E+03 -0.18243456073E+04  0.20210954923E+04  0.10100000352E+00 0.  1.
</event>
<event>
 5   0  0.2943244E-05  0.2379377E+04  0.7818609E-02  0.8447265E-01
       -1   -1    0    0    0  501  0.00000000000E+00  0.00000000000E+00  0.66830712958E+03  0.66830712960E+03  0.50400001928E-02 0.  1.
        1   -1    0    0  501    0  0.00000000000E+00  0.00000000000E+00 -0.21178264503E+04  0.21178264503E+04  0.50400001928E-02 0. -1.
    10030    2    1    2    0    0  0.00000000000E+00  0.00000000000E+00 -0.14495193207E+04  0.27861335799E+04  0.23793768226E+04 0.  0.
        3    1    3    3  502    0  0.97479268995E+03 -0.52727974017E+03 -0.21824547919E+03  0.11295467286E+04  0.10100000352E+00 0.  1.
       -3    1    3    3    0  502 -0.97479268995E+03  0.52727974017E+03 -0.12312738415E+04  0.16565868512E+04  0.10100000352E+00 0. -1.
</event>
<event>
 5   0  0.2339125E-05  0.2343826E+04  0.7818609E-02  0.8460839E-01
        3   -1    0    0  501    0  0.00000000000E+00  0.00000000000E+00  0.10310288457E+04  0.10310288507E+04  0.10100000352E+00 0.  1.
       -3   -1    0    0    0  501  0.00000000000E+00  0.00000000000E+00 -0.13320484906E+04  0.13320484945E+04  0.10100000352E+00 0. -1.
    10030    2    1    2    0    0  0.00000000000E+00  0.00000000000E+00 -0.30101964491E+03  0.23630773451E+04  0.23438262974E+04 0.  0.
        3    1    3    3  502    0 -0.77300797271E+03 -0.51669074677E+03  0.56870037655E+03  0.10899223744E+04  0.10100000352E+00 0.  1.
       -3    1    3    3    0  502  0.77300797271E+03  0.51669074677E+03 -0.86972002146E+03  0.12731549708E+04  0.10100000352E+00 0. -1.
</event>
<event>
 5   0  0.6714629E-05  0.2395358E+04  0.7818609E-02  0.8441244E-01
        2   -1    0    0  501    0  0.00000000000E+00  0.00000000000E+00  0.85934042693E+03  0.85934042693E+03  0.25500000920E-02 0.  1.
       -2   -1    0    0    0  501  0.00000000000E+00  0.00000000000E+00 -0.16692274156E+04  0.16692274156E+04  0.25500000920E-02 0. -1.
    10030    2    1    2    0    0  0.00000000000E+00  0.00000000000E+00 -0.80988698866E+03  0.25285678425E+04  0.23953576768E+04 0.  0.
        3    1    3    3  502    0  0.68914083780E+03  0.67816041493E+03 -0.11510885301E+04  0.15032702541E+04  0.10100000352E+00 0. -1.
       -3    1    3    3    0  502 -0.68914083780E+03 -0.67816041493E+03  0.34120154142E+03  0.10252975884E+04  0.10100000352E+00 0.  1.
</event>
<event>
 5   0  0.2943123E-05  0.2401462E+04  0.7818609E-02  0.8438956E-01
        1   -1    0    0  501    0  0.00000000000E+00  0.00000000000E+00  0.85937805825E+03  0.85937805826E+03  0.50400001928E-02 0. -1.
       -1   -1    0    0    0  501  0.00000000000E+00  0.00000000000E+00 -0.16776731597E+04  0.16776731597E+04  0.50400001928E-02 0.  1.
    10030    2    1    2    0    0  0.00000000000E+00  0.00000000000E+00 -0.81829510149E+03  0.25370512180E+04  0.24014624731E+04 0.  0.
        1    1    3    3  502    0  0.64016523164E+03 -0.52932349269E+03  0.50684768755E+03  0.97308245391E+03  0.50400001928E-02 0. -1.
       -1    1    3    3    0  502 -0.64016523164E+03  0.52932349269E+03 -0.13251427890E+04  0.15639687641E+04  0.50400001928E-02 0.  1.
</event>
<event>
 5   0  0.6703961E-05  0.2366748E+04  0.7818609E-02  0.8452059E-01
       -2   -1    0    0    0  501  0.00000000000E+00  0.00000000000E+00  0.10120206838E+04  0.10120206838E+04  0.25500000920E-02 0. -1.
        2   -1    0    0  501    0  0.00000000000E+00  0.00000000000E+00 -0.13837402059E+04  0.13837402059E+04  0.25500000920E-02 0.  1.
    10030    2    1    2    0    0  0.00000000000E+00  0.00000000000E+00 -0.37171952212E+03  0.23957608896E+04  0.23667477342E+04 0.  0.
        2    1    3    3  502    0  0.35724149750E+03  0.98140198895E+03 -0.74909994362E+03  0.12852712076E+04  0.25500000920E-02 0.  1.
       -2    1    3    3    0  502 -0.35724149750E+03 -0.98140198895E+03  0.37738042150E+03  0.11104896821E+04  0.25500000920E-02 0. -1.
</event>
<event>
 5   0  0.2901816E-05  0.2396314E+04  0.7818609E-02  0.8440885E-01
       -1   -1    0    0    0  501  0.00000000000E+00  0.00000000000E+00  0.12138330065E+04  0.12138330065E+04  0.50400001928E-02 0. -1.
        1   -1    0    0  501    0  0.00000000000E+00  0.00000000000E+00 -0.11826832211E+04  0.11826832211E+04  0.50400001928E-02 0.  1.
    10030    2    1    2    0    0  0.00000000000E+00  0.00000000000E+00  0.31149785389E+02  0.23965162275E+04  0.23963137774E+04 0.  0.
        4    1    3    3  502    0 -0.33170676508E+03  0.14496169998E+02  0.11669057528E+04  0.12132230486E+04  0.12699999809E+01 0. -1.
       -4    1    3    3    0  502  0.33170676508E+03 -0.14496169998E+02 -0.11357559674E+04  0.11832931789E+04  0.12699999809E+01 0.  1.
</event>
<event>
 5   0  0.2943123E-05  0.2424764E+04  0.7818609E-02  0.8430290E-01
       -1   -1    0    0    0  501  0.00000000000E+00  0.00000000000E+00  0.15542882286E+04  0.15542882286E+04  0.50400001928E-02 0. -1.
        1   -1    0    0  501    0  0.00000000000E+00  0.00000000000E+00 -0.94568713056E+03  0.94568713058E+03  0.50400001928E-02 0.  1.
    10030    2    1    2    0    0  0.00000000000E+00  0.00000000000E+00  0.60860109807E+03  0.24999753592E+04  0.24247642154E+04 0.  0.
        1    1    3    3  502    0  0.89086648196E+02  0.58936968204E+03  0.13927827084E+04  0.15149708663E+04  0.50400001928E-02 0. -1.
       -1    1    3    3    0  502 -0.89086648196E+02 -0.58936968204E+03 -0.78418161033E+03  0.98500449288E+03  0.50400001928E-02 0.  1.
</event>
<event>
 5   0  0.2915546E-05  0.2564121E+04  0.7818609E-02  0.8380492E-01
        1   -1    0    0  501    0  0.00000000000E+00  0.00000000000E+00  0.18213330073E+04  0.18213330073E+04  0.50400001928E-02 0.  1.
       -1   -1    0    0    0  501  0.00000000000E+00  0.00000000000E+00 -0.90245951408E+03  0.90245951410E+03  0.50400001928E-02 0. -1.
    10030    2    1    2    0    0  0.00000000000E+00  0.00000000000E+00  0.91887349320E+03  0.27237925214E+04  0.25641211366E+04 0.  0.
        2    1    3    3  502    0 -0.88967482477E+03 -0.87037948772E+03  0.78615653461E+03  0.14721154314E+04  0.25500000920E-02 0.  1.
       -2    1    3    3    0  502  0.88967482477E+03  0.87037948772E+03  0.13271695859E+03  0.12516770900E+04  0.25500000920E-02 0. -1.
</event>
<event>
 5   0  0.2943244E-05  0.2405043E+04  0.7818609E-02  0.8437618E-01
       -1   -1    0    0    0  501  0.00000000000E+00  0.00000000000E+00  0.12226966555E+04  0.12226966555E+04  0.50400001928E-02 0.  1.
        1   -1    0    0  501    0  0.00000000000E+00  0.00000000000E+00 -0.11826790521E+04  0.11826790521E+04  0.50400001928E-02 0. -1.
    10030    2    1    2    0    0  0.00000000000E+00  0.00000000000E+00  0.40017603416E+02  0.24053757076E+04  0.24050428034E+04 0.  0.
        3    1    3    3  502    0  0.10545245428E+04  0.39166572556E+03 -0.40506021520E+03  0.11956160923E+04  0.10100000352E+00 0. -1.
       -3    1    3    3    0  502 -0.10545245428E+04 -0.39166572556E+03  0.44507781862E+03  0.12097596153E+04  0.10100000352E+00 0.  1.
</event>
<event>
 5   0  0.6978115E-05  0.2436210E+04  0.7818609E-02  0.8426070E-01
       -2   -1    0    0    0  501  0.00000000000E+00  0.00000000000E+00  0.12903936898E+04  0.12903936898E+04  0.25500000920E-02 0.  1.
        2   -1    0    0  501    0  0.00000000000E+00  0.00000000000E+00 -0.11498660195E+04  0.11498660195E+04  0.25500000920E-02 0. -1.
    10030    2    1    2    0    0  0.00000000000E+00  0.00000000000E+00  0.14052767028E+03  0.24402597094E+04  0.24362100532E+04 0.  0.
        4    1    3    3  502    0 -0.66307296751E+03 -0.88883511122E+03  0.57516981440E+03  0.12492059652E+04  0.12699999809E+01 0. -1.
       -4    1    3    3    0  502  0.66307296751E+03  0.88883511122E+03 -0.43464214412E+03  0.11910537442E+04  0.12699999809E+01 0.  1.
</event>
<event>
 5   0  0.6978115E-05  0.2358783E+04  0.7818609E-02  0.8455098E-01
       -2   -1    0    0    0  501  0.00000000000E+00  0.00000000000E+00  0.69774563629E+03  0.69774563629E+03  0.25500000920E-02 0.  1.
        2   -1    0    0  501    0  0.00000000000E+00  0.00000000000E+00 -0.19935116594E+04  0.19935116594E+04  0.25500000920E-02 0. -1.
    10030    2    1    2    0    0  0.00000000000E+00  0.00000000000E+00 -0.12957660231E+04  0.26912572957E+04  0.23587827888E+04 0.  0.
        4    1    3    3  502    0 -0.75082762425E+03  0.59115312979E+03  0.14074353511E+03  0.96592675694E+03  0.12699999809E+01 0.  1.
       -4    1    3    3    0  502  0.75082762425E+03 -0.59115312979E+03 -0.14365095582E+04  0.17253305387E+04  0.12699999809E+01 0. -1.
</event>
<event>
 5   0  0.2915546E-05  0.2346411E+04  0.7818609E-02  0.8459843E-01
       -1   -1    0    0    0  501  0.00000000000E+00  0.00000000000E+00  0.15187075768E+04  0.15187075768E+04  0.50400001928E-02 0. -1.
        1   -1    0    0  501    0  0.00000000000E+00  0.00000000000E+00 -0.90630417943E+03  0.90630417945E+03  0.50400001928E-02 0.  1.
    10030    2    1    2    0    0  0.00000000000E+00  0.00000000000E+00  0.61240339738E+03  0.24250117563E+04  0.23464108969E+04 0.  0.
        2    1    3    3  502    0 -0.33298518389E+03  0.46839106080E+03  0.13632748434E+04  0.14794551758E+04  0.25500000920E-02 0. -1.
       -2    1    3    3    0  502  0.33298518389E+03 -0.46839106080E+03 -0.75087144599E+03  0.94555658050E+03  0.25500000920E-02 0.  1.
</event>
<event>
 5   0  0.6978115E-05  0.2730583E+04  0.7818609E-02  0.8325150E-01
       -2   -1    0    0    0  501  0.00000000000E+00  0.00000000000E+00  0.12930370411E+04  0.12930370411E+04  0.25500000920E-02 0. -1.
        2   -1    0    0  501    0  0.00000000000E+00  0.00000000000E+00 -0.14415832207E+04  0.14415832207E+04  0.25500000920E-02 0.  1.
    10030    2    1    2    0    0  0.00000000000E+00  0.00000000000E+00 -0.14854617962E+03  0.27346202617E+04  0.27305827232E+04 0.  0.
        4    1    3    3  502    0  0.12044086301E+04  0.78700824626E+02 -0.71335844123E+03  0.14020256227E+04  0.12699999809E+01 0.  1.
       -4    1    3    3    0  502 -0.12044086301E+04 -0.78700824626E+02  0.56481226161E+03  0.13325946390E+04  0.12699999809E+01 0. -1.
</event>
<event>
 5   0  0.6337926E-05  0.2324884E+04  0.7818609E-02  0.8468174E-01
       -2   -1    0    0    0  501  0.00000000000E+00  0.00000000000E+00  0.10248218090E+04  0.10248218090E+04  0.25500000920E-02 0. -1.
        2   -1    0    0  501    0  0.00000000000E+00  0.00000000000E+00 -0.13185429358E+04  0.13185429358E+04  0.25500000920E-02 0.  1.
    10030    2    1    2    0    0  0.00000000000E+00  0.00000000000E+00 -0.29372112678E+03  0.23433647447E+04  0.23248841319E+04 0.  0.
        1    1    3    3  502    0 -0.10183993426E+04 -0.24215790087E+03  0.36262142479E+03  0.11078230760E+04  0.50400001928E-02 0. -1.
       -1    1    3    3    0  502  0.10183993426E+04  0.24215790087E+03 -0.65634255158E+03  0.12355416687E+04  0.50400001928E-02 0.  1.
</event>
<event>
 5   0  0.6978115E-05  0.2461172E+04  0.7818609E-02  0.8416950E-01
        2   -1    0    0  501    0  0.00000000000E+00  0.00000000000E+00  0.26452462592E+04  0.26452462592E+04  0.25500000920E-02 0.  1.
       -2   -1    0    0    0  501  0.00000000000E+00  0.00000000000E+00 -0.57247667935E+03  0.57247667935E+03  0.25500000920E-02 0. -1.
    10030    2    1    2    0    0  0.00000000000E+00  0.00000000000E+00  0.20727695798E+04  0.32177229385E+04  0.24611719115E+04 0.  0.
        4    1    3    3  502    0 -0.48511935906E+03  0.54437290149E+01  0.25149375752E+04  0.25613049499E+04  0.12699999809E+01 0.  1.
       -4    1    3    3    0  502  0.48511935906E+03 -0.54437290149E+01 -0.44216799534E+03  0.65641798858E+03  0.12699999809E+01 0. -1.
</event>
<event>
 5   0  0.2943244E-05  0.2401804E+04  0.7818609E-02  0.8438829E-01
        1   -1    0    0  501    0  0.00000000000E+00  0.00000000000E+00  0.17400059975E+04  0.17400059975E+04  0.50400001928E-02 0. -1.
       -1   -1    0    0    0  501  0.00000000000E+00  0.00000000000E+00 -0.82882762230E+03  0.82882762232E+03  0.50400001928E-02 0.  1.
    10030    2    1    2    0    0  0.00000000000E+00  0.00000000000E+00  0.91117837520E+03  0.25688336198E+04  0.24018035171E+04 0.  0.
        3    1    3    3  502    0  0.62311033975E+03  0.95838025552E+03  0.62023565443E+02  0.11448170782E+04  0.10100000352E+00 0.  1.
       -3    1    3    3    0  502 -0.62311033975E+03 -0.95838025552E+03  0.84915480976E+03  0.14240165416E+04  0.10100000352E+00 0. -1.
</event>
<event>
 5   0  0.6600166E-05  0.2387460E+04  0.7818609E-02  0.8444213E-01
       -2   -1    0    0    0  501  0.00000000000E+00  0.00000000000E+00  0.62870755923E+03  0.62870755923E+03  0.25500000920E-02 0.  1.
        2   -1    0    0  501    0  0.00000000000E+00  0.00000000000E+00 -0.22665416792E+04  0.22665416792E+04  0.25500000920E-02 0. -1.
    10030    2    1    2    0    0  0.00000000000E+00  0.00000000000E+00 -0.16378341200E+04  0.28952492385E+04  0.23874604810E+04 0.  0.
        5    1    3    3  502    0  0.69916808958E+03 -0.95033279590E+03 -0.59861646968E+03  0.13230012125E+04  0.46999998093E+01 0.  1.
       -5    1    3    3    0  502 -0.69916808958E+03  0.95033279590E+03 -0.10392176503E+04  0.15722480260E+04  0.46999998093E+01 0. -1.
</event>
<event>
 5   0  0.2943244E-05  0.1520489E+04  0.7818609E-02  0.8870941E-01
        1   -1    0    0  501    0  0.00000000000E+00  0.00000000000E+00  0.12481463996E+04  0.12481463996E+04  0.50400001928E-02 0. -1.
       -1   -1    0    0    0  501  0.00000000000E+00  0.00000000000E+00 -0.46306432942E+03  0.46306432945E+03  0.50400001928E-02 0.  1.
    10030    2    1    2    0    0  0.00000000000E+00  0.00000000000E+00  0.78508207018E+03  0.17112107291E+04  0.15204894943E+04 0.  0.
        3    1    3    3  502    0  0.49438884582E+03  0.19184921348E+03 -0.22053201420E+03  0.57433512088E+03  0.10100000352E+00 0.  1.
       -3    1    3    3    0  502 -0.49438884582E+03 -0.19184921348E+03  0.10056140844E+04  0.11368756082E+04  0.10100000352E+00 0. -1.
</event>
<event>
 5   0  0.2943244E-05  0.2331881E+04  0.7818609E-02  0.8465456E-01
        1   -1    0    0  501    0  0.00000000000E+00  0.00000000000E+00  0.10352195137E+04  0.10352195137E+04  0.50400001928E-02 0. -1.
       -1   -1    0    0    0  501  0.00000000000E+00  0.00000000000E+00 -0.13131682928E+04  0.13131682928E+04  0.50400001928E-02 0.  1.
    10030    2    1    2    0    0  0.00000000000E+00  0.00000000000E+00 -0.27794877905E+03  0.23483878065E+04  0.23318811646E+04 0.  0.
        3    1    3    3  502    0  0.48789394899E+03 -0.90251588240E+03 -0.69682872188E+03  0.12402200213E+04  0.10100000352E+00 0.  1.
       -3    1    3    3    0  502 -0.48789394899E+03  0.90251588240E+03  0.41887994284E+03  0.11081677852E+04  0.10100000352E+00 0. -1.
</event>
<event>
 5   0  0.6714629E-05  0.2543899E+04  0.7818609E-02  0.8387511E-01
       -2   -1    0    0    0  501  0.00000000000E+00  0.00000000000E+00  0.11960202222E+04  0.11960202222E+04  0.25500000920E-02 0. -1.
        2   -1    0    0  501    0  0.00000000000E+00  0.00000000000E+00 -0.13526995234E+04  0.13526995234E+04  0.25500000920E-02 0.  1.
    10030    2    1    2    0    0  0.00000000000E+00  0.00000000000E+00 -0.15667930119E+03  0.25487197455E+04  0.25438993569E+04 0.  0.
        3    1    3    3  502    0 -0.35347202554E+03  0.21954082406E+02 -0.13023056800E+04  0.13496016260E+04  0.10100000352E+00 0.  1.
       -3    1    3    3    0  502  0.35347202554E+03 -0.21954082406E+02  0.11456263788E+04  0.11991181195E+04  0.10100000352E+00 0. -1.
</event>
<event>
 5   0  0.2943123E-05  0.2398995E+04  0.7818609E-02  0.8439880E-01
       -1   -1    0    0    0  501  0.00000000000E+00  0.00000000000E+00  0.55518114367E+03  0.55518114370E+03  0.50400001928E-02 0.  1.
        1   -1    0    0  501    0  0.00000000000E+00  0.00000000000E+00 -0.25915769626E+04  0.25915769626E+04  0.50400001928E-02 0. -1.
    10030    2    1    2    0    0  0.00000000000E+00  0.00000000000E+00 -0.20363958189E+04  0.31467581063E+04  0.23989953414E+04 0.  0.
        1    1    3    3  502    0  0.78523666510E+03  0.24895712464E+02  0.17073793502E+03  0.80397006114E+03  0.50400001928E-02 0.  1.
       -1    1    3    3    0  502 -0.78523666510E+03 -0.24895712464E+02 -0.22071337539E+04  0.23427880451E+04  0.50400001928E-02 0. -1.
</event>
<event>
 5   0  0.2901816E-05  0.2434859E+04  0.7818609E-02  0.8426567E-01
        1   -1    0    0  501    0  0.00000000000E+00  0.00000000000E+00  0.17181177194E+04  0.17181177194E+04  0.50400001928E-02 0.  1.
       -1   -1    0    0    0  501  0.00000000000E+00  0.00000000000E+00 -0.86265046400E+03  0.86265046401E+03  0.50400001928E-02 0. -1.
    10030    2    1    2    0    0  0.00000000000E+00  0.00000000000E+00  0.85546725539E+03  0.25807681834E+04  0.24348593782E+04 0.  0.
        4    1    3    3  502    0 -0.99802528040E+03 -0.35830189009E+03 -0.20618543388E+03  0.10802540214E+04  0.12699999809E+01 0. -1.
       -4    1    3    3    0  502  0.99802528040E+03  0.35830189009E+03  0.10616526893E+04  0.15005141620E+04  0.12699999809E+01 0.  1.
</event>
<event>
 5   0  0.2847158E-05  0.2388599E+04  0.7818609E-02  0.8443784E-01
       -1   -1    0    0    0  501  0.00000000000E+00  0.00000000000E+00  0.16521570982E+04  0.16521570982E+04  0.50400001928E-02 0. -1.
        1   -1    0    0  501    0  0.00000000000E+00  0.00000000000E+00 -0.86332684085E+03  0.86332684086E+03  0.50400001928E-02 0.  1.
    10030    2    1    2    0    0  0.00000000000E+00  0.00000000000E+00  0.78883025734E+03  0.25154839391E+04  0.23885992282E+04 0.  0.
        5    1    3    3  502    0 -0.14069415453E+03 -0.86303975231E+03 -0.46224361153E+03  0.98910247476E+03  0.46999998093E+01 0.  1.
       -5    1    3    3    0  502  0.14069415453E+03  0.86303975231E+03  0.12510738689E+04  0.15263814643E+04  0.46999998093E+01 0. -1.
</event>
<event>
 5   0  0.2901816E-05  0.2142230E+04  0.7818609E-02  0.8542866E-01
        1   -1    0    0  501    0  0.00000000000E+00  0.00000000000E+00  0.19730741319E+04  0.19730741319E+04  0.50400001928E-02 0.  1.
       -1   -1    0    0    0  501  0.00000000000E+00  0.00000000000E+00 -0.58147196472E+03  0.58147196474E+03  0.50400001928E-02 0. -1.
    10030    2    1    2    0    0  0.00000000000E+00  0.00000000000E+00  0.13916021671E+04  0.25545460966E+04  0.21422299522E+04 0.  0.
        4    1    3    3  502    0  0.89665072878E+03  0.40058720523E+03  0.12056893261E+04  0.15550372994E+04  0.12699999809E+01 0.  1.
       -4    1    3    3    0  502 -0.89665072878E+03 -0.40058720523E+03  0.18591284103E+03  0.99950879725E+03  0.12699999809E+01 0. -1.
</event>
<event>
 5   0  0.2943123E-05  0.2337580E+04  0.7818609E-02  0.8463249E-01
        1   -1    0    0  501    0  0.00000000000E+00  0.00000000000E+00  0.10399970011E+04  0.10399970011E+04  0.50400001928E-02 0.  1.
       -1   -1    0    0    0  501  0.00000000000E+00  0.00000000000E+00 -0.13135332059E+04  0.13135332059E+04  0.50400001928E-02 0. -1.
    10030    2    1    2    0    0  0.00000000000E+00  0.00000000000E+00 -0.27353620485E+03  0.23535302070E+04  0.23375804542E+04 0.  0.
        1    1    3    3  502    0  0.11606877535E+04 -0.66768741328E+02 -0.15880250520E+02  0.11627150590E+04  0.50400001928E-02 0. -1.
       -1    1    3    3    0  502 -0.11606877535E+04  0.66768741328E+02 -0.25765595433E+03  0.11908151480E+04  0.50400001928E-02 0.  1.
</event>
<event>
 5   0  0.6978115E-05  0.2481738E+04  0.7818609E-02  0.8409520E-01
       -2   -1    0    0    0  501  0.00000000000E+00  0.00000000000E+00  0.13644810190E+04  0.13644810190E+04  0.25500000920E-02 0. -1.
        2   -1    0    0  501    0  0.00000000000E+00  0.00000000000E+00 -0.11284554820E+04  0.11284554820E+04  0.25500000920E-02 0.  1.
    10030    2    1    2    0    0  0.00000000000E+00  0.00000000000E+00  0.23602553707E+03  0.24929365010E+04  0.24817381699E+04 0.  0.
        4    1    3    3  502    0  0.72855457166E+03 -0.24848192531E+03 -0.85963082320E+03  0.11539071870E+04  0.12699999809E+01 0.  1.
       -4    1    3    3    0  502 -0.72855457166E+03  0.24848192531E+03  0.10956563603E+04  0.13390293140E+04  0.12699999809E+01 0. -1.
</event>
<event>
 5   0  0.2901816E-05  0.2405517E+04  0.7818609E-02  0.8437441E-01
        1   -1    0    0  501    0  0.00000000000E+00  0.00000000000E+00  0.15382239353E+04  0.15382239353E+04  0.50400001928E-02 0. -1.
       -1   -1    0    0    0  501  0.00000000000E+00  0.00000000000E+00 -0.94045335072E+03  0.94045335073E+03  0.50400001928E-02 0.  1.
    10030    2    1    2    0    0  0.00000000000E+00  0.00000000000E+00  0.59777058459E+03  0.24786772861E+04  0.24055168710E+04 0.  0.
        4    1    3    3  502    0 -0.20088187206E+03  0.77702693376E+03 -0.62418463735E+03  0.10167263431E+04  0.12699999809E+01 0.  1.
       -4    1    3    3    0  502  0.20088187206E+03 -0.77702693376E+03  0.12219552219E+04  0.14619509430E+04  0.12699999809E+01 0. -1.
</event>
<event>
 5   0  0.2901816E-05  0.2004384E+04  0.7818609E-02  0.8604574E-01
       -1   -1    0    0    0  501  0.00000000000E+00  0.00000000000E+00  0.69146374977E+03  0.69146374979E+03  0.50400001928E-02 0. -1.
        1   -1    0    0  501    0  0.00000000000E+00  0.00000000000E+00 -0.14525544854E+04  0.14525544854E+04  0.50400001928E-02 0.  1.
    10030    2    1    2    0    0  0.00000000000E+00  0.00000000000E+00 -0.76109073558E+03  0.21440182352E+04  0.20043839664E+04 0.  0.
        4    1    3    3  502    0 -0.17932225732E+03 -0.13795550235E+03 -0.14248791719E+04  0.14427302104E+04  0.12699999809E+01 0.  1.
       -4    1    3    3    0  502  0.17932225732E+03  0.13795550235E+03  0.66378843631E+03  0.70128802476E+03  0.12699999809E+01 0. -1.
</event>
<event>
 5   0  0.2943244E-05  0.1862423E+04  0.7818609E-02  0.8673790E-01
        1   -1    0    0  501    0  0.00000000000E+00  0.00000000000E+00  0.10790647836E+04  0.10790647836E+04  0.50400001928E-02 0. -1.
       -1   -1    0    0    0  501  0.00000000000E+00  0.00000000000E+00 -0.80361675107E+03  0.80361675108E+03  0.50400001928E-02 0.  1.
    10030    2    1    2    0    0  0.00000000000E+00  0.00000000000E+00  0.27544803257E+03  0.18826815347E+04  0.18624226541E+04 0.  0.
        3    1    3    3  502    0 -0.51761531733E+02  0.92837449561E+03  0.18922984896E+03  0.94887639143E+03  0.10100000352E+00 0. -1.
       -3    1    3    3    0  502  0.51761531733E+02 -0.92837449561E+03  0.86218183613E+02  0.93380514330E+03  0.10100000352E+00 0.  1.
</event>
<event>
 5   0  0.2943244E-05  0.2382242E+04  0.7818609E-02  0.8446182E-01
        1   -1    0    0  501    0  0.00000000000E+00  0.00000000000E+00  0.15022700642E+04  0.15022700642E+04  0.50400001928E-02 0. -1.
       -1   -1    0    0    0  501  0.00000000000E+00  0.00000000000E+00 -0.94441726761E+03  0.94441726762E+03  0.50400001928E-02 0.  1.
    10030    2    1    2    0    0  0.00000000000E+00  0.00000000000E+00  0.55785279657E+03  0.24466873318E+04  0.23822424639E+04 0.  0.
        3    1    3    3  502    0  0.62249934558E+03  0.78265137725E+03  0.94351818324E+03  0.13748727890E+04  0.10100000352E+00 0. -1.
       -3    1    3    3    0  502 -0.62249934558E+03 -0.78265137725E+03 -0.38566538667E+03  0.10718145428E+04  0.10100000352E+00 0.  1.
</event>
<event>
 5   0  0.6978115E-05  0.2455972E+04  0.7818609E-02  0.8418841E-01
        2   -1    0    0  501    0  0.00000000000E+00  0.00000000000E+00  0.13604979949E+04  0.13604979949E+04  0.25500000920E-02 0. -1.
       -2   -1    0    0    0  501  0.00000000000E+00  0.00000000000E+00 -0.11083804642E+04  0.11083804642E+04  0.25500000920E-02 0.  1.
    10030    2    1    2    0    0  0.00000000000E+00  0.00000000000E+00  0.25211753075E+03  0.24688784591E+04  0.24559718233E+04 0.  0.
        4    1    3    3  502    0  0.30480593284E+03  0.10716288687E+04 -0.39303919348E+03  0.11814298580E+04  0.12699999809E+01 0.  1.
       -4    1    3    3    0  502 -0.30480593284E+03 -0.10716288687E+04  0.64515672423E+03  0.12874486011E+04  0.12699999809E+01 0. -1.
</event>
<event>
 5   0  0.2915546E-05  0.2403005E+04  0.7818609E-02  0.8438379E-01
       -1   -1    0    0    0  501  0.00000000000E+00  0.00000000000E+00  0.12523203528E+04  0.12523203528E+04  0.50400001928E-02 0. -1.
        1   -1    0    0  501    0  0.00000000000E+00  0.00000000000E+00 -0.11527466677E+04  0.11527466677E+04  0.50400001928E-02 0.  1.
    10030    2    1    2    0    0  0.00000000000E+00  0.00000000000E+00  0.99573685140E+02  0.24050670205E+04  0.24030048802E+04 0.  0.
        2    1    3    3  502    0  0.65499766154E+03  0.20434990946E+03  0.10369533294E+04  0.12434038079E+04  0.25500000920E-02 0. -1.
       -2    1    3    3    0  502 -0.65499766154E+03 -0.20434990946E+03 -0.93737964424E+03  0.11616632126E+04  0.25500000920E-02 0.  1.
</event>
<event>
 5   0  0.2901816E-05  0.2194060E+04  0.7818609E-02  0.8520904E-01
        1   -1    0    0  501    0  0.00000000000E+00  0.00000000000E+00  0.63184860632E+03  0.63184860634E+03  0.50400001928E-02 0. -1.
       -1   -1    0    0    0  501  0.00000000000E+00  0.00000000000E+00 -0.19046891168E+04  0.19046891168E+04  0.50400001928E-02 0.  1.
    10030    2    1    2    0    0  0.00000000000E+00  0.00000000000E+00 -0.12728405104E+04  0.25365377231E+04  0.21940603127E+04 0.  0.
        4    1    3    3  502    0 -0.10383580137E+04  0.26599127047E+03 -0.36644140245E+03  0.11327928473E+04  0.12699999809E+01 0. -1.
       -4    1    3    3    0  502  0.10383580137E+04 -0.26599127047E+03 -0.90639910799E+03  0.14037448758E+04  0.12699999809E+01 0.  1.
</event>
<event>
 5   0  0.6978115E-05  0.2402152E+04  0.7818609E-02  0.8438698E-01
       -2   -1    0    0    0  501  0.00000000000E+00  0.00000000000E+00  0.94013906200E+03  0.94013906200E+03  0.25500000920E-02 0. -1.
        2   -1    0    0  501    0  0.00000000000E+00  0.00000000000E+00 -0.15344365034E+04  0.15344365034E+04  0.25500000920E-02 0.  1.
    10030    2    1    2    0    0  0.00000000000E+00  0.00000000000E+00 -0.59429744143E+03  0.24745755654E+04  0.24021521143E+04 0.  0.
        4    1    3    3  502    0  0.38520682060E+03 -0.17725719440E+03 -0.14547624332E+04  0.15153018701E+04  0.12699999809E+01 0.  1.
       -4    1    3    3    0  502 -0.38520682060E+03  0.17725719440E+03  0.86046499176E+03  0.95927369533E+03  0.12699999809E+01 0. -1.
</event>
<event>
 5   0  0.6600166E-05  0.2328341E+04  0.7818609E-02  0.8466830E-01
       -2   -1    0    0    0  501  0.00000000000E+00  0.00000000000E+00  0.88779347799E+03  0.88779347799E+03  0.25500000920E-02 0.  1.
        2   -1    0    0  501    0  0.00000000000E+00  0.00000000000E+00 -0.15265859161E+04  0.15265859161E+04  0.25500000920E-02 0. -1.
    10030    2    1    2    0    0  0.00000000000E+00  0.00000000000E+00 -0.63879243808E+03  0.24143793941E+04  0.23283410574E+04 0.  0.
        5    1    3    3  502    0 -0.34048910187E+03 -0.11129058047E+04 -0.34833390848E+03  0.12148459822E+04  0.46999998093E+01 0. -1.
       -5    1    3    3    0  502  0.34048910187E+03  0.11129058047E+04 -0.29045852960E+03  0.11995334118E+04  0.46999998093E+01 0.  1.
</event>
<event>
 5   0  0.2901816E-05  0.2423531E+04  0.7818609E-02  0.8430746E-01
       -1   -1    0    0    0  501  0.00000000000E+00  0.00000000000E+00  0.87296268659E+03  0.87296268661E+03  0.50400001928E-02 0.  1.
        1   -1    0    0  501    0  0.00000000000E+00  0.00000000000E+00 -0.16820603083E+04  0.16820603083E+04  0.50400001928E-02 0. -1.
    10030    2    1    2    0    0  0.00000000000E+00  0.00000000000E+00 -0.80909762171E+03  0.25550229949E+04  0.24235312136E+04 0.  0.
        4    1    3    3  502    0 -0.97449948271E+03 -0.15256709823E+03 -0.11466196608E+04  0.15125026349E+04  0.12699999809E+01 0. -1.
       -4    1    3    3    0  502  0.97449948271E+03  0.15256709823E+03  0.33752203906E+03  0.10425203600E+04  0.12699999809E+01 0.  1.
</event>
<event>
 5   0  0.6978115E-05  0.2440993E+04  0.7818609E-02  0.8424314E-01
       -2   -1    0    0    0  501  0.00000000000E+00  0.00000000000E+00  0.69153139340E+03  0.69153139341E+03  0.25500000920E-02 0.  1.
        2   -1    0    0  501    0  0.00000000000E+00  0.00000000000E+00 -0.21540761395E+04  0.21540761395E+04  0.25500000920E-02 0. -1.
    10030    2    1    2    0    0  0.00000000000E+00  0.00000000000E+00 -0.14625447461E+04  0.28456075329E+04  0.24409926458E+04 0.  0.
        4    1    3    3  502    0  0.79331882018E+03  0.50340818348E+02  0.34837387488E+03  0.86790259710E+03  0.12699999809E+01 0.  1.
       -4    1    3    3    0  502 -0.79331882018E+03 -0.50340818348E+02 -0.18109186210E+04  0.19777049358E+04  0.12699999809E+01 0. -1.
</event>
<event>
 5   0  0.6714629E-05  0.2389532E+04  0.7818609E-02  0.8443433E-01
        2   -1    0    0  501    0  0.00000000000E+00  0.00000000000E+00  0.21575183137E+04  0.21575183137E+04  0.25500000920E-02 0. -1.
       -2   -1    0    0    0  501  0.00000000000E+00  0.00000000000E+00 -0.66162412890E+03  0.66162412890E+03  0.25500000920E-02 0.  1.
    10030    2    1    2    0    0  0.00000000000E+00  0.00000000000E+00  0.14958941849E+04  0.28191424426E+04  0.23895323182E+04 0.  0.
        3    1    3    3  502    0  0.38201446824E+03 -0.37284047488E+03 -0.51311428367E+03  0.74042646627E+03  0.10100000352E+00 0.  1.
       -3    1    3    3    0  502 -0.38201446824E+03  0.37284047488E+03  0.20090084685E+04  0.20787159764E+04  0.10100000352E+00 0. -1.
</event>
<event>
 5   0  0.2847158E-05  0.2387467E+04  0.7818609E-02  0.8444211E-01
        1   -1    0    0  501    0  0.00000000000E+00  0.00000000000E+00  0.14960802909E+04  0.14960802909E+04  0.50400001928E-02 0. -1.
       -1   -1    0    0    0  501  0.00000000000E+00  0.00000000000E+00 -0.95248904279E+03  0.95248904280E+03  0.50400001928E-02 0.  1.
    10030    2    1    2    0    0  0.00000000000E+00  0.00000000000E+00  0.54359124807E+03  0.24485693337E+04  0.23874673478E+04 0.  0.
        5    1    3    3  502    0  0.97933472467E+03 -0.14997321793E+03 -0.41112099222E+03  0.10726747081E+04  0.46999998093E+01 0.  1.
       -5    1    3    3    0  502 -0.97933472467E+03  0.14997321793E+03  0.95471224028E+03  0.13758946256E+04  0.46999998093E+01 0. -1.
</event>
<event>
 5   0  0.6703961E-05  0.2382687E+04  0.7818609E-02  0.8446014E-01
        2   -1    0    0  501    0  0.00000000000E+00  0.00000000000E+00  0.12278480887E+04  0.12278480887E+04  0.25500000920E-02 0. -1.
       -2   -1    0    0    0  501  0.00000000000E+00  0.00000000000E+00 -0.11559244953E+04  0.11559244953E+04  0.25500000920E-02 0.  1.
    10030    2    1    2    0    0  0.00000000000E+00  0.00000000000E+00  0.71923593321E+02  0.23837725840E+04  0.23826872915E+04 0.  0.
        2    1    3    3  502    0  0.24591938403E+03  0.53182805867E+03 -0.10018063270E+04  0.11605745750E+04  0.25500000920E-02 0.  1.
       -2    1    3    3    0  502 -0.24591938403E+03 -0.53182805867E+03  0.10737299203E+04  0.12231980090E+04  0.25500000920E-02 0. -1.
</event>
<event>
 5   0  0.2847158E-05  0.2508690E+04  0.7818609E-02  0.8399896E-01
        1   -1    0    0  501    0  0.00000000000E+00  0.00000000000E+00  0.95823637181E+03  0.95823637182E+03  0.50400001928E-02 0. -1.
       -1   -1    0    0    0  501  0.00000000000E+00  0.00000000000E+00 -0.16419551814E+04  0.16419551814E+04  0.50400001928E-02 0.  1.
    10030    2    1    2    0    0  0.00000000000E+00  0.00000000000E+00 -0.68371880962E+03  0.26001915533E+04  0.25086898379E+04 0.  0.
        5    1    3    3  502    0 -0.81008339367E+03  0.98813551728E+02  0.64543836215E+03  0.10404864209E+04  0.46999998093E+01 0. -1.
       -5    1    3    3    0  502  0.81008339367E+03 -0.98813551728E+02 -0.13291571718E+04  0.15597051324E+04  0.46999998093E+01 0.  1.
</event>
<event>
 5   0  0.6703961E-05  0.2404034E+04  0.7818609E-02  0.8437995E-01
        2   -1    0    0  501    0  0.00000000000E+00  0.00000000000E+00  0.73450709830E+03  0.73450709831E+03  0.25500000920E-02 0.  1.
       -2   -1    0    0    0  501  0.00000000000E+00  0.00000000000E+00 -0.19670937742E+04  0.19670937742E+04  0.25500000920E-02 0. -1.
    10030    2    1    2    0    0  0.00000000000E+00  0.00000000000E+00 -0.12325866759E+04  0.27016008725E+04  0.24040335606E+04 0.  0.
        2    1    3    3  502    0 -0.11408596325E+03  0.10628698443E+04  0.14132117894E+01  0.10689761037E+04  0.25500000920E-02 0.  1.
       -2    1    3    3    0  502  0.11408596325E+03 -0.10628698443E+04 -0.12339998876E+04  0.16326247688E+04  0.25500000920E-02 0. -1.
</event>
<event>
 5   0  0.2943244E-05  0.2242472E+04  0.7818609E-02  0.8500955E-01
       -1   -1    0    0    0  501  0.00000000000E+00  0.00000000000E+00  0.12754575671E+04  0.12754575671E+04  0.50400001928E-02 0. -1.
        1   -1    0    0  501    0  0.00000000000E+00  0.00000000000E+00 -0.98566189359E+03  0.98566189360E+03  0.50400001928E-02 0.  1.
    10030    2    1    2    0    0  0.00000000000E+00  0.00000000000E+00  0.28979567352E+03  0.22611194607E+04  0.22424717798E+04 0.  0.
        3    1    3    3  502    0 -0.14702691548E+02  0.11180353485E+04  0.60833687379E+02  0.11197856748E+04  0.10100000352E+00 0.  1.
       -3    1    3    3    0  502  0.14702691548E+02 -0.11180353485E+04  0.22896198614E+03  0.11413337860E+04  0.10100000352E+00 0. -1.
</event>
<event>
 5   0  0.6714629E-05  0.1840263E+04  0.7818609E-02  0.8685176E-01
        2   -1    0    0  501    0  0.00000000000E+00  0.00000000000E+00  0.78837941314E+03  0.78837941314E+03  0.25500000920E-02 0.  1.
       -2   -1    0    0    0  501  0.00000000000E+00  0.00000000000E+00 -0.10739021833E+04  0.10739021833E+04  0.25500000920E-02 0. -1.
    10030    2    1    2    0    0  0.00000000000E+00  0.00000000000E+00 -0.28552277015E+03  0.18622815964E+04  0.18402634301E+04 0.  0.
        3    1    3    3  502    0 -0.47742662722E+03 -0.40898486404E+03  0.53716860974E+03  0.82689475079E+03  0.10100000352E+00 0.  1.
       -3    1    3    3    0  502  0.47742662722E+03  0.40898486404E+03 -0.82269137990E+03  0.10353868457E+04  0.10100000352E+00 0. -1.
</event>
<event>
 5   0  0.2915546E-05  0.2411774E+04  0.7818609E-02  0.8435109E-01
        1   -1    0    0  501    0  0.00000000000E+00  0.00000000000E+00  0.59336556541E+03  0.59336556543E+03  0.50400001928E-02 0. -1.
       -1   -1    0    0    0  501  0.00000000000E+00  0.00000000000E+00 -0.24507044969E+04  0.24507044969E+04  0.50400001928E-02 0.  1.
    10030    2    1    2    0    0  0.00000000000E+00  0.00000000000E+00 -0.18573389315E+04  0.30440700624E+04  0.24117741681E+04 0.  0.
        2    1    3    3  502    0 -0.43465381251E+02 -0.19898171290E+03 -0.24288378562E+04  0.24373625691E+04  0.25500000920E-02 0.  1.
       -2    1    3    3    0  502  0.43465381251E+02  0.19898171290E+03  0.57149892471E+03  0.60670749326E+03  0.25500000920E-02 0. -1.
</event>
<event>
 5   0  0.2943123E-05  0.2621838E+04  0.7818609E-02  0.8360821E-01
       -1   -1    0    0    0  501  0.00000000000E+00  0.00000000000E+00  0.89124332996E+03  0.89124332997E+03  0.50400001928E-02 0.  1.
        1   -1    0    0  501    0  0.00000000000E+00  0.00000000000E+00 -0.19282151661E+04  0.19282151661E+04  0.50400001928E-02 0. -1.
    10030    2    1    2    0    0  0.00000000000E+00  0.00000000000E+00 -0.10369718362E+04  0.28194584961E+04  0.26218382144E+04 0.  0.
        1    1    3    3  502    0  0.77341282930E+03 -0.72290271695E+03 -0.13499064747E+04  0.17155183570E+04  0.50400001928E-02 0.  1.
       -1    1    3    3    0  502 -0.77341282930E+03  0.72290271695E+03  0.31293463855E+03  0.11039401391E+04  0.50400001928E-02 0. -1.
</event>
<event>
 5   0  0.6703961E-05  0.2408541E+04  0.7818609E-02  0.8436313E-01
       -2   -1    0    0    0  501  0.00000000000E+00  0.00000000000E+00  0.62357756534E+03  0.62357756534E+03  0.25500000920E-02 0.  1.
        2   -1    0    0  501    0  0.00000000000E+00  0.00000000000E+00 -0.23257201650E+04  0.23257201650E+04  0.25500000920E-02 0. -1.
    10030    2    1    2    0    0  0.00000000000E+00  0.00000000000E+00 -0.17021425996E+04  0.29492977303E+04  0.24085405690E+04 0.  0.
        2    1    3    3  502    0  0.12002790227E+04  0.77001294873E+02 -0.92523280094E+03  0.15174500544E+04  0.25500000920E-02 0.  1.
       -2    1    3    3    0  502 -0.12002790227E+04 -0.77001294873E+02 -0.77690979869E+03  0.14318476759E+04  0.25500000920E-02 0. -1.
</event>
<event>
 5   0  0.2943244E-05  0.2300447E+04  0.7818609E-02  0.8477745E-01
        1   -1    0    0  501    0  0.00000000000E+00  0.00000000000E+00  0.14205194875E+04  0.14205194875E+04  0.50400001928E-02 0.  1.
       -1   -1    0    0    0  501  0.00000000000E+00  0.00000000000E+00 -0.93135894900E+03  0.93135894901E+03  0.50400001928E-02 0. -1.
    10030    2    1    2    0    0  0.00000000000E+00  0.00000000000E+00  0.48916053847E+03  0.23518784365E+04  0.23004465105E+04 0.  0.
        3    1    3    3  502    0 -0.32695844014E+03 -0.99945835477E+03 -0.23188071609E+03  0.10768414466E+04  0.10100000352E+00 0. -1.
       -3    1    3    3    0  502  0.32695844014E+03  0.99945835477E+03  0.72104125456E+03  0.12750369898E+04  0.10100000352E+00 0.  1.
</event>
<event>
 5   0  0.6978115E-05  0.2411682E+04  0.7818609E-02  0.8435143E-01
        2   -1    0    0  501    0  0.00000000000E+00  0.00000000000E+00  0.99678403373E+03  0.99678403373E+03  0.25500000920E-02 0. -1.
       -2   -1    0    0    0  501  0.00000000000E+00  0.00000000000E+00 -0.14587441864E+04  0.14587441864E+04  0.25500000920E-02 0.  1.
    10030    2    1    2    0    0  0.00000000000E+00  0.00000000000E+00 -0.46196015267E+03  0.24555282201E+04  0.24116823293E+04 0.  0.
        4    1    3    3  502    0  0.61399858081E+03 -0.49152325593E+03 -0.11616338906E+04  0.14028486294E+04  0.12699999809E+01 0.  1.
       -4    1    3    3    0  502 -0.61399858081E+03  0.49152325593E+03  0.69967373790E+03  0.10526795907E+04  0.12699999809E+01 0. -1.
</event>
<event>
 5   0  0.6714629E-05  0.2443798E+04  0.7818609E-02  0.8423286E-01
        2   -1    0    0  501    0  0.00000000000E+00  0.00000000000E+00  0.10646891763E+04  0.10646891763E+04  0.25500000920E-02 0.  1.
       -2   -1    0    0    0  501  0.00000000000E+00  0.00000000000E+00 -0.14023221957E+04  0.14023221957E+04  0.25500000920E-02 0. -1.
    10030    2    1    2    0    0  0.00000000000E+00  0.00000000000E+00 -0.33763301937E+03  0.24670113720E+04  0.24437980796E+04 0.  0.
        3    1    3    3  502    0  0.60578284846E+03  0.36460151763E+03  0.83720880854E+03  0.10958219406E+04  0.10100000352E+00 0.  1.
       -3    1    3    3    0  502 -0.60578284846E+03 -0.36460151763E+03 -0.11748418279E+04  0.13711894315E+04  0.10100000352E+00 0. -1.
</event>
<event>
 5   0  0.6600166E-05  0.2387550E+04  0.7818609E-02  0.8444179E-01
        2   -1    0    0  501    0  0.00000000000E+00  0.00000000000E+00  0.19225142956E+04  0.19225142956E+04  0.25500000920E-02 0. -1.
       -2   -1    0    0    0  501  0.00000000000E+00  0.00000000000E+00 -0.74126827296E+03  0.74126827297E+03  0.25500000920E-02 0.  1.
    10030    2    1    2    0    0  0.00000000000E+00  0.00000000000E+00  0.11812460226E+04  0.26637825686E+04  0.23875500846E+04 0.  0.
        5    1    3    3  502    0  0.72777087948E+03 -0.89615306624E+03  0.92964806085E+03  0.14822308788E+04  0.46999998093E+01 0. -1.
       -5    1    3    3    0  502 -0.72777087948E+03  0.89615306624E+03  0.25159796180E+03  0.11815516897E+04  0.46999998093E+01 0.  1.
</event>
<event>
 5   0  0.2901816E-05  0.2308153E+04  0.7818609E-02  0.8474713E-01
        1   -1    0    0  501    0  0.00000000000E+00  0.00000000000E+00  0.99890397838E+03  0.99890397839E+03  0.50400001928E-02 0.  1.
       -1   -1    0    0    0  501  0.00000000000E+00  0.00000000000E+00 -0.13333539252E+04  0.13333539252E+04  0.50400001928E-02 0. -1.
    10030    2    1    2    0    0  0.00000000000E+00  0.00000000000E+00 -0.33444994685E+03  0.23322579036E+04  0.23081529763E+04 0.  0.
        4    1    3    3  502    0  0.11146607633E+04 -0.28301143461E+03 -0.26480910610E+03  0.11801226906E+04  0.12699999809E+01 0. -1.
       -4    1    3    3    0  502 -0.11146607633E+04  0.28301143461E+03 -0.69640840753E+02  0.11521352130E+04  0.12699999809E+01 0.  1.
</event>
<event>
 5   0  0.2943244E-05  0.2375374E+04  0.7818609E-02  0.8448781E-01
       -1   -1    0    0    0  501  0.00000000000E+00  0.00000000000E+00  0.83562856754E+03  0.83562856755E+03  0.50400001928E-02 0.  1.
        1   -1    0    0  501    0  0.00000000000E+00  0.00000000000E+00 -0.16880712320E+04  0.16880712320E+04  0.50400001928E-02 0. -1.
    10030    2    1    2    0    0  0.00000000000E+00  0.00000000000E+00 -0.85244266447E+03  0.25236997996E+04  0.23753741141E+04 0.  0.
        3    1    3    3  502    0 -0.18709442944E+03  0.77976134228E+03 -0.13570381769E+04  0.15762565465E+04  0.10100000352E+00 0. -1.
       -3    1    3    3    0  502  0.18709442944E+03 -0.77976134228E+03  0.50459551246E+03  0.94744325310E+03  0.10100000352E+00 0.  1.
</event>
<event>
 5   0  0.2847158E-05  0.2394579E+04  0.7818609E-02  0.8441536E-01
       -1   -1    0    0    0  501  0.00000000000E+00  0.00000000000E+00  0.44646017901E+03  0.44646017904E+03  0.50400001928E-02 0. -1.
        1   -1    0    0  501    0  0.00000000000E+00  0.00000000000E+00 -0.32108175845E+04  0.32108175845E+04  0.50400001928E-02 0.  1.
    10030    2    1    2    0    0  0.00000000000E+00  0.00000000000E+00 -0.27643574055E+04  0.36572777636E+04  0.23945790391E+04 0.  0.
        5    1    3    3  502    0  0.48703338443E+03 -0.50011803659E+03 -0.28678104917E+04  0.29515552975E+04  0.46999998093E+01 0.  1.
       -5    1    3    3    0  502 -0.48703338443E+03  0.50011803659E+03  0.10345308617E+03  0.70572246606E+03  0.46999998093E+01 0. -1.
</event>
<event>
 5   0  0.6978115E-05  0.2407044E+04  0.7818609E-02  0.8436871E-01
        2   -1    0    0  501    0  0.00000000000E+00  0.00000000000E+00  0.22906742697E+04  0.22906742697E+04  0.25500000920E-02 0. -1.
       -2   -1    0    0    0  501  0.00000000000E+00  0.00000000000E+00 -0.63233152813E+03  0.63233152814E+03  0.25500000920E-02 0.  1.
    10030    2    1    2    0    0  0.00000000000E+00  0.00000000000E+00  0.16583427415E+04  0.29230057978E+04  0.24070442966E+04 0.  0.
        4    1    3    3  502    0  0.44508130685E+03  0.61187167840E+03 -0.30738923066E+03  0.81668480613E+03  0.12699999809E+01 0.  1.
       -4    1    3    3    0  502 -0.44508130685E+03 -0.61187167840E+03  0.19657319722E+04  0.21063209917E+04  0.12699999809E+01 0. -1.
</event>
<event>
 5   0  0.6337926E-05  0.2452660E+04  0.7818609E-02  0.8420048E-01
       -2   -1    0    0    0  501  0.00000000000E+00  0.00000000000E+00  0.87653738547E+03  0.87653738548E+03  0.25500000920E-02 0.  1.
        2   -1    0    0  501    0  0.00000000000E+00  0.00000000000E+00 -0.17157108548E+04  0.17157108548E+04  0.25500000920E-02 0. -1.
    10030    2    1    2    0    0  0.00000000000E+00  0.00000000000E+00 -0.83917346930E+03  0.25922482402E+04  0.24526595417E+04 0.  0.
        1    1    3    3  502    0 -0.32618540093E+03 -0.11318308780E+04 -0.58922706066E+02  0.11793684486E+04  0.50400001928E-02 0.  1.
       -1    1    3    3    0  502  0.32618540093E+03  0.11318308780E+04 -0.78025076323E+03  0.14128797917E+04  0.50400001928E-02 0. -1.
</event>
<event>
 5   0  0.6600166E-05  0.2404010E+04  0.7818609E-02  0.8438004E-01
        2   -1    0    0  501    0  0.00000000000E+00  0.00000000000E+00  0.14824223850E+04  0.14824223850E+04  0.25500000920E-02 0. -1.
       -2   -1    0    0    0  501  0.00000000000E+00  0.00000000000E+00 -0.97463165733E+03  0.97463165734E+03  0.25500000920E-02 0.  1.
    10030    2    1    2    0    0  0.00000000000E+00  0.00000000000E+00  0.50779072767E+03  0.24570540423E+04  0.24040098053E+04 0.  0.
        5    1    3    3  502    0 -0.39292479890E+03  0.11133830258E+04  0.23574367831E+02  0.11809273900E+04  0.46999998093E+01 0.  1.
       -5    1    3    3    0  502  0.39292479890E+03 -0.11133830258E+04  0.48421635984E+03  0.12761266523E+04  0.46999998093E+01 0. -1.
</event>
<event>
 5   0  0.6978115E-05  0.2408333E+04  0.7818609E-02  0.8436390E-01
        2   -1    0    0  501    0  0.00000000000E+00  0.00000000000E+00  0.11593533138E+04  0.11593533138E+04  0.25500000920E-02 0. -1.
       -2   -1    0    0    0  501  0.00000000000E+00  0.00000000000E+00 -0.12507121730E+04  0.12507121730E+04  0.25500000920E-02 0.  1.
    10030    2    1    2    0    0  0.00000000000E+00  0.00000000000E+00 -0.91358859227E+02  0.24100654868E+04  0.24083332846E+04 0.  0.
        4    1    3    3  502    0  0.64303971929E+03  0.93374247381E+03 -0.45173056352E+03  0.12204250091E+04  0.12699999809E+01 0.  1.
       -4    1    3    3    0  502 -0.64303971929E+03 -0.93374247381E+03  0.36037170429E+03  0.11896404777E+04  0.12699999809E+01 0. -1.
</event>
<event>
 5   0  0.6703961E-05  0.2306928E+04  0.7818609E-02  0.8475195E-01
        2   -1    0    0  501    0  0.00000000000E+00  0.00000000000E+00  0.13933526412E+04  0.13933526412E+04  0.25500000920E-02 0. -1.
       -2   -1    0    0    0  501  0.00000000000E+00  0.00000000000E+00 -0.95487602660E+03  0.95487602660E+03  0.25500000920E-02 0.  1.
    10030    2    1    2    0    0  0.00000000000E+00  0.00000000000E+00  0.43847661460E+03  0.23482286678E+04  0.23069278564E+04 0.  0.
        2    1    3    3  502    0  0.10134689669E+04 -0.10978611928E+03 -0.33015277452E+03  0.10715284380E+04  0.25500000920E-02 0.  1.
       -2    1    3    3    0  502 -0.10134689669E+04  0.10978611928E+03  0.76862938912E+03  0.12767002298E+04  0.25500000920E-02 0. -1.
</event>
<event>
 5   0  0.6600166E-05  0.2411832E+04  0.7818609E-02  0.8435087E-01
       -2   -1    0    0    0  501  0.00000000000E+00  0.00000000000E+00  0.69984823588E+03  0.69984823589E+03  0.25500000920E-02 0. -1.
        2   -1    0    0  501    0  0.00000000000E+00  0.00000000000E+00 -0.20779264174E+04  0.20779264174E+04  0.25500000920E-02 0.  1.
    10030    2    1    2    0    0  0.00000000000E+00  0.00000000000E+00 -0.13780781815E+04  0.27777746533E+04  0.24118317831E+04 0.  0.
        5    1    3    3  502    0  0.29859099841E+03 -0.19491522358E+03 -0.20158092294E+04  0.20471095398E+04  0.46999998093E+01 0.  1.
       -5    1    3    3    0  502 -0.29859099841E+03  0.19491522358E+03  0.63773104784E+03  0.73066511351E+03  0.46999998093E+01 0. -1.
</event>
<event>
 5   0  0.6600166E-05  0.2401115E+04  0.7818609E-02  0.8439086E-01
        2   -1    0    0  501    0  0.00000000000E+00  0.00000000000E+00  0.92648233433E+03  0.92648233433E+03  0.25500000920E-02 0.  1.
       -2   -1    0    0    0  501  0.00000000000E+00  0.00000000000E+00 -0.15557101509E+04  0.15557101509E+04  0.25500000920E-02 0. -1.
    10030    2    1    2    0    0  0.00000000000E+00  0.00000000000E+00 -0.62922781659E+03  0.24821924852E+04  0.24011147179E+04 0.  0.
        5    1    3    3  502    0  0.28019179415E+03 -0.11502948220E+04 -0.52040947973E+03  0.12932647585E+04  0.46999998093E+01 0. -1.
       -5    1    3    3    0  502 -0.28019179415E+03  0.11502948220E+04 -0.10881833686E+03  0.11889277267E+04  0.46999998093E+01 0.  1.
</event>
<event>
 5   0  0.2915546E-05  0.2434631E+04  0.7818609E-02  0.8426651E-01
       -1   -1    0    0    0  501  0.00000000000E+00  0.00000000000E+00  0.96768948138E+03  0.96768948139E+03  0.50400001928E-02 0. -1.
        1   -1    0    0  501    0  0.00000000000E+00  0.00000000000E+00 -0.15313357348E+04  0.15313357348E+04  0.50400001928E-02 0.  1.
    10030    2    1    2    0    0  0.00000000000E+00  0.00000000000E+00 -0.56364625346E+03  0.24990252162E+04  0.24346313750E+04 0.  0.
        2    1    3    3  502    0 -0.93259851666E+03  0.28655680810E+03 -0.10290912540E+04  0.14180562777E+04  0.25500000920E-02 0. -1.
       -2    1    3    3    0  502  0.93259851666E+03 -0.28655680810E+03  0.46544500057E+03  0.10809689386E+04  0.25500000920E-02 0.  1.
</event>
<event>
 5   0  0.2915546E-05  0.2399126E+04  0.7818609E-02  0.8439831E-01
       -1   -1    0    0    0  501  0.00000000000E+00  0.00000000000E+00  0.15889635467E+04  0.15889635467E+04  0.50400001928E-02 0. -1.
        1   -1    0    0  501    0  0.00000000000E+00  0.00000000000E+00 -0.90559108260E+03  0.90559108261E+03  0.50400001928E-02 0.  1.
    10030    2    1    2    0    0  0.00000000000E+00  0.00000000000E+00  0.68337246414E+03  0.24945546294E+04  0.23991258562E+04 0.  0.
        2    1    3    3  502    0 -0.72433315465E+03  0.26061695015E+03  0.12982644878E+04  0.15093277954E+04  0.25500000920E-02 0. -1.
       -2    1    3    3    0  502  0.72433315465E+03 -0.26061695015E+03 -0.61489202366E+03  0.98522683398E+03  0.25500000920E-02 0.  1.
</event>
<event>
 5   0  0.2339125E-05  0.2400306E+04  0.7818609E-02  0.8439389E-01
       -4   -1    0    0    0  501  0.00000000000E+00  0.00000000000E+00  0.77714929481E+03  0.77715033251E+03  0.12699999809E+01 0. -1.
        4   -1    0    0  501    0  0.00000000000E+00  0.00000000000E+00 -0.18533953089E+04  0.18533957440E+04  0.12699999809E+01 0.  1.
    10030    2    1    2    0    0  0.00000000000E+00  0.00000000000E+00 -0.10762460141E+04  0.26305460765E+04  0.24003056426E+04 0.  0.
        1    1    3    3  502    0 -0.10949789826E+04  0.48512435876E+03 -0.62331056081E+03  0.13501261686E+04  0.50400001928E-02 0. -1.
       -1    1    3    3    0  502  0.10949789826E+04 -0.48512435876E+03 -0.45293545325E+03  0.12804199079E+04  0.50400001928E-02 0.  1.
</event>
<event>
 5   0  0.2847158E-05  0.2389236E+04  0.7818609E-02  0.8443544E-01
       -1   -1    0    0    0  501  0.00000000000E+00  0.00000000000E+00  0.12607118690E+04  0.12607118691E+04  0.50400001928E-02 0.  1.
        1   -1    0    0  501    0  0.00000000000E+00  0.00000000000E+00 -0.11319891413E+04  0.11319891413E+04  0.50400001928E-02 0. -1.
    10030    2    1    2    0    0  0.00000000000E+00  0.00000000000E+00  0.12872272775E+03  0.23927010104E+04  0.23892359834E+04 0.  0.
        5    1    3    3  502    0 -0.69640897108E+02  0.23314348666E+03  0.12356234117E+04  0.12593621581E+04  0.46999998093E+01 0.  1.
       -5    1    3    3    0  502  0.69640897108E+02 -0.23314348666E+03 -0.11069006839E+04  0.11333388522E+04  0.46999998093E+01 0. -1.
</event>
<event>
 5   0  0.6714629E-05  0.2453901E+04  0.7818609E-02  0.8419595E-01
        2   -1    0    0  501    0  0.00000000000E+00  0.00000000000E+00  0.16862484410E+04  0.16862484410E+04  0.25500000920E-02 0. -1.
       -2   -1    0    0    0  501  0.00000000000E+00  0.00000000000E+00 -0.89275581959E+03  0.89275581959E+03  0.25500000920E-02 0.  1.
    10030    2    1    2    0    0  0.00000000000E+00  0.00000000000E+00  0.79349262139E+03  0.25790042606E+04  0.24539014723E+04 0.  0.
        3    1    3    3  502    0 -0.10119618903E+04 -0.68758680889E+03  0.29947738337E+03  0.12595750079E+04  0.10100000352E+00 0. -1.
       -3    1    3    3    0  502  0.10119618903E+04  0.68758680889E+03  0.49401523802E+03  0.13194292527E+04  0.10100000352E+00 0.  1.
</event>
<event>
 5   0  0.2943123E-05  0.1993849E+04  0.7818609E-02  0.8609502E-01
        1   -1    0    0  501    0  0.00000000000E+00  0.00000000000E+00  0.11429006693E+04  0.11429006693E+04  0.50400001928E-02 0. -1.
       -1   -1    0    0    0  501  0.00000000000E+00  0.00000000000E+00 -0.86959335152E+03  0.86959335153E+03  0.50400001928E-02 0.  1.
    10030    2    1    2    0    0  0.00000000000E+00  0.00000000000E+00  0.27330731780E+03  0.20124940209E+04  0.19938493659E+04 0.  0.
        1    1    3    3  502    0  0.20898596847E+02 -0.99626970034E+03  0.10690336632E+03  0.10022067636E+04  0.50400001928E-02 0. -1.
       -1    1    3    3    0  502 -0.20898596847E+02  0.99626970034E+03  0.16640395147E+03  0.10102872573E+04  0.50400001928E-02 0.  1.
</event>
<event>
 5   0  0.2915546E-05  0.2399507E+04  0.7818609E-02  0.8439688E-01
        1   -1    0    0  501    0  0.00000000000E+00  0.00000000000E+00  0.18652558509E+04  0.18652558509E+04  0.50400001928E-02 0. -1.
       -1   -1    0    0    0  501  0.00000000000E+00  0.00000000000E+00 -0.77169518835E+03  0.77169518837E+03  0.50400001928E-02 0.  1.
    10030    2    1    2    0    0  0.00000000000E+00  0.00000000000E+00  0.10935606625E+04  0.26369510392E+04  0.23995074204E+04 0.  0.
        2    1    3    3  502    0  0.64901968968E+01 -0.74989848038E+03  0.15759441213E+04  0.17452764042E+04  0.25500000920E-02 0. -1.
       -2    1    3    3    0  502 -0.64901968968E+01  0.74989848038E+03 -0.48238345877E+03  0.89167463507E+03  0.25500000920E-02 0.  1.
</event>
<event>
 5   0  0.2847158E-05  0.2408689E+04  0.7818609E-02  0.8436258E-01
        1   -1    0    0  501    0  0.00000000000E+00  0.00000000000E+00  0.30224318786E+04  0.30224318786E+04  0.50400001928E-02 0. -1.
       -1   -1    0    0    0  501  0.00000000000E+00  0.00000000000E+00 -0.47989371836E+03  0.47989371839E+03  0.50400001928E-02 0.  1.
    10030    2    1    2    0    0  0.00000000000E+00  0.00000000000E+00  0.25425381603E+04  0.35023255970E+04  0.24086893306E+04 0.  0.
        5    1    3    3  502    0  0.89919703260E+03  0.76716901705E+03  0.16070239664E+04  0.19949064446E+04  0.46999998093E+01 0. -1.
       -5    1    3    3    0  502 -0.89919703260E+03 -0.76716901705E+03  0.93551419391E+03  0.15074191524E+04  0.46999998093E+01 0.  1.
</event>
<event>
 5   0  0.6703961E-05  0.2443479E+04  0.7818609E-02  0.8423403E-01
        2   -1    0    0  501    0  0.00000000000E+00  0.00000000000E+00  0.17088606545E+04  0.17088606545E+04  0.25500000920E-02 0.  1.
       -2   -1    0    0    0  501  0.00000000000E+00  0.00000000000E+00 -0.87347520201E+03  0.87347520201E+03  0.25500000920E-02 0. -1.
    10030    2    1    2    0    0  0.00000000000E+00  0.00000000000E+00  0.83538545250E+03  0.25823358565E+04  0.24434789996E+04 0.  0.
        2    1    3    3  502    0  0.56232499885E+03  0.61871025102E+03 -0.52379506416E+03  0.98659669992E+03  0.25500000920E-02 0. -1.
       -2    1    3    3    0  502 -0.56232499885E+03 -0.61871025102E+03  0.13591805167E+04  0.15957391566E+04  0.25500000920E-02 0.  1.
</event>
<event>
 5   0  0.6978115E-05  0.2296309E+04  0.7818609E-02  0.8479378E-01
       -2   -1    0    0    0  501  0.00000000000E+00  0.00000000000E+00  0.63565106665E+03  0.63565106666E+03  0.25500000920E-02 0. -1.
        2   -1    0    0  501    0  0.00000000000E+00  0.00000000000E+00 -0.20738721156E+04  0.20738721156E+04  0.25500000920E-02 0.  1.
    10030    2    1    2    0    0  0.00000000000E+00  0.00000000000E+00 -0.14382210489E+04  0.27095231822E+04  0.22963092321E+04 0.  0.
        4    1    3    3  502    0  0.45577235833E+03  0.62753647570E+03  0.27982938247E+03  0.82452202344E+03  0.12699999809E+01 0. -1.
       -4    1    3    3    0  502 -0.45577235833E+03 -0.62753647570E+03 -0.17180504314E+04  0.18850011588E+04  0.12699999809E+01 0.  1.
</event>
<event>
 5   0  0.2943244E-05  0.2403734E+04  0.7818609E-02  0.8438107E-01
       -1   -1    0    0    0  501  0.00000000000E+00  0.00000000000E+00  0.12576431392E+04  0.12576431392E+04  0.50400001928E-02 0.  1.
        1   -1    0    0  501    0  0.00000000000E+00  0.00000000000E+00 -0.11485642660E+04  0.11485642660E+04  0.50400001928E-02 0. -1.
    10030    2    1    2    0    0  0.00000000000E+00  0.00000000000E+00  0.10907887325E+03  0.24062074052E+04  0.24037337366E+04 0.  0.
        3    1    3    3  502    0 -0.30907775527E+03  0.54965677505E+03 -0.96966172363E+03  0.11566743265E+04  0.10100000352E+00 0. -1.
       -3    1    3    3    0  502  0.30907775527E+03 -0.54965677505E+03  0.10787405969E+04  0.12495330787E+04  0.10100000352E+00 0.  1.
</event>
<event>
 5   0  0.6703961E-05  0.2196190E+04  0.7818609E-02  0.8520016E-01
        2   -1    0    0  501    0  0.00000000000E+00  0.00000000000E+00  0.13351054801E+04  0.13351054801E+04  0.25500000920E-02 0.  1.
       -2   -1    0    0    0  501  0.00000000000E+00  0.00000000000E+00 -0.90315879584E+03  0.90315879584E+03  0.25500000920E-02 0. -1.
    10030    2    1    2    0    0  0.00000000000E+00  0.00000000000E+00  0.43194668427E+03  0.22382642760E+04  0.21961896619E+04 0.  0.
        2    1    3    3  502    0 -0.41269390260E+03 -0.72501766878E+03  0.94368739998E+03  0.12595684921E+04  0.25500000920E-02 0.  1.
       -2    1    3    3    0  502  0.41269390260E+03  0.72501766878E+03 -0.51174071571E+03  0.97869578390E+03  0.25500000920E-02 0. -1.
</event>
<event>
 5   0  0.2847158E-05  0.2430121E+04  0.7818609E-02  0.8428312E-01
       -1   -1    0    0    0  501  0.00000000000E+00  0.00000000000E+00  0.12502869557E+04  0.12502869557E+04  0.50400001928E-02 0.  1.
        1   -1    0    0  501    0  0.00000000000E+00  0.00000000000E+00 -0.11808262299E+04  0.11808262299E+04  0.50400001928E-02 0. -1.
    10030    2    1    2    0    0  0.00000000000E+00  0.00000000000E+00  0.69460725814E+02  0.24311131857E+04  0.24301206820E+04 0.  0.
        5    1    3    3  502    0 -0.48709492587E+03  0.70837340957E+03 -0.82427927585E+03  0.11910133369E+04  0.46999998093E+01 0. -1.
       -5    1    3    3    0  502  0.48709492587E+03 -0.70837340957E+03  0.89374000167E+03  0.12400998487E+04  0.46999998093E+01 0.  1.
</event>
<event>
 5   0  0.2339125E-05  0.2761944E+04  0.7818609E-02  0.8315182E-01
        3   -1    0    0  501    0  0.00000000000E+00  0.00000000000E+00  0.11460359832E+04  0.11460359877E+04  0.10100000352E+00 0.  1.
       -3   -1    0    0    0  501  0.00000000000E+00  0.00000000000E+00 -0.16640690948E+04  0.16640690979E+04  0.10100000352E+00 0. -1.
    10030    2    1    2    0    0  0.00000000000E+00  0.00000000000E+00 -0.51803311162E+03  0.28101050855E+04  0.27619435706E+04 0.  0.
        3    1    3    3  502    0  0.99450271021E+03 -0.78250346274E+03  0.30355901953E+03  0.13013436896E+04  0.10100000352E+00 0.  1.
       -3    1    3    3    0  502 -0.99450271021E+03  0.78250346274E+03 -0.82159213116E+03  0.15087613960E+04  0.10100000352E+00 0. -1.
</event>
<event>
 5   0  0.2901816E-05  0.2391713E+04  0.7818609E-02  0.8442613E-01
        1   -1    0    0  501    0  0.00000000000E+00  0.00000000000E+00  0.16522931325E+04  0.16522931325E+04  0.50400001928E-02 0. -1.
       -1   -1    0    0    0  501  0.00000000000E+00  0.00000000000E+00 -0.86550784180E+03  0.86550784181E+03  0.50400001928E-02 0.  1.
    10030    2    1    2    0    0  0.00000000000E+00  0.00000000000E+00  0.78678529068E+03  0.25178009743E+04  0.23917129118E+04 0.  0.
        4    1    3    3  502    0 -0.70989541786E+01 -0.70461354671E+03  0.14105283717E+04  0.15767442867E+04  0.12699999809E+01 0. -1.
       -4    1    3    3    0  502  0.70989541786E+01  0.70461354671E+03 -0.62374308098E+03  0.94105668763E+03  0.12699999809E+01 0.  1.
</event>
<event>
 5   0  0.2915546E-05  0.2426696E+04  0.7818609E-02  0.8429576E-01
       -1   -1    0    0    0  501  0.00000000000E+00  0.00000000000E+00  0.10177072662E+04  0.10177072662E+04  0.50400001928E-02 0. -1.
        1   -1    0    0  501    0  0.00000000000E+00  0.00000000000E+00 -0.14465978971E+04  0.14465978971E+04  0.50400001928E-02 0.  1.
    10030    2    1    2    0    0  0.00000000000E+00  0.00000000000E+00 -0.42889063097E+03  0.24643051633E+04  0.24266958534E+04 0.  0.
        2    1    3    3  502    0 -0.10496181631E+04  0.60573545824E+03 -0.27537061276E+03  0.12427560936E+04  0.25500000920E-02 0. -1.
       -2    1    3    3    0  502  0.10496181631E+04 -0.60573545824E+03 -0.15352001821E+03  0.12215490697E+04  0.25500000920E-02 0.  1.
</event>
<event>
 5   0  0.2847158E-05  0.2416178E+04  0.7818609E-02  0.8433472E-01
        1   -1    0    0  501    0  0.00000000000E+00  0.00000000000E+00  0.17018063201E+04  0.17018063201E+04  0.50400001928E-02 0. -1.
       -1   -1    0    0    0  501  0.00000000000E+00  0.00000000000E+00 -0.85760566207E+03  0.85760566208E+03  0.50400001928E-02 0.  1.
    10030    2    1    2    0    0  0.00000000000E+00  0.00000000000E+00  0.84420065805E+03  0.25594119822E+04  0.24161777550E+04 0.  0.
        5    1    3    3  502    0 -0.71139559732E+03 -0.28188558043E+03 -0.56815122769E+03  0.95307978882E+03  0.46999998093E+01 0.  1.
       -5    1    3    3    0  502  0.71139559732E+03  0.28188558043E+03  0.14123518857E+04  0.16063321934E+04  0.46999998093E+01 0. -1.
</event>
<event>
 5   0  0.2943123E-05  0.2298393E+04  0.7818609E-02  0.8478555E-01
       -1   -1    0    0    0  501  0.00000000000E+00  0.00000000000E+00  0.80288474898E+03  0.80288474899E+03  0.50400001928E-02 0. -1.
        1   -1    0    0  501    0  0.00000000000E+00  0.00000000000E+00 -0.16448840972E+04  0.16448840972E+04  0.50400001928E-02 0.  1.
    10030    2    1    2    0    0  0.00000000000E+00  0.00000000000E+00 -0.84199934820E+03  0.24477688462E+04  0.22983927910E+04 0.  0.
        1    1    3    3  502    0  0.94738589397E+03  0.61896028293E+03 -0.63399928800E+03  0.12971534069E+04  0.50400001928E-02 0.  1.
       -1    1    3    3    0  502 -0.94738589397E+03 -0.61896028293E+03 -0.20800006020E+03  0.11506154392E+04  0.50400001928E-02 0. -1.
</event>
<event>
 5   0  0.6714629E-05  0.2383377E+04  0.7818609E-02  0.8445753E-01
       -2   -1    0    0    0  501  0.00000000000E+00  0.00000000000E+00  0.87189714873E+03  0.87189714874E+03  0.25500000920E-02 0.  1.
        2   -1    0    0  501    0  0.00000000000E+00  0.00000000000E+00 -0.16287723546E+04  0.16287723546E+04  0.25500000920E-02 0. -1.
    10030    2    1    2    0    0  0.00000000000E+00  0.00000000000E+00 -0.75687520589E+03  0.25006695034E+04  0.23833774119E+04 0.  0.
        3    1    3    3  502    0 -0.10337899906E+04  0.45319894098E+03  0.22480966879E+02  0.11289891182E+04  0.10100000352E+00 0.  1.
       -3    1    3    3    0  502  0.10337899906E+04 -0.45319894098E+03 -0.77935617277E+03  0.13716803852E+04  0.10100000352E+00 0. -1.
</event>
<event>
 5   0  0.6714629E-05  0.2433486E+04  0.7818609E-02  0.8427072E-01
       -2   -1    0    0    0  501  0.00000000000E+00  0.00000000000E+00  0.16495056848E+04  0.16495056848E+04  0.25500000920E-02 0. -1.
        2   -1    0    0  501    0  0.00000000000E+00  0.00000000000E+00 -0.89751949841E+03  0.89751949842E+03  0.25500000920E-02 0.  1.
    10030    2    1    2    0    0  0.00000000000E+00  0.00000000000E+00  0.75198618642E+03  0.25470251832E+04  0.24334859892E+04 0.  0.
        3    1    3    3  502    0  0.86207718311E+03 -0.45189444491E+03  0.11401801996E+04  0.14991319344E+04  0.10100000352E+00 0.  1.
       -3    1    3    3    0  502 -0.86207718311E+03  0.45189444491E+03 -0.38819401315E+03  0.10478932489E+04  0.10100000352E+00 0. -1.
</event>
<event>
 5   0  0.2847158E-05  0.2300220E+04  0.7818609E-02  0.8477835E-01
       -1   -1    0    0    0  501  0.00000000000E+00  0.00000000000E+00  0.80834060889E+03  0.80834060891E+03  0.50400001928E-02 0.  1.
        1   -1    0    0  501    0  0.00000000000E+00  0.00000000000E+00 -0.16363802811E+04  0.16363802811E+04  0.50400001928E-02 0. -1.
    10030    2    1    2    0    0  0.00000000000E+00  0.00000000000E+00 -0.82803967220E+03  0.24447208900E+04  0.23002196702E+04 0.  0.
        5    1    3    3  502    0 -0.78075289791E+03 -0.77138223821E+03 -0.77930387279E+03  0.13460840468E+04  0.46999998093E+01 0. -1.
       -5    1    3    3    0  502  0.78075289791E+03  0.77138223821E+03 -0.48735799417E+02  0.10986368432E+04  0.46999998093E+01 0.  1.
</event>
<event>
 5   0  0.2943244E-05  0.2407528E+04  0.7818609E-02  0.8436691E-01
        1   -1    0    0  501    0  0.00000000000E+00  0.00000000000E+00  0.15387872940E+04  0.15387872940E+04  0.50400001928E-02 0.  1.
       -1   -1    0    0    0  501  0.00000000000E+00  0.00000000000E+00 -0.94168172555E+03  0.94168172556E+03  0.50400001928E-02 0. -1.
    10030    2    1    2    0    0  0.00000000000E+00  0.00000000000E+00  0.59710556842E+03  0.24804690195E+04  0.24075280885E+04 0.  0.
        3    1    3    3  502    0 -0.11512682488E+04 -0.18844631012E+03  0.60439185464E+03  0.13138569620E+04  0.10100000352E+00 0.  1.
       -3    1    3    3    0  502  0.11512682488E+04  0.18844631012E+03 -0.72862862197E+01  0.11666120575E+04  0.10100000352E+00 0. -1.
</event>
<event>
 5   0  0.2943244E-05  0.2459843E+04  0.7818609E-02  0.8417433E-01
       -1   -1    0    0    0  501  0.00000000000E+00  0.00000000000E+00  0.61794109341E+03  0.61794109343E+03  0.50400001928E-02 0. -1.
        1   -1    0    0  501    0  0.00000000000E+00  0.00000000000E+00 -0.24479782376E+04  0.24479782376E+04  0.50400001928E-02 0.  1.
    10030    2    1    2    0    0  0.00000000000E+00  0.00000000000E+00 -0.18300371442E+04  0.30659193310E+04  0.24598425550E+04 0.  0.
        3    1    3    3  502    0  0.74875194348E+03 -0.42556280704E+03  0.17937376552E+03  0.87972048604E+03  0.10100000352E+00 0. -1.
       -3    1    3    3    0  502 -0.74875194348E+03  0.42556280704E+03 -0.20094109097E+04  0.21861988450E+04  0.10100000352E+00 0.  1.
</event>
<event>
 5   0  0.6703961E-05  0.2455989E+04  0.7818609E-02  0.8418835E-01
       -2   -1    0    0    0  501  0.00000000000E+00  0.00000000000E+00  0.13114244316E+04  0.13114244316E+04  0.25500000920E-02 0.  1.
        2   -1    0    0  501    0  0.00000000000E+00  0.00000000000E+00 -0.11498717943E+04  0.11498717943E+04  0.25500000920E-02 0. -1.
    10030    2    1    2    0    0  0.00000000000E+00  0.00000000000E+00  0.16155263733E+03  0.24612962259E+04  0.24559885702E+04 0.  0.
        2    1    3    3  502    0 -0.93446367613E+03  0.76921290414E+03 -0.12717901826E+03  0.12169985031E+04  0.25500000920E-02 0. -1.
       -2    1    3    3    0  502  0.93446367613E+03 -0.76921290414E+03  0.28873165559E+03  0.12442977228E+04  0.25500000920E-02 0.  1.
</event>
<event>
 5   0  0.6703961E-05  0.2339474E+04  0.7818609E-02  0.8462518E-01
        2   -1    0    0  501    0  0.00000000000E+00  0.00000000000E+00  0.13206363247E+04  0.13206363247E+04  0.25500000920E-02 0. -1.
       -2   -1    0    0    0  501  0.00000000000E+00  0.00000000000E+00 -0.10360798653E+04  0.10360798653E+04  0.25500000920E-02 0.  1.
    10030    2    1    2    0    0  0.00000000000E+00  0.00000000000E+00  0.28455645947E+03  0.23567161900E+04  0.23394740480E+04 0.  0.
        2    1    3    3  502    0  0.93062253668E+02  0.35304573570E+03 -0.97720995254E+03  0.10431879821E+04  0.25500000920E-02 0.  1.
       -2    1    3    3    0  502 -0.93062253668E+02 -0.35304573570E+03  0.12617664120E+04  0.13135282079E+04  0.25500000920E-02 0. -1.
</event>
<event>
 5   0  0.2901816E-05  0.2409899E+04  0.7818609E-02  0.8435807E-01
        1   -1    0    0  501    0  0.00000000000E+00  0.00000000000E+00  0.11350441882E+04  0.11350441882E+04  0.50400001928E-02 0.  1.
       -1   -1    0    0    0  501  0.00000000000E+00  0.00000000000E+00 -0.12791599544E+04  0.12791599544E+04  0.50400001928E-02 0. -1.
    10030    2    1    2    0    0  0.00000000000E+00  0.00000000000E+00 -0.14411576622E+03  0.24142041426E+04  0.24098988128E+04 0.  0.
        4    1    3    3  502    0 -0.79989906873E+03  0.65069783857E+03  0.55247809042E+03  0.11698204352E+04  0.12699999809E+01 0.  1.
       -4    1    3    3    0  502  0.79989906873E+03 -0.65069783857E+03 -0.69659385664E+03  0.12443837074E+04  0.12699999809E+01 0. -1.
</event>
<event>
 5   0  0.6337926E-05  0.2704822E+04  0.7818609E-02  0.8333442E-01
        2   -1    0    0  501    0  0.00000000000E+00  0.00000000000E+00  0.24365348432E+04  0.24365348432E+04  0.25500000920E-02 0. -1.
       -2   -1    0    0    0  501  0.00000000000E+00  0.00000000000E+00 -0.75066266494E+03  0.75066266494E+03  0.25500000920E-02 0.  1.
    10030    2    1    2    0    0  0.00000000000E+00  0.00000000000E+00  0.16858721782E+04  0.31871975081E+04  0.27048221669E+04 0.  0.
        1    1    3    3  502    0  0.18222534981E+03 -0.96036919444E+03  0.19442265606E+04  0.21761277506E+04  0.50400001928E-02 0. -1.
       -1    1    3    3    0  502 -0.18222534981E+03  0.96036919444E+03 -0.25835438238E+03  0.10110697576E+04  0.50400001928E-02 0.  1.
</event>
<event>
 5   0  0.2339125E-05  0.1625212E+04  0.7818609E-02  0.8805207E-01
       -3   -1    0    0    0  501  0.00000000000E+00  0.00000000000E+00  0.69250373935E+03  0.69250374672E+03  0.10100000352E+00 0. -1.
        3   -1    0    0  501    0  0.00000000000E+00  0.00000000000E+00 -0.95353782233E+03  0.95353782768E+03  0.10100000352E+00 0.  1.
    10030    2    1    2    0    0  0.00000000000E+00  0.00000000000E+00 -0.26103408298E+03  0.16460415744E+04  0.16252120084E+04 0.  0.
        1    1    3    3  502    0 -0.50868491708E+03  0.40020729611E+03 -0.62814121954E+03  0.90193548352E+03  0.50400001928E-02 0.  1.
       -1    1    3    3    0  502  0.50868491708E+03 -0.40020729611E+03  0.36710713657E+03  0.74410609087E+03  0.50400001928E-02 0. -1.
</event>
<event>
 5   0  0.6600166E-05  0.2435920E+04  0.7818609E-02  0.8426177E-01
       -2   -1    0    0    0  501  0.00000000000E+00  0.00000000000E+00  0.55641651011E+03  0.55641651012E+03  0.25500000920E-02 0. -1.
        2   -1    0    0  501    0  0.00000000000E+00  0.00000000000E+00 -0.26660368491E+04  0.26660368491E+04  0.25500000920E-02 0.  1.
    10030    2    1    2    0    0  0.00000000000E+00  0.00000000000E+00 -0.21096203390E+04  0.32224533593E+04  0.24359202938E+04 0.  0.
        5    1    3    3  502    0  0.92227874191E+02 -0.29663374857E+03 -0.26127377961E+04  0.26311439418E+04  0.46999998093E+01 0.  1.
       -5    1    3    3    0  502 -0.92227874191E+02  0.29663374857E+03  0.50311745705E+03  0.59130941744E+03  0.46999998093E+01 0. -1.
</event>
<event>
 5   0  0.6600166E-05  0.2371030E+04  0.7818609E-02  0.8450430E-01
       -2   -1    0    0    0  501  0.00000000000E+00  0.00000000000E+00  0.17086999551E+04  0.17086999551E+04  0.25500000920E-02 0. -1.
        2   -1    0    0  501    0  0.00000000000E+00  0.00000000000E+00 -0.82252358385E+03  0.82252358385E+03  0.25500000920E-02 0.  1.
    10030    2    1    2    0    0  0.00000000000E+00  0.00000000000E+00  0.88617637125E+03  0.25312235390E+04  0.23710301650E+04 0.  0.
        5    1    3    3  502    0 -0.69646839504E+03 -0.95736557959E+03  0.50895639809E+03  0.12886721008E+04  0.46999998093E+01 0.  1.
       -5    1    3    3    0  502  0.69646839504E+03  0.95736557959E+03  0.37721997316E+03  0.12425514381E+04  0.46999998093E+01 0. -1.
</event>
<event>
 5   0  0.6703961E-05  0.2431043E+04  0.7818609E-02  0.8427972E-01
       -2   -1    0    0    0  501  0.00000000000E+00  0.00000000000E+00  0.75253188307E+03  0.75253188307E+03  0.25500000920E-02 0.  1.
        2   -1    0    0  501    0  0.00000000000E+00  0.00000000000E+00 -0.19633624119E+04  0.19633624119E+04  0.25500000920E-02 0. -1.
    10030    2    1    2    0    0  0.00000000000E+00  0.00000000000E+00 -0.12108305289E+04  0.27158942950E+04  0.24310432436E+04 0.  0.
        2    1    3    3  502    0  0.85133099877E+03  0.69942326381E+02  0.36068785166E+03  0.92722819458E+03  0.25500000920E-02 0.  1.
       -2    1    3    3    0  502 -0.85133099877E+03 -0.69942326381E+02 -0.15715183805E+04  0.17886661004E+04  0.25500000920E-02 0. -1.
</event>
<event>
 5   0  0.2847158E-05  0.2352082E+04  0.7818609E-02  0.8457665E-01
        1   -1    0    0  501    0  0.00000000000E+00  0.00000000000E+00  0.19179408375E+04  0.19179408375E+04  0.50400001928E-02 0.  1.
       -1   -1    0    0    0  501  0.00000000000E+00  0.00000000000E+00 -0.72112336904E+03  0.72112336905E+03  0.50400001928E-02 0. -1.
    10030    2    1    2    0    0  0.00000000000E+00  0.00000000000E+00  0.11968174684E+04  0.26390642065E+04  0.23520815958E+04 0.  0.
        5    1    3    3  502    0  0.57541658353E+03  0.35093209090E+03  0.16797353026E+04  0.18099144603E+04  0.46999998093E+01 0.  1.
       -5    1    3    3    0  502 -0.57541658353E+03 -0.35093209090E+03 -0.48291783416E+03  0.82914974617E+03  0.46999998093E+01 0. -1.
</event>
<event>
 5   0  0.6714629E-05  0.2384426E+04  0.7818609E-02  0.8445357E-01
       -2   -1    0    0    0  501  0.00000000000E+00  0.00000000000E+00  0.60048418856E+03  0.60048418856E+03  0.25500000920E-02 0. -1.
        2   -1    0    0  501    0  0.00000000000E+00  0.00000000000E+00 -0.23670434753E+04  0.23670434753E+04  0.25500000920E-02 0.  1.
    10030    2    1    2    0    0  0.00000000000E+00  0.00000000000E+00 -0.17665592868E+04  0.29675276639E+04  0.23844262879E+04 0.  0.
        3    1    3    3  502    0  0.10905602592E+04  0.47140506852E+03 -0.10066577174E+04  0.15572103865E+04  0.10100000352E+00 0. -1.
       -3    1    3    3    0  502 -0.10905602592E+04 -0.47140506852E+03 -0.75990156934E+03  0.14103172774E+04  0.10100000352E+00 0.  1.
</event>
<event>
 5   0  0.2943244E-05  0.2349032E+04  0.7818609E-02  0.8458835E-01
       -1   -1    0    0    0  501  0.00000000000E+00  0.00000000000E+00  0.12044058800E+04  0.12044058800E+04  0.50400001928E-02 0. -1.
        1   -1    0    0  501    0  0.00000000000E+00  0.00000000000E+00 -0.11453680436E+04  0.11453680436E+04  0.50400001928E-02 0.  1.
    10030    2    1    2    0    0  0.00000000000E+00  0.00000000000E+00  0.59037836326E+02  0.23497739236E+04  0.23490321467E+04 0.  0.
        3    1    3    3  502    0 -0.54133202116E+03 -0.39556713857E+03 -0.93513734446E+03  0.11506500691E+04  0.10100000352E+00 0.  1.
       -3    1    3    3    0  502  0.54133202116E+03  0.39556713857E+03  0.99417518079E+03  0.11991238545E+04  0.10100000352E+00 0. -1.
</event>
<event>
 5   0  0.6978115E-05  0.2425801E+04  0.7818609E-02  0.8429907E-01
        2   -1    0    0  501    0  0.00000000000E+00  0.00000000000E+00  0.11458004396E+04  0.11458004396E+04  0.25500000920E-02 0.  1.
       -2   -1    0    0    0  501  0.00000000000E+00  0.00000000000E+00 -0.12839297542E+04  0.12839297542E+04  0.25500000920E-02 0. -1.
    10030    2    1    2    0    0  0.00000000000E+00  0.00000000000E+00 -0.13812931460E+03  0.24297301938E+04  0.24258007146E+04 0.  0.
        4    1    3    3  502    0 -0.11894169627E+04 -0.12111927402E+03  0.13557751891E+03  0.12032312605E+04  0.12699999809E+01 0. -1.
       -4    1    3    3    0  502  0.11894169627E+04  0.12111927402E+03 -0.27370683350E+03  0.12264989333E+04  0.12699999809E+01 0.  1.
</event>
<event>
 5   0  0.2915546E-05  0.2389537E+04  0.7818609E-02  0.8443431E-01
        1   -1    0    0  501    0  0.00000000000E+00  0.00000000000E+00  0.17334261522E+04  0.17334261522E+04  0.50400001928E-02 0.  1.
       -1   -1    0    0    0  501  0.00000000000E+00  0.00000000000E+00 -0.82349707394E+03  0.82349707395E+03  0.50400001928E-02 0. -1.
    10030    2    1    2    0    0  0.00000000000E+00  0.00000000000E+00  0.90992907824E+03  0.25569232261E+04  0.23895366616E+04 0.  0.
        2    1    3    3  502    0 -0.44543894161E+03  0.10041469567E+04  0.95771078973E+03  0.14573732940E+04  0.25500000920E-02 0.  1.
       -2    1    3    3    0  502  0.44543894161E+03 -0.10041469567E+04 -0.47781711492E+02  0.10995499321E+04  0.25500000920E-02 0. -1.
</event>
<event>
 5   0  0.2943123E-05  0.2518093E+04  0.7818609E-02  0.8396568E-01
        1   -1    0    0  501    0  0.00000000000E+00  0.00000000000E+00  0.96758260162E+03  0.96758260163E+03  0.50400001928E-02 0. -1.
       -1   -1    0    0    0  501  0.00000000000E+00  0.00000000000E+00 -0.16383083353E+04  0.16383083353E+04  0.50400001928E-02 0.  1.
    10030    2    1    2    0    0  0.00000000000E+00  0.00000000000E+00 -0.67072573372E+03  0.26058909370E+04  0.25180934386E+04 0.  0.
        1    1    3    3  502    0  0.85103314225E+03  0.46770563376E+03 -0.11646731814E+04  0.15164002073E+04  0.50400001928E-02 0.  1.
       -1    1    3    3    0  502 -0.85103314225E+03 -0.46770563376E+03  0.49394744768E+03  0.10894907297E+04  0.50400001928E-02 0. -1.
</event>
<event>
 5   0  0.6600166E-05  0.2456351E+04  0.7818609E-02  0.8418703E-01
       -2   -1    0    0    0  501  0.00000000000E+00  0.00000000000E+00  0.94243183582E+03  0.94243183582E+03  0.25500000920E-02 0.  1.
        2   -1    0    0  501    0  0.00000000000E+00  0.00000000000E+00 -0.16005555264E+04  0.16005555264E+04  0.25500000920E-02 0. -1.
    10030    2    1    2    0    0  0.00000000000E+00  0.00000000000E+00 -0.65812369056E+03  0.25429873622E+04  0.24563505312E+04 0.  0.
        5    1    3    3  502    0  0.64298541942E+02 -0.10027849824E+04 -0.10601420012E+04  0.14606968118E+04  0.46999998093E+01 0.  1.
       -5    1    3    3    0  502 -0.64298541942E+02  0.10027849824E+04  0.40201831061E+03  0.10822905504E+04  0.46999998093E+01 0. -1.
</event>
<event>
 5   0  0.2847158E-05  0.2355598E+04  0.7818609E-02  0.8456317E-01
        1   -1    0    0  501    0  0.00000000000E+00  0.00000000000E+00  0.10723608245E+04  0.10723608245E+04  0.50400001928E-02 0.  1.
       -1   -1    0    0    0  501  0.00000000000E+00  0.00000000000E+00 -0.12936043554E+04  0.12936043554E+04  0.50400001928E-02 0. -1.
    10030    2    1    2    0    0  0.00000000000E+00  0.00000000000E+00 -0.22124353085E+03  0.23659651799E+04  0.23555981263E+04 0.  0.
        5    1    3    3  502    0  0.64499797347E+02  0.11399104172E+04 -0.40108745791E+03  0.12101442980E+04  0.46999998093E+01 0. -1.
       -5    1    3    3    0  502 -0.64499797347E+02 -0.11399104172E+04  0.17984392706E+03  0.11558208819E+04  0.46999998093E+01 0.  1.
</event>
<event>
 5   0  0.6714629E-05  0.2412009E+04  0.7818609E-02  0.8435021E-01
       -2   -1    0    0    0  501  0.00000000000E+00  0.00000000000E+00  0.56465198023E+03  0.56465198023E+03  0.25500000920E-02 0. -1.
        2   -1    0    0  501    0  0.00000000000E+00  0.00000000000E+00 -0.25758294016E+04  0.25758294016E+04  0.25500000920E-02 0.  1.
    10030    2    1    2    0    0  0.00000000000E+00  0.00000000000E+00 -0.20111774214E+04  0.31404813819E+04  0.24120092640E+04 0.  0.
        3    1    3    3  502    0 -0.58918795459E+02  0.11746581757E+03 -0.25664792891E+04  0.25698415504E+04  0.10100000352E+00 0.  1.
       -3    1    3    3    0  502  0.58918795459E+02 -0.11746581757E+03  0.55530186769E+03  0.57063983143E+03  0.10100000352E+00 0. -1.
</event>
<event>
 5   0  0.6337926E-05  0.2433762E+04  0.7818609E-02  0.8426971E-01
       -2   -1    0    0    0  501  0.00000000000E+00  0.00000000000E+00  0.12995660278E+04  0.12995660278E+04  0.25500000920E-02 0. -1.
        2   -1    0    0  501    0  0.00000000000E+00  0.00000000000E+00 -0.11394566525E+04  0.11394566525E+04  0.25500000920E-02 0.  1.
    10030    2    1    2    0    0  0.00000000000E+00  0.00000000000E+00  0.16010937526E+03  0.24390226803E+04  0.24337618254E+04 0.  0.
        1    1    3    3  502    0  0.71652313061E+03 -0.98115172581E+03  0.11094244093E+02  0.12149844394E+04  0.50400001928E-02 0. -1.
       -1    1    3    3    0  502 -0.71652313061E+03  0.98115172581E+03  0.14901513117E+03  0.12240382409E+04  0.50400001928E-02 0.  1.
</event>
<event>
 5   0  0.2915546E-05  0.2396033E+04  0.7818609E-02  0.8440990E-01
       -1   -1    0    0    0  501  0.00000000000E+00  0.00000000000E+00  0.58180825241E+03  0.58180825243E+03  0.50400001928E-02 0. -1.
        1   -1    0    0  501    0  0.00000000000E+00  0.00000000000E+00 -0.24668670982E+04  0.24668670982E+04  0.50400001928E-02 0.  1.
    10030    2    1    2    0    0  0.00000000000E+00  0.00000000000E+00 -0.18850588458E+04  0.30486753506E+04  0.23960330844E+04 0.  0.
        2    1    3    3  502    0 -0.91691027336E+03  0.63561444843E+03 -0.14978978673E+04  0.18677334385E+04  0.25500000920E-02 0.  1.
       -2    1    3    3    0  502  0.91691027336E+03 -0.63561444843E+03 -0.38716097843E+03  0.11809419121E+04  0.25500000920E-02 0. -1.
</event>
<event>
 5   0  0.2915546E-05  0.2290043E+04  0.7818609E-02  0.8481857E-01
        1   -1    0    0  501    0  0.00000000000E+00  0.00000000000E+00  0.14176898679E+04  0.14176898679E+04  0.50400001928E-02 0.  1.
       -1   -1    0    0    0  501  0.00000000000E+00  0.00000000000E+00 -0.92479658465E+03  0.92479658466E+03  0.50400001928E-02 0. -1.
    10030    2    1    2    0    0  0.00000000000E+00  0.00000000000E+00  0.49289328323E+03  0.23424864526E+04  0.22900434476E+04 0.  0.
        2    1    3    3  502    0 -0.50731796433E+03  0.10047167541E+04  0.31278676782E+02  0.11259687511E+04  0.25500000920E-02 0. -1.
       -2    1    3    3    0  502  0.50731796433E+03 -0.10047167541E+04  0.46161460645E+03  0.12165177014E+04  0.25500000920E-02 0.  1.
</event>
<event>
 5   0  0.6714629E-05  0.2411277E+04  0.7818609E-02  0.8435294E-01
       -2   -1    0    0    0  501  0.00000000000E+00  0.00000000000E+00  0.10218116783E+04  0.10218116783E+04  0.25500000920E-02 0. -1.
        2   -1    0    0  501    0  0.00000000000E+00  0.00000000000E+00 -0.14225363875E+04  0.14225363875E+04  0.25500000920E-02 0.  1.
    10030    2    1    2    0    0  0.00000000000E+00  0.00000000000E+00 -0.40072470924E+03  0.24443480658E+04  0.24112770837E+04 0.  0.
        3    1    3    3  502    0 -0.92592778483E+03 -0.43082680961E+03 -0.84993965293E+03  0.13286652801E+04  0.10100000352E+00 0.  1.
       -3    1    3    3    0  502  0.92592778483E+03  0.43082680961E+03  0.44921494370E+03  0.11156827858E+04  0.10100000352E+00 0. -1.
</event>
<event>
 5   0  0.6714629E-05  0.2034936E+04  0.7818609E-02  0.8590459E-01
        2   -1    0    0  501    0  0.00000000000E+00  0.00000000000E+00  0.18475473901E+04  0.18475473901E+04  0.25500000920E-02 0. -1.
       -2   -1    0    0    0  501  0.00000000000E+00  0.00000000000E+00 -0.56033281122E+03  0.56033281123E+03  0.25500000920E-02 0.  1.
    10030    2    1    2    0    0  0.00000000000E+00  0.00000000000E+00  0.12872145789E+04  0.24078802014E+04  0.20349362869E+04 0.  0.
        3    1    3    3  502    0  0.73751937720E+00 -0.10138304663E+04  0.74531801133E+03  0.12583130400E+04  0.10100000352E+00 0.  1.
       -3    1    3    3    0  502 -0.73751937720E+00  0.10138304663E+04  0.54189656758E+03  0.11495671614E+04  0.10100000352E+00 0. -1.
</event>
<event>
 5   0  0.2901816E-05  0.2428020E+04  0.7818609E-02  0.8429087E-01
       -1   -1    0    0    0  501  0.00000000000E+00  0.00000000000E+00  0.77927381971E+03  0.77927381972E+03  0.50400001928E-02 0.  1.
        1   -1    0    0  501    0  0.00000000000E+00  0.00000000000E+00 -0.18912741113E+04  0.18912741113E+04  0.50400001928E-02 0. -1.
    10030    2    1    2    0    0  0.00000000000E+00  0.00000000000E+00 -0.11120002915E+04  0.26705479310E+04  0.24280200994E+04 0.  0.
        4    1    3    3  502    0 -0.17549690577E+03 -0.93946987525E+03 -0.13793859095E+04  0.16781269054E+04  0.12699999809E+01 0. -1.
       -4    1    3    3    0  502  0.17549690577E+03  0.93946987525E+03  0.26738561795E+03  0.99242102558E+03  0.12699999809E+01 0.  1.
</event>
<event>
 5   0  0.2901816E-05  0.2415577E+04  0.7818609E-02  0.8433695E-01
        1   -1    0    0  501    0  0.00000000000E+00  0.00000000000E+00  0.27374031723E+04  0.27374031723E+04  0.50400001928E-02 0.  1.
       -1   -1    0    0    0  501  0.00000000000E+00  0.00000000000E+00 -0.53289667652E+03  0.53289667654E+03  0.50400001928E-02 0. -1.
    10030    2    1    2    0    0  0.00000000000E+00  0.00000000000E+00  0.22045064958E+04  0.32702998489E+04  0.24155769935E+04 0.  0.
        4    1    3    3  502    0 -0.28088075148E+03 -0.75528453075E+03  0.23202581037E+04  0.24562060173E+04  0.12699999809E+01 0.  1.
       -4    1    3    3    0  502  0.28088075148E+03  0.75528453075E+03 -0.11575160787E+03  0.81409383155E+03  0.12699999809E+01 0. -1.
</event>
<event>
 5   0  0.2943123E-05  0.2397695E+04  0.7818609E-02  0.8440367E-01
        1   -1    0    0  501    0  0.00000000000E+00  0.00000000000E+00  0.16246716012E+04  0.16246716012E+04  0.50400001928E-02 0.  1.
       -1   -1    0    0    0  501  0.00000000000E+00  0.00000000000E+00 -0.88463110192E+03  0.88463110194E+03  0.50400001928E-02 0. -1.
    10030    2    1    2    0    0  0.00000000000E+00  0.00000000000E+00  0.74004049924E+03  0.25093027031E+04  0.23976947502E+04 0.  0.
        1    1    3    3  502    0  0.14001183922E+02  0.81513384237E+03  0.12899090633E+04  0.15259438409E+04  0.50400001928E-02 0.  1.
       -1    1    3    3    0  502 -0.14001183922E+02 -0.81513384237E+03 -0.54986856402E+03  0.98335886219E+03  0.50400001928E-02 0. -1.
</event>
<event>
 5   0  0.2943123E-05  0.2395960E+04  0.7818609E-02  0.8441018E-01
       -1   -1    0    0    0  501  0.00000000000E+00  0.00000000000E+00  0.15282677551E+04  0.15282677551E+04  0.50400001928E-02 0.  1.
        1   -1    0    0  501    0  0.00000000000E+00  0.00000000000E+00 -0.93907373085E+03  0.93907373086E+03  0.50400001928E-02 0. -1.
    10030    2    1    2    0    0  0.00000000000E+00  0.00000000000E+00  0.58919402426E+03  0.24673414860E+04  0.23959600185E+04 0.  0.
        1    1    3    3  502    0 -0.52884386252E+03 -0.60896774399E+03  0.12067853540E+04  0.14514986858E+04  0.50400001928E-02 0.  1.
       -1    1    3    3    0  502  0.52884386252E+03  0.60896774399E+03 -0.61759132974E+03  0.10158428002E+04  0.50400001928E-02 0. -1.
</event>
<event>
 5   0  0.2915546E-05  0.2344258E+04  0.7818609E-02  0.8460672E-01
        1   -1    0    0  501    0  0.00000000000E+00  0.00000000000E+00  0.14995620599E+04  0.14995620599E+04  0.50400001928E-02 0.  1.
       -1   -1    0    0    0  501  0.00000000000E+00  0.00000000000E+00 -0.91619186029E+03  0.91619186030E+03  0.50400001928E-02 0. -1.
    10030    2    1    2    0    0  0.00000000000E+00  0.00000000000E+00  0.58337019963E+03  0.24157539202E+04  0.23442581371E+04 0.  0.
        2    1    3    3  502    0  0.11523174030E+03  0.31899086281E+03  0.14478899194E+04  0.14870839732E+04  0.25500000920E-02 0.  1.
       -2    1    3    3    0  502 -0.11523174030E+03 -0.31899086281E+03 -0.86451971982E+03  0.92866994702E+03  0.25500000920E-02 0. -1.
</event>
<event>
 5   0  0.2847158E-05  0.1978320E+04  0.7818609E-02  0.8616824E-01
        1   -1    0    0  501    0  0.00000000000E+00  0.00000000000E+00  0.20492752347E+04  0.20492752347E+04  0.50400001928E-02 0. -1.
       -1   -1    0    0    0  501  0.00000000000E+00  0.00000000000E+00 -0.47745541938E+03  0.47745541941E+03  0.50400001928E-02 0.  1.
    10030    2    1    2    0    0  0.00000000000E+00  0.00000000000E+00  0.15718198154E+04  0.25267306542E+04  0.19783200617E+04 0.  0.
        5    1    3    3  502    0 -0.70413208231E+03  0.43057266154E+03  0.14822187318E+04  0.16965226981E+04  0.46999998093E+01 0. -1.
       -5    1    3    3    0  502  0.70413208231E+03 -0.43057266154E+03  0.89601083586E+02  0.83020795610E+03  0.46999998093E+01 0.  1.
</event>
<event>
 5   0  0.2915546E-05  0.2375885E+04  0.7818609E-02  0.8448588E-01
        1   -1    0    0  501    0  0.00000000000E+00  0.00000000000E+00  0.15857361069E+04  0.15857361069E+04  0.50400001928E-02 0.  1.
       -1   -1    0    0    0  501  0.00000000000E+00  0.00000000000E+00 -0.88993803591E+03  0.88993803592E+03  0.50400001928E-02 0. -1.
    10030    2    1    2    0    0  0.00000000000E+00  0.00000000000E+00  0.69579807098E+03  0.24756741428E+04  0.23758845733E+04 0.  0.
        2    1    3    3  502    0  0.69355315956E+03  0.27111841280E+03  0.13123472229E+04  0.15088990730E+04  0.25500000920E-02 0.  1.
       -2    1    3    3    0  502 -0.69355315956E+03 -0.27111841280E+03 -0.61654915194E+03  0.96677506984E+03  0.25500000920E-02 0. -1.
</event>
<event>
 5   0  0.6337926E-05  0.2496257E+04  0.7818609E-02  0.8404320E-01
       -2   -1    0    0    0  501  0.00000000000E+00  0.00000000000E+00  0.99097697024E+03  0.99097697025E+03  0.25500000920E-02 0. -1.
        2   -1    0    0  501    0  0.00000000000E+00  0.00000000000E+00 -0.15720093196E+04  0.15720093196E+04  0.25500000920E-02 0.  1.
    10030    2    1    2    0    0  0.00000000000E+00  0.00000000000E+00 -0.58103234935E+03  0.25629862898E+04  0.24962572245E+04 0.  0.
        1    1    3    3  502    0  0.57245043640E+03 -0.34557876567E+03  0.79155418230E+03  0.10361863775E+04  0.50400001928E-02 0. -1.
       -1    1    3    3    0  502 -0.57245043640E+03  0.34557876567E+03 -0.13725865316E+04  0.15267999123E+04  0.50400001928E-02 0.  1.
</event>
<event>
 5   0  0.6337926E-05  0.2433732E+04  0.7818609E-02  0.8426982E-01
        2   -1    0    0  501    0  0.00000000000E+00  0.00000000000E+00  0.14923750193E+04  0.14923750193E+04  0.25500000920E-02 0.  1.
       -2   -1    0    0    0  501  0.00000000000E+00  0.00000000000E+00 -0.99221911985E+03  0.99221911985E+03  0.25500000920E-02 0. -1.
    10030    2    1    2    0    0  0.00000000000E+00  0.00000000000E+00  0.50015589943E+03  0.24845941391E+04  0.24337321366E+04 0.  0.
        1    1    3    3  502    0  0.16949045149E+03 -0.60789046604E+03  0.13122568607E+04  0.14561167193E+04  0.50400001928E-02 0.  1.
       -1    1    3    3    0  502 -0.16949045149E+03  0.60789046604E+03 -0.81210096123E+03  0.10284774198E+04  0.50400001928E-02 0. -1.
</event>
<event>
 5   0  0.6703961E-05  0.2426267E+04  0.7818609E-02  0.8429735E-01
        2   -1    0    0  501    0  0.00000000000E+00  0.00000000000E+00  0.14435875577E+04  0.14435875577E+04  0.25500000920E-02 0.  1.
       -2   -1    0    0    0  501  0.00000000000E+00  0.00000000000E+00 -0.10194687200E+04  0.10194687200E+04  0.25500000920E-02 0. -1.
    10030    2    1    2    0    0  0.00000000000E+00  0.00000000000E+00  0.42411883777E+03  0.24630562777E+04  0.24262665638E+04 0.  0.
        2    1    3    3  502    0 -0.81208388012E+03  0.74226627788E+03  0.73093876625E+03  0.13208750644E+04  0.25500000920E-02 0.  1.
       -2    1    3    3    0  502  0.81208388012E+03 -0.74226627788E+03 -0.30681992847E+03  0.11421812134E+04  0.25500000920E-02 0. -1.
</event>
<event>
 5   0  0.2901816E-05  0.2348537E+04  0.7818609E-02  0.8459026E-01
       -1   -1    0    0    0  501  0.00000000000E+00  0.00000000000E+00  0.66930422466E+03  0.66930422467E+03  0.50400001928E-02 0. -1.
        1   -1    0    0  501    0  0.00000000000E+00  0.00000000000E+00 -0.20602082121E+04  0.20602082121E+04  0.50400001928E-02 0.  1.
    10030    2    1    2    0    0  0.00000000000E+00  0.00000000000E+00 -0.13909039874E+04  0.27295124368E+04  0.23485366168E+04 0.  0.
        4    1    3    3  502    0 -0.17539158280E+03 -0.11610583210E+04 -0.70621836625E+03  0.13702425427E+04  0.12699999809E+01 0. -1.
       -4    1    3    3    0  502  0.17539158280E+03  0.11610583210E+04 -0.68468562120E+03  0.13592698941E+04  0.12699999809E+01 0.  1.
</event>
<event>
 5   0  0.2901816E-05  0.2283293E+04  0.7818609E-02  0.8484538E-01
       -1   -1    0    0    0  501  0.00000000000E+00  0.00000000000E+00  0.69308081982E+03  0.69308081984E+03  0.50400001928E-02 0.  1.
        1   -1    0    0  501    0  0.00000000000E+00  0.00000000000E+00 -0.18805263165E+04  0.18805263165E+04  0.50400001928E-02 0. -1.
    10030    2    1    2    0    0  0.00000000000E+00  0.00000000000E+00 -0.11874454967E+04  0.25736071364E+04  0.22832929914E+04 0.  0.
        4    1    3    3  502    0  0.55448055596E+03 -0.85084182017E+03 -0.11815433414E+04  0.15580201444E+04  0.12699999809E+01 0. -1.
       -4    1    3    3    0  502 -0.55448055596E+03  0.85084182017E+03 -0.59021553127E+01  0.10155869920E+04  0.12699999809E+01 0.  1.
</event>
<event>
 5   0  0.2943123E-05  0.2361466E+04  0.7818609E-02  0.8454073E-01
       -1   -1    0    0    0  501  0.00000000000E+00  0.00000000000E+00  0.82381315090E+03  0.82381315092E+03  0.50400001928E-02 0.  1.
        1   -1    0    0  501    0  0.00000000000E+00  0.00000000000E+00 -0.16922899280E+04  0.16922899280E+04  0.50400001928E-02 0. -1.
    10030    2    1    2    0    0  0.00000000000E+00  0.00000000000E+00 -0.86847677713E+03  0.25161030790E+04  0.23614662376E+04 0.  0.
        1    1    3    3  502    0 -0.87106145722E+03  0.79641935887E+03 -0.39891893292E+03  0.12458604145E+04  0.50400001928E-02 0.  1.
       -1    1    3    3    0  502  0.87106145722E+03 -0.79641935887E+03 -0.46955784421E+03  0.12702426644E+04  0.50400001928E-02 0. -1.
</event>
<event>
 5   0  0.2915546E-05  0.2310040E+04  0.7818609E-02  0.8473973E-01
        1   -1    0    0  501    0  0.00000000000E+00  0.00000000000E+00  0.15165563959E+04  0.15165563959E+04  0.50400001928E-02 0.  1.
       -1   -1    0    0    0  501  0.00000000000E+00  0.00000000000E+00 -0.87967106790E+03  0.87967106791E+03  0.50400001928E-02 0. -1.
    10030    2    1    2    0    0  0.00000000000E+00  0.00000000000E+00  0.63688532798E+03  0.23962274638E+04  0.23100396398E+04 0.  0.
        2    1    3    3  502    0  0.11485828929E+04 -0.67513183147E+02  0.42356518989E+03  0.12260538984E+04  0.25500000920E-02 0.  1.
       -2    1    3    3    0  502 -0.11485828929E+04  0.67513183147E+02  0.21332013809E+03  0.11701735654E+04  0.25500000920E-02 0. -1.
</event>
<event>
 5   0  0.2915546E-05  0.2380046E+04  0.7818609E-02  0.8447012E-01
       -1   -1    0    0    0  501  0.00000000000E+00  0.00000000000E+00  0.17757769983E+04  0.17757769983E+04  0.50400001928E-02 0. -1.
        1   -1    0    0  501    0  0.00000000000E+00  0.00000000000E+00 -0.79748450848E+03  0.79748450849E+03  0.50400001928E-02 0.  1.
    10030    2    1    2    0    0  0.00000000000E+00  0.00000000000E+00  0.97829248984E+03  0.25732615068E+04  0.23800459212E+04 0.  0.
        2    1    3    3  502    0  0.67444911989E+03 -0.27249763292E+03 -0.52912814435E+03  0.89950718086E+03  0.25500000920E-02 0.  1.
       -2    1    3    3    0  502 -0.67444911989E+03  0.27249763292E+03  0.15074206342E+04  0.16737543260E+04  0.25500000920E-02 0. -1.
</event>
<event>
 5   0  0.6714629E-05  0.2365228E+04  0.7818609E-02  0.8452638E-01
        2   -1    0    0  501    0  0.00000000000E+00  0.00000000000E+00  0.10876956201E+04  0.10876956201E+04  0.25500000920E-02 0.  1.
       -2   -1    0    0    0  501  0.00000000000E+00  0.00000000000E+00 -0.12858155313E+04  0.12858155313E+04  0.25500000920E-02 0. -1.
    10030    2    1    2    0    0  0.00000000000E+00  0.00000000000E+00 -0.19811991115E+03  0.23735111514E+04  0.23652280411E+04 0.  0.
        3    1    3    3  502    0 -0.11010114473E+04 -0.30801714994E+03 -0.40256771440E+03  0.12120897437E+04  0.10100000352E+00 0. -1.
       -3    1    3    3    0  502  0.11010114473E+04  0.30801714994E+03  0.20444780325E+03  0.11614214077E+04  0.10100000352E+00 0.  1.
</event>
<event>
 5   0  0.6337926E-05  0.2404014E+04  0.7818609E-02  0.8438002E-01
        2   -1    0    0  501    0  0.00000000000E+00  0.00000000000E+00  0.13625923078E+04  0.13625923078E+04  0.25500000920E-02 0.  1.
       -2   -1    0    0    0  501  0.00000000000E+00  0.00000000000E+00 -0.10603469206E+04  0.10603469206E+04  0.25500000920E-02 0. -1.
    10030    2    1    2    0    0  0.00000000000E+00  0.00000000000E+00  0.30224538722E+03  0.24229392284E+04  0.24040137750E+04 0.  0.
        1    1    3    3  502    0 -0.54413574013E+03 -0.10711032269E+04  0.18982724295E+03  0.12162977467E+04  0.50400001928E-02 0. -1.
       -1    1    3    3    0  502  0.54413574013E+03  0.10711032269E+04  0.11241814427E+03  0.12066414818E+04  0.50400001928E-02 0.  1.
</event>
<event>
 5   0  0.6714629E-05  0.2476850E+04  0.7818609E-02  0.8411280E-01
       -2   -1    0    0    0  501  0.00000000000E+00  0.00000000000E+00  0.61734327113E+03  0.61734327113E+03  0.25500000920E-02 0.  1.
        2   -1    0    0  501    0  0.00000000000E+00  0.00000000000E+00 -0.24843485918E+04  0.24843485918E+04  0.25500000920E-02 0. -1.
    10030    2    1    2    0    0  0.00000000000E+00  0.00000000000E+00 -0.18670053207E+04  0.31016918629E+04  0.24768495201E+04 0.  0.
        3    1    3    3  502    0 -0.38706197262E+02 -0.89287848865E+03  0.14007277971E+03  0.90462730393E+03  0.10100000352E+00 0.  1.
       -3    1    3    3    0  502  0.38706197262E+02  0.89287848865E+03 -0.20070781004E+04  0.21970645590E+04  0.10100000352E+00 0. -1.
</event>
<event>
 5   0  0.2943123E-05  0.2394352E+04  0.7818609E-02  0.8441621E-01
       -1   -1    0    0    0  501  0.00000000000E+00  0.00000000000E+00  0.86009069687E+03  0.86009069689E+03  0.50400001928E-02 0.  1.
        1   -1    0    0  501    0  0.00000000000E+00  0.00000000000E+00 -0.16663707054E+04  0.16663707054E+04  0.50400001928E-02 0. -1.
    10030    2    1    2    0    0  0.00000000000E+00  0.00000000000E+00 -0.80628000853E+03  0.25264614023E+04  0.23943516377E+04 0.  0.
        1    1    3    3  502    0  0.39674416498E+03 -0.99656436935E+03 -0.96415560739E+03  0.14422699158E+04  0.50400001928E-02 0.  1.
       -1    1    3    3    0  502 -0.39674416498E+03  0.99656436935E+03  0.15787559885E+03  0.10841914865E+04  0.50400001928E-02 0. -1.
</event>
<event>
 5   0  0.6703961E-05  0.2426099E+04  0.7818609E-02  0.8429797E-01
       -2   -1    0    0    0  501  0.00000000000E+00  0.00000000000E+00  0.14796662249E+04  0.14796662249E+04  0.25500000920E-02 0.  1.
        2   -1    0    0  501    0  0.00000000000E+00  0.00000000000E+00 -0.99447365224E+03  0.99447365224E+03  0.25500000920E-02 0. -1.
    10030    2    1    2    0    0  0.00000000000E+00  0.00000000000E+00  0.48519257270E+03  0.24741398772E+04  0.24260989879E+04 0.  0.
        2    1    3    3  502    0  0.43136385760E+03  0.83822687063E+03 -0.53592731321E+03  0.10843971364E+04  0.25500000920E-02 0. -1.
       -2    1    3    3    0  502 -0.43136385760E+03 -0.83822687063E+03  0.10211198859E+04  0.13897427408E+04  0.25500000920E-02 0.  1.
</event>
<event>
 5   0  0.6703961E-05  0.2156749E+04  0.7818609E-02  0.8536649E-01
       -2   -1    0    0    0  501  0.00000000000E+00  0.00000000000E+00  0.14986929506E+04  0.14986929506E+04  0.25500000920E-02 0.  1.
        2   -1    0    0  501    0  0.00000000000E+00  0.00000000000E+00 -0.77593748162E+03  0.77593748162E+03  0.25500000920E-02 0. -1.
    10030    2    1    2    0    0  0.00000000000E+00  0.00000000000E+00  0.72275546900E+03  0.22746304322E+04  0.21567494373E+04 0.  0.
        2    1    3    3  502    0  0.38536945587E+03 -0.86921448698E+03  0.89795720837E+03  0.13078113740E+04  0.25500000920E-02 0.  1.
       -2    1    3    3    0  502 -0.38536945587E+03  0.86921448698E+03 -0.17520173936E+03  0.96681905824E+03  0.25500000920E-02 0. -1.
</event>
<event>
 5   0  0.2901816E-05  0.2075300E+04  0.7818609E-02  0.8572202E-01
        1   -1    0    0  501    0  0.00000000000E+00  0.00000000000E+00  0.10327544939E+04  0.10327544939E+04  0.50400001928E-02 0.  1.
       -1   -1    0    0    0  501  0.00000000000E+00  0.00000000000E+00 -0.10425690999E+04  0.10425690999E+04  0.50400001928E-02 0. -1.
    10030    2    1    2    0    0  0.00000000000E+00  0.00000000000E+00 -0.98146060105E+01  0.20753235938E+04  0.20753003861E+04 0.  0.
        4    1    3    3  502    0  0.22231510086E+02 -0.71840688594E+02 -0.10398396393E+04  0.10425561917E+04  0.12699999809E+01 0. -1.
       -4    1    3    3    0  502 -0.22231510086E+02  0.71840688594E+02  0.10300250333E+04  0.10327674020E+04  0.12699999809E+01 0.  1.
</event>
<event>
 5   0  0.2915546E-05  0.2285606E+04  0.7818609E-02  0.8483618E-01
        1   -1    0    0  501    0  0.00000000000E+00  0.00000000000E+00  0.11485909663E+04  0.11485909663E+04  0.50400001928E-02 0. -1.
       -1   -1    0    0    0  501  0.00000000000E+00  0.00000000000E+00 -0.11370439357E+04  0.11370439357E+04  0.50400001928E-02 0.  1.
    10030    2    1    2    0    0  0.00000000000E+00  0.00000000000E+00  0.11547030636E+02  0.22856349020E+04  0.22856057340E+04 0.  0.
        2    1    3    3  502    0  0.81200249026E+02 -0.15386372021E+03 -0.11237234652E+04  0.11371112307E+04  0.25500000920E-02 0.  1.
       -2    1    3    3    0  502 -0.81200249026E+02  0.15386372021E+03  0.11352704958E+04  0.11485236713E+04  0.25500000920E-02 0. -1.
</event>
<event>
 5   0  0.2847158E-05  0.2265085E+04  0.7818609E-02  0.8491816E-01
        1   -1    0    0  501    0  0.00000000000E+00  0.00000000000E+00  0.84039244136E+03  0.84039244137E+03  0.50400001928E-02 0.  1.
       -1   -1    0    0    0  501  0.00000000000E+00  0.00000000000E+00 -0.15262544314E+04  0.15262544314E+04  0.50400001928E-02 0. -1.
    10030    2    1    2    0    0  0.00000000000E+00  0.00000000000E+00 -0.68586199007E+03  0.23666468728E+04  0.22650851532E+04 0.  0.
        5    1    3    3  502    0 -0.11283402322E+04 -0.39553607571E+02 -0.43588299908E+03  0.12102612306E+04  0.46999998093E+01 0. -1.
       -5    1    3    3    0  502  0.11283402322E+04  0.39553607571E+02 -0.24997899099E+03  0.11563856422E+04  0.46999998093E+01 0.  1.
</event>
<event>
 5   0  0.6978115E-05  0.2413485E+04  0.7818609E-02  0.8434472E-01
        2   -1    0    0  501    0  0.00000000000E+00  0.00000000000E+00  0.25887632196E+04  0.25887632196E+04  0.25500000920E-02 0. -1.
       -2   -1    0    0    0  501  0.00000000000E+00  0.00000000000E+00 -0.56251852719E+03  0.56251852720E+03  0.25500000920E-02 0.  1.
    10030    2    1    2    0    0  0.00000000000E+00  0.00000000000E+00  0.20262446924E+04  0.31512817468E+04  0.24134848444E+04 0.  0.
        4    1    3    3  502    0  0.89273605016E+03 -0.71082991068E+03  0.50078138146E+03  0.12462104245E+04  0.12699999809E+01 0.  1.
       -4    1    3    3    0  502 -0.89273605016E+03  0.71082991068E+03  0.15254633109E+04  0.19050713223E+04  0.12699999809E+01 0. -1.
</event>
<event>
 5   0  0.2847158E-05  0.2265933E+04  0.7818609E-02  0.8491476E-01
        1   -1    0    0  501    0  0.00000000000E+00  0.00000000000E+00  0.14063710314E+04  0.14063710314E+04  0.50400001928E-02 0. -1.
       -1   -1    0    0    0  501  0.00000000000E+00  0.00000000000E+00 -0.91271301430E+03  0.91271301431E+03  0.50400001928E-02 0.  1.
    10030    2    1    2    0    0  0.00000000000E+00  0.00000000000E+00  0.49365801713E+03  0.23190840457E+04  0.22659330470E+04 0.  0.
        5    1    3    3  502    0  0.74013662960E+03 -0.56944421219E+03  0.90337628299E+03  0.12992997114E+04  0.46999998093E+01 0. -1.
       -5    1    3    3    0  502 -0.74013662960E+03  0.56944421219E+03 -0.40971826586E+03  0.10197843344E+04  0.46999998093E+01 0.  1.
</event>
<event>
 5   0  0.6337926E-05  0.2230236E+04  0.7818609E-02  0.8505947E-01
       -2   -1    0    0    0  501  0.00000000000E+00  0.00000000000E+00  0.62264267026E+03  0.62264267026E+03  0.25500000920E-02 0.  1.
        2   -1    0    0  501    0  0.00000000000E+00  0.00000000000E+00 -0.19971143875E+04  0.19971143875E+04  0.25500000920E-02 0. -1.
    10030    2    1    2    0    0  0.00000000000E+00  0.00000000000E+00 -0.13744717172E+04  0.26197570578E+04  0.22302364315E+04 0.  0.
        1    1    3    3  502    0  0.11312589881E+03  0.91180553448E+03 -0.14295039052E+04  0.16993140430E+04  0.50400001928E-02 0. -1.
       -1    1    3    3    0  502 -0.11312589881E+03 -0.91180553448E+03  0.55032187973E+02  0.92044301476E+03  0.50400001928E-02 0.  1.
</event>
<event>
 5   0  0.2847158E-05  0.1964260E+04  0.7818609E-02  0.8623515E-01
        1   -1    0    0  501    0  0.00000000000E+00  0.00000000000E+00  0.99017502295E+03  0.99017502296E+03  0.50400001928E-02 0. -1.
       -1   -1    0    0    0  501  0.00000000000E+00  0.00000000000E+00 -0.97415014088E+03  0.97415014090E+03  0.50400001928E-02 0.  1.
    10030    2    1    2    0    0  0.00000000000E+00  0.00000000000E+00  0.16024882067E+02  0.19643251639E+04  0.19642597976E+04 0.  0.
        5    1    3    3  502    0 -0.55102440997E+03  0.70066377156E+03 -0.40431114740E+03  0.97879886344E+03  0.46999998093E+01 0. -1.
       -5    1    3    3    0  502  0.55102440997E+03 -0.70066377156E+03  0.42033602947E+03  0.98552630042E+03  0.46999998093E+01 0.  1.
</event>
<event>
 5   0  0.2943244E-05  0.2413247E+04  0.7818609E-02  0.8434561E-01
        1   -1    0    0  501    0  0.00000000000E+00  0.00000000000E+00  0.11088240962E+04  0.11088240962E+04  0.50400001928E-02 0. -1.
       -1   -1    0    0    0  501  0.00000000000E+00  0.00000000000E+00 -0.13130484601E+04  0.13130484601E+04  0.50400001928E-02 0.  1.
    10030    2    1    2    0    0  0.00000000000E+00  0.00000000000E+00 -0.20422436391E+03  0.24218725563E+04  0.24132465867E+04 0.  0.
        3    1    3    3  502    0 -0.80070655493E+03  0.80783114926E+03 -0.50631429857E+03  0.12450206151E+04  0.10100000352E+00 0.  1.
       -3    1    3    3    0  502  0.80070655493E+03 -0.80783114926E+03  0.30208993466E+03  0.11768519413E+04  0.10100000352E+00 0. -1.
</event>
<event>
 5   0  0.2943244E-05  0.2265685E+04  0.7818609E-02  0.8491575E-01
       -1   -1    0    0    0  501  0.00000000000E+00  0.00000000000E+00  0.17179948306E+04  0.17179948306E+04  0.50400001928E-02 0. -1.
        1   -1    0    0  501    0  0.00000000000E+00  0.00000000000E+00 -0.74699408525E+03  0.74699408526E+03  0.50400001928E-02 0.  1.
    10030    2    1    2    0    0  0.00000000000E+00  0.00000000000E+00  0.97100074531E+03  0.24649889158E+04  0.22656848651E+04 0.  0.
        3    1    3    3  502    0  0.59738778866E+03 -0.36547767063E+03 -0.48326990529E+03  0.85087949166E+03  0.10100000352E+00 0.  1.
       -3    1    3    3    0  502 -0.59738778866E+03  0.36547767063E+03  0.14542706506E+04  0.16141094242E+04  0.10100000352E+00 0. -1.
</event>
<event>
 5   0  0.2847158E-05  0.2401983E+04  0.7818609E-02  0.8438762E-01
        1   -1    0    0  501    0  0.00000000000E+00  0.00000000000E+00  0.13087468555E+04  0.13087468556E+04  0.50400001928E-02 0. -1.
       -1   -1    0    0    0  501  0.00000000000E+00  0.00000000000E+00 -0.11021079419E+04  0.11021079420E+04  0.50400001928E-02 0.  1.
    10030    2    1    2    0    0  0.00000000000E+00  0.00000000000E+00  0.20663891361E+03  0.24108547975E+04  0.24019827672E+04 0.  0.
        5    1    3    3  502    0  0.97169834976E+02  0.65400893214E+03 -0.90297466112E+03  0.11191760312E+04  0.46999998093E+01 0.  1.
       -5    1    3    3    0  502 -0.97169834976E+02 -0.65400893214E+03  0.11096135747E+04  0.12916787663E+04  0.46999998093E+01 0. -1.
</event>
<event>
 5   0  0.6978115E-05  0.2355227E+04  0.7818609E-02  0.8456458E-01
        2   -1    0    0  501    0  0.00000000000E+00  0.00000000000E+00  0.10182377397E+04  0.10182377397E+04  0.25500000920E-02 0. -1.
       -2   -1    0    0    0  501  0.00000000000E+00  0.00000000000E+00 -0.13619355082E+04  0.13619355082E+04  0.25500000920E-02 0.  1.
    10030    2    1    2    0    0  0.00000000000E+00  0.00000000000E+00 -0.34369776848E+03  0.23801732478E+04  0.23552274909E+04 0.  0.
        4    1    3    3  502    0 -0.73526569405E+03  0.83647178729E+03 -0.55861886570E+03  0.12459363314E+04  0.12699999809E+01 0.  1.
       -4    1    3    3    0  502  0.73526569405E+03 -0.83647178729E+03  0.21492109722E+03  0.11342369165E+04  0.12699999809E+01 0. -1.
</event>
<event>
 5   0  0.6714629E-05  0.2423919E+04  0.7818609E-02  0.8430603E-01
       -2   -1    0    0    0  501  0.00000000000E+00  0.00000000000E+00  0.86168360306E+03  0.86168360306E+03  0.25500000920E-02 0. -1.
        2   -1    0    0  501    0  0.00000000000E+00  0.00000000000E+00 -0.17046225686E+04  0.17046225686E+04  0.25500000920E-02 0.  1.
    10030    2    1    2    0    0  0.00000000000E+00  0.00000000000E+00 -0.84293896554E+03  0.25663061717E+04  0.24239185768E+04 0.  0.
        3    1    3    3  502    0  0.98334235049E+03  0.37279120732E+02  0.32754396780E+03  0.10371291974E+04  0.10100000352E+00 0. -1.
       -3    1    3    3    0  502 -0.98334235049E+03 -0.37279120732E+02 -0.11704829333E+04  0.15291769742E+04  0.10100000352E+00 0.  1.
</event>
<event>
 5   0  0.6703961E-05  0.2408486E+04  0.7818609E-02  0.8436333E-01
        2   -1    0    0  501    0  0.00000000000E+00  0.00000000000E+00  0.26575831829E+04  0.26575831829E+04  0.25500000920E-02 0. -1.
       -2   -1    0    0    0  501  0.00000000000E+00  0.00000000000E+00 -0.54568415184E+03  0.54568415184E+03  0.25500000920E-02 0.  1.
    10030    2    1    2    0    0  0.00000000000E+00  0.00000000000E+00  0.21118990310E+04  0.32032673347E+04  0.24084858522E+04 0.  0.
        2    1    3    3  502    0  0.10552989409E+04 -0.11181545697E+03  0.18130439527E+04  0.21007824555E+04  0.25500000920E-02 0. -1.
       -2    1    3    3    0  502 -0.10552989409E+04  0.11181545697E+03  0.29885507834E+03  0.11024848792E+04  0.25500000920E-02 0.  1.
</event>
<event>
 5   0  0.6337926E-05  0.2191146E+04  0.7818609E-02  0.8522122E-01
        2   -1    0    0  501    0  0.00000000000E+00  0.00000000000E+00  0.27176913655E+04  0.27176913655E+04  0.25500000920E-02 0. -1.
       -2   -1    0    0    0  501  0.00000000000E+00  0.00000000000E+00 -0.44165440549E+03  0.44165440550E+03  0.25500000920E-02 0.  1.
    10030    2    1    2    0    0  0.00000000000E+00  0.00000000000E+00  0.22760369600E+04  0.31593457710E+04  0.21911461516E+04 0.  0.
        1    1    3    3  502    0 -0.56309990294E+03  0.91657945442E+03  0.14372921687E+04  0.17952738441E+04  0.50400001928E-02 0.  1.
       -1    1    3    3    0  502  0.56309990294E+03 -0.91657945442E+03  0.83874479136E+03  0.13640719270E+04  0.50400001928E-02 0. -1.
</event>
<event>
 5   0  0.6600166E-05  0.2409546E+04  0.7818609E-02  0.8435938E-01
        2   -1    0    0  501    0  0.00000000000E+00  0.00000000000E+00  0.21762914309E+04  0.21762914309E+04  0.25500000920E-02 0. -1.
       -2   -1    0    0    0  501  0.00000000000E+00  0.00000000000E+00 -0.66695032699E+03  0.66695032700E+03  0.25500000920E-02 0.  1.
    10030    2    1    2    0    0  0.00000000000E+00  0.00000000000E+00  0.15093411039E+04  0.28432417579E+04  0.24095462489E+04 0.  0.
        5    1    3    3  502    0 -0.27222598968E+03 -0.11705766431E+04  0.65524611039E+03  0.13688411967E+04  0.46999998093E+01 0.  1.
       -5    1    3    3    0  502  0.27222598968E+03  0.11705766431E+04  0.85409499348E+03  0.14744005611E+04  0.46999998093E+01 0. -1.
</event>
<event>
 5   0  0.6714629E-05  0.2415252E+04  0.7818609E-02  0.8433816E-01
        2   -1    0    0  501    0  0.00000000000E+00  0.00000000000E+00  0.19489322255E+04  0.19489322255E+04  0.25500000920E-02 0.  1.
       -2   -1    0    0    0  501  0.00000000000E+00  0.00000000000E+00 -0.74828683184E+03  0.74828683185E+03  0.25500000920E-02 0. -1.
    10030    2    1    2    0    0  0.00000000000E+00  0.00000000000E+00  0.12006453937E+04  0.26972190574E+04  0.24152518051E+04 0.  0.
        3    1    3    3  502    0 -0.70697899572E+03  0.51289925596E+03 -0.33098818863E+03  0.93404397026E+03  0.10100000352E+00 0. -1.
       -3    1    3    3    0  502  0.70697899572E+03 -0.51289925596E+03  0.15316335823E+04  0.17631750871E+04  0.10100000352E+00 0.  1.
</event>
<event>
 5   0  0.2943123E-05  0.1740189E+04  0.7818609E-02  0.8738769E-01
        1   -1    0    0  501    0  0.00000000000E+00  0.00000000000E+00  0.16408659250E+04  0.16408659250E+04  0.50400001928E-02 0. -1.
       -1   -1    0    0    0  501  0.00000000000E+00  0.00000000000E+00 -0.46138120550E+03  0.46138120553E+03  0.50400001928E-02 0.  1.
    10030    2    1    2    0    0  0.00000000000E+00  0.00000000000E+00  0.11794847195E+04  0.21022471305E+04  0.17401892984E+04 0.  0.
        1    1    3    3  502    0 -0.61174631331E+03 -0.55572838022E+03  0.91836287039E+03  0.12354990676E+04  0.50400001928E-02 0. -1.
       -1    1    3    3    0  502  0.61174631331E+03  0.55572838022E+03  0.26112184911E+03  0.86674806290E+03  0.50400001928E-02 0.  1.
</event>
<event>
 5   0  0.2943244E-05  0.2344532E+04  0.7818609E-02  0.8460567E-01
        1   -1    0    0  501    0  0.00000000000E+00  0.00000000000E+00  0.11982567481E+04  0.11982567481E+04  0.50400001928E-02 0. -1.
       -1   -1    0    0    0  501  0.00000000000E+00  0.00000000000E+00 -0.11468392537E+04  0.11468392537E+04  0.50400001928E-02 0.  1.
    10030    2    1    2    0    0  0.00000000000E+00  0.00000000000E+00  0.51417494340E+02  0.23450960018E+04  0.23445322559E+04 0.  0.
        3    1    3    3  502    0 -0.86953452450E+03 -0.19467339894E+03 -0.73619604073E+03  0.11558428276E+04  0.10100000352E+00 0.  1.
       -3    1    3    3    0  502  0.86953452450E+03  0.19467339894E+03  0.78761353507E+03  0.11892531742E+04  0.10100000352E+00 0. -1.
</event>
<event>
 5   0  0.2847158E-05  0.2419086E+04  0.7818609E-02  0.8432392E-01
       -1   -1    0    0    0  501  0.00000000000E+00  0.00000000000E+00  0.20460409855E+04  0.20460409855E+04  0.50400001928E-02 0.  1.
        1   -1    0    0  501    0  0.00000000000E+00  0.00000000000E+00 -0.71503679625E+03  0.71503679627E+03  0.50400001928E-02 0. -1.
    10030    2    1    2    0    0  0.00000000000E+00  0.00000000000E+00  0.13310041893E+04  0.27610777818E+04  0.24190862666E+04 0.  0.
        5    1    3    3  502    0  0.10659028142E+04  0.53000258380E+03  0.42091545418E+03  0.12626335406E+04  0.46999998093E+01 0. -1.
       -5    1    3    3    0  502 -0.10659028142E+04 -0.53000258380E+03  0.91008873509E+03  0.14984442412E+04  0.46999998093E+01 0.  1.
</event>
<event>
 5   0  0.2943244E-05  0.2426899E+04  0.7818609E-02  0.8429501E-01
       -1   -1    0    0    0  501  0.00000000000E+00  0.00000000000E+00  0.11381716357E+04  0.11381716357E+04  0.50400001928E-02 0. -1.
        1   -1    0    0  501    0  0.00000000000E+00  0.00000000000E+00 -0.12937060970E+04  0.12937060970E+04  0.50400001928E-02 0.  1.
    10030    2    1    2    0    0  0.00000000000E+00  0.00000000000E+00 -0.15553446127E+03  0.24318777328E+04  0.24268989139E+04 0.  0.
        3    1    3    3  502    0  0.23461124008E+03  0.40699845726E+03  0.10433530623E+04  0.11442359027E+04  0.10100000352E+00 0. -1.
       -3    1    3    3    0  502 -0.23461124008E+03 -0.40699845726E+03 -0.11988875236E+04  0.12876418301E+04  0.10100000352E+00 0.  1.
</event>
<event>
 5   0  0.6703961E-05  0.2228830E+04  0.7818609E-02  0.8506523E-01
       -2   -1    0    0    0  501  0.00000000000E+00  0.00000000000E+00  0.47450135605E+03  0.47450135606E+03  0.25500000920E-02 0.  1.
        2   -1    0    0  501    0  0.00000000000E+00  0.00000000000E+00 -0.26173182461E+04  0.26173182461E+04  0.25500000920E-02 0. -1.
    10030    2    1    2    0    0  0.00000000000E+00  0.00000000000E+00 -0.21428168900E+04  0.30918196021E+04  0.22288302376E+04 0.  0.
        2    1    3    3  502    0 -0.24427130964E+02 -0.74632345796E+03  0.76133504068E+02  0.75059423065E+03  0.25500000920E-02 0.  1.
       -2    1    3    3    0  502  0.24427130964E+02  0.74632345796E+03 -0.22189503941E+04  0.23412253715E+04  0.25500000920E-02 0. -1.
</event>
<event>
 5   0  0.6714629E-05  0.2312768E+04  0.7818609E-02  0.8472904E-01
       -2   -1    0    0    0  501  0.00000000000E+00  0.00000000000E+00  0.15931412972E+04  0.15931412972E+04  0.25500000920E-02 0. -1.
        2   -1    0    0  501    0  0.00000000000E+00  0.00000000000E+00 -0.83936281189E+03  0.83936281190E+03  0.25500000920E-02 0.  1.
    10030    2    1    2    0    0  0.00000000000E+00  0.00000000000E+00  0.75377848529E+03  0.24325041091E+04  0.23127676571E+04 0.  0.
        3    1    3    3  502    0  0.79903382688E+03  0.59594283461E+03  0.99342914912E+03  0.14073039484E+04  0.10100000352E+00 0. -1.
       -3    1    3    3    0  502 -0.79903382688E+03 -0.59594283461E+03 -0.23965066382E+03  0.10252001607E+04  0.10100000352E+00 0.  1.
</event>
<event>
 5   0  0.2943244E-05  0.2396789E+04  0.7818609E-02  0.8440707E-01
       -1   -1    0    0    0  501  0.00000000000E+00  0.00000000000E+00  0.98724117796E+03  0.98724117797E+03  0.50400001928E-02 0.  1.
        1   -1    0    0  501    0  0.00000000000E+00  0.00000000000E+00 -0.14547092702E+04  0.14547092702E+04  0.50400001928E-02 0. -1.
    10030    2    1    2    0    0  0.00000000000E+00  0.00000000000E+00 -0.46746809222E+03  0.24419504482E+04  0.23967885960E+04 0.  0.
        3    1    3    3  502    0 -0.32898838239E+03  0.51722533708E+03  0.81542333752E+03  0.10201326554E+04  0.10100000352E+00 0.  1.
       -3    1    3    3    0  502  0.32898838239E+03 -0.51722533708E+03 -0.12828914297E+04  0.14218177927E+04  0.10100000352E+00 0. -1.
</event>
<event>
 5   0  0.2915546E-05  0.2282387E+04  0.7818609E-02  0.8484898E-01
        1   -1    0    0  501    0  0.00000000000E+00  0.00000000000E+00  0.59040948775E+03  0.59040948777E+03  0.50400001928E-02 0.  1.
       -1   -1    0    0    0  501  0.00000000000E+00  0.00000000000E+00 -0.22057948993E+04  0.22057948993E+04  0.50400001928E-02 0. -1.
    10030    2    1    2    0    0  0.00000000000E+00  0.00000000000E+00 -0.16153854116E+04  0.27962043871E+04  0.22823866777E+04 0.  0.
        2    1    3    3  502    0 -0.21794817981E+03 -0.94750836957E+03 -0.75638183914E+02  0.97518954791E+03  0.25500000920E-02 0.  1.
       -2    1    3    3    0  502  0.21794817981E+03  0.94750836957E+03 -0.15397472277E+04  0.18210148392E+04  0.25500000920E-02 0. -1.
</event>
<event>
 5   0  0.6703961E-05  0.2446781E+04  0.7818609E-02  0.8422194E-01
       -2   -1    0    0    0  501  0.00000000000E+00  0.00000000000E+00  0.92893840908E+03  0.92893840909E+03  0.25500000920E-02 0. -1.
        2   -1    0    0  501    0  0.00000000000E+00  0.00000000000E+00 -0.16111777442E+04  0.16111777442E+04  0.25500000920E-02 0.  1.
    10030    2    1    2    0    0  0.00000000000E+00  0.00000000000E+00 -0.68223933509E+03  0.25401161533E+04  0.24467814700E+04 0.  0.
        2    1    3    3  502    0  0.10703244926E+04  0.39313853901E+03  0.11911098311E+03  0.11464466218E+04  0.25500000920E-02 0. -1.
       -2    1    3    3    0  502 -0.10703244926E+04 -0.39313853901E+03 -0.80135031820E+03  0.13936695314E+04  0.25500000920E-02 0.  1.
</event>
<event>
 5   0  0.2901816E-05  0.2390716E+04  0.7818609E-02  0.8442987E-01
        1   -1    0    0  501    0  0.00000000000E+00  0.00000000000E+00  0.11044739716E+04  0.11044739716E+04  0.50400001928E-02 0.  1.
       -1   -1    0    0    0  501  0.00000000000E+00  0.00000000000E+00 -0.12937208211E+04  0.12937208211E+04  0.50400001928E-02 0. -1.
    10030    2    1    2    0    0  0.00000000000E+00  0.00000000000E+00 -0.18924684956E+03  0.23981947927E+04  0.23907161884E+04 0.  0.
        4    1    3    3  502    0  0.28826060101E+02  0.11647383377E+04  0.17348221505E+03  0.11779405880E+04  0.12699999809E+01 0.  1.
       -4    1    3    3    0  502 -0.28826060101E+02 -0.11647383377E+04 -0.36272906460E+03  0.12202542047E+04  0.12699999809E+01 0. -1.
</event>
<event>
 5   0  0.2339125E-05  0.2427487E+04  0.7818609E-02  0.8429284E-01
       -3   -1    0    0    0  501  0.00000000000E+00  0.00000000000E+00  0.96984404519E+03  0.96984405045E+03  0.10100000352E+00 0.  1.
        3   -1    0    0  501    0  0.00000000000E+00  0.00000000000E+00 -0.15189792845E+04  0.15189792879E+04  0.10100000352E+00 0. -1.
    10030    2    1    2    0    0  0.00000000000E+00  0.00000000000E+00 -0.54913523931E+03  0.24888233383E+04  0.24274867864E+04 0.  0.
        5    1    3    3  502    0  0.70929751047E+03 -0.89446644614E+03 -0.69726858326E+03  0.13376766234E+04  0.46999998093E+01 0. -1.
       -5    1    3    3    0  502 -0.70929751047E+03  0.89446644614E+03  0.14813334395E+03  0.11511467149E+04  0.46999998093E+01 0.  1.
</event>
<event>
 5   0  0.6337926E-05  0.2387337E+04  0.7818609E-02  0.8444260E-01
        2   -1    0    0  501    0  0.00000000000E+00  0.00000000000E+00  0.25635086243E+04  0.25635086243E+04  0.25500000920E-02 0.  1.
       -2   -1    0    0    0  501  0.00000000000E+00  0.00000000000E+00 -0.55581813247E+03  0.55581813247E+03  0.25500000920E-02 0. -1.
    10030    2    1    2    0    0  0.00000000000E+00  0.00000000000E+00  0.20076904918E+04  0.31193267568E+04  0.23873370739E+04 0.  0.
        1    1    3    3  502    0  0.82118746383E+03  0.73338521386E+03  0.40132519712E+03  0.11718637449E+04  0.50400001928E-02 0. -1.
       -1    1    3    3    0  502 -0.82118746383E+03 -0.73338521386E+03  0.16063652947E+04  0.19474630119E+04  0.50400001928E-02 0.  1.
</event>
<event>
 5   0  0.2901816E-05  0.2564025E+04  0.7818609E-02  0.8380525E-01
       -1   -1    0    0    0  501  0.00000000000E+00  0.00000000000E+00  0.12172354082E+04  0.12172354082E+04  0.50400001928E-02 0.  1.
        1   -1    0    0  501    0  0.00000000000E+00  0.00000000000E+00 -0.13502371884E+04  0.13502371884E+04  0.50400001928E-02 0. -1.
    10030    2    1    2    0    0  0.00000000000E+00  0.00000000000E+00 -0.13300178019E+03  0.25674725966E+04  0.25640253628E+04 0.  0.
        4    1    3    3  502    0 -0.46985272839E+03  0.70290256906E+03 -0.10314984204E+04  0.13337256885E+04  0.12699999809E+01 0. -1.
       -4    1    3    3    0  502  0.46985272839E+03 -0.70290256906E+03  0.89849664021E+03  0.12337469081E+04  0.12699999809E+01 0.  1.
</event>
<event>
 5   0  0.2943123E-05  0.1503427E+04  0.7818609E-02  0.8882177E-01
        1   -1    0    0  501    0  0.00000000000E+00  0.00000000000E+00  0.76480864212E+03  0.76480864213E+03  0.50400001928E-02 0.  1.
       -1   -1    0    0    0  501  0.00000000000E+00  0.00000000000E+00 -0.73884239838E+03  0.73884239840E+03  0.50400001928E-02 0. -1.
    10030    2    1    2    0    0  0.00000000000E+00  0.00000000000E+00  0.25966243733E+02  0.15036510405E+04  0.15034268209E+04 0.  0.
        1    1    3    3  502    0 -0.67051664272E+03  0.20855527075E+02 -0.32625108688E+03  0.74596735377E+03  0.50400001928E-02 0. -1.
       -1    1    3    3    0  502  0.67051664272E+03 -0.20855527075E+02  0.35221733061E+03  0.75768368676E+03  0.50400001928E-02 0.  1.
</event>
<event>
 5   0  0.2915546E-05  0.2394749E+04  0.7818609E-02  0.8441472E-01
       -1   -1    0    0    0  501  0.00000000000E+00  0.00000000000E+00  0.93585378932E+03  0.93585378933E+03  0.50400001928E-02 0.  1.
        1   -1    0    0  501    0  0.00000000000E+00  0.00000000000E+00 -0.15319755989E+04  0.15319755989E+04  0.50400001928E-02 0. -1.
    10030    2    1    2    0    0  0.00000000000E+00  0.00000000000E+00 -0.59612180955E+03  0.24678293882E+04  0.23947485625E+04 0.  0.
        2    1    3    3  502    0  0.15056952252E+03  0.75468177444E+03  0.64726059928E+03  0.10055655350E+04  0.25500000920E-02 0.  1.
       -2    1    3    3    0  502 -0.15056952252E+03 -0.75468177444E+03 -0.12433824088E+04  0.14622638532E+04  0.25500000920E-02 0. -1.
</event>
<event>
 5   0  0.6337926E-05  0.2407221E+04  0.7818609E-02  0.8436805E-01
        2   -1    0    0  501    0  0.00000000000E+00  0.00000000000E+00  0.99289998819E+03  0.99289998820E+03  0.25500000920E-02 0.  1.
       -2   -1    0    0    0  501  0.00000000000E+00  0.00000000000E+00 -0.14590370878E+04  0.14590370878E+04  0.25500000920E-02 0. -1.
    10030    2    1    2    0    0  0.00000000000E+00  0.00000000000E+00 -0.46613709956E+03  0.24519370759E+04  0.24072207271E+04 0.  0.
        1    1    3    3  502    0  0.52063855653E+03  0.70188482925E+03 -0.10760723387E+04  0.13862317621E+04  0.50400001928E-02 0. -1.
       -1    1    3    3    0  502 -0.52063855653E+03 -0.70188482925E+03  0.60993523912E+03  0.10657053139E+04  0.50400001928E-02 0.  1.
</event>
<event>
 5   0  0.6600166E-05  0.2373034E+04  0.7818609E-02  0.8449669E-01
       -2   -1    0    0    0  501  0.00000000000E+00  0.00000000000E+00  0.15963247242E+04  0.15963247242E+04  0.25500000920E-02 0. -1.
        2   -1    0    0  501    0  0.00000000000E+00  0.00000000000E+00 -0.88191454921E+03  0.88191454921E+03  0.25500000920E-02 0.  1.
    10030    2    1    2    0    0  0.00000000000E+00  0.00000000000E+00  0.71441017499E+03  0.24782392734E+04  0.23730335013E+04 0.  0.
        5    1    3    3  502    0 -0.76387226977E+03  0.50435534142E+03  0.11456078297E+04  0.14663950847E+04  0.46999998093E+01 0. -1.
       -5    1    3    3    0  502  0.76387226977E+03 -0.50435534142E+03 -0.43119765467E+03  0.10118441888E+04  0.46999998093E+01 0.  1.
</event>
<event>
 5   0  0.2847158E-05  0.2401281E+04  0.7818609E-02  0.8439024E-01
        1   -1    0    0  501    0  0.00000000000E+00  0.00000000000E+00  0.88782405165E+03  0.88782405166E+03  0.50400001928E-02 0.  1.
       -1   -1    0    0    0  501  0.00000000000E+00  0.00000000000E+00 -0.16236751413E+04  0.16236751413E+04  0.50400001928E-02 0. -1.
    10030    2    1    2    0    0  0.00000000000E+00  0.00000000000E+00 -0.73585108964E+03  0.25114991930E+04  0.24012811935E+04 0.  0.
        5    1    3    3  502    0  0.36083222280E+03 -0.10123196885E+04  0.19192365600E+03  0.10917178319E+04  0.46999998093E+01 0.  1.
       -5    1    3    3    0  502 -0.36083222280E+03  0.10123196885E+04 -0.92777474563E+03  0.14197813611E+04  0.46999998093E+01 0. -1.
</event>
<event>
 5   0  0.6978115E-05  0.2389991E+04  0.7818609E-02  0.8443260E-01
       -2   -1    0    0    0  501  0.00000000000E+00  0.00000000000E+00  0.16887917103E+04  0.16887917103E+04  0.25500000920E-02 0. -1.
        2   -1    0    0  501    0  0.00000000000E+00  0.00000000000E+00 -0.84558317097E+03  0.84558317097E+03  0.25500000920E-02 0.  1.
    10030    2    1    2    0    0  0.00000000000E+00  0.00000000000E+00  0.84320853930E+03  0.25343748812E+04  0.23899906690E+04 0.  0.
        4    1    3    3  502    0  0.55021933192E+03 -0.55915431095E+02  0.15449127073E+04  0.16409219161E+04  0.12699999809E+01 0. -1.
       -4    1    3    3    0  502 -0.55021933192E+03  0.55915431095E+02 -0.70170416800E+03  0.89345296515E+03  0.12699999809E+01 0.  1.
</event>
<event>
 5   0  0.2943123E-05  0.2360870E+04  0.7818609E-02  0.8454300E-01
        1   -1    0    0  501    0  0.00000000000E+00  0.00000000000E+00  0.11536207637E+04  0.11536207637E+04  0.50400001928E-02 0.  1.
       -1   -1    0    0    0  501  0.00000000000E+00  0.00000000000E+00 -0.12078721543E+04  0.12078721543E+04  0.50400001928E-02 0. -1.
    10030    2    1    2    0    0  0.00000000000E+00  0.00000000000E+00 -0.54251390603E+02  0.23614929181E+04  0.23608696679E+04 0.  0.
        1    1    3    3  502    0 -0.62997368134E+03  0.12451739727E+03  0.96361797742E+03  0.11579857632E+04  0.50400001928E-02 0.  1.
       -1    1    3    3    0  502  0.62997368134E+03 -0.12451739727E+03 -0.10178693680E+04  0.12035071549E+04  0.50400001928E-02 0. -1.
</event>
<event>
 5   0  0.2847158E-05  0.2048828E+04  0.7818609E-02  0.8584126E-01
        1   -1    0    0  501    0  0.00000000000E+00  0.00000000000E+00  0.84593832675E+03  0.84593832676E+03  0.50400001928E-02 0.  1.
       -1   -1    0    0    0  501  0.00000000000E+00  0.00000000000E+00 -0.12405442311E+04  0.12405442311E+04  0.50400001928E-02 0. -1.
    10030    2    1    2    0    0  0.00000000000E+00  0.00000000000E+00 -0.39460590438E+03  0.20864825579E+04  0.20488278709E+04 0.  0.
        5    1    3    3  502    0 -0.15481200087E+03 -0.77600425398E+03  0.46523236288E+03  0.91793932222E+03  0.46999998093E+01 0.  1.
       -5    1    3    3    0  502  0.15481200087E+03  0.77600425398E+03 -0.85983826726E+03  0.11685432357E+04  0.46999998093E+01 0. -1.
</event>
<event>
 5   0  0.2915546E-05  0.2412025E+04  0.7818609E-02  0.8435015E-01
        1   -1    0    0  501    0  0.00000000000E+00  0.00000000000E+00  0.10711026682E+04  0.10711026682E+04  0.50400001928E-02 0. -1.
       -1   -1    0    0    0  501  0.00000000000E+00  0.00000000000E+00 -0.13579147376E+04  0.13579147376E+04  0.50400001928E-02 0.  1.
    10030    2    1    2    0    0  0.00000000000E+00  0.00000000000E+00 -0.28681206937E+03  0.24290174058E+04  0.24120249572E+04 0.  0.
        2    1    3    3  502    0 -0.10233240638E+04 -0.35955980527E+03  0.38755660975E+03  0.11518140122E+04  0.25500000920E-02 0. -1.
       -2    1    3    3    0  502  0.10233240638E+04  0.35955980527E+03 -0.67436867912E+03  0.12772033935E+04  0.25500000920E-02 0.  1.
</event>
<event>
 5   0  0.2915546E-05  0.1561683E+04  0.7818609E-02  0.8844440E-01
        1   -1    0    0  501    0  0.00000000000E+00  0.00000000000E+00  0.11028441963E+04  0.11028441963E+04  0.50400001928E-02 0.  1.
       -1   -1    0    0    0  501  0.00000000000E+00  0.00000000000E+00 -0.55285512984E+03  0.55285512986E+03  0.50400001928E-02 0. -1.
    10030    2    1    2    0    0  0.00000000000E+00  0.00000000000E+00  0.54998906644E+03  0.16556993261E+04  0.15616825175E+04 0.  0.
        2    1    3    3  502    0 -0.27186618377E+03  0.12617073650E+03 -0.48944202054E+03  0.57391965301E+03  0.25500000920E-02 0. -1.
       -2    1    3    3    0  502  0.27186618377E+03 -0.12617073650E+03  0.10394310870E+04  0.10817796731E+04  0.25500000920E-02 0.  1.
</event>
<event>
 5   0  0.2847158E-05  0.2385019E+04  0.7818609E-02  0.8445134E-01
        1   -1    0    0  501    0  0.00000000000E+00  0.00000000000E+00  0.10970544763E+04  0.10970544764E+04  0.50400001928E-02 0.  1.
       -1   -1    0    0    0  501  0.00000000000E+00  0.00000000000E+00 -0.12962702325E+04  0.12962702325E+04  0.50400001928E-02 0. -1.
    10030    2    1    2    0    0  0.00000000000E+00  0.00000000000E+00 -0.19921575619E+03  0.23933247089E+04  0.23850191288E+04 0.  0.
        5    1    3    3  502    0 -0.75602910767E+03  0.15974108388E+03  0.81182803429E+03  0.11207961781E+04  0.46999998093E+01 0.  1.
       -5    1    3    3    0  502  0.75602910767E+03 -0.15974108388E+03 -0.10110437905E+04  0.12725285308E+04  0.46999998093E+01 0. -1.
</event>
<event>
 5   0  0.2847158E-05  0.2463427E+04  0.7818609E-02  0.8416132E-01
        1   -1    0    0  501    0  0.00000000000E+00  0.00000000000E+00  0.16386910494E+04  0.16386910494E+04  0.50400001928E-02 0.  1.
       -1   -1    0    0    0  501  0.00000000000E+00  0.00000000000E+00 -0.92581075697E+03  0.92581075698E+03  0.50400001928E-02 0. -1.
    10030    2    1    2    0    0  0.00000000000E+00  0.00000000000E+00  0.71288029241E+03  0.25645018064E+04  0.24634267197E+04 0.  0.
        5    1    3    3  502    0 -0.50248399783E+03  0.42459155923E+03 -0.72759561118E+03  0.98091060941E+03  0.46999998093E+01 0. -1.
       -5    1    3    3    0  502  0.50248399783E+03 -0.42459155923E+03  0.14404759036E+04  0.15835911970E+04  0.46999998093E+01 0.  1.
</event>
<event>
 5   0  0.2915546E-05  0.2183572E+04  0.7818609E-02  0.8525297E-01
        1   -1    0    0  501    0  0.00000000000E+00  0.00000000000E+00  0.15135843056E+04  0.15135843056E+04  0.50400001928E-02 0.  1.
       -1   -1    0    0    0  501  0.00000000000E+00  0.00000000000E+00 -0.78753270234E+03  0.78753270236E+03  0.50400001928E-02 0. -1.
    10030    2    1    2    0    0  0.00000000000E+00  0.00000000000E+00  0.72605160324E+03  0.23011170079E+04  0.21835724292E+04 0.  0.
        2    1    3    3  502    0 -0.19043186621E+03  0.20491621932E+03 -0.74912437536E+03  0.79965135051E+03  0.25500000920E-02 0. -1.
       -2    1    3    3    0  502  0.19043186621E+03 -0.20491621932E+03  0.14751759786E+04  0.15014656574E+04  0.25500000920E-02 0.  1.
</event>
<event>
 5   0  0.2915546E-05  0.2564423E+04  0.7818609E-02  0.8380387E-01
        1   -1    0    0  501    0  0.00000000000E+00  0.00000000000E+00  0.23273883844E+04  0.23273883844E+04  0.50400001928E-02 0. -1.
       -1   -1    0    0    0  501  0.00000000000E+00  0.00000000000E+00 -0.70639941405E+03  0.70639941407E+03  0.50400001928E-02 0.  1.
    10030    2    1    2    0    0  0.00000000000E+00  0.00000000000E+00  0.16209889703E+04  0.30337877985E+04  0.25644225791E+04 0.  0.
        2    1    3    3  502    0  0.90173504376E+03  0.89036185113E+03  0.10417018007E+04  0.16404307229E+04  0.25500000920E-02 0. -1.
       -2    1    3    3    0  502 -0.90173504376E+03 -0.89036185113E+03  0.57928716963E+03  0.13933570756E+04  0.25500000920E-02 0.  1.
</event>
<event>
 5   0  0.2339125E-05  0.2379369E+04  0.7818609E-02  0.8447268E-01
       -4   -1    0    0    0  501  0.00000000000E+00  0.00000000000E+00  0.11226828546E+04  0.11226835729E+04  0.12699999809E+01 0.  1.
        4   -1    0    0  501    0  0.00000000000E+00  0.00000000000E+00 -0.12606835083E+04  0.12606841480E+04  0.12699999809E+01 0. -1.
    10030    2    1    2    0    0  0.00000000000E+00  0.00000000000E+00 -0.13800065370E+03  0.23833677209E+04  0.23793691417E+04 0.  0.
        4    1    3    3  502    0 -0.63635304770E+03  0.78853909552E+03  0.55543212429E+03  0.11555282619E+04  0.12699999809E+01 0.  1.
       -4    1    3    3    0  502  0.63635304770E+03 -0.78853909552E+03 -0.69343277800E+03  0.12278394590E+04  0.12699999809E+01 0. -1.
</event>
<event>
 5   0  0.6337926E-05  0.1793888E+04  0.7818609E-02  0.8709557E-01
       -2   -1    0    0    0  501  0.00000000000E+00  0.00000000000E+00  0.37137518111E+03  0.37137518112E+03  0.25500000920E-02 0.  1.
        2   -1    0    0  501    0  0.00000000000E+00  0.00000000000E+00 -0.21662959397E+04  0.21662959397E+04  0.25500000920E-02 0. -1.
    10030    2    1    2    0    0  0.00000000000E+00  0.00000000000E+00 -0.17949207586E+04  0.25376711208E+04  0.17938880087E+04 0.  0.
        1    1    3    3  502    0 -0.30554978893E+03  0.45159550721E+02 -0.20886923827E+04  0.21114061495E+04  0.50400001928E-02 0. -1.
       -1    1    3    3    0  502  0.30554978893E+03 -0.45159550721E+02  0.29377162417E+03  0.42626497127E+03  0.50400001928E-02 0.  1.
</event>
<event>
 5   0  0.2847158E-05  0.2383688E+04  0.7818609E-02  0.8445636E-01
        1   -1    0    0  501    0  0.00000000000E+00  0.00000000000E+00  0.12249335932E+04  0.12249335932E+04  0.50400001928E-02 0.  1.
       -1   -1    0    0    0  501  0.00000000000E+00  0.00000000000E+00 -0.11596479401E+04  0.11596479401E+04  0.50400001928E-02 0. -1.
    10030    2    1    2    0    0  0.00000000000E+00  0.00000000000E+00  0.65285653090E+02  0.23845815333E+04  0.23836876625E+04 0.  0.
        5    1    3    3  502    0 -0.41622251190E+03  0.87701141916E+03  0.72433498443E+03  0.12112280827E+04  0.46999998093E+01 0.  1.
       -5    1    3    3    0  502  0.41622251190E+03 -0.87701141916E+03 -0.65904933134E+03  0.11733534505E+04  0.46999998093E+01 0. -1.
</event>
<event>
 5   0  0.2915546E-05  0.2412051E+04  0.7818609E-02  0.8435005E-01
        1   -1    0    0  501    0  0.00000000000E+00  0.00000000000E+00  0.25739771362E+04  0.25739771362E+04  0.50400001928E-02 0.  1.
       -1   -1    0    0    0  501  0.00000000000E+00  0.00000000000E+00 -0.56507808813E+03  0.56507808815E+03  0.50400001928E-02 0. -1.
    10030    2    1    2    0    0  0.00000000000E+00  0.00000000000E+00  0.20088990481E+04  0.31390552244E+04  0.24120514746E+04 0.  0.
        2    1    3    3  502    0 -0.10469516149E+04  0.51437757782E+03  0.14030409302E+04  0.18246138847E+04  0.25500000920E-02 0.  1.
       -2    1    3    3    0  502  0.10469516149E+04 -0.51437757782E+03  0.60585811790E+03  0.13144413397E+04  0.25500000920E-02 0. -1.
</event>
<event>
 5   0  0.2943123E-05  0.2297590E+04  0.7818609E-02  0.8478872E-01
        1   -1    0    0  501    0  0.00000000000E+00  0.00000000000E+00  0.12962533857E+04  0.12962533857E+04  0.50400001928E-02 0.  1.
       -1   -1    0    0    0  501  0.00000000000E+00  0.00000000000E+00 -0.10181114797E+04  0.10181114797E+04  0.50400001928E-02 0. -1.
    10030    2    1    2    0    0  0.00000000000E+00  0.00000000000E+00  0.27814190594E+03  0.23143648654E+04  0.22975904358E+04 0.  0.
        1    1    3    3  502    0  0.45265066356E+03 -0.73310179925E+03  0.90448679239E+03  0.12491706164E+04  0.50400001928E-02 0.  1.
       -1    1    3    3    0  502 -0.45265066356E+03  0.73310179925E+03 -0.62634488645E+03  0.10651942490E+04  0.50400001928E-02 0. -1.
</event>
<event>
 5   0  0.6600166E-05  0.2450215E+04  0.7818609E-02  0.8420939E-01
        2   -1    0    0  501    0  0.00000000000E+00  0.00000000000E+00  0.12556067430E+04  0.12556067430E+04  0.25500000920E-02 0.  1.
       -2   -1    0    0    0  501  0.00000000000E+00  0.00000000000E+00 -0.11953494054E+04  0.11953494054E+04  0.25500000920E-02 0. -1.
    10030    2    1    2    0    0  0.00000000000E+00  0.00000000000E+00  0.60257337588E+02  0.24509561484E+04  0.24502153160E+04 0.  0.
        5    1    3    3  502    0 -0.81895594034E+03 -0.38828085230E+03  0.85464473382E+03  0.12457489970E+04  0.46999998093E+01 0.  1.
       -5    1    3    3    0  502  0.81895594034E+03  0.38828085230E+03 -0.79438739623E+03  0.12052071514E+04  0.46999998093E+01 0. -1.
</event>
<event>
 5   0  0.6600166E-05  0.2400569E+04  0.7818609E-02  0.8439291E-01
       -2   -1    0    0    0  501  0.00000000000E+00  0.00000000000E+00  0.77087709976E+03  0.77087709976E+03  0.25500000920E-02 0. -1.
        2   -1    0    0  501    0  0.00000000000E+00  0.00000000000E+00 -0.18688880959E+04  0.18688880959E+04  0.25500000920E-02 0.  1.
    10030    2    1    2    0    0  0.00000000000E+00  0.00000000000E+00 -0.10980109961E+04  0.26397651956E+04  0.24005691285E+04 0.  0.
        5    1    3    3  502    0 -0.67873246682E+03 -0.74601556545E+03 -0.12645704369E+04  0.16175220139E+04  0.46999998093E+01 0. -1.
       -5    1    3    3    0  502  0.67873246682E+03  0.74601556545E+03  0.16655944078E+03  0.10222431818E+04  0.46999998093E+01 0.  1.
</event>
<event>
 5   0  0.6978115E-05  0.2475261E+04  0.7818609E-02  0.8411852E-01
       -2   -1    0    0    0  501  0.00000000000E+00  0.00000000000E+00  0.13596600871E+04  0.13596600871E+04  0.25500000920E-02 0. -1.
        2   -1    0    0  501    0  0.00000000000E+00  0.00000000000E+00 -0.11265530054E+04  0.11265530054E+04  0.25500000920E-02 0.  1.
    10030    2    1    2    0    0  0.00000000000E+00  0.00000000000E+00  0.23310708177E+03  0.24862130925E+04  0.24752609216E+04 0.  0.
        4    1    3    3  502    0  0.26044138333E+02  0.22823170500E+03 -0.11049521924E+04  0.11285782954E+04  0.12699999809E+01 0.  1.
       -4    1    3    3    0  502 -0.26044138333E+02 -0.22823170500E+03  0.13380592742E+04  0.13576347972E+04  0.12699999809E+01 0. -1.
</event>
<event>
 5   0  0.2847158E-05  0.2421603E+04  0.7818609E-02  0.8431460E-01
        1   -1    0    0  501    0  0.00000000000E+00  0.00000000000E+00  0.90881359036E+03  0.90881359037E+03  0.50400001928E-02 0. -1.
       -1   -1    0    0    0  501  0.00000000000E+00  0.00000000000E+00 -0.16131359607E+04  0.16131359607E+04  0.50400001928E-02 0.  1.
    10030    2    1    2    0    0  0.00000000000E+00  0.00000000000E+00 -0.70432237032E+03  0.25219495511E+04  0.24216026794E+04 0.  0.
        5    1    3    3  502    0  0.73009879483E+03 -0.38442803043E+03 -0.12749886434E+04  0.15186992104E+04  0.46999998093E+01 0.  1.
       -5    1    3    3    0  502 -0.73009879483E+03  0.38442803043E+03  0.57066627309E+03  0.10032503407E+04  0.46999998093E+01 0. -1.
</event>
<event>
 5   0  0.6703961E-05  0.2339960E+04  0.7818609E-02  0.8462330E-01
        2   -1    0    0  501    0  0.00000000000E+00  0.00000000000E+00  0.13118447780E+04  0.13118447780E+04  0.25500000920E-02 0. -1.
       -2   -1    0    0    0  501  0.00000000000E+00  0.00000000000E+00 -0.10434568489E+04  0.10434568489E+04  0.25500000920E-02 0.  1.
    10030    2    1    2    0    0  0.00000000000E+00  0.00000000000E+00  0.26838792916E+03  0.23553016269E+04  0.23399601863E+04 0.  0.
        2    1    3    3  502    0  0.10627713292E+04  0.61573639197E+02 -0.35435325034E+03  0.11219805868E+04  0.25500000920E-02 0.  1.
       -2    1    3    3    0  502 -0.10627713292E+04 -0.61573639197E+02  0.62274117949E+03  0.12333210401E+04  0.25500000920E-02 0. -1.
</event>
<event>
 5   0  0.2915546E-05  0.2442445E+04  0.7818609E-02  0.8423781E-01
       -1   -1    0    0    0  501  0.00000000000E+00  0.00000000000E+00  0.65981479843E+03  0.65981479845E+03  0.50400001928E-02 0.  1.
        1   -1    0    0  501    0  0.00000000000E+00  0.00000000000E+00 -0.22603081414E+04  0.22603081414E+04  0.50400001928E-02 0. -1.
    10030    2    1    2    0    0  0.00000000000E+00  0.00000000000E+00 -0.16004933429E+04  0.29201229398E+04  0.24424452999E+04 0.  0.
        2    1    3    3  502    0  0.18841426473E+03  0.60907827968E+03  0.44505003843E+03  0.77752544823E+03  0.25500000920E-02 0.  1.
       -2    1    3    3    0  502 -0.18841426473E+03 -0.60907827968E+03 -0.20455433814E+04  0.21425974916E+04  0.25500000920E-02 0. -1.
</event>
<event>
 5   0  0.6703961E-05  0.2290379E+04  0.7818609E-02  0.8481724E-01
       -2   -1    0    0    0  501  0.00000000000E+00  0.00000000000E+00  0.13625455309E+04  0.13625455309E+04  0.25500000920E-02 0.  1.
        2   -1    0    0  501    0  0.00000000000E+00  0.00000000000E+00 -0.96250641015E+03  0.96250641016E+03  0.25500000920E-02 0. -1.
    10030    2    1    2    0    0  0.00000000000E+00  0.00000000000E+00  0.40003912075E+03  0.23250519411E+04  0.22903788400E+04 0.  0.
        2    1    3    3  502    0 -0.56997021484E+03  0.32086580989E+03  0.11542702941E+04  0.13267105282E+04  0.25500000920E-02 0.  1.
       -2    1    3    3    0  502  0.56997021484E+03 -0.32086580989E+03 -0.75423117336E+03  0.99834141286E+03  0.25500000920E-02 0. -1.
</event>
<event>
 5   0  0.2847158E-05  0.2281258E+04  0.7818609E-02  0.8485348E-01
        1   -1    0    0  501    0  0.00000000000E+00  0.00000000000E+00  0.10642293992E+04  0.10642293992E+04  0.50400001928E-02 0.  1.
       -1   -1    0    0    0  501  0.00000000000E+00  0.00000000000E+00 -0.12225129361E+04  0.12225129361E+04  0.50400001928E-02 0. -1.
    10030    2    1    2    0    0  0.00000000000E+00  0.00000000000E+00 -0.15828353691E+03  0.22867423353E+04  0.22812577299E+04 0.  0.
        5    1    3    3  502    0  0.43422785285E+02  0.69194878118E+03 -0.98704192850E+03  0.12062141239E+04  0.46999998093E+01 0. -1.
       -5    1    3    3    0  502 -0.43422785285E+02 -0.69194878118E+03  0.82875839159E+03  0.10805282114E+04  0.46999998093E+01 0.  1.
</event>
<event>
 5   0  0.6978115E-05  0.2661112E+04  0.7818609E-02  0.8347734E-01
       -2   -1    0    0    0  501  0.00000000000E+00  0.00000000000E+00  0.84761058704E+03  0.84761058704E+03  0.25500000920E-02 0. -1.
        2   -1    0    0  501    0  0.00000000000E+00  0.00000000000E+00 -0.20886708428E+04  0.20886708428E+04  0.25500000920E-02 0.  1.
    10030    2    1    2    0    0  0.00000000000E+00  0.00000000000E+00 -0.12410602558E+04  0.29362814299E+04  0.26611121880E+04 0.  0.
        4    1    3    3  502    0 -0.12829514080E+04 -0.14168054261E+03 -0.26411152985E+03  0.13174954287E+04  0.12699999809E+01 0. -1.
       -4    1    3    3    0  502  0.12829514080E+04  0.14168054261E+03 -0.97694872595E+03  0.16187860012E+04  0.12699999809E+01 0.  1.
</event>
<event>
 5   0  0.2943123E-05  0.2417532E+04  0.7818609E-02  0.8432969E-01
       -1   -1    0    0    0  501  0.00000000000E+00  0.00000000000E+00  0.83819849203E+03  0.83819849205E+03  0.50400001928E-02 0. -1.
        1   -1    0    0  501    0  0.00000000000E+00  0.00000000000E+00 -0.17431608205E+04  0.17431608205E+04  0.50400001928E-02 0.  1.
    10030    2    1    2    0    0  0.00000000000E+00  0.00000000000E+00 -0.90496232851E+03  0.25813593126E+04  0.24175316099E+04 0.  0.
        1    1    3    3  502    0  0.49363651584E+03 -0.32584720535E+03 -0.15780819976E+04  0.16852881659E+04  0.50400001928E-02 0.  1.
       -1    1    3    3    0  502 -0.49363651584E+03  0.32584720535E+03  0.67311966908E+03  0.89607114669E+03  0.50400001928E-02 0. -1.
</event>
<event>
 5   0  0.2847158E-05  0.2391916E+04  0.7818609E-02  0.8442536E-01
        1   -1    0    0  501    0  0.00000000000E+00  0.00000000000E+00  0.10860406649E+04  0.10860406649E+04  0.50400001928E-02 0.  1.
       -1   -1    0    0    0  501  0.00000000000E+00  0.00000000000E+00 -0.13170003905E+04  0.13170003905E+04  0.50400001928E-02 0. -1.
    10030    2    1    2    0    0  0.00000000000E+00  0.00000000000E+00 -0.23095972567E+03  0.24030410554E+04  0.23919163696E+04 0.  0.
        5    1    3    3  502    0  0.50254582799E+03  0.10747857428E+04 -0.26643577298E+03  0.12160291169E+04  0.46999998093E+01 0. -1.
       -5    1    3    3    0  502 -0.50254582799E+03 -0.10747857428E+04  0.35476047308E+02  0.11870119385E+04  0.46999998093E+01 0.  1.
</event>
<event>
 5   0  0.2901816E-05  0.2457735E+04  0.7818609E-02  0.8418199E-01
        1   -1    0    0  501    0  0.00000000000E+00  0.00000000000E+00  0.88988868162E+03  0.88988868164E+03  0.50400001928E-02 0. -1.
       -1   -1    0    0    0  501  0.00000000000E+00  0.00000000000E+00 -0.16969717245E+04  0.16969717245E+04  0.50400001928E-02 0.  1.
    10030    2    1    2    0    0  0.00000000000E+00  0.00000000000E+00 -0.80708304286E+03  0.25868604061E+04  0.24577354867E+04 0.  0.
        4    1    3    3  502    0 -0.88881676307E+03  0.23952123723E+02 -0.12963677633E+04  0.15719859838E+04  0.12699999809E+01 0.  1.
       -4    1    3    3    0  502  0.88881676307E+03 -0.23952123723E+02  0.48928472045E+03  0.10148744223E+04  0.12699999809E+01 0. -1.
</event>
<event>
 5   0  0.6703961E-05  0.2081928E+04  0.7818609E-02  0.8569246E-01
       -2   -1    0    0    0  501  0.00000000000E+00  0.00000000000E+00  0.75574803687E+03  0.75574803687E+03  0.25500000920E-02 0. -1.
        2   -1    0    0  501    0  0.00000000000E+00  0.00000000000E+00 -0.14338185799E+04  0.14338185800E+04  0.25500000920E-02 0.  1.
    10030    2    1    2    0    0  0.00000000000E+00  0.00000000000E+00 -0.67807054308E+03  0.21895666168E+04  0.20819275463E+04 0.  0.
        2    1    3    3  502    0 -0.29603521893E+02  0.43574387890E+03 -0.13327995442E+04  0.14025347487E+04  0.25500000920E-02 0.  1.
       -2    1    3    3    0  502  0.29603521893E+02 -0.43574387890E+03  0.65472900108E+03  0.78703186808E+03  0.25500000920E-02 0. -1.
</event>
<event>
 5   0  0.6714629E-05  0.2393442E+04  0.7818609E-02  0.8441963E-01
        2   -1    0    0  501    0  0.00000000000E+00  0.00000000000E+00  0.17643376711E+04  0.17643376711E+04  0.25500000920E-02 0.  1.
       -2   -1    0    0    0  501  0.00000000000E+00  0.00000000000E+00 -0.81171582173E+03  0.81171582173E+03  0.25500000920E-02 0. -1.
    10030    2    1    2    0    0  0.00000000000E+00  0.00000000000E+00  0.95262184941E+03  0.25760534929E+04  0.23934417081E+04 0.  0.
        3    1    3    3  502    0  0.46226837992E+03  0.89396797291E+03 -0.22060263873E+03  0.10303088499E+04  0.10100000352E+00 0. -1.
       -3    1    3    3    0  502 -0.46226837992E+03 -0.89396797291E+03  0.11732244881E+04  0.15457446430E+04  0.10100000352E+00 0.  1.
</event>
<event>
 5   0  0.2847158E-05  0.2223909E+04  0.7818609E-02  0.8508542E-01
       -1   -1    0    0    0  501  0.00000000000E+00  0.00000000000E+00  0.11137880940E+04  0.11137880940E+04  0.50400001928E-02 0. -1.
        1   -1    0    0  501    0  0.00000000000E+00  0.00000000000E+00 -0.11101244020E+04  0.11101244020E+04  0.50400001928E-02 0.  1.
    10030    2    1    2    0    0  0.00000000000E+00  0.00000000000E+00  0.36636920710E+01  0.22239124960E+04  0.22239094782E+04 0.  0.
        5    1    3    3  502    0  0.57748919165E+03 -0.14556779250E+03  0.94084190782E+03  0.11135031810E+04  0.46999998093E+01 0. -1.
       -5    1    3    3    0  502 -0.57748919165E+03  0.14556779250E+03 -0.93717821575E+03  0.11104093150E+04  0.46999998093E+01 0.  1.
</event>
<event>
 5   0  0.6600166E-05  0.2398840E+04  0.7818609E-02  0.8439938E-01
        2   -1    0    0  501    0  0.00000000000E+00  0.00000000000E+00  0.15330726724E+04  0.15330726724E+04  0.25500000920E-02 0.  1.
       -2   -1    0    0    0  501  0.00000000000E+00  0.00000000000E+00 -0.93838244018E+03  0.93838244018E+03  0.25500000920E-02 0. -1.
    10030    2    1    2    0    0  0.00000000000E+00  0.00000000000E+00  0.59469023225E+03  0.24714551126E+04  0.23988401158E+04 0.  0.
        5    1    3    3  502    0 -0.14066658932E+03 -0.64462777384E+02 -0.92804671682E+03  0.94086945833E+03  0.46999998093E+01 0. -1.
       -5    1    3    3    0  502  0.14066658932E+03  0.64462777384E+02  0.15227369491E+04  0.15305856543E+04  0.46999998093E+01 0.  1.
</event>
<event>
 5   0  0.6600166E-05  0.2413543E+04  0.7818609E-02  0.8434451E-01
       -2   -1    0    0    0  501  0.00000000000E+00  0.00000000000E+00  0.11780811109E+04  0.11780811109E+04  0.25500000920E-02 0. -1.
        2   -1    0    0  501    0  0.00000000000E+00  0.00000000000E+00 -0.12361606704E+04  0.12361606704E+04  0.25500000920E-02 0.  1.
    10030    2    1    2    0    0  0.00000000000E+00  0.00000000000E+00 -0.58079559484E+02  0.24142417813E+04  0.24135430685E+04 0.  0.
        5    1    3    3  502    0 -0.24568410897E+03 -0.52572585489E+03 -0.10874231614E+04  0.12325824832E+04  0.46999998093E+01 0.  1.
       -5    1    3    3    0  502  0.24568410897E+03  0.52572585489E+03  0.10293436020E+04  0.11816592981E+04  0.46999998093E+01 0. -1.
</event>
<event>
 5   0  0.6600166E-05  0.2373928E+04  0.7818609E-02  0.8449329E-01
       -2   -1    0    0    0  501  0.00000000000E+00  0.00000000000E+00  0.67657505187E+03  0.67657505187E+03  0.25500000920E-02 0.  1.
        2   -1    0    0  501    0  0.00000000000E+00  0.00000000000E+00 -0.20823759942E+04  0.20823759942E+04  0.25500000920E-02 0. -1.
    10030    2    1    2    0    0  0.00000000000E+00  0.00000000000E+00 -0.14058009423E+04  0.27589510460E+04  0.23739280918E+04 0.  0.
        5    1    3    3  502    0 -0.73865958168E+03  0.56677884816E+03  0.15271417073E+03  0.94350407962E+03  0.46999998093E+01 0.  1.
       -5    1    3    3    0  502  0.73865958168E+03 -0.56677884816E+03 -0.15585151130E+04  0.18154469664E+04  0.46999998093E+01 0. -1.
</event>
<event>
 5   0  0.2943123E-05  0.2449113E+04  0.7818609E-02  0.8421342E-01
       -1   -1    0    0    0  501  0.00000000000E+00  0.00000000000E+00  0.12126724012E+04  0.12126724012E+04  0.50400001928E-02 0.  1.
        1   -1    0    0  501    0  0.00000000000E+00  0.00000000000E+00 -0.12365569131E+04  0.12365569131E+04  0.50400001928E-02 0. -1.
    10030    2    1    2    0    0  0.00000000000E+00  0.00000000000E+00 -0.23884511927E+02  0.24492293143E+04  0.24491128524E+04 0.  0.
        1    1    3    3  502    0  0.73670164422E+03 -0.69686073021E+03  0.67452629044E+03  0.12179203202E+04  0.50400001928E-02 0.  1.
       -1    1    3    3    0  502 -0.73670164422E+03  0.69686073021E+03 -0.69841080237E+03  0.12313089940E+04  0.50400001928E-02 0. -1.
</event>
<event>
 5   0  0.6978115E-05  0.2388847E+04  0.7818609E-02  0.8443691E-01
        2   -1    0    0  501    0  0.00000000000E+00  0.00000000000E+00  0.20992314343E+04  0.20992314343E+04  0.25500000920E-02 0. -1.
       -2   -1    0    0    0  501  0.00000000000E+00  0.00000000000E+00 -0.67960480999E+03  0.67960480999E+03  0.25500000920E-02 0.  1.
    10030    2    1    2    0    0  0.00000000000E+00  0.00000000000E+00  0.14196266243E+04  0.27788362443E+04  0.23888472367E+04 0.  0.
        4    1    3    3  502    0  0.87379545725E+03  0.54728193740E+03  0.14112566161E+04  0.17477651071E+04  0.12699999809E+01 0. -1.
       -4    1    3    3    0  502 -0.87379545725E+03 -0.54728193740E+03  0.83700082354E+01  0.10310711372E+04  0.12699999809E+01 0.  1.
</event>
<event>
 5   0  0.2943123E-05  0.2362639E+04  0.7818609E-02  0.8453625E-01
        1   -1    0    0  501    0  0.00000000000E+00  0.00000000000E+00  0.21277238142E+04  0.21277238142E+04  0.50400001928E-02 0. -1.
       -1   -1    0    0    0  501  0.00000000000E+00  0.00000000000E+00 -0.65587282882E+03  0.65587282884E+03  0.50400001928E-02 0.  1.
    10030    2    1    2    0    0  0.00000000000E+00  0.00000000000E+00  0.14718509854E+04  0.27835966431E+04  0.23626394029E+04 0.  0.
        1    1    3    3  502    0  0.78656422183E+02 -0.56616723441E+02 -0.65118128993E+03  0.65835352092E+03  0.50400001928E-02 0.  1.
       -1    1    3    3    0  502 -0.78656422183E+02  0.56616723441E+02  0.21230322753E+04  0.21252431222E+04  0.50400001928E-02 0. -1.
</event>
<event>
 5   0  0.2943123E-05  0.2470987E+04  0.7818609E-02  0.8413395E-01
       -1   -1    0    0    0  501  0.00000000000E+00  0.00000000000E+00  0.11813098136E+04  0.11813098136E+04  0.50400001928E-02 0.  1.
        1   -1    0    0  501    0  0.00000000000E+00  0.00000000000E+00 -0.12921620689E+04  0.12921620689E+04  0.50400001928E-02 0. -1.
    10030    2    1    2    0    0  0.00000000000E+00  0.00000000000E+00 -0.11085225532E+03  0.24734718825E+04  0.24709866311E+04 0.  0.
        1    1    3    3  502    0 -0.10104983836E+04  0.45435323650E+03  0.49184111901E+03  0.12122093602E+04  0.50400001928E-02 0.  1.
       -1    1    3    3    0  502  0.10104983836E+04 -0.45435323650E+03 -0.60269337434E+03  0.12612625223E+04  0.50400001928E-02 0. -1.
</event>
<event>
 5   0  0.2915546E-05  0.2477173E+04  0.7818609E-02  0.8411163E-01
       -1   -1    0    0    0  501  0.00000000000E+00  0.00000000000E+00  0.68875591367E+03  0.68875591369E+03  0.50400001928E-02 0. -1.
        1   -1    0    0  501    0  0.00000000000E+00  0.00000000000E+00 -0.22273446436E+04  0.22273446436E+04  0.50400001928E-02 0.  1.
    10030    2    1    2    0    0  0.00000000000E+00  0.00000000000E+00 -0.15385887299E+04  0.29161005573E+04  0.24771732237E+04 0.  0.
        2    1    3    3  502    0 -0.10923125296E+04 -0.50873816879E+02 -0.84536699513E+02  0.10967594363E+04  0.25500000920E-02 0. -1.
       -2    1    3    3    0  502  0.10923125296E+04  0.50873816879E+02 -0.14540520304E+04  0.18193411210E+04  0.25500000920E-02 0.  1.
</event>
<event>
 5   0  0.6978115E-05  0.2427434E+04  0.7818609E-02  0.8429303E-01
        2   -1    0    0  501    0  0.00000000000E+00  0.00000000000E+00  0.23248833382E+04  0.23248833382E+04  0.25500000920E-02 0. -1.
       -2   -1    0    0    0  501  0.00000000000E+00  0.00000000000E+00 -0.63362729156E+03  0.63362729157E+03  0.25500000920E-02 0.  1.
    10030    2    1    2    0    0  0.00000000000E+00  0.00000000000E+00  0.16912560466E+04  0.29585106298E+04  0.24274344751E+04 0.  0.
        4    1    3    3  502    0  0.26438987769E+03  0.11542463166E+04  0.11702023203E+04  0.16648007839E+04  0.12699999809E+01 0.  1.
       -4    1    3    3    0  502 -0.26438987769E+03 -0.11542463166E+04  0.52105372637E+03  0.12937098459E+04  0.12699999809E+01 0. -1.
</event>
<event>
 5   0  0.2901816E-05  0.2374962E+04  0.7818609E-02  0.8448937E-01
        1   -1    0    0  501    0  0.00000000000E+00  0.00000000000E+00  0.81732433870E+03  0.81732433872E+03  0.50400001928E-02 0.  1.
       -1   -1    0    0    0  501  0.00000000000E+00  0.00000000000E+00 -0.17252771143E+04  0.17252771143E+04  0.50400001928E-02 0. -1.
    10030    2    1    2    0    0  0.00000000000E+00  0.00000000000E+00 -0.90795277564E+03  0.25426014531E+04  0.23749618747E+04 0.  0.
        4    1    3    3  502    0 -0.18953526369E+03 -0.93148174189E+03 -0.12159205888E+04  0.15433879431E+04  0.12699999809E+01 0. -1.
       -4    1    3    3    0  502  0.18953526369E+03  0.93148174189E+03  0.30796781318E+03  0.99921350997E+03  0.12699999809E+01 0.  1.
</event>
<event>
 5   0  0.2943244E-05  0.2371324E+04  0.7818609E-02  0.8450318E-01
        1   -1    0    0  501    0  0.00000000000E+00  0.00000000000E+00  0.20320163069E+04  0.20320163069E+04  0.50400001928E-02 0. -1.
       -1   -1    0    0    0  501  0.00000000000E+00  0.00000000000E+00 -0.69182256692E+03  0.69182256693E+03  0.50400001928E-02 0.  1.
    10030    2    1    2    0    0  0.00000000000E+00  0.00000000000E+00  0.13401937400E+04  0.27238388738E+04  0.23713243030E+04 0.  0.
        3    1    3    3  502    0  0.21891634989E+03  0.61715596182E+02 -0.66652838757E+03  0.70426790691E+03  0.10100000352E+00 0.  1.
       -3    1    3    3    0  502 -0.21891634989E+03 -0.61715596182E+02  0.20067221275E+04  0.20195709669E+04  0.10100000352E+00 0. -1.
</event>
<event>
 5   0  0.6337926E-05  0.2462732E+04  0.7818609E-02  0.8416384E-01
        2   -1    0    0  501    0  0.00000000000E+00  0.00000000000E+00  0.25202419760E+04  0.25202419760E+04  0.25500000920E-02 0. -1.
       -2   -1    0    0    0  501  0.00000000000E+00  0.00000000000E+00 -0.60163342342E+03  0.60163342342E+03  0.25500000920E-02 0.  1.
    10030    2    1    2    0    0  0.00000000000E+00  0.00000000000E+00  0.19186085526E+04  0.31218753994E+04  0.24627316605E+04 0.  0.
        1    1    3    3  502    0  0.44986236332E+03  0.94022513471E+03  0.17904232178E+04  0.20717178255E+04  0.50400001928E-02 0. -1.
       -1    1    3    3    0  502 -0.44986236332E+03 -0.94022513471E+03  0.12818533478E+03  0.10501575739E+04  0.50400001928E-02 0.  1.
</event>
<event>
 5   0  0.6600166E-05  0.2397974E+04  0.7818609E-02  0.8440263E-01
        2   -1    0    0  501    0  0.00000000000E+00  0.00000000000E+00  0.11888513728E+04  0.11888513728E+04  0.25500000920E-02 0.  1.
       -2   -1    0    0    0  501  0.00000000000E+00  0.00000000000E+00 -0.12092085787E+04  0.12092085787E+04  0.25500000920E-02 0. -1.
    10030    2    1    2    0    0  0.00000000000E+00  0.00000000000E+00 -0.20357205857E+02  0.23980599516E+04  0.23979735435E+04 0.  0.
        5    1    3    3  502    0  0.38046021675E+02 -0.97999612871E+03 -0.69991881523E+03  0.12048852020E+04  0.46999998093E+01 0. -1.
       -5    1    3    3    0  502 -0.38046021675E+02  0.97999612871E+03  0.67956160938E+03  0.11931747496E+04  0.46999998093E+01 0.  1.
</event>
<event>
 5   0  0.2901816E-05  0.2070331E+04  0.7818609E-02  0.8574427E-01
        1   -1    0    0  501    0  0.00000000000E+00  0.00000000000E+00  0.21415858107E+04  0.21415858107E+04  0.50400001928E-02 0.  1.
       -1   -1    0    0    0  501  0.00000000000E+00  0.00000000000E+00 -0.50036150604E+03  0.50036150606E+03  0.50400001928E-02 0. -1.
    10030    2    1    2    0    0  0.00000000000E+00  0.00000000000E+00  0.16412243047E+04  0.26419473168E+04  0.20703305066E+04 0.  0.
        4    1    3    3  502    0 -0.36586909959E+03  0.96608876975E+03  0.73617930804E+03  0.12685224852E+04  0.12699999809E+01 0. -1.
       -4    1    3    3    0  502  0.36586909959E+03 -0.96608876975E+03  0.90504499662E+03  0.13734248315E+04  0.12699999809E+01 0.  1.
</event>
<event>
 5   0  0.6978115E-05  0.2367289E+04  0.7818609E-02  0.8451853E-01
       -2   -1    0    0    0  501  0.00000000000E+00  0.00000000000E+00  0.39233243196E+03  0.39233243196E+03  0.25500000920E-02 0. -1.
        2   -1    0    0  501    0  0.00000000000E+00  0.00000000000E+00 -0.35709863617E+04  0.35709863617E+04  0.25500000920E-02 0.  1.
    10030    2    1    2    0    0  0.00000000000E+00  0.00000000000E+00 -0.31786539298E+04  0.39633187937E+04  0.23672885450E+04 0.  0.
        4    1    3    3  502    0  0.11647751285E+04 -0.17167783272E+03 -0.13853917767E+04  0.18180996579E+04  0.12699999809E+01 0.  1.
       -4    1    3    3    0  502 -0.11647751285E+04  0.17167783272E+03 -0.17932621531E+04  0.21452191358E+04  0.12699999809E+01 0. -1.
</event>
<event>
 5   0  0.6703961E-05  0.2058330E+04  0.7818609E-02  0.8579825E-01
        2   -1    0    0  501    0  0.00000000000E+00  0.00000000000E+00  0.15182630222E+04  0.15182630222E+04  0.25500000920E-02 0.  1.
       -2   -1    0    0    0  501  0.00000000000E+00  0.00000000000E+00 -0.69762668633E+03  0.69762668634E+03  0.25500000920E-02 0. -1.
    10030    2    1    2    0    0  0.00000000000E+00  0.00000000000E+00  0.82063633586E+03  0.22158897085E+04  0.20583301982E+04 0.  0.
        2    1    3    3  502    0 -0.45261919151E+03  0.84475681885E+03  0.81413473638E+03  0.12574949640E+04  0.25500000920E-02 0.  1.
       -2    1    3    3    0  502  0.45261919151E+03 -0.84475681885E+03  0.65015994753E+01  0.95839474452E+03  0.25500000920E-02 0. -1.
</event>
<event>
 5   0  0.2943123E-05  0.2403744E+04  0.7818609E-02  0.8438103E-01
        1   -1    0    0  501    0  0.00000000000E+00  0.00000000000E+00  0.19104478669E+04  0.19104478669E+04  0.50400001928E-02 0.  1.
       -1   -1    0    0    0  501  0.00000000000E+00  0.00000000000E+00 -0.75610367219E+03  0.75610367221E+03  0.50400001928E-02 0. -1.
    10030    2    1    2    0    0  0.00000000000E+00  0.00000000000E+00  0.11543441947E+04  0.26665515391E+04  0.24037442857E+04 0.  0.
        1    1    3    3  502    0  0.10041970283E+04 -0.97858305035E+02  0.13016508929E+04  0.16469010191E+04  0.50400001928E-02 0.  1.
       -1    1    3    3    0  502 -0.10041970283E+04  0.97858305035E+02 -0.14730669825E+03  0.10196505200E+04  0.50400001928E-02 0. -1.
</event>
<event>
 5   0  0.6703961E-05  0.2336589E+04  0.7818609E-02  0.8463633E-01
        2   -1    0    0  501    0  0.00000000000E+00  0.00000000000E+00  0.15842233602E+04  0.15842233602E+04  0.25500000920E-02 0. -1.
       -2   -1    0    0    0  501  0.00000000000E+00  0.00000000000E+00 -0.86156544221E+03  0.86156544222E+03  0.25500000920E-02 0.  1.
    10030    2    1    2    0    0  0.00000000000E+00  0.00000000000E+00  0.72265791802E+03  0.24457888025E+04  0.23365890524E+04 0.  0.
        2    1    3    3  502    0 -0.63480745929E+03 -0.66139060287E+03 -0.39673683723E+03  0.99890848328E+03  0.25500000920E-02 0.  1.
       -2    1    3    3    0  502  0.63480745929E+03  0.66139060287E+03  0.11193947553E+04  0.14468803192E+04  0.25500000920E-02 0. -1.
</event>
<event>
 5   0  0.2915546E-05  0.2392387E+04  0.7818609E-02  0.8442359E-01
       -1   -1    0    0    0  501  0.00000000000E+00  0.00000000000E+00  0.12541836616E+04  0.12541836616E+04  0.50400001928E-02 0.  1.
        1   -1    0    0  501    0  0.00000000000E+00  0.00000000000E+00 -0.11408847457E+04  0.11408847457E+04  0.50400001928E-02 0. -1.
    10030    2    1    2    0    0  0.00000000000E+00  0.00000000000E+00  0.11329891593E+03  0.23950684073E+04  0.23923870990E+04 0.  0.
        2    1    3    3  502    0  0.94586979525E+03 -0.34153000616E+03  0.70511502601E+03  0.12282099228E+04  0.25500000920E-02 0.  1.
       -2    1    3    3    0  502 -0.94586979525E+03  0.34153000616E+03 -0.59181611008E+03  0.11668584845E+04  0.25500000920E-02 0. -1.
</event>
<event>
 5   0  0.2901816E-05  0.2398197E+04  0.7818609E-02  0.8440179E-01
       -1   -1    0    0    0  501  0.00000000000E+00  0.00000000000E+00  0.12476817298E+04  0.12476817298E+04  0.50400001928E-02 0. -1.
        1   -1    0    0  501    0  0.00000000000E+00  0.00000000000E+00 -0.11524075031E+04  0.11524075031E+04  0.50400001928E-02 0.  1.
    10030    2    1    2    0    0  0.00000000000E+00  0.00000000000E+00  0.95274226718E+02  0.24000892329E+04  0.23981974789E+04 0.  0.
        4    1    3    3  502    0 -0.79975161395E+02  0.54992890312E+03 -0.10157538042E+04  0.11578321245E+04  0.12699999809E+01 0.  1.
       -4    1    3    3    0  502  0.79975161395E+02 -0.54992890312E+03  0.11110280309E+04  0.12422571084E+04  0.12699999809E+01 0. -1.
</event>
<event>
 5   0  0.6337926E-05  0.2046916E+04  0.7818609E-02  0.8584995E-01
       -2   -1    0    0    0  501  0.00000000000E+00  0.00000000000E+00  0.10922560975E+04  0.10922560975E+04  0.25500000920E-02 0. -1.
        2   -1    0    0  501    0  0.00000000000E+00  0.00000000000E+00 -0.95899288104E+03  0.95899288104E+03  0.25500000920E-02 0.  1.
    10030    2    1    2    0    0  0.00000000000E+00  0.00000000000E+00  0.13326321650E+03  0.20512489786E+04  0.20469155545E+04 0.  0.
        1    1    3    3  502    0 -0.40707903107E+03 -0.35770558712E+02 -0.87369009702E+03  0.96453473554E+03  0.50400001928E-02 0.  1.
       -1    1    3    3    0  502  0.40707903107E+03  0.35770558712E+02  0.10069533135E+04  0.10867142430E+04  0.50400001928E-02 0. -1.
</event>
<event>
 5   0  0.6703961E-05  0.2424648E+04  0.7818609E-02  0.8430333E-01
       -2   -1    0    0    0  501  0.00000000000E+00  0.00000000000E+00  0.11805338840E+04  0.11805338840E+04  0.25500000920E-02 0. -1.
        2   -1    0    0  501    0  0.00000000000E+00  0.00000000000E+00 -0.12449706461E+04  0.12449706461E+04  0.25500000920E-02 0.  1.
    10030    2    1    2    0    0  0.00000000000E+00  0.00000000000E+00 -0.64436762162E+02  0.24255045301E+04  0.24246484548E+04 0.  0.
        2    1    3    3  502    0  0.94633272152E+03  0.39572057847E+03 -0.67865829840E+03  0.12299258035E+04  0.25500000920E-02 0.  1.
       -2    1    3    3    0  502 -0.94633272152E+03 -0.39572057847E+03  0.61422153624E+03  0.11955787267E+04  0.25500000920E-02 0. -1.
</event>
<event>
 5   0  0.2943123E-05  0.2414196E+04  0.7818609E-02  0.8434208E-01
        1   -1    0    0  501    0  0.00000000000E+00  0.00000000000E+00  0.84403550589E+03  0.84403550590E+03  0.50400001928E-02 0.  1.
       -1   -1    0    0    0  501  0.00000000000E+00  0.00000000000E+00 -0.17263320764E+04  0.17263320764E+04  0.50400001928E-02 0. -1.
    10030    2    1    2    0    0  0.00000000000E+00  0.00000000000E+00 -0.88229657055E+03  0.25703675823E+04  0.24141959883E+04 0.  0.
        1    1    3    3  502    0 -0.16987052314E+03  0.62241375503E+03  0.64505911197E+03  0.91233553862E+03  0.50400001928E-02 0.  1.
       -1    1    3    3    0  502  0.16987052314E+03 -0.62241375503E+03 -0.15273556825E+04  0.16580320437E+04  0.50400001928E-02 0. -1.
</event>
<event>
 5   0  0.2915546E-05  0.1881807E+04  0.7818609E-02  0.8663966E-01
        1   -1    0    0  501    0  0.00000000000E+00  0.00000000000E+00  0.13003688052E+04  0.13003688052E+04  0.50400001928E-02 0.  1.
       -1   -1    0    0    0  501  0.00000000000E+00  0.00000000000E+00 -0.68080635380E+03  0.68080635382E+03  0.50400001928E-02 0. -1.
    10030    2    1    2    0    0  0.00000000000E+00  0.00000000000E+00  0.61956245136E+03  0.19811751590E+04  0.18818069453E+04 0.  0.
        2    1    3    3  502    0 -0.90474522361E+02 -0.77493171778E+03 -0.24391250615E+03  0.81743386098E+03  0.25500000920E-02 0. -1.
       -2    1    3    3    0  502  0.90474522361E+02  0.77493171778E+03  0.86347495751E+03  0.11637412980E+04  0.25500000920E-02 0.  1.
</event>
<event>
 5   0  0.6337926E-05  0.1690029E+04  0.7818609E-02  0.8767072E-01
        2   -1    0    0  501    0  0.00000000000E+00  0.00000000000E+00  0.68737992377E+03  0.68737992377E+03  0.25500000920E-02 0. -1.
       -2   -1    0    0    0  501  0.00000000000E+00  0.00000000000E+00 -0.10387990581E+04  0.10387990581E+04  0.25500000920E-02 0.  1.
    10030    2    1    2    0    0  0.00000000000E+00  0.00000000000E+00 -0.35141913432E+03  0.17261789819E+04  0.16900291327E+04 0.  0.
        1    1    3    3  502    0  0.75937555939E+03  0.32346833218E+01 -0.55429674235E+03  0.94016306138E+03  0.50400001928E-02 0.  1.
       -1    1    3    3    0  502 -0.75937555939E+03 -0.32346833218E+01  0.20287760804E+03  0.78601592048E+03  0.50400001928E-02 0. -1.
</event>
<event>
 5   0  0.2915546E-05  0.2388438E+04  0.7818609E-02  0.8443845E-01
       -1   -1    0    0    0  501  0.00000000000E+00  0.00000000000E+00  0.13079815237E+04  0.13079815237E+04  0.50400001928E-02 0. -1.
        1   -1    0    0  501    0  0.00000000000E+00  0.00000000000E+00 -0.10903506287E+04  0.10903506287E+04  0.50400001928E-02 0.  1.
    10030    2    1    2    0    0  0.00000000000E+00  0.00000000000E+00  0.21763089504E+03  0.23983321524E+04  0.23884375451E+04 0.  0.
        2    1    3    3  502    0  0.46686500791E+03 -0.64882694105E+03  0.99974479110E+03  0.12800113212E+04  0.25500000920E-02 0. -1.
       -2    1    3    3    0  502 -0.46686500791E+03  0.64882694105E+03 -0.78211389607E+03  0.11183208312E+04  0.25500000920E-02 0.  1.
</event>
<event>
 5   0  0.2943244E-05  0.2419394E+04  0.7818609E-02  0.8432278E-01
       -1   -1    0    0    0  501  0.00000000000E+00  0.00000000000E+00  0.18013735161E+04  0.18013735161E+04  0.50400001928E-02 0. -1.
        1   -1    0    0  501    0  0.00000000000E+00  0.00000000000E+00 -0.81236144377E+03  0.81236144379E+03  0.50400001928E-02 0.  1.
    10030    2    1    2    0    0  0.00000000000E+00  0.00000000000E+00  0.98901207234E+03  0.26137349599E+04  0.24193936351E+04 0.  0.
        3    1    3    3  502    0  0.46034772859E+03 -0.10450672097E+04  0.63347656625E+02  0.11437213121E+04  0.10100000352E+00 0.  1.
       -3    1    3    3    0  502 -0.46034772859E+03  0.10450672097E+04  0.92566441572E+03  0.14700136478E+04  0.10100000352E+00 0. -1.
</event>
<event>
 5   0  0.6978115E-05  0.2378863E+04  0.7818609E-02  0.8447459E-01
        2   -1    0    0  501    0  0.00000000000E+00  0.00000000000E+00  0.14210620444E+04  0.14210620444E+04  0.25500000920E-02 0.  1.
       -2   -1    0    0    0  501  0.00000000000E+00  0.00000000000E+00 -0.99555653278E+03  0.99555653279E+03  0.25500000920E-02 0. -1.
    10030    2    1    2    0    0  0.00000000000E+00  0.00000000000E+00  0.42550551157E+03  0.24166185771E+04  0.23788632594E+04 0.  0.
        4    1    3    3  502    0  0.12073397988E+03  0.43177112883E+03  0.13319380568E+04  0.14053695605E+04  0.12699999809E+01 0.  1.
       -4    1    3    3    0  502 -0.12073397988E+03 -0.43177112883E+03 -0.90643254525E+03  0.10112490166E+04  0.12699999809E+01 0. -1.
</event>
<event>
 5   0  0.6978115E-05  0.2415518E+04  0.7818609E-02  0.8433716E-01
        2   -1    0    0  501    0  0.00000000000E+00  0.00000000000E+00  0.12026026466E+04  0.12026026466E+04  0.25500000920E-02 0. -1.
       -2   -1    0    0    0  501  0.00000000000E+00  0.00000000000E+00 -0.12129378417E+04  0.12129378417E+04  0.25500000920E-02 0.  1.
    10030    2    1    2    0    0  0.00000000000E+00  0.00000000000E+00 -0.10335195072E+02  0.24155404884E+04  0.24155183780E+04 0.  0.
        4    1    3    3  502    0 -0.64741945798E+03 -0.92794446032E+03 -0.42760225117E+03  0.12095776842E+04  0.12699999809E+01 0.  1.
       -4    1    3    3    0  502  0.64741945798E+03  0.92794446032E+03  0.41726705610E+03  0.12059628042E+04  0.12699999809E+01 0. -1.
</event>
<event>
 5   0  0.6978115E-05  0.2330762E+04  0.7818609E-02  0.8465890E-01
        2   -1    0    0  501    0  0.00000000000E+00  0.00000000000E+00  0.13233551263E+04  0.13233551263E+04  0.25500000920E-02 0.  1.
       -2   -1    0    0    0  501  0.00000000000E+00  0.00000000000E+00 -0.10262647024E+04  0.10262647024E+04  0.25500000920E-02 0. -1.
    10030    2    1    2    0    0  0.00000000000E+00  0.00000000000E+00  0.29709042383E+03  0.23496198287E+04  0.23307618110E+04 0.  0.
        4    1    3    3  502    0 -0.11332243824E+03  0.38550157689E+03  0.12513144854E+04  0.13142461699E+04  0.12699999809E+01 0.  1.
       -4    1    3    3    0  502  0.11332243824E+03 -0.38550157689E+03 -0.95422406157E+03  0.10353736588E+04  0.12699999809E+01 0. -1.
</event>
<event>
 5   0  0.6714629E-05  0.2423215E+04  0.7818609E-02  0.8430863E-01
       -2   -1    0    0    0  501  0.00000000000E+00  0.00000000000E+00  0.10768492765E+04  0.10768492765E+04  0.25500000920E-02 0.  1.
        2   -1    0    0  501    0  0.00000000000E+00  0.00000000000E+00 -0.13632298272E+04  0.13632298272E+04  0.25500000920E-02 0. -1.
    10030    2    1    2    0    0  0.00000000000E+00  0.00000000000E+00 -0.28638055069E+03  0.24400791036E+04  0.24232152633E+04 0.  0.
        3    1    3    3  502    0  0.48319146753E+03 -0.10936940049E+04  0.54010487872E+02  0.11968950304E+04  0.10100000352E+00 0.  1.
       -3    1    3    3    0  502 -0.48319146753E+03  0.10936940049E+04 -0.34039103856E+03  0.12431840733E+04  0.10100000352E+00 0. -1.
</event>
<event>
 5   0  0.2943123E-05  0.2529714E+04  0.7818609E-02  0.8392475E-01
       -1   -1    0    0    0  501  0.00000000000E+00  0.00000000000E+00  0.61688152871E+03  0.61688152873E+03  0.50400001928E-02 0.  1.
        1   -1    0    0  501    0  0.00000000000E+00  0.00000000000E+00 -0.25934701382E+04  0.25934701382E+04  0.50400001928E-02 0. -1.
    10030    2    1    2    0    0  0.00000000000E+00  0.00000000000E+00 -0.19765886095E+04  0.32103516669E+04  0.25297144689E+04 0.  0.
        1    1    3    3  502    0  0.56362180448E+03  0.35375197491E+02 -0.24245970338E+04  0.24894962783E+04  0.50400001928E-02 0. -1.
       -1    1    3    3    0  502 -0.56362180448E+03 -0.35375197491E+02  0.44800842433E+03  0.72085538867E+03  0.50400001928E-02 0.  1.
</event>
<event>
 5   0  0.6703961E-05  0.2571761E+04  0.7818609E-02  0.8377857E-01
        2   -1    0    0  501    0  0.00000000000E+00  0.00000000000E+00  0.20740916028E+04  0.20740916028E+04  0.25500000920E-02 0.  1.
       -2   -1    0    0    0  501  0.00000000000E+00  0.00000000000E+00 -0.79721097130E+03  0.79721097131E+03  0.25500000920E-02 0. -1.
    10030    2    1    2    0    0  0.00000000000E+00  0.00000000000E+00  0.12768806315E+04  0.28713025741E+04  0.25717609386E+04 0.  0.
        2    1    3    3  502    0 -0.77175149973E+03 -0.92236201500E+03  0.13030813594E+03  0.12096827164E+04  0.25500000920E-02 0. -1.
       -2    1    3    3    0  502  0.77175149973E+03  0.92236201500E+03  0.11465724956E+04  0.16616198578E+04  0.25500000920E-02 0.  1.
</event>
<event>
 5   0  0.6337926E-05  0.2382992E+04  0.7818609E-02  0.8445899E-01
       -2   -1    0    0    0  501  0.00000000000E+00  0.00000000000E+00  0.72957441684E+03  0.72957441685E+03  0.25500000920E-02 0. -1.
        2   -1    0    0  501    0  0.00000000000E+00  0.00000000000E+00 -0.19458772528E+04  0.19458772528E+04  0.25500000920E-02 0.  1.
    10030    2    1    2    0    0  0.00000000000E+00  0.00000000000E+00 -0.12163028359E+04  0.26754516696E+04  0.23829916172E+04 0.  0.
        1    1    3    3  502    0  0.47889737397E+02 -0.63905105539E+03 -0.17359107523E+04  0.18504231458E+04  0.50400001928E-02 0.  1.
       -1    1    3    3    0  502 -0.47889737397E+02  0.63905105539E+03  0.51960791640E+03  0.82502852385E+03  0.50400001928E-02 0. -1.
</event>
<event>
 5   0  0.2915546E-05  0.2139172E+04  0.7818609E-02  0.8544182E-01
        1   -1    0    0  501    0  0.00000000000E+00  0.00000000000E+00  0.15567378348E+04  0.15567378348E+04  0.50400001928E-02 0. -1.
       -1   -1    0    0    0  501  0.00000000000E+00  0.00000000000E+00 -0.73487903416E+03  0.73487903418E+03  0.50400001928E-02 0.  1.
    10030    2    1    2    0    0  0.00000000000E+00  0.00000000000E+00  0.82185880059E+03  0.22916168689E+04  0.21391717991E+04 0.  0.
        2    1    3    3  502    0 -0.66796567573E+03 -0.11477933079E+03  0.12973387287E+04  0.14637076947E+04  0.25500000920E-02 0. -1.
       -2    1    3    3    0  502  0.66796567573E+03  0.11477933079E+03 -0.47547992808E+03  0.82790917421E+03  0.25500000920E-02 0.  1.
</event>
<event>
 5   0  0.2915546E-05  0.2378248E+04  0.7818609E-02  0.8447692E-01
        1   -1    0    0  501    0  0.00000000000E+00  0.00000000000E+00  0.10596685111E+04  0.10596685112E+04  0.50400001928E-02 0.  1.
       -1   -1    0    0    0  501  0.00000000000E+00  0.00000000000E+00 -0.13343941087E+04  0.13343941087E+04  0.50400001928E-02 0. -1.
    10030    2    1    2    0    0  0.00000000000E+00  0.00000000000E+00 -0.27472559752E+03  0.23940626198E+04  0.23782476056E+04 0.  0.
        2    1    3    3  502    0 -0.92669434536E+03 -0.53081279030E+03 -0.66380390218E+03  0.12574419464E+04  0.25500000920E-02 0. -1.
       -2    1    3    3    0  502  0.92669434536E+03  0.53081279030E+03  0.38907830466E+03  0.11366206734E+04  0.25500000920E-02 0.  1.
</event>
<event>
 5   0  0.6337926E-05  0.2383770E+04  0.7818609E-02  0.8445605E-01
        2   -1    0    0  501    0  0.00000000000E+00  0.00000000000E+00  0.19654376827E+04  0.19654376827E+04  0.25500000920E-02 0.  1.
       -2   -1    0    0    0  501  0.00000000000E+00  0.00000000000E+00 -0.72278541956E+03  0.72278541957E+03  0.25500000920E-02 0. -1.
    10030    2    1    2    0    0  0.00000000000E+00  0.00000000000E+00  0.12426522632E+04  0.26882231023E+04  0.23837698716E+04 0.  0.
        1    1    3    3  502    0  0.67251462502E+03 -0.48378197844E+03  0.15876629194E+04  0.17908083284E+04  0.50400001928E-02 0.  1.
       -1    1    3    3    0  502 -0.67251462502E+03  0.48378197844E+03 -0.34501065619E+03  0.89741477391E+03  0.50400001928E-02 0. -1.
</event>
<event>
 5   0  0.6978115E-05  0.2295044E+04  0.7818609E-02  0.8479878E-01
       -2   -1    0    0    0  501  0.00000000000E+00  0.00000000000E+00  0.98129682927E+03  0.98129682927E+03  0.25500000920E-02 0. -1.
        2   -1    0    0  501    0  0.00000000000E+00  0.00000000000E+00 -0.13419050784E+04  0.13419050784E+04  0.25500000920E-02 0.  1.
    10030    2    1    2    0    0  0.00000000000E+00  0.00000000000E+00 -0.36060824915E+03  0.23232019077E+04  0.22950443993E+04 0.  0.
        4    1    3    3  502    0  0.86970655743E+03 -0.47151110740E+03 -0.76889589842E+03  0.12529623841E+04  0.12699999809E+01 0. -1.
       -4    1    3    3    0  502 -0.86970655743E+03  0.47151110740E+03  0.40828764927E+03  0.10702395236E+04  0.12699999809E+01 0.  1.
</event>
<event>
 5   0  0.6978115E-05  0.2408640E+04  0.7818609E-02  0.8436276E-01
       -2   -1    0    0    0  501  0.00000000000E+00  0.00000000000E+00  0.98990868708E+03  0.98990868708E+03  0.25500000920E-02 0. -1.
        2   -1    0    0  501    0  0.00000000000E+00  0.00000000000E+00 -0.14651723424E+04  0.14651723424E+04  0.25500000920E-02 0.  1.
    10030    2    1    2    0    0  0.00000000000E+00  0.00000000000E+00 -0.47526365531E+03  0.24550810295E+04  0.24086401390E+04 0.  0.
        4    1    3    3  502    0 -0.14002349415E+03  0.36669244308E+03 -0.13981427517E+04  0.14521965066E+04  0.12699999809E+01 0.  1.
       -4    1    3    3    0  502  0.14002349415E+03 -0.36669244308E+03  0.92287909641E+03  0.10028845229E+04  0.12699999809E+01 0. -1.
</event>
<event>
 5   0  0.2943244E-05  0.2404728E+04  0.7818609E-02  0.8437736E-01
        1   -1    0    0  501    0  0.00000000000E+00  0.00000000000E+00  0.20138922054E+04  0.20138922054E+04  0.50400001928E-02 0.  1.
       -1   -1    0    0    0  501  0.00000000000E+00  0.00000000000E+00 -0.71785324244E+03  0.71785324245E+03  0.50400001928E-02 0. -1.
    10030    2    1    2    0    0  0.00000000000E+00  0.00000000000E+00  0.12960389629E+04  0.27317454478E+04  0.24047278845E+04 0.  0.
        3    1    3    3  502    0  0.68259905665E+03 -0.88541552898E+03  0.11506571376E+04  0.16043422296E+04  0.10100000352E+00 0.  1.
       -3    1    3    3    0  502 -0.68259905665E+03  0.88541552898E+03  0.14538182528E+03  0.11274032182E+04  0.10100000352E+00 0. -1.
</event>
<event>
 5   0  0.2847158E-05  0.2409720E+04  0.7818609E-02  0.8435873E-01
       -1   -1    0    0    0  501  0.00000000000E+00  0.00000000000E+00  0.14093887970E+04  0.14093887970E+04  0.50400001928E-02 0. -1.
        1   -1    0    0  501    0  0.00000000000E+00  0.00000000000E+00 -0.10300122966E+04  0.10300122966E+04  0.50400001928E-02 0.  1.
    10030    2    1    2    0    0  0.00000000000E+00  0.00000000000E+00  0.37937650042E+03  0.24394010936E+04  0.24097201428E+04 0.  0.
        5    1    3    3  502    0  0.21708932521E+03  0.10247333815E+04 -0.41300991527E+03  0.11259687200E+04  0.46999998093E+01 0.  1.
       -5    1    3    3    0  502 -0.21708932521E+03 -0.10247333815E+04  0.79238641569E+03  0.13134323736E+04  0.46999998093E+01 0. -1.
</event>
<event>
 5   0  0.6703961E-05  0.2507422E+04  0.7818609E-02  0.8400346E-01
       -2   -1    0    0    0  501  0.00000000000E+00  0.00000000000E+00  0.12075641191E+04  0.12075641192E+04  0.25500000920E-02 0.  1.
        2   -1    0    0  501    0  0.00000000000E+00  0.00000000000E+00 -0.13016210516E+04  0.13016210516E+04  0.25500000920E-02 0. -1.
    10030    2    1    2    0    0  0.00000000000E+00  0.00000000000E+00 -0.94056932409E+02  0.25091851707E+04  0.25074216866E+04 0.  0.
        2    1    3    3  502    0 -0.35205652409E+02  0.12523766855E+04 -0.11259729368E+01  0.12528719281E+04  0.25500000920E-02 0.  1.
       -2    1    3    3    0  502  0.35205652409E+02 -0.12523766855E+04 -0.92930959472E+02  0.12563132426E+04  0.25500000920E-02 0. -1.
</event>
<event>
 5   0  0.2915546E-05  0.2490568E+04  0.7818609E-02  0.8406353E-01
       -1   -1    0    0    0  501  0.00000000000E+00  0.00000000000E+00  0.12523652650E+04  0.12523652650E+04  0.50400001928E-02 0. -1.
        1   -1    0    0  501    0  0.00000000000E+00  0.00000000000E+00 -0.12382432693E+04  0.12382432693E+04  0.50400001928E-02 0.  1.
    10030    2    1    2    0    0  0.00000000000E+00  0.00000000000E+00  0.14121995673E+02  0.24906085343E+04  0.24905684975E+04 0.  0.
        2    1    3    3  502    0  0.16030857812E+02 -0.54076686817E+03  0.11287060012E+04  0.12516641048E+04  0.25500000920E-02 0. -1.
       -2    1    3    3    0  502 -0.16030857812E+02  0.54076686817E+03 -0.11145840055E+04  0.12389444295E+04  0.25500000920E-02 0.  1.
</event>
<event>
 5   0  0.2915546E-05  0.2344306E+04  0.7818609E-02  0.8460654E-01
        1   -1    0    0  501    0  0.00000000000E+00  0.00000000000E+00  0.63445446875E+03  0.63445446877E+03  0.50400001928E-02 0. -1.
       -1   -1    0    0    0  501  0.00000000000E+00  0.00000000000E+00 -0.21655488678E+04  0.21655488678E+04  0.50400001928E-02 0.  1.
    10030    2    1    2    0    0  0.00000000000E+00  0.00000000000E+00 -0.15310943991E+04  0.28000033366E+04  0.23443055744E+04 0.  0.
        2    1    3    3  502    0 -0.98260884284E+03 -0.25908392253E+03 -0.67779426468E+02  0.10184491483E+04  0.25500000920E-02 0. -1.
       -2    1    3    3    0  502  0.98260884284E+03  0.25908392253E+03 -0.14633149726E+04  0.17815541883E+04  0.25500000920E-02 0.  1.
</event>
<event>
 5   0  0.2943123E-05  0.2418704E+04  0.7818609E-02  0.8432534E-01
        1   -1    0    0  501    0  0.00000000000E+00  0.00000000000E+00  0.92598433603E+03  0.92598433605E+03  0.50400001928E-02 0. -1.
       -1   -1    0    0    0  501  0.00000000000E+00  0.00000000000E+00 -0.15794349502E+04  0.15794349502E+04  0.50400001928E-02 0.  1.
    10030    2    1    2    0    0  0.00000000000E+00  0.00000000000E+00 -0.65345061414E+03  0.25054192862E+04  0.24187038047E+04 0.  0.
        1    1    3    3  502    0  0.92394650178E+03 -0.30879807285E+03 -0.10690046515E+04  0.14463071364E+04  0.50400001928E-02 0.  1.
       -1    1    3    3    0  502 -0.92394650178E+03  0.30879807285E+03  0.41555403732E+03  0.10591121498E+04  0.50400001928E-02 0. -1.
</event>
<event>
 5   0  0.6703961E-05  0.2444383E+04  0.7818609E-02  0.8423072E-01
       -2   -1    0    0    0  501  0.00000000000E+00  0.00000000000E+00  0.12668953730E+04  0.12668953730E+04  0.25500000920E-02 0.  1.
        2   -1    0    0  501    0  0.00000000000E+00  0.00000000000E+00 -0.11790652549E+04  0.11790652549E+04  0.25500000920E-02 0. -1.
    10030    2    1    2    0    0  0.00000000000E+00  0.00000000000E+00  0.87830118133E+02  0.24459606279E+04  0.24443832072E+04 0.  0.
        2    1    3    3  502    0 -0.73533780260E+03  0.87512692488E+02  0.10168450145E+04  0.12579165071E+04  0.25500000920E-02 0.  1.
       -2    1    3    3    0  502  0.73533780260E+03 -0.87512692488E+02 -0.92901489640E+03  0.11880441208E+04  0.25500000920E-02 0. -1.
</event>
<event>
 5   0  0.6978115E-05  0.2500145E+04  0.7818609E-02  0.8402934E-01
       -2   -1    0    0    0  501  0.00000000000E+00  0.00000000000E+00  0.97575719840E+03  0.97575719840E+03  0.25500000920E-02 0.  1.
        2   -1    0    0  501    0  0.00000000000E+00  0.00000000000E+00 -0.16015063140E+04  0.16015063140E+04  0.25500000920E-02 0. -1.
    10030    2    1    2    0    0  0.00000000000E+00  0.00000000000E+00 -0.62574911563E+03  0.25772635124E+04  0.25001450472E+04 0.  0.
        4    1    3    3  502    0  0.10684722930E+04  0.64806259976E+03 -0.27928849001E+03  0.12804771953E+04  0.12699999809E+01 0.  1.
       -4    1    3    3    0  502 -0.10684722930E+04 -0.64806259976E+03 -0.34646062563E+03  0.12967863171E+04  0.12699999809E+01 0. -1.
</event>
<event>
 5   0  0.2943123E-05  0.2388042E+04  0.7818609E-02  0.8443994E-01
        1   -1    0    0  501    0  0.00000000000E+00  0.00000000000E+00  0.13323221280E+04  0.13323221280E+04  0.50400001928E-02 0. -1.
       -1   -1    0    0    0  501  0.00000000000E+00  0.00000000000E+00 -0.10700762253E+04  0.10700762253E+04  0.50400001928E-02 0.  1.
    10030    2    1    2    0    0  0.00000000000E+00  0.00000000000E+00  0.26224590269E+03  0.24023983533E+04  0.23880420714E+04 0.  0.
        1    1    3    3  502    0 -0.38637595850E+03 -0.10845822414E+04 -0.18713504931E+03  0.11664581203E+04  0.50400001928E-02 0.  1.
       -1    1    3    3    0  502  0.38637595850E+03  0.10845822414E+04  0.44938095199E+03  0.12359402331E+04  0.50400001928E-02 0. -1.
</event>
<event>
 5   0  0.6337926E-05  0.2392583E+04  0.7818609E-02  0.8442286E-01
        2   -1    0    0  501    0  0.00000000000E+00  0.00000000000E+00  0.16468587905E+04  0.16468587905E+04  0.25500000920E-02 0.  1.
       -2   -1    0    0    0  501  0.00000000000E+00  0.00000000000E+00 -0.86899564193E+03  0.86899564193E+03  0.25500000920E-02 0. -1.
    10030    2    1    2    0    0  0.00000000000E+00  0.00000000000E+00  0.77786314860E+03  0.25158544325E+04  0.23925827984E+04 0.  0.
        1    1    3    3  502    0 -0.88759596820E+03 -0.74625444474E+03  0.79864804537E+02  0.11623685672E+04  0.50400001928E-02 0. -1.
       -1    1    3    3    0  502  0.88759596820E+03  0.74625444474E+03  0.69799834406E+03  0.13534858652E+04  0.50400001928E-02 0.  1.
</event>
<event>
 5   0  0.2915546E-05  0.2374428E+04  0.7818609E-02  0.8449140E-01
       -1   -1    0    0    0  501  0.00000000000E+00  0.00000000000E+00  0.52906369129E+03  0.52906369131E+03  0.50400001928E-02 0. -1.
        1   -1    0    0  501    0  0.00000000000E+00  0.00000000000E+00 -0.26640962230E+04  0.26640962230E+04  0.50400001928E-02 0.  1.
    10030    2    1    2    0    0  0.00000000000E+00  0.00000000000E+00 -0.21350325317E+04  0.31931599143E+04  0.23744275788E+04 0.  0.
        2    1    3    3  502    0 -0.86742422357E+02 -0.99746257498E+03 -0.19254821388E+04  0.21702389968E+04  0.25500000920E-02 0.  1.
       -2    1    3    3    0  502  0.86742422357E+02  0.99746257498E+03 -0.20955039289E+03  0.10229209175E+04  0.25500000920E-02 0. -1.
</event>
<event>
 5   0  0.2943123E-05  0.2401380E+04  0.7818609E-02  0.8438987E-01
        1   -1    0    0  501    0  0.00000000000E+00  0.00000000000E+00  0.11088318434E+04  0.11088318434E+04  0.50400001928E-02 0.  1.
       -1   -1    0    0    0  501  0.00000000000E+00  0.00000000000E+00 -0.13001574180E+04  0.13001574181E+04  0.50400001928E-02 0. -1.
    10030    2    1    2    0    0  0.00000000000E+00  0.00000000000E+00 -0.19132557463E+03  0.24089892615E+04  0.24013795590E+04 0.  0.
        1    1    3    3  502    0  0.12507794627E+03  0.51248370298E+03  0.98635236078E+03  0.11185593494E+04  0.50400001928E-02 0.  1.
       -1    1    3    3    0  502 -0.12507794627E+03 -0.51248370298E+03 -0.11776779354E+04  0.12904299121E+04  0.50400001928E-02 0. -1.
</event>
<event>
 5   0  0.2943123E-05  0.2419281E+04  0.7818609E-02  0.8432320E-01
       -1   -1    0    0    0  501  0.00000000000E+00  0.00000000000E+00  0.18328695158E+04  0.18328695158E+04  0.50400001928E-02 0. -1.
        1   -1    0    0  501    0  0.00000000000E+00  0.00000000000E+00 -0.79832773480E+03  0.79832773481E+03  0.50400001928E-02 0.  1.
    10030    2    1    2    0    0  0.00000000000E+00  0.00000000000E+00  0.10345417810E+04  0.26311972506E+04  0.24192813551E+04 0.  0.
        1    1    3    3  502    0 -0.86383417178E+03  0.83586213748E+03  0.66462120898E+03  0.13735342517E+04  0.50400001928E-02 0. -1.
       -1    1    3    3    0  502  0.86383417178E+03 -0.83586213748E+03  0.36992057204E+03  0.12576629989E+04  0.50400001928E-02 0.  1.
</event>
<event>
 5   0  0.2943123E-05  0.2383925E+04  0.7818609E-02  0.8445546E-01
        1   -1    0    0  501    0  0.00000000000E+00  0.00000000000E+00  0.11758275208E+04  0.11758275208E+04  0.50400001928E-02 0.  1.
       -1   -1    0    0    0  501  0.00000000000E+00  0.00000000000E+00 -0.12083190552E+04  0.12083190552E+04  0.50400001928E-02 0. -1.
    10030    2    1    2    0    0  0.00000000000E+00  0.00000000000E+00 -0.32491534401E+02  0.23841465760E+04  0.23839251658E+04 0.  0.
        1    1    3    3  502    0 -0.27477405415E+03 -0.78926398268E+03  0.83373691848E+03  0.11804895868E+04  0.50400001928E-02 0.  1.
       -1    1    3    3    0  502  0.27477405415E+03  0.78926398268E+03 -0.86622845288E+03  0.12036569893E+04  0.50400001928E-02 0. -1.
</event>
<event>
 5   0  0.2943123E-05  0.2291205E+04  0.7818609E-02  0.8481397E-01
       -1   -1    0    0    0  501  0.00000000000E+00  0.00000000000E+00  0.76115848003E+03  0.76115848005E+03  0.50400001928E-02 0. -1.
        1   -1    0    0  501    0  0.00000000000E+00  0.00000000000E+00 -0.17242199110E+04  0.17242199110E+04  0.50400001928E-02 0.  1.
    10030    2    1    2    0    0  0.00000000000E+00  0.00000000000E+00 -0.96306143096E+03  0.24853783910E+04  0.22912045799E+04 0.  0.
        1    1    3    3  502    0  0.84115255453E+03  0.10413894537E+03  0.35451483251E+03  0.91872918014E+03  0.50400001928E-02 0. -1.
       -1    1    3    3    0  502 -0.84115255453E+03 -0.10413894537E+03 -0.13175762635E+04  0.15666492109E+04  0.50400001928E-02 0.  1.
</event>
<event>
 5   0  0.2915546E-05  0.2353424E+04  0.7818609E-02  0.8457150E-01
        1   -1    0    0  501    0  0.00000000000E+00  0.00000000000E+00  0.98664203822E+03  0.98664203823E+03  0.50400001928E-02 0. -1.
       -1   -1    0    0    0  501  0.00000000000E+00  0.00000000000E+00 -0.14033975919E+04  0.14033975919E+04  0.50400001928E-02 0.  1.
    10030    2    1    2    0    0  0.00000000000E+00  0.00000000000E+00 -0.41675555365E+03  0.23900396301E+04  0.23534239401E+04 0.  0.
        2    1    3    3  502    0 -0.96994072593E+03 -0.35317578635E+03  0.36532999498E+03  0.10949813483E+04  0.25500000920E-02 0. -1.
       -2    1    3    3    0  502  0.96994072593E+03  0.35317578635E+03 -0.78208554863E+03  0.12950582818E+04  0.25500000920E-02 0.  1.
</event>
<event>
 5   0  0.2901816E-05  0.1660884E+04  0.7818609E-02  0.8783994E-01
        1   -1    0    0  501    0  0.00000000000E+00  0.00000000000E+00  0.10919562403E+04  0.10919562403E+04  0.50400001928E-02 0. -1.
       -1   -1    0    0    0  501  0.00000000000E+00  0.00000000000E+00 -0.63155807032E+03  0.63155807034E+03  0.50400001928E-02 0.  1.
    10030    2    1    2    0    0  0.00000000000E+00  0.00000000000E+00  0.46039816995E+03  0.17235143106E+04  0.16608838322E+04 0.  0.
        4    1    3    3  502    0 -0.12121675444E+03 -0.45129426809E+03  0.94257876301E+03  0.10520533995E+04  0.12699999809E+01 0. -1.
       -4    1    3    3    0  502  0.12121675444E+03  0.45129426809E+03 -0.48218059306E+03  0.67146091114E+03  0.12699999809E+01 0.  1.
</event>
<event>
 5   0  0.6703961E-05  0.2379483E+04  0.7818609E-02  0.8447225E-01
       -2   -1    0    0    0  501  0.00000000000E+00  0.00000000000E+00  0.84530199999E+03  0.84530199999E+03  0.25500000920E-02 0. -1.
        2   -1    0    0  501    0  0.00000000000E+00  0.00000000000E+00 -0.16745308254E+04  0.16745308254E+04  0.25500000920E-02 0.  1.
    10030    2    1    2    0    0  0.00000000000E+00  0.00000000000E+00 -0.82922882541E+03  0.25198328254E+04  0.23794825116E+04 0.  0.
        2    1    3    3  502    0 -0.10587021782E+04  0.43734972134E+03 -0.74156267532E+02  0.11478781437E+04  0.25500000920E-02 0. -1.
       -2    1    3    3    0  502  0.10587021782E+04 -0.43734972134E+03 -0.75507255788E+03  0.13719546817E+04  0.25500000920E-02 0.  1.
</event>
<event>
 5   0  0.2915546E-05  0.2340759E+04  0.7818609E-02  0.8462022E-01
        1   -1    0    0  501    0  0.00000000000E+00  0.00000000000E+00  0.44822119740E+03  0.44822119742E+03  0.50400001928E-02 0. -1.
       -1   -1    0    0    0  501  0.00000000000E+00  0.00000000000E+00 -0.30560545032E+04  0.30560545032E+04  0.50400001928E-02 0.  1.
    10030    2    1    2    0    0  0.00000000000E+00  0.00000000000E+00 -0.26078333058E+04  0.35042757006E+04  0.23407592006E+04 0.  0.
        2    1    3    3  502    0 -0.23477721053E+03 -0.10303516926E+04 -0.20569931372E+04  0.23125669105E+04  0.25500000920E-02 0.  1.
       -2    1    3    3    0  502  0.23477721053E+03  0.10303516926E+04 -0.55084016859E+03  0.11917087901E+04  0.25500000920E-02 0. -1.
</event>
<event>
 5   0  0.2847158E-05  0.2367958E+04  0.7818609E-02  0.8451598E-01
        1   -1    0    0  501    0  0.00000000000E+00  0.00000000000E+00  0.89437024177E+03  0.89437024179E+03  0.50400001928E-02 0. -1.
       -1   -1    0    0    0  501  0.00000000000E+00  0.00000000000E+00 -0.15673665371E+04  0.15673665372E+04  0.50400001928E-02 0.  1.
    10030    2    1    2    0    0  0.00000000000E+00  0.00000000000E+00 -0.67299629537E+03  0.24617367789E+04  0.23679577604E+04 0.  0.
        5    1    3    3  502    0  0.11461689238E+04  0.24198433058E+03 -0.51512935183E+03  0.12797030739E+04  0.46999998093E+01 0.  1.
       -5    1    3    3    0  502 -0.11461689238E+04 -0.24198433058E+03 -0.15786694354E+03  0.11820337051E+04  0.46999998093E+01 0. -1.
</event>
<event>
 5   0  0.6337926E-05  0.2389408E+04  0.7818609E-02  0.8443480E-01
       -2   -1    0    0    0  501  0.00000000000E+00  0.00000000000E+00  0.83475610291E+03  0.83475610292E+03  0.25500000920E-02 0. -1.
        2   -1    0    0  501    0  0.00000000000E+00  0.00000000000E+00 -0.17098619055E+04  0.17098619055E+04  0.25500000920E-02 0.  1.
    10030    2    1    2    0    0  0.00000000000E+00  0.00000000000E+00 -0.87510580262E+03  0.25446180085E+04  0.23894080110E+04 0.  0.
        1    1    3    3  502    0  0.76197273969E+02  0.40635368484E+03  0.75614443830E+03  0.86179101489E+03  0.50400001928E-02 0. -1.
       -1    1    3    3    0  502 -0.76197273969E+02 -0.40635368484E+03 -0.16312502409E+04  0.16828269936E+04  0.50400001928E-02 0.  1.
</event>
<event>
 5   0  0.6337926E-05  0.2322271E+04  0.7818609E-02  0.8469191E-01
       -2   -1    0    0    0  501  0.00000000000E+00  0.00000000000E+00  0.14423194698E+04  0.14423194698E+04  0.25500000920E-02 0.  1.
        2   -1    0    0  501    0  0.00000000000E+00  0.00000000000E+00 -0.93476905521E+03  0.93476905522E+03  0.25500000920E-02 0. -1.
    10030    2    1    2    0    0  0.00000000000E+00  0.00000000000E+00  0.50755041457E+03  0.23770885250E+04  0.23222709645E+04 0.  0.
        1    1    3    3  502    0 -0.42263778785E+03 -0.10787955548E+04  0.33181836617E+03  0.12052078563E+04  0.50400001928E-02 0. -1.
       -1    1    3    3    0  502  0.42263778785E+03  0.10787955548E+04  0.17573204839E+03  0.11718806687E+04  0.50400001928E-02 0.  1.
</event>
<event>
 5   0  0.6703961E-05  0.2395580E+04  0.7818609E-02  0.8441160E-01
       -2   -1    0    0    0  501  0.00000000000E+00  0.00000000000E+00  0.67003369839E+03  0.67003369840E+03  0.25500000920E-02 0.  1.
        2   -1    0    0  501    0  0.00000000000E+00  0.00000000000E+00 -0.21412371665E+04  0.21412371665E+04  0.25500000920E-02 0. -1.
    10030    2    1    2    0    0  0.00000000000E+00  0.00000000000E+00 -0.14712034681E+04  0.28112708649E+04  0.23955801450E+04 0.  0.
        2    1    3    3  502    0 -0.14752900741E+03  0.98664236775E+03 -0.15135632778E+04  0.18127608132E+04  0.25500000920E-02 0. -1.
       -2    1    3    3    0  502  0.14752900741E+03 -0.98664236775E+03  0.42359809704E+02  0.99851005171E+03  0.25500000920E-02 0.  1.
</event>
<event>
 5   0  0.6600166E-05  0.2480190E+04  0.7818609E-02  0.8410077E-01
        2   -1    0    0  501    0  0.00000000000E+00  0.00000000000E+00  0.18575193785E+04  0.18575193785E+04  0.25500000920E-02 0.  1.
       -2   -1    0    0    0  501  0.00000000000E+00  0.00000000000E+00 -0.82789752660E+03  0.82789752661E+03  0.25500000920E-02 0. -1.
    10030    2    1    2    0    0  0.00000000000E+00  0.00000000000E+00  0.10296218519E+04  0.26854169051E+04  0.24801900726E+04 0.  0.
        5    1    3    3  502    0 -0.69606294157E+03  0.99219920818E+03  0.23070453561E+03  0.12337785701E+04  0.46999998093E+01 0. -1.
       -5    1    3    3    0  502  0.69606294157E+03 -0.99219920818E+03  0.79891731629E+03  0.14516383350E+04  0.46999998093E+01 0.  1.
</event>
<event>
 5   0  0.2901816E-05  0.2392442E+04  0.7818609E-02  0.8442339E-01
        1   -1    0    0  501    0  0.00000000000E+00  0.00000000000E+00  0.55998467099E+03  0.55998467101E+03  0.50400001928E-02 0. -1.
       -1   -1    0    0    0  501  0.00000000000E+00  0.00000000000E+00 -0.25553281136E+04  0.25553281136E+04  0.50400001928E-02 0.  1.
    10030    2    1    2    0    0  0.00000000000E+00  0.00000000000E+00 -0.19953434426E+04  0.31153127846E+04  0.23924419099E+04 0.  0.
        4    1    3    3  502    0  0.69412790779E+03 -0.20163449258E+03 -0.22387988068E+04  0.23525925553E+04  0.12699999809E+01 0.  1.
       -4    1    3    3    0  502 -0.69412790779E+03  0.20163449258E+03  0.24345536419E+03  0.76272022932E+03  0.12699999809E+01 0. -1.
</event>
<event>
 5   0  0.6337926E-05  0.2421149E+04  0.7818609E-02  0.8431628E-01
       -2   -1    0    0    0  501  0.00000000000E+00  0.00000000000E+00  0.54637160066E+03  0.54637160067E+03  0.25500000920E-02 0. -1.
        2   -1    0    0  501    0  0.00000000000E+00  0.00000000000E+00 -0.26822223638E+04  0.26822223638E+04  0.25500000920E-02 0.  1.
    10030    2    1    2    0    0  0.00000000000E+00  0.00000000000E+00 -0.21358507632E+04  0.32285939645E+04  0.24211485921E+04 0.  0.
        1    1    3    3  502    0 -0.51904524946E+02 -0.47801447278E+03  0.41357591595E+03  0.63422153399E+03  0.50400001928E-02 0. -1.
       -1    1    3    3    0  502  0.51904524946E+02  0.47801447278E+03 -0.25494266791E+04  0.25943724305E+04  0.50400001928E-02 0.  1.
</event>
<event>
 5   0  0.2943123E-05  0.2390254E+04  0.7818609E-02  0.8443161E-01
        1   -1    0    0  501    0  0.00000000000E+00  0.00000000000E+00  0.18756054912E+04  0.18756054912E+04  0.50400001928E-02 0. -1.
       -1   -1    0    0    0  501  0.00000000000E+00  0.00000000000E+00 -0.76152903843E+03  0.76152903845E+03  0.50400001928E-02 0.  1.
    10030    2    1    2    0    0  0.00000000000E+00  0.00000000000E+00  0.11140764528E+04  0.26371345296E+04  0.23902535817E+04 0.  0.
        1    1    3    3  502    0  0.53779526951E+03  0.66330877319E+03  0.14795373487E+04  0.17082836552E+04  0.50400001928E-02 0. -1.
       -1    1    3    3    0  502 -0.53779526951E+03 -0.66330877319E+03 -0.36546089590E+03  0.92885087445E+03  0.50400001928E-02 0.  1.
</event>
<event>
 5   0  0.2915546E-05  0.2153937E+04  0.7818609E-02  0.8537849E-01
       -1   -1    0    0    0  501  0.00000000000E+00  0.00000000000E+00  0.60847118388E+03  0.60847118390E+03  0.50400001928E-02 0.  1.
        1   -1    0    0  501    0  0.00000000000E+00  0.00000000000E+00 -0.19061896113E+04  0.19061896114E+04  0.50400001928E-02 0. -1.
    10030    2    1    2    0    0  0.00000000000E+00  0.00000000000E+00 -0.12977184275E+04  0.25146607952E+04  0.21539372781E+04 0.  0.
        2    1    3    3  502    0 -0.34542113657E+03  0.86802903888E+03 -0.12743792537E+04  0.15801369106E+04  0.25500000920E-02 0. -1.
       -2    1    3    3    0  502  0.34542113657E+03 -0.86802903888E+03 -0.23339173744E+02  0.93452388464E+03  0.25500000920E-02 0.  1.
</event>
<event>
 5   0  0.2943123E-05  0.2874554E+04  0.7818609E-02  0.8280489E-01
        1   -1    0    0  501    0  0.00000000000E+00  0.00000000000E+00  0.10815240833E+04  0.10815240833E+04  0.50400001928E-02 0. -1.
       -1   -1    0    0    0  501  0.00000000000E+00  0.00000000000E+00 -0.19100498209E+04  0.19100498209E+04  0.50400001928E-02 0.  1.
    10030    2    1    2    0    0  0.00000000000E+00  0.00000000000E+00 -0.82852573752E+03  0.29915739042E+04  0.28745537961E+04 0.  0.
        1    1    3    3  502    0  0.30962802311E+03  0.66454090015E+03 -0.17008253088E+04  0.18521044387E+04  0.50400001928E-02 0.  1.
       -1    1    3    3    0  502 -0.30962802311E+03 -0.66454090015E+03  0.87229957132E+03  0.11394694655E+04  0.50400001928E-02 0. -1.
</event>
<event>
 5   0  0.2847158E-05  0.2389270E+04  0.7818609E-02  0.8443532E-01
        1   -1    0    0  501    0  0.00000000000E+00  0.00000000000E+00  0.14756217112E+04  0.14756217112E+04  0.50400001928E-02 0.  1.
       -1   -1    0    0    0  501  0.00000000000E+00  0.00000000000E+00 -0.96715373241E+03  0.96715373242E+03  0.50400001928E-02 0. -1.
    10030    2    1    2    0    0  0.00000000000E+00  0.00000000000E+00  0.50846797874E+03  0.24427754436E+04  0.23892702196E+04 0.  0.
        5    1    3    3  502    0  0.64792225349E+03 -0.11204140624E+03 -0.76548517824E+03  0.10091313945E+04  0.46999998093E+01 0. -1.
       -5    1    3    3    0  502 -0.64792225349E+03  0.11204140624E+03  0.12739531570E+04  0.14336440491E+04  0.46999998093E+01 0.  1.
</event>
<event>
 5   0  0.2915546E-05  0.2373337E+04  0.7818609E-02  0.8449554E-01
        1   -1    0    0  501    0  0.00000000000E+00  0.00000000000E+00  0.13753019895E+04  0.13753019895E+04  0.50400001928E-02 0.  1.
       -1   -1    0    0    0  501  0.00000000000E+00  0.00000000000E+00 -0.10239079124E+04  0.10239079124E+04  0.50400001928E-02 0. -1.
    10030    2    1    2    0    0  0.00000000000E+00  0.00000000000E+00  0.35139407704E+03  0.23992099019E+04  0.23733373877E+04 0.  0.
        2    1    3    3  502    0  0.14620862693E+03 -0.28850967751E+03  0.13298824354E+04  0.13686497319E+04  0.25500000920E-02 0.  1.
       -2    1    3    3    0  502 -0.14620862693E+03  0.28850967751E+03 -0.97848835836E+03  0.10305601700E+04  0.25500000920E-02 0. -1.
</event>
<event>
 5   0  0.6337926E-05  0.2396584E+04  0.7818609E-02  0.8440783E-01
        2   -1    0    0  501    0  0.00000000000E+00  0.00000000000E+00  0.16753048083E+04  0.16753048083E+04  0.25500000920E-02 0.  1.
       -2   -1    0    0    0  501  0.00000000000E+00  0.00000000000E+00 -0.85710018600E+03  0.85710018600E+03  0.25500000920E-02 0. -1.
    10030    2    1    2    0    0  0.00000000000E+00  0.00000000000E+00  0.81820462228E+03  0.25324049943E+04  0.23965842884E+04 0.  0.
        1    1    3    3  502    0  0.82630501407E+03  0.82140600926E+03  0.70500131335E+03  0.13618056617E+04  0.50400001928E-02 0. -1.
       -1    1    3    3    0  502 -0.82630501407E+03 -0.82140600926E+03  0.11320330894E+03  0.11705993326E+04  0.50400001928E-02 0.  1.
</event>
<event>
 5   0  0.6714629E-05  0.2434743E+04  0.7818609E-02  0.8426610E-01
        2   -1    0    0  501    0  0.00000000000E+00  0.00000000000E+00  0.12069858796E+04  0.12069858796E+04  0.25500000920E-02 0. -1.
       -2   -1    0    0    0  501  0.00000000000E+00  0.00000000000E+00 -0.12278463463E+04  0.12278463463E+04  0.25500000920E-02 0.  1.
    10030    2    1    2    0    0  0.00000000000E+00  0.00000000000E+00 -0.20860466655E+02  0.24348322259E+04  0.24347428631E+04 0.  0.
        3    1    3    3  502    0 -0.66821098663E+03  0.75792046606E+03  0.66859677701E+03  0.12115985375E+04  0.10100000352E+00 0. -1.
       -3    1    3    3    0  502  0.66821098663E+03 -0.75792046606E+03 -0.68945724367E+03  0.12232336885E+04  0.10100000352E+00 0.  1.
</event>
<event>
 5   0  0.2943123E-05  0.2431583E+04  0.7818609E-02  0.8427773E-01
        1   -1    0    0  501    0  0.00000000000E+00  0.00000000000E+00  0.18970090906E+04  0.18970090907E+04  0.50400001928E-02 0.  1.
       -1   -1    0    0    0  501  0.00000000000E+00  0.00000000000E+00 -0.77919992759E+03  0.77919992760E+03  0.50400001928E-02 0. -1.
    10030    2    1    2    0    0  0.00000000000E+00  0.00000000000E+00  0.11178091631E+04  0.26762090183E+04  0.24315833081E+04 0.  0.
        1    1    3    3  502    0  0.98370382876E+03  0.41286658777E+03  0.12006774991E+04  0.16061626626E+04  0.50400001928E-02 0.  1.
       -1    1    3    3    0  502 -0.98370382876E+03 -0.41286658777E+03 -0.82868336047E+02  0.10700463556E+04  0.50400001928E-02 0. -1.
</event>
<event>
 5   0  0.2915546E-05  0.2434415E+04  0.7818609E-02  0.8426730E-01
       -1   -1    0    0    0  501  0.00000000000E+00  0.00000000000E+00  0.96989740286E+03  0.96989740287E+03  0.50400001928E-02 0. -1.
        1   -1    0    0  501    0  0.00000000000E+00  0.00000000000E+00 -0.15275784425E+04  0.15275784425E+04  0.50400001928E-02 0.  1.
    10030    2    1    2    0    0  0.00000000000E+00  0.00000000000E+00 -0.55768103965E+03  0.24974758454E+04  0.24344152185E+04 0.  0.
        2    1    3    3  502    0  0.46430876999E+03 -0.29873041716E+03  0.83405086660E+03  0.10002316452E+04  0.25500000920E-02 0. -1.
       -2    1    3    3    0  502 -0.46430876999E+03  0.29873041716E+03 -0.13917319062E+04  0.14972442002E+04  0.25500000920E-02 0.  1.
</event>
<event>
 5   0  0.2339125E-05  0.2410907E+04  0.7818609E-02  0.8435431E-01
        3   -1    0    0  501    0  0.00000000000E+00  0.00000000000E+00  0.11118903633E+04  0.11118903679E+04  0.10100000352E+00 0.  1.
       -3   -1    0    0    0  501  0.00000000000E+00  0.00000000000E+00 -0.13068901029E+04  0.13068901068E+04  0.10100000352E+00 0. -1.
    10030    2    1    2    0    0  0.00000000000E+00  0.00000000000E+00 -0.19499973958E+03  0.24187804746E+04  0.24109073159E+04 0.  0.
        5    1    3    3  502    0 -0.50069335423E+02 -0.76924032608E+03 -0.10272726500E+04  0.12843476185E+04  0.46999998093E+01 0. -1.
       -5    1    3    3    0  502  0.50069335423E+02  0.76924032608E+03  0.83227291044E+03  0.11344328561E+04  0.46999998093E+01 0.  1.
</event>
<event>
 5   0  0.2901816E-05  0.2410069E+04  0.7818609E-02  0.8435744E-01
        1   -1    0    0  501    0  0.00000000000E+00  0.00000000000E+00  0.14628995395E+04  0.14628995395E+04  0.50400001928E-02 0. -1.
       -1   -1    0    0    0  501  0.00000000000E+00  0.00000000000E+00 -0.99262294773E+03  0.99262294775E+03  0.50400001928E-02 0.  1.
    10030    2    1    2    0    0  0.00000000000E+00  0.00000000000E+00  0.47027659176E+03  0.24555224872E+04  0.24100685909E+04 0.  0.
        4    1    3    3  502    0  0.17011010861E+03  0.47544349787E+03 -0.87962774896E+03  0.10142635547E+04  0.12699999809E+01 0.  1.
       -4    1    3    3    0  502 -0.17011010861E+03 -0.47544349787E+03  0.13499043407E+04  0.14412589326E+04  0.12699999809E+01 0. -1.
</event>
<event>
 5   0  0.2915546E-05  0.2417375E+04  0.7818609E-02  0.8433027E-01
       -1   -1    0    0    0  501  0.00000000000E+00  0.00000000000E+00  0.11308749705E+04  0.11308749705E+04  0.50400001928E-02 0. -1.
        1   -1    0    0  501    0  0.00000000000E+00  0.00000000000E+00 -0.12918543661E+04  0.12918543661E+04  0.50400001928E-02 0.  1.
    10030    2    1    2    0    0  0.00000000000E+00  0.00000000000E+00 -0.16097939565E+03  0.24227293366E+04  0.24173752445E+04 0.  0.
        2    1    3    3  502    0 -0.79320675514E+03  0.76882535830E+03 -0.57214363102E+03  0.12440328462E+04  0.25500000920E-02 0.  1.
       -2    1    3    3    0  502  0.79320675514E+03 -0.76882535830E+03  0.41116423537E+03  0.11786964904E+04  0.25500000920E-02 0. -1.
</event>
<event>
 5   0  0.2943244E-05  0.2371513E+04  0.7818609E-02  0.8450246E-01
        1   -1    0    0  501    0  0.00000000000E+00  0.00000000000E+00  0.16907241204E+04  0.16907241204E+04  0.50400001928E-02 0. -1.
       -1   -1    0    0    0  501  0.00000000000E+00  0.00000000000E+00 -0.83160698002E+03  0.83160698003E+03  0.50400001928E-02 0.  1.
    10030    2    1    2    0    0  0.00000000000E+00  0.00000000000E+00  0.85911714039E+03  0.25223311005E+04  0.23715125805E+04 0.  0.
        3    1    3    3  502    0 -0.10557310461E+04  0.94195519922E+02 -0.13582758345E+03  0.10685925231E+04  0.10100000352E+00 0.  1.
       -3    1    3    3    0  502  0.10557310461E+04 -0.94195519922E+02  0.99494472385E+03  0.14537385774E+04  0.10100000352E+00 0. -1.
</event>
<event>
 5   0  0.6337926E-05  0.2629662E+04  0.7818609E-02  0.8358195E-01
        2   -1    0    0  501    0  0.00000000000E+00  0.00000000000E+00  0.20725482668E+04  0.20725482668E+04  0.25500000920E-02 0. -1.
       -2   -1    0    0    0  501  0.00000000000E+00  0.00000000000E+00 -0.83413295450E+03  0.83413295450E+03  0.25500000920E-02 0.  1.
    10030    2    1    2    0    0  0.00000000000E+00  0.00000000000E+00  0.12384153123E+04  0.29066812213E+04  0.26296621906E+04 0.  0.
        1    1    3    3  502    0 -0.51167372818E+03 -0.11849013851E+04  0.89660167350E+03  0.15715266010E+04  0.50400001928E-02 0.  1.
       -1    1    3    3    0  502  0.51167372818E+03  0.11849013851E+04  0.34181363885E+03  0.13351546204E+04  0.50400001928E-02 0. -1.
</event>
<event>
 5   0  0.2847158E-05  0.2358355E+04  0.7818609E-02  0.8455262E-01
        1   -1    0    0  501    0  0.00000000000E+00  0.00000000000E+00  0.11127619021E+04  0.11127619021E+04  0.50400001928E-02 0.  1.
       -1   -1    0    0    0  501  0.00000000000E+00  0.00000000000E+00 -0.12495568161E+04  0.12495568161E+04  0.50400001928E-02 0. -1.
    10030    2    1    2    0    0  0.00000000000E+00  0.00000000000E+00 -0.13679491398E+03  0.23623187181E+04  0.23583546972E+04 0.  0.
        5    1    3    3  502    0  0.96714475655E+03  0.14206794805E+03 -0.72896389669E+03  0.12194108146E+04  0.46999998093E+01 0. -1.
       -5    1    3    3    0  502 -0.96714475655E+03 -0.14206794805E+03  0.59216898272E+03  0.11429079036E+04  0.46999998093E+01 0.  1.
</event>
<event>
 5   0  0.6703961E-05  0.2408383E+04  0.7818609E-02  0.8436372E-01
       -2   -1    0    0    0  501  0.00000000000E+00  0.00000000000E+00  0.82467992763E+03  0.82467992764E+03  0.25500000920E-02 0. -1.
        2   -1    0    0  501    0  0.00000000000E+00  0.00000000000E+00 -0.17583510647E+04  0.17583510647E+04  0.25500000920E-02 0.  1.
    10030    2    1    2    0    0  0.00000000000E+00  0.00000000000E+00 -0.93367113704E+03  0.25830309923E+04  0.24083827177E+04 0.  0.
        2    1    3    3  502    0  0.10682098201E+04  0.30058903018E+03  0.34674543198E+02  0.11102379514E+04  0.25500000920E-02 0. -1.
       -2    1    3    3    0  502 -0.10682098201E+04 -0.30058903018E+03 -0.96834568024E+03  0.14727930409E+04  0.25500000920E-02 0.  1.
</event>
<event>
 5   0  0.2915546E-05  0.1480381E+04  0.7818609E-02  0.8897605E-01
        1   -1    0    0  501    0  0.00000000000E+00  0.00000000000E+00  0.10475545173E+04  0.10475545173E+04  0.50400001928E-02 0.  1.
       -1   -1    0    0    0  501  0.00000000000E+00  0.00000000000E+00 -0.52301041790E+03  0.52301041792E+03  0.50400001928E-02 0. -1.
    10030    2    1    2    0    0  0.00000000000E+00  0.00000000000E+00  0.52454409940E+03  0.15705649352E+04  0.14803809319E+04 0.  0.
        2    1    3    3  502    0 -0.78847280360E+02 -0.73353682017E+03  0.19871628203E+03  0.76405583625E+03  0.25500000920E-02 0. -1.
       -2    1    3    3    0  502  0.78847280360E+02  0.73353682017E+03  0.32582781737E+03  0.80650909898E+03  0.25500000920E-02 0.  1.
</event>
<event>
 5   0  0.6714629E-05  0.1749688E+04  0.7818609E-02  0.8733522E-01
        2   -1    0    0  501    0  0.00000000000E+00  0.00000000000E+00  0.12651445639E+04  0.12651445639E+04  0.25500000920E-02 0. -1.
       -2   -1    0    0    0  501  0.00000000000E+00  0.00000000000E+00 -0.60495230647E+03  0.60495230648E+03  0.25500000920E-02 0.  1.
    10030    2    1    2    0    0  0.00000000000E+00  0.00000000000E+00  0.66019225740E+03  0.18700968704E+04  0.17496881116E+04 0.  0.
        3    1    3    3  502    0  0.43544956160E+03 -0.16532854531E+03 -0.46140781233E+03  0.65562720205E+03  0.10100000352E+00 0.  1.
       -3    1    3    3    0  502 -0.43544956160E+03  0.16532854531E+03  0.11216000697E+04  0.12144696683E+04  0.10100000352E+00 0. -1.
</event>
<event>
 5   0  0.2943123E-05  0.2337442E+04  0.7818609E-02  0.8463303E-01
       -1   -1    0    0    0  501  0.00000000000E+00  0.00000000000E+00  0.12350924714E+04  0.12350924714E+04  0.50400001928E-02 0.  1.
        1   -1    0    0  501    0  0.00000000000E+00  0.00000000000E+00 -0.11059159172E+04  0.11059159172E+04  0.50400001928E-02 0. -1.
    10030    2    1    2    0    0  0.00000000000E+00  0.00000000000E+00  0.12917655414E+03  0.23410083886E+04  0.23374416984E+04 0.  0.
        1    1    3    3  502    0 -0.23559034845E+02  0.26413524033E+03 -0.10753866536E+04  0.11076005182E+04  0.50400001928E-02 0. -1.
       -1    1    3    3    0  502  0.23559034845E+02 -0.26413524033E+03  0.12045632077E+04  0.12334078704E+04  0.50400001928E-02 0.  1.
</event>
<event>
 5   0  0.6714629E-05  0.2257588E+04  0.7818609E-02  0.8494834E-01
        2   -1    0    0  501    0  0.00000000000E+00  0.00000000000E+00  0.16334378379E+04  0.16334378379E+04  0.25500000920E-02 0.  1.
       -2   -1    0    0    0  501  0.00000000000E+00  0.00000000000E+00 -0.78005810599E+03  0.78005810600E+03  0.25500000920E-02 0. -1.
    10030    2    1    2    0    0  0.00000000000E+00  0.00000000000E+00  0.85337973190E+03  0.24134959439E+04  0.22575884710E+04 0.  0.
        3    1    3    3  502    0 -0.15191854013E+03 -0.36041608381E+03  0.15586805155E+04  0.16070046533E+04  0.10100000352E+00 0.  1.
       -3    1    3    3    0  502  0.15191854013E+03  0.36041608381E+03 -0.70530078356E+03  0.80649129058E+03  0.10100000352E+00 0. -1.
</event>
<event>
 5   0  0.2943244E-05  0.2340946E+04  0.7818609E-02  0.8461949E-01
       -1   -1    0    0    0  501  0.00000000000E+00  0.00000000000E+00  0.48771862307E+03  0.48771862310E+03  0.50400001928E-02 0. -1.
        1   -1    0    0  501    0  0.00000000000E+00  0.00000000000E+00 -0.28090121680E+04  0.28090121680E+04  0.50400001928E-02 0.  1.
    10030    2    1    2    0    0  0.00000000000E+00  0.00000000000E+00 -0.23212935449E+04  0.32967307911E+04  0.23409464298E+04 0.  0.
        3    1    3    3  502    0  0.84818216117E+03 -0.15800039809E+03 -0.22745589245E+04  0.24326930377E+04  0.10100000352E+00 0.  1.
       -3    1    3    3    0  502 -0.84818216117E+03  0.15800039809E+03 -0.46734620381E+02  0.86403775338E+03  0.10100000352E+00 0. -1.
</event>
<event>
 5   0  0.2847158E-05  0.2242657E+04  0.7818609E-02  0.8500880E-01
       -1   -1    0    0    0  501  0.00000000000E+00  0.00000000000E+00  0.10929838403E+04  0.10929838403E+04  0.50400001928E-02 0. -1.
        1   -1    0    0  501    0  0.00000000000E+00  0.00000000000E+00 -0.11504084218E+04  0.11504084218E+04  0.50400001928E-02 0.  1.
    10030    2    1    2    0    0  0.00000000000E+00  0.00000000000E+00 -0.57424581518E+02  0.22433922622E+04  0.22426571872E+04 0.  0.
        5    1    3    3  502    0 -0.95864070097E+03  0.41966295648E+02  0.55165246842E+03  0.11068404128E+04  0.46999998093E+01 0. -1.
       -5    1    3    3    0  502  0.95864070097E+03 -0.41966295648E+02 -0.60907704993E+03  0.11365518494E+04  0.46999998093E+01 0.  1.
</event>
<event>
 5   0  0.2943244E-05  0.2438142E+04  0.7818609E-02  0.8425360E-01
       -1   -1    0    0    0  501  0.00000000000E+00  0.00000000000E+00  0.19679824792E+04  0.19679824792E+04  0.50400001928E-02 0.  1.
        1   -1    0    0  501    0  0.00000000000E+00  0.00000000000E+00 -0.75515616024E+03  0.75515616026E+03  0.50400001928E-02 0. -1.
    10030    2    1    2    0    0  0.00000000000E+00  0.00000000000E+00  0.12128263190E+04  0.27231386395E+04  0.24381419913E+04 0.  0.
        3    1    3    3  502    0  0.89047420984E+02 -0.25810557311E+03  0.19333933905E+04  0.19525772565E+04  0.10100000352E+00 0.  1.
       -3    1    3    3    0  502 -0.89047420984E+02  0.25810557311E+03 -0.72056707155E+03  0.77056138293E+03  0.10100000352E+00 0. -1.
</event>
<event>
 5   0  0.6600166E-05  0.2411523E+04  0.7818609E-02  0.8435202E-01
       -2   -1    0    0    0  501  0.00000000000E+00  0.00000000000E+00  0.16156082757E+04  0.16156082757E+04  0.25500000920E-02 0.  1.
        2   -1    0    0  501    0  0.00000000000E+00  0.00000000000E+00 -0.89988460227E+03  0.89988460227E+03  0.25500000920E-02 0. -1.
    10030    2    1    2    0    0  0.00000000000E+00  0.00000000000E+00  0.71572367339E+03  0.25154928779E+04  0.24115231789E+04 0.  0.
        5    1    3    3  502    0 -0.57949641444E+03 -0.39943692666E+03 -0.66336351110E+03  0.96718105367E+03  0.46999998093E+01 0. -1.
       -5    1    3    3    0  502  0.57949641444E+03  0.39943692666E+03  0.13790871845E+04  0.15483118243E+04  0.46999998093E+01 0.  1.
</event>
<event>
 5   0  0.6337926E-05  0.2460928E+04  0.7818609E-02  0.8417039E-01
        2   -1    0    0  501    0  0.00000000000E+00  0.00000000000E+00  0.10898849212E+04  0.10898849212E+04  0.25500000920E-02 0. -1.
       -2   -1    0    0    0  501  0.00000000000E+00  0.00000000000E+00 -0.13891759526E+04  0.13891759526E+04  0.25500000920E-02 0.  1.
    10030    2    1    2    0    0  0.00000000000E+00  0.00000000000E+00 -0.29929103142E+03  0.24790608737E+04  0.24609282180E+04 0.  0.
        1    1    3    3  502    0 -0.10010881086E+04 -0.65115299244E+03  0.14895769875E+03  0.12034807920E+04  0.50400001928E-02 0. -1.
       -1    1    3    3    0  502  0.10010881086E+04  0.65115299244E+03 -0.44824873017E+03  0.12755800817E+04  0.50400001928E-02 0.  1.
</event>
<event>
 5   0  0.6337926E-05  0.2148741E+04  0.7818609E-02  0.8540071E-01
       -2   -1    0    0    0  501  0.00000000000E+00  0.00000000000E+00  0.92009821416E+03  0.92009821417E+03  0.25500000920E-02 0. -1.
        2   -1    0    0  501    0  0.00000000000E+00  0.00000000000E+00 -0.12545094654E+04  0.12545094654E+04  0.25500000920E-02 0.  1.
    10030    2    1    2    0    0  0.00000000000E+00  0.00000000000E+00 -0.33441125122E+03  0.21746076796E+04  0.21487409511E+04 0.  0.
        1    1    3    3  502    0  0.33052111848E+02 -0.16450098365E+03 -0.12411677886E+04  0.12524577818E+04  0.50400001928E-02 0.  1.
       -1    1    3    3    0  502 -0.33052111848E+02  0.16450098365E+03  0.90675653740E+03  0.92214989772E+03  0.50400001928E-02 0. -1.
</event>
<event>
 5   0  0.2915546E-05  0.2552518E+04  0.7818609E-02  0.8384511E-01
       -1   -1    0    0    0  501  0.00000000000E+00  0.00000000000E+00  0.82782609112E+03  0.82782609113E+03  0.50400001928E-02 0.  1.
        1   -1    0    0  501    0  0.00000000000E+00  0.00000000000E+00 -0.19676078600E+04  0.19676078600E+04  0.50400001928E-02 0. -1.
    10030    2    1    2    0    0  0.00000000000E+00  0.00000000000E+00 -0.11397817688E+04  0.27954339511E+04  0.25525180694E+04 0.  0.
        2    1    3    3  502    0 -0.18717153618E+03  0.12528558236E+04 -0.39967701554E+03  0.13283157062E+04  0.25500000920E-02 0.  1.
       -2    1    3    3    0  502  0.18717153618E+03 -0.12528558236E+04 -0.74010475331E+03  0.14671182449E+04  0.25500000920E-02 0. -1.
</event>
<event>
 5   0  0.6600166E-05  0.2395657E+04  0.7818609E-02  0.8441131E-01
       -2   -1    0    0    0  501  0.00000000000E+00  0.00000000000E+00  0.10563653758E+04  0.10563653758E+04  0.25500000920E-02 0.  1.
        2   -1    0    0  501    0  0.00000000000E+00  0.00000000000E+00 -0.13582356075E+04  0.13582356075E+04  0.25500000920E-02 0. -1.
    10030    2    1    2    0    0  0.00000000000E+00  0.00000000000E+00 -0.30187023168E+03  0.24146009833E+04  0.23956569604E+04 0.  0.
        5    1    3    3  502    0 -0.24911132940E+03  0.11587850194E+04 -0.32531130289E+03  0.12291007727E+04  0.46999998093E+01 0.  1.
       -5    1    3    3    0  502  0.24911132940E+03 -0.11587850194E+04  0.23441071208E+02  0.11855002107E+04  0.46999998093E+01 0. -1.
</event>
<event>
 5   0  0.6703961E-05  0.2401161E+04  0.7818609E-02  0.8439069E-01
        2   -1    0    0  501    0  0.00000000000E+00  0.00000000000E+00  0.23938269900E+04  0.23938269900E+04  0.25500000920E-02 0. -1.
       -2   -1    0    0    0  501  0.00000000000E+00  0.00000000000E+00 -0.60212924142E+03  0.60212924143E+03  0.25500000920E-02 0.  1.
    10030    2    1    2    0    0  0.00000000000E+00  0.00000000000E+00  0.17916977486E+04  0.29959562315E+04  0.24011607440E+04 0.  0.
        2    1    3    3  502    0 -0.36543273637E+03 -0.57235186340E+03 -0.33948993811E+03  0.75919770708E+03  0.25500000920E-02 0.  1.
       -2    1    3    3    0  502  0.36543273637E+03  0.57235186340E+03  0.21311876867E+04  0.22367585244E+04  0.25500000920E-02 0. -1.
</event>
<event>
 5   0  0.2847158E-05  0.2349533E+04  0.7818609E-02  0.8458643E-01
       -1   -1    0    0    0  501  0.00000000000E+00  0.00000000000E+00  0.79776781557E+03  0.79776781558E+03  0.50400001928E-02 0. -1.
        1   -1    0    0  501    0  0.00000000000E+00  0.00000000000E+00 -0.17299217481E+04  0.17299217481E+04  0.50400001928E-02 0.  1.
    10030    2    1    2    0    0  0.00000000000E+00  0.00000000000E+00 -0.93215393251E+03  0.25276895637E+04  0.23495326293E+04 0.  0.
        5    1    3    3  502    0 -0.31671924215E+03 -0.41422584663E+03 -0.15985905652E+04  0.16814898202E+04  0.46999998093E+01 0.  1.
       -5    1    3    3    0  502  0.31671924215E+03  0.41422584663E+03  0.66643663270E+03  0.84619974343E+03  0.46999998093E+01 0. -1.
</event>
<event>
 5   0  0.2901816E-05  0.2414684E+04  0.7818609E-02  0.8434027E-01
       -1   -1    0    0    0  501  0.00000000000E+00  0.00000000000E+00  0.10251636431E+04  0.10251636431E+04  0.50400001928E-02 0.  1.
        1   -1    0    0  501    0  0.00000000000E+00  0.00000000000E+00 -0.14218944546E+04  0.14218944546E+04  0.50400001928E-02 0. -1.
    10030    2    1    2    0    0  0.00000000000E+00  0.00000000000E+00 -0.39673081155E+03  0.24470580977E+04  0.24146838295E+04 0.  0.
        4    1    3    3  502    0 -0.12297987743E+03 -0.11985782698E+04 -0.27659471693E+03  0.12362120244E+04  0.12699999809E+01 0. -1.
       -4    1    3    3    0  502  0.12297987743E+03  0.11985782698E+04 -0.12013609463E+03  0.12108460733E+04  0.12699999809E+01 0.  1.
</event>
<event>
 5   0  0.2943244E-05  0.2389607E+04  0.7818609E-02  0.8443405E-01
        1   -1    0    0  501    0  0.00000000000E+00  0.00000000000E+00  0.12876005664E+04  0.12876005664E+04  0.50400001928E-02 0.  1.
       -1   -1    0    0    0  501  0.00000000000E+00  0.00000000000E+00 -0.11086947588E+04  0.11086947588E+04  0.50400001928E-02 0. -1.
    10030    2    1    2    0    0  0.00000000000E+00  0.00000000000E+00  0.17890580754E+03  0.23962953252E+04  0.23896074987E+04 0.  0.
        3    1    3    3  502    0 -0.56267057343E+03 -0.10363201231E+04  0.28234096233E+03  0.12125485562E+04  0.10100000352E+00 0.  1.
       -3    1    3    3    0  502  0.56267057343E+03  0.10363201231E+04 -0.10343515479E+03  0.11837467691E+04  0.10100000352E+00 0. -1.
</event>
<event>
 5   0  0.2847158E-05  0.2331514E+04  0.7818609E-02  0.8465598E-01
        1   -1    0    0  501    0  0.00000000000E+00  0.00000000000E+00  0.12216344176E+04  0.12216344176E+04  0.50400001928E-02 0.  1.
       -1   -1    0    0    0  501  0.00000000000E+00  0.00000000000E+00 -0.11124350414E+04  0.11124350414E+04  0.50400001928E-02 0. -1.
    10030    2    1    2    0    0  0.00000000000E+00  0.00000000000E+00  0.10919937622E+03  0.23340694590E+04  0.23315136147E+04 0.  0.
        5    1    3    3  502    0  0.84233957901E+03  0.48072008754E+03 -0.59290070439E+03  0.11367414412E+04  0.46999998093E+01 0. -1.
       -5    1    3    3    0  502 -0.84233957901E+03 -0.48072008754E+03  0.70210008060E+03  0.11973280178E+04  0.46999998093E+01 0.  1.
</event>
<event>
 5   0  0.6703961E-05  0.2412216E+04  0.7818609E-02  0.8434944E-01
       -2   -1    0    0    0  501  0.00000000000E+00  0.00000000000E+00  0.56580969060E+03  0.56580969060E+03  0.25500000920E-02 0. -1.
        2   -1    0    0  501    0  0.00000000000E+00  0.00000000000E+00 -0.25709991418E+04  0.25709991418E+04  0.25500000920E-02 0.  1.
    10030    2    1    2    0    0  0.00000000000E+00  0.00000000000E+00 -0.20051894512E+04  0.31368088324E+04  0.24122157689E+04 0.  0.
        2    1    3    3  502    0 -0.34493473105E+03  0.51829665468E+03  0.34070020119E+03  0.70970981255E+03  0.25500000920E-02 0. -1.
       -2    1    3    3    0  502  0.34493473105E+03 -0.51829665468E+03 -0.23458896524E+04  0.24270990199E+04  0.25500000920E-02 0.  1.
</event>
<event>
 5   0  0.6703961E-05  0.2450645E+04  0.7818609E-02  0.8420783E-01
       -2   -1    0    0    0  501  0.00000000000E+00  0.00000000000E+00  0.92603258326E+03  0.92603258326E+03  0.25500000920E-02 0. -1.
        2   -1    0    0  501    0  0.00000000000E+00  0.00000000000E+00 -0.16213411118E+04  0.16213411118E+04  0.25500000920E-02 0.  1.
    10030    2    1    2    0    0  0.00000000000E+00  0.00000000000E+00 -0.69530852852E+03  0.25473736950E+04  0.24506445667E+04 0.  0.
        2    1    3    3  502    0  0.39577440057E+03  0.11002170968E+04  0.33279783996E+02  0.11697104686E+04  0.25500000920E-02 0. -1.
       -2    1    3    3    0  502 -0.39577440057E+03 -0.11002170968E+04 -0.72858831251E+03  0.13776632264E+04  0.25500000920E-02 0.  1.
</event>
<event>
 5   0  0.2901816E-05  0.2175766E+04  0.7818609E-02  0.8528583E-01
        1   -1    0    0  501    0  0.00000000000E+00  0.00000000000E+00  0.27215415136E+04  0.27215415136E+04  0.50400001928E-02 0.  1.
       -1   -1    0    0    0  501  0.00000000000E+00  0.00000000000E+00 -0.43485998135E+03  0.43485998138E+03  0.50400001928E-02 0. -1.
    10030    2    1    2    0    0  0.00000000000E+00  0.00000000000E+00  0.22866815323E+04  0.31564014950E+04  0.21757660645E+04 0.  0.
        4    1    3    3  502    0  0.38183519557E+03 -0.86979144030E+03  0.19125617155E+04  0.21354693149E+04  0.12699999809E+01 0.  1.
       -4    1    3    3    0  502 -0.38183519557E+03  0.86979144030E+03  0.37411981672E+03  0.10209321801E+04  0.12699999809E+01 0. -1.
</event>
<event>
 5   0  0.2943123E-05  0.2289880E+04  0.7818609E-02  0.8481922E-01
        1   -1    0    0  501    0  0.00000000000E+00  0.00000000000E+00  0.13785932365E+04  0.13785932365E+04  0.50400001928E-02 0. -1.
       -1   -1    0    0    0  501  0.00000000000E+00  0.00000000000E+00 -0.95088780489E+03  0.95088780490E+03  0.50400001928E-02 0.  1.
    10030    2    1    2    0    0  0.00000000000E+00  0.00000000000E+00  0.42770543157E+03  0.23294810414E+04  0.22898799064E+04 0.  0.
        1    1    3    3  502    0  0.31801665518E+03 -0.90942916391E+03 -0.41546633909E+03  0.10491941079E+04  0.50400001928E-02 0.  1.
       -1    1    3    3    0  502 -0.31801665518E+03  0.90942916391E+03  0.84317177066E+03  0.12802869335E+04  0.50400001928E-02 0. -1.
</event>
<event>
 5   0  0.2943123E-05  0.2395720E+04  0.7818609E-02  0.8441108E-01
       -1   -1    0    0    0  501  0.00000000000E+00  0.00000000000E+00  0.11139638605E+04  0.11139638605E+04  0.50400001928E-02 0.  1.
        1   -1    0    0  501    0  0.00000000000E+00  0.00000000000E+00 -0.12880744256E+04  0.12880744256E+04  0.50400001928E-02 0. -1.
    10030    2    1    2    0    0  0.00000000000E+00  0.00000000000E+00 -0.17411056504E+03  0.24020382861E+04  0.23957198165E+04 0.  0.
        1    1    3    3  502    0  0.15556484493E+03  0.11677018375E+04  0.13063564828E+03  0.11852399229E+04  0.50400001928E-02 0.  1.
       -1    1    3    3    0  502 -0.15556484493E+03 -0.11677018375E+04 -0.30474621333E+03  0.12167983632E+04  0.50400001928E-02 0. -1.
</event>
<event>
 5   0  0.2847158E-05  0.1669920E+04  0.7818609E-02  0.8778709E-01
        1   -1    0    0  501    0  0.00000000000E+00  0.00000000000E+00  0.20845282615E+04  0.20845282615E+04  0.50400001928E-02 0.  1.
       -1   -1    0    0    0  501  0.00000000000E+00  0.00000000000E+00 -0.33444402952E+03  0.33444402955E+03  0.50400001928E-02 0. -1.
    10030    2    1    2    0    0  0.00000000000E+00  0.00000000000E+00  0.17500842320E+04  0.24189722911E+04  0.16699197962E+04 0.  0.
        5    1    3    3  502    0 -0.52890622845E+03 -0.63481572749E+03  0.10488877538E+04  0.13352604302E+04  0.46999998093E+01 0. -1.
       -5    1    3    3    0  502  0.52890622845E+03  0.63481572749E+03  0.70119647814E+03  0.10837118608E+04  0.46999998093E+01 0.  1.
</event>
<event>
 5   0  0.6337926E-05  0.2387206E+04  0.7818609E-02  0.8444309E-01
       -2   -1    0    0    0  501  0.00000000000E+00  0.00000000000E+00  0.72614695266E+03  0.72614695267E+03  0.25500000920E-02 0. -1.
        2   -1    0    0  501    0  0.00000000000E+00  0.00000000000E+00 -0.19619824975E+04  0.19619824975E+04  0.25500000920E-02 0.  1.
    10030    2    1    2    0    0  0.00000000000E+00  0.00000000000E+00 -0.12358355448E+04  0.26881294502E+04  0.23872055728E+04 0.  0.
        1    1    3    3  502    0  0.43468956829E+03 -0.36732656326E+03 -0.17993676909E+04  0.18872222741E+04  0.50400001928E-02 0.  1.
       -1    1    3    3    0  502 -0.43468956829E+03  0.36732656326E+03  0.56353214610E+03  0.80090717601E+03  0.50400001928E-02 0. -1.
</event>
<event>
 5   0  0.6714629E-05  0.2374047E+04  0.7818609E-02  0.8449284E-01
        2   -1    0    0  501    0  0.00000000000E+00  0.00000000000E+00  0.17097807944E+04  0.17097807944E+04  0.25500000920E-02 0.  1.
       -2   -1    0    0    0  501  0.00000000000E+00  0.00000000000E+00 -0.82409650036E+03  0.82409650036E+03  0.25500000920E-02 0. -1.
    10030    2    1    2    0    0  0.00000000000E+00  0.00000000000E+00  0.88568429402E+03  0.25338772947E+04  0.23740466457E+04 0.  0.
        3    1    3    3  502    0  0.10321522863E+04  0.56073761922E+03  0.26027249470E+03  0.12031237681E+04  0.10100000352E+00 0.  1.
       -3    1    3    3    0  502 -0.10321522863E+04 -0.56073761922E+03  0.62541179932E+03  0.13307535266E+04  0.10100000352E+00 0. -1.
</event>
<event>
 5   0  0.6337926E-05  0.2413466E+04  0.7818609E-02  0.8434479E-01
       -2   -1    0    0    0  501  0.00000000000E+00  0.00000000000E+00  0.83244515716E+03  0.83244515716E+03  0.25500000920E-02 0.  1.
        2   -1    0    0  501    0  0.00000000000E+00  0.00000000000E+00 -0.17493103706E+04  0.17493103706E+04  0.25500000920E-02 0. -1.
    10030    2    1    2    0    0  0.00000000000E+00  0.00000000000E+00 -0.91686521340E+03  0.25817555277E+04  0.24134663423E+04 0.  0.
        1    1    3    3  502    0 -0.52426640099E+03 -0.97243292483E+03 -0.97780118592E+03  0.14753224094E+04  0.50400001928E-02 0. -1.
       -1    1    3    3    0  502  0.52426640099E+03  0.97243292483E+03  0.60935972520E+02  0.11064331183E+04  0.50400001928E-02 0.  1.
</event>
<event>
 5   0  0.6714629E-05  0.2402653E+04  0.7818609E-02  0.8438511E-01
        2   -1    0    0  501    0  0.00000000000E+00  0.00000000000E+00  0.19409398447E+04  0.19409398447E+04  0.25500000920E-02 0.  1.
       -2   -1    0    0    0  501  0.00000000000E+00  0.00000000000E+00 -0.74354951990E+03  0.74354951991E+03  0.25500000920E-02 0. -1.
    10030    2    1    2    0    0  0.00000000000E+00  0.00000000000E+00  0.11973903248E+04  0.26844893646E+04  0.24026526088E+04 0.  0.
        3    1    3    3  502    0  0.73510217132E+03 -0.46398153597E+02 -0.46165765097E+03  0.86928464144E+03  0.10100000352E+00 0. -1.
       -3    1    3    3    0  502 -0.73510217132E+03  0.46398153597E+02  0.16590479757E+04  0.18152047231E+04  0.10100000352E+00 0.  1.
</event>
<event>
 5   0  0.6600166E-05  0.2478493E+04  0.7818609E-02  0.8410688E-01
        2   -1    0    0  501    0  0.00000000000E+00  0.00000000000E+00  0.10809967520E+04  0.10809967520E+04  0.25500000920E-02 0. -1.
       -2   -1    0    0    0  501  0.00000000000E+00  0.00000000000E+00 -0.14206624644E+04  0.14206624644E+04  0.25500000920E-02 0.  1.
    10030    2    1    2    0    0  0.00000000000E+00  0.00000000000E+00 -0.33966571247E+03  0.25016592164E+04  0.24784926949E+04 0.  0.
        5    1    3    3  502    0  0.85622461511E+03 -0.64071910269E+03  0.46217303438E+03  0.11650182676E+04  0.46999998093E+01 0. -1.
       -5    1    3    3    0  502 -0.85622461511E+03  0.64071910269E+03 -0.80183874685E+03  0.13366409488E+04  0.46999998093E+01 0.  1.
</event>
<event>
 5   0  0.6600166E-05  0.2282576E+04  0.7818609E-02  0.8484823E-01
        2   -1    0    0  501    0  0.00000000000E+00  0.00000000000E+00  0.14432733141E+04  0.14432733141E+04  0.25500000920E-02 0.  1.
       -2   -1    0    0    0  501  0.00000000000E+00  0.00000000000E+00 -0.90248922002E+03  0.90248922002E+03  0.25500000920E-02 0. -1.
    10030    2    1    2    0    0  0.00000000000E+00  0.00000000000E+00  0.54078409407E+03  0.23457625341E+04  0.22825762704E+04 0.  0.
        5    1    3    3  502    0  0.38076305861E+03  0.23435541791E+03 -0.80872961340E+03  0.92410423995E+03  0.46999998093E+01 0. -1.
       -5    1    3    3    0  502 -0.38076305861E+03 -0.23435541791E+03  0.13495137075E+04  0.14216582942E+04  0.46999998093E+01 0.  1.
</event>
<event>
 5   0  0.2943123E-05  0.2435048E+04  0.7818609E-02  0.8426497E-01
       -1   -1    0    0    0  501  0.00000000000E+00  0.00000000000E+00  0.73417022272E+03  0.73417022274E+03  0.50400001928E-02 0. -1.
        1   -1    0    0  501    0  0.00000000000E+00  0.00000000000E+00 -0.20191021687E+04  0.20191021687E+04  0.50400001928E-02 0.  1.
    10030    2    1    2    0    0  0.00000000000E+00  0.00000000000E+00 -0.12849319459E+04  0.27532723914E+04  0.24350479986E+04 0.  0.
        1    1    3    3  502    0 -0.36781042872E+03  0.79750426266E+03 -0.15959138472E+04  0.18216032960E+04  0.50400001928E-02 0.  1.
       -1    1    3    3    0  502  0.36781042872E+03 -0.79750426266E+03  0.31098190121E+03  0.93166909541E+03  0.50400001928E-02 0. -1.
</event>
<event>
 5   0  0.6337926E-05  0.2302994E+04  0.7818609E-02  0.8476742E-01
        2   -1    0    0  501    0  0.00000000000E+00  0.00000000000E+00  0.22455282368E+04  0.22455282368E+04  0.25500000920E-02 0. -1.
       -2   -1    0    0    0  501  0.00000000000E+00  0.00000000000E+00 -0.59048252049E+03  0.59048252049E+03  0.25500000920E-02 0.  1.
    10030    2    1    2    0    0  0.00000000000E+00  0.00000000000E+00  0.16550457163E+04  0.28360107573E+04  0.23029938542E+04 0.  0.
        1    1    3    3  502    0 -0.99782998125E+03 -0.55449413670E+03  0.64151040320E+03  0.13094518000E+04  0.50400001928E-02 0. -1.
       -1    1    3    3    0  502  0.99782998125E+03  0.55449413670E+03  0.10135353131E+04  0.15265589573E+04  0.50400001928E-02 0.  1.
</event>
<event>
 5   0  0.2943244E-05  0.2427743E+04  0.7818609E-02  0.8429190E-01
        1   -1    0    0  501    0  0.00000000000E+00  0.00000000000E+00  0.15119266042E+04  0.15119266042E+04  0.50400001928E-02 0.  1.
       -1   -1    0    0    0  501  0.00000000000E+00  0.00000000000E+00 -0.97457366277E+03  0.97457366278E+03  0.50400001928E-02 0. -1.
    10030    2    1    2    0    0  0.00000000000E+00  0.00000000000E+00  0.53735294141E+03  0.24865002670E+04  0.24277428599E+04 0.  0.
        3    1    3    3  502    0 -0.19298345359E+03 -0.99652804970E+03 -0.41314787787E+03  0.10959023435E+04  0.10100000352E+00 0. -1.
       -3    1    3    3    0  502  0.19298345359E+03  0.99652804970E+03  0.95050081929E+03  0.13905979235E+04  0.10100000352E+00 0.  1.
</event>
<event>
 5   0  0.2915546E-05  0.2076367E+04  0.7818609E-02  0.8571726E-01
        1   -1    0    0  501    0  0.00000000000E+00  0.00000000000E+00  0.97288427563E+03  0.97288427564E+03  0.50400001928E-02 0. -1.
       -1   -1    0    0    0  501  0.00000000000E+00  0.00000000000E+00 -0.11078657150E+04  0.11078657150E+04  0.50400001928E-02 0.  1.
    10030    2    1    2    0    0  0.00000000000E+00  0.00000000000E+00 -0.13498143935E+03  0.20807499906E+04  0.20763671483E+04 0.  0.
        2    1    3    3  502    0  0.82851106303E+03 -0.52080202084E+03  0.27988172392E+03  0.10178404128E+04  0.25500000920E-02 0. -1.
       -2    1    3    3    0  502 -0.82851106303E+03  0.52080202084E+03 -0.41486316327E+03  0.10629095779E+04  0.25500000920E-02 0.  1.
</event>
<event>
 5   0  0.2901816E-05  0.2422112E+04  0.7818609E-02  0.8431271E-01
        1   -1    0    0  501    0  0.00000000000E+00  0.00000000000E+00  0.10192358999E+04  0.10192358999E+04  0.50400001928E-02 0. -1.
       -1   -1    0    0    0  501  0.00000000000E+00  0.00000000000E+00 -0.14389769834E+04  0.14389769834E+04  0.50400001928E-02 0.  1.
    10030    2    1    2    0    0  0.00000000000E+00  0.00000000000E+00 -0.41974108353E+03  0.24582128833E+04  0.24221123018E+04 0.  0.
        4    1    3    3  502    0 -0.11503768677E+04  0.25981160446E+03  0.69525852350E+02  0.11813993671E+04  0.12699999809E+01 0.  1.
       -4    1    3    3    0  502  0.11503768677E+04 -0.25981160446E+03 -0.48926693588E+03  0.12768135162E+04  0.12699999809E+01 0. -1.
</event>
<event>
 5   0  0.6978115E-05  0.2385841E+04  0.7818609E-02  0.8444823E-01
       -2   -1    0    0    0  501  0.00000000000E+00  0.00000000000E+00  0.71390371442E+03  0.71390371443E+03  0.25500000920E-02 0.  1.
        2   -1    0    0  501    0  0.00000000000E+00  0.00000000000E+00 -0.19933494948E+04  0.19933494948E+04  0.25500000920E-02 0. -1.
    10030    2    1    2    0    0  0.00000000000E+00  0.00000000000E+00 -0.12794457804E+04  0.27072532092E+04  0.23858412424E+04 0.  0.
        4    1    3    3  502    0  0.16317088103E+03 -0.70380810304E+02  0.69879995750E+03  0.72104173831E+03  0.12699999809E+01 0.  1.
       -4    1    3    3    0  502 -0.16317088103E+03  0.70380810304E+02 -0.19782457379E+04  0.19862114709E+04  0.12699999809E+01 0. -1.
</event>
<event>
 5   0  0.2847158E-05  0.2460411E+04  0.7818609E-02  0.8417226E-01
       -1   -1    0    0    0  501  0.00000000000E+00  0.00000000000E+00  0.11547768234E+04  0.11547768234E+04  0.50400001928E-02 0.  1.
        1   -1    0    0  501    0  0.00000000000E+00  0.00000000000E+00 -0.13105614275E+04  0.13105614276E+04  0.50400001928E-02 0. -1.
    10030    2    1    2    0    0  0.00000000000E+00  0.00000000000E+00 -0.15578460418E+03  0.24653382509E+04  0.24604113170E+04 0.  0.
        5    1    3    3  502    0  0.63905831201E+03 -0.52989590403E+03 -0.98756415007E+03  0.12901512453E+04  0.46999998093E+01 0. -1.
       -5    1    3    3    0  502 -0.63905831201E+03  0.52989590403E+03  0.83177954588E+03  0.11751870056E+04  0.46999998093E+01 0.  1.
</event>
<event>
 5   0  0.2847158E-05  0.2420439E+04  0.7818609E-02  0.8431891E-01
        1   -1    0    0  501    0  0.00000000000E+00  0.00000000000E+00  0.12663445098E+04  0.12663445098E+04  0.50400001928E-02 0. -1.
       -1   -1    0    0    0  501  0.00000000000E+00  0.00000000000E+00 -0.11565819202E+04  0.11565819202E+04  0.50400001928E-02 0.  1.
    10030    2    1    2    0    0  0.00000000000E+00  0.00000000000E+00  0.10976258965E+03  0.24229264300E+04  0.24204389393E+04 0.  0.
        5    1    3    3  502    0  0.65331437468E+03 -0.52937467659E+03  0.92615032907E+03  0.12509331487E+04  0.46999998093E+01 0. -1.
       -5    1    3    3    0  502 -0.65331437468E+03  0.52937467659E+03 -0.81638773942E+03  0.11719932813E+04  0.46999998093E+01 0.  1.
</event>
<event>
 5   0  0.2847158E-05  0.2411923E+04  0.7818609E-02  0.8435053E-01
       -1   -1    0    0    0  501  0.00000000000E+00  0.00000000000E+00  0.20361271800E+04  0.20361271800E+04  0.50400001928E-02 0. -1.
        1   -1    0    0  501    0  0.00000000000E+00  0.00000000000E+00 -0.71426952285E+03  0.71426952286E+03  0.50400001928E-02 0.  1.
    10030    2    1    2    0    0  0.00000000000E+00  0.00000000000E+00  0.13218576571E+04  0.27503967028E+04  0.24119233730E+04 0.  0.
        5    1    3    3  502    0 -0.83057853289E+03  0.11415729493E+03  0.16494268016E+04  0.18502765877E+04  0.46999998093E+01 0. -1.
       -5    1    3    3    0  502  0.83057853289E+03 -0.11415729493E+03 -0.32756914444E+03  0.90012011514E+03  0.46999998093E+01 0.  1.
</event>
<event>
 5   0  0.6600166E-05  0.2314930E+04  0.7818609E-02  0.8472057E-01
        2   -1    0    0  501    0  0.00000000000E+00  0.00000000000E+00  0.25366002471E+04  0.25366002471E+04  0.25500000920E-02 0.  1.
       -2   -1    0    0    0  501  0.00000000000E+00  0.00000000000E+00 -0.52815792973E+03  0.52815792973E+03  0.25500000920E-02 0. -1.
    10030    2    1    2    0    0  0.00000000000E+00  0.00000000000E+00  0.20084423173E+04  0.30647581768E+04  0.23149302668E+04 0.  0.
        5    1    3    3  502    0 -0.32003456146E+03  0.10058071222E+04  0.16330898189E+04  0.19444985302E+04  0.46999998093E+01 0.  1.
       -5    1    3    3    0  502  0.32003456146E+03 -0.10058071222E+04  0.37535249848E+03  0.11202596466E+04  0.46999998093E+01 0. -1.
</event>
<event>
 5   0  0.6337926E-05  0.2371873E+04  0.7818609E-02  0.8450110E-01
        2   -1    0    0  501    0  0.00000000000E+00  0.00000000000E+00  0.20157199282E+04  0.20157199282E+04  0.25500000920E-02 0.  1.
       -2   -1    0    0    0  501  0.00000000000E+00  0.00000000000E+00 -0.69773854889E+03  0.69773854889E+03  0.25500000920E-02 0. -1.
    10030    2    1    2    0    0  0.00000000000E+00  0.00000000000E+00  0.13179813793E+04  0.27134584771E+04  0.23718730975E+04 0.  0.
        1    1    3    3  502    0 -0.57665779469E+03  0.12461259748E+03  0.18359275259E+04  0.19283911408E+04  0.50400001928E-02 0.  1.
       -1    1    3    3    0  502  0.57665779469E+03 -0.12461259748E+03 -0.51794614661E+03  0.78506733625E+03  0.50400001928E-02 0. -1.
</event>
<event>
 5   0  0.2915546E-05  0.2388272E+04  0.7818609E-02  0.8443907E-01
        1   -1    0    0  501    0  0.00000000000E+00  0.00000000000E+00  0.14331312671E+04  0.14331312672E+04  0.50400001928E-02 0.  1.
       -1   -1    0    0    0  501  0.00000000000E+00  0.00000000000E+00 -0.99499661445E+03  0.99499661447E+03  0.50400001928E-02 0. -1.
    10030    2    1    2    0    0  0.00000000000E+00  0.00000000000E+00  0.43813465269E+03  0.24281278816E+04  0.23882719769E+04 0.  0.
        2    1    3    3  502    0 -0.11734047452E+04  0.22069303642E+03  0.19933606786E+03  0.12105036061E+04  0.25500000920E-02 0.  1.
       -2    1    3    3    0  502  0.11734047452E+04 -0.22069303642E+03  0.23879858483E+03  0.12176242756E+04  0.25500000920E-02 0. -1.
</event>
<event>
 5   0  0.6600166E-05  0.2541409E+04  0.7818609E-02  0.8388380E-01
        2   -1    0    0  501    0  0.00000000000E+00  0.00000000000E+00  0.10227745075E+04  0.10227745075E+04  0.25500000920E-02 0.  1.
       -2   -1    0    0    0  501  0.00000000000E+00  0.00000000000E+00 -0.15787353234E+04  0.15787353234E+04  0.25500000920E-02 0. -1.
    10030    2    1    2    0    0  0.00000000000E+00  0.00000000000E+00 -0.55596081590E+03  0.26015098308E+04  0.25414092490E+04 0.  0.
        5    1    3    3  502    0 -0.35635174516E+03  0.12063572702E+04 -0.93769962042E+02  0.12613878569E+04  0.46999998093E+01 0. -1.
       -5    1    3    3    0  502  0.35635174516E+03 -0.12063572702E+04 -0.46219085386E+03  0.13401219740E+04  0.46999998093E+01 0.  1.
</event>
<event>
 5   0  0.6337926E-05  0.2390051E+04  0.7818609E-02  0.8443238E-01
       -2   -1    0    0    0  501  0.00000000000E+00  0.00000000000E+00  0.13828791442E+04  0.13828791442E+04  0.25500000920E-02 0. -1.
        2   -1    0    0  501    0  0.00000000000E+00  0.00000000000E+00 -0.10326907798E+04  0.10326907798E+04  0.25500000920E-02 0.  1.
    10030    2    1    2    0    0  0.00000000000E+00  0.00000000000E+00  0.35018836439E+03  0.24155699239E+04  0.23900514988E+04 0.  0.
        1    1    3    3  502    0  0.32237918503E+03  0.11471323985E+04  0.26686822790E+03  0.12210895667E+04  0.50400001928E-02 0. -1.
       -1    1    3    3    0  502 -0.32237918503E+03 -0.11471323985E+04  0.83320136487E+02  0.11944803573E+04  0.50400001928E-02 0.  1.
</event>
<event>
 5   0  0.2339125E-05  0.2414795E+04  0.7818609E-02  0.8433985E-01
       -3   -1    0    0    0  501  0.00000000000E+00  0.00000000000E+00  0.68295810067E+03  0.68295810814E+03  0.10100000352E+00 0. -1.
        3   -1    0    0  501    0  0.00000000000E+00  0.00000000000E+00 -0.21345504420E+04  0.21345504444E+04  0.10100000352E+00 0.  1.
    10030    2    1    2    0    0  0.00000000000E+00  0.00000000000E+00 -0.14515923413E+04  0.28175085525E+04  0.24147948398E+04 0.  0.
        3    1    3    3  502    0 -0.57229401284E+03  0.67722497949E+03  0.23042408468E+03  0.91610555013E+03  0.10100000352E+00 0. -1.
       -3    1    3    3    0  502  0.57229401284E+03 -0.67722497949E+03 -0.16820164260E+04  0.19014030024E+04  0.10100000352E+00 0.  1.
</event>
<event>
 5   0  0.6337926E-05  0.2521443E+04  0.7818609E-02  0.8395386E-01
       -2   -1    0    0    0  501  0.00000000000E+00  0.00000000000E+00  0.93144437223E+03  0.93144437223E+03  0.25500000920E-02 0. -1.
        2   -1    0    0  501    0  0.00000000000E+00  0.00000000000E+00 -0.17064024811E+04  0.17064024811E+04  0.25500000920E-02 0.  1.
    10030    2    1    2    0    0  0.00000000000E+00  0.00000000000E+00 -0.77495810892E+03  0.26378468534E+04  0.25214432278E+04 0.  0.
        1    1    3    3  502    0 -0.89688912789E+03  0.40974818503E+03 -0.12093119910E+04  0.15603650773E+04  0.50400001928E-02 0.  1.
       -1    1    3    3    0  502  0.89688912789E+03 -0.40974818503E+03  0.43435388208E+03  0.10774817761E+04  0.50400001928E-02 0. -1.
</event>
<event>
 5   0  0.6714629E-05  0.2384107E+04  0.7818609E-02  0.8445478E-01
       -2   -1    0    0    0  501  0.00000000000E+00  0.00000000000E+00  0.87677779475E+03  0.87677779475E+03  0.25500000920E-02 0. -1.
        2   -1    0    0  501    0  0.00000000000E+00  0.00000000000E+00 -0.16206977047E+04  0.16206977047E+04  0.25500000920E-02 0.  1.
    10030    2    1    2    0    0  0.00000000000E+00  0.00000000000E+00 -0.74391990996E+03  0.24974754995E+04  0.23841071784E+04 0.  0.
        3    1    3    3  502    0  0.72400065966E+03  0.91670963315E+03 -0.12305179246E+03  0.11745957860E+04  0.10100000352E+00 0. -1.
       -3    1    3    3    0  502 -0.72400065966E+03 -0.91670963315E+03 -0.62086811750E+03  0.13228797134E+04  0.10100000352E+00 0.  1.
</event>
<event>
 5   0  0.2901816E-05  0.2446723E+04  0.7818609E-02  0.8422215E-01
       -1   -1    0    0    0  501  0.00000000000E+00  0.00000000000E+00  0.97216801409E+03  0.97216801410E+03  0.50400001928E-02 0.  1.
        1   -1    0    0  501    0  0.00000000000E+00  0.00000000000E+00 -0.15394599225E+04  0.15394599225E+04  0.50400001928E-02 0. -1.
    10030    2    1    2    0    0  0.00000000000E+00  0.00000000000E+00 -0.56729190844E+03  0.25116279366E+04  0.24467232747E+04 0.  0.
        4    1    3    3  502    0  0.74184031243E+03  0.92179706630E+03  0.35363287524E+02  0.11837605567E+04  0.12699999809E+01 0. -1.
       -4    1    3    3    0  502 -0.74184031243E+03 -0.92179706630E+03 -0.60265519597E+03  0.13278673799E+04  0.12699999809E+01 0.  1.
</event>
<event>
 5   0  0.2901816E-05  0.2376373E+04  0.7818609E-02  0.8448403E-01
       -1   -1    0    0    0  501  0.00000000000E+00  0.00000000000E+00  0.61382075144E+03  0.61382075147E+03  0.50400001928E-02 0. -1.
        1   -1    0    0  501    0  0.00000000000E+00  0.00000000000E+00 -0.22999985596E+04  0.22999985596E+04  0.50400001928E-02 0.  1.
    10030    2    1    2    0    0  0.00000000000E+00  0.00000000000E+00 -0.16861778082E+04  0.29138193111E+04  0.23763727353E+04 0.  0.
        4    1    3    3  502    0 -0.41607131672E+03 -0.49949411122E+02  0.52020039286E+03  0.66799726489E+03  0.12699999809E+01 0. -1.
       -4    1    3    3    0  502  0.41607131672E+03  0.49949411122E+02 -0.22063782010E+04  0.22458220462E+04  0.12699999809E+01 0.  1.
</event>
<event>
 5   0  0.2943123E-05  0.2345860E+04  0.7818609E-02  0.8460056E-01
        1   -1    0    0  501    0  0.00000000000E+00  0.00000000000E+00  0.60600079728E+03  0.60600079730E+03  0.50400001928E-02 0.  1.
       -1   -1    0    0    0  501  0.00000000000E+00  0.00000000000E+00 -0.22702358046E+04  0.22702358046E+04  0.50400001928E-02 0. -1.
    10030    2    1    2    0    0  0.00000000000E+00  0.00000000000E+00 -0.16642350073E+04  0.28762366019E+04  0.23458599341E+04 0.  0.
        1    1    3    3  502    0 -0.80706129759E+03 -0.54439058504E+03 -0.16342990239E+04  0.19022729422E+04  0.50400001928E-02 0. -1.
       -1    1    3    3    0  502  0.80706129759E+03  0.54439058504E+03 -0.29935983348E+02  0.97396365963E+03  0.50400001928E-02 0.  1.
</event>
<event>
 5   0  0.6600166E-05  0.2328103E+04  0.7818609E-02  0.8466922E-01
        2   -1    0    0  501    0  0.00000000000E+00  0.00000000000E+00  0.13269072625E+04  0.13269072625E+04  0.25500000920E-02 0. -1.
       -2   -1    0    0    0  501  0.00000000000E+00  0.00000000000E+00 -0.10211834691E+04  0.10211834691E+04  0.25500000920E-02 0.  1.
    10030    2    1    2    0    0  0.00000000000E+00  0.00000000000E+00  0.30572379348E+03  0.23480907316E+04  0.23281028856E+04 0.  0.
        5    1    3    3  502    0 -0.90173796328E+02 -0.34186343573E+03 -0.96570974361E+03  0.10284062043E+04  0.46999998093E+01 0.  1.
       -5    1    3    3    0  502  0.90173796328E+02  0.34186343573E+03  0.12714335371E+04  0.13196845273E+04  0.46999998093E+01 0. -1.
</event>
<event>
 5   0  0.2943123E-05  0.2381448E+04  0.7818609E-02  0.8446482E-01
        1   -1    0    0  501    0  0.00000000000E+00  0.00000000000E+00  0.19391017284E+04  0.19391017284E+04  0.50400001928E-02 0. -1.
       -1   -1    0    0    0  501  0.00000000000E+00  0.00000000000E+00 -0.73117555400E+03  0.73117555402E+03  0.50400001928E-02 0.  1.
    10030    2    1    2    0    0  0.00000000000E+00  0.00000000000E+00  0.12079261744E+04  0.26702772825E+04  0.23814481146E+04 0.  0.
        1    1    3    3  502    0  0.11210564756E+04 -0.31737079265E+03  0.87937890506E+03  0.14597256934E+04  0.50400001928E-02 0.  1.
       -1    1    3    3    0  502 -0.11210564756E+04  0.31737079265E+03  0.32854726939E+03  0.12105515890E+04  0.50400001928E-02 0. -1.
</event>
<event>
 5   0  0.2339125E-05  0.2422608E+04  0.7818609E-02  0.8431088E-01
        3   -1    0    0  501    0  0.00000000000E+00  0.00000000000E+00  0.18993634308E+04  0.18993634335E+04  0.10100000352E+00 0.  1.
       -3   -1    0    0    0  501  0.00000000000E+00  0.00000000000E+00 -0.77249959926E+03  0.77249960586E+03  0.10100000352E+00 0. -1.
    10030    2    1    2    0    0  0.00000000000E+00  0.00000000000E+00  0.11268638316E+04  0.26718630394E+04  0.24226081000E+04 0.  0.
        5    1    3    3  502    0 -0.79937369895E+03  0.75189041486E+03 -0.20576423320E+01  0.10974351145E+04  0.46999998093E+01 0.  1.
       -5    1    3    3    0  502  0.79937369895E+03 -0.75189041486E+03  0.11289214739E+04  0.15744279249E+04  0.46999998093E+01 0. -1.
</event>
<event>
 5   0  0.6600166E-05  0.2094725E+04  0.7818609E-02  0.8563571E-01
       -2   -1    0    0    0  501  0.00000000000E+00  0.00000000000E+00  0.16128410786E+04  0.16128410786E+04  0.25500000920E-02 0. -1.
        2   -1    0    0  501    0  0.00000000000E+00  0.00000000000E+00 -0.68014641963E+03  0.68014641964E+03  0.25500000920E-02 0.  1.
    10030    2    1    2    0    0  0.00000000000E+00  0.00000000000E+00  0.93269465893E+03  0.22929874982E+04  0.20947248841E+04 0.  0.
        5    1    3    3  502    0 -0.14995879336E+03  0.64013682354E+02  0.15988513511E+04  0.16071506227E+04  0.46999998093E+01 0. -1.
       -5    1    3    3    0  502  0.14995879336E+03 -0.64013682354E+02 -0.66615669217E+03  0.68583687547E+03  0.46999998093E+01 0.  1.
</event>
<event>
 5   0  0.6337926E-05  0.2424686E+04  0.7818609E-02  0.8430319E-01
       -2   -1    0    0    0  501  0.00000000000E+00  0.00000000000E+00  0.16371733520E+04  0.16371733520E+04  0.25500000920E-02 0. -1.
        2   -1    0    0  501    0  0.00000000000E+00  0.00000000000E+00 -0.89775175047E+03  0.89775175047E+03  0.25500000920E-02 0.  1.
    10030    2    1    2    0    0  0.00000000000E+00  0.00000000000E+00  0.73942160155E+03  0.25349251025E+04  0.24246857467E+04 0.  0.
        1    1    3    3  502    0  0.86344711066E+03  0.52048687338E+02  0.12577567625E+04  0.15264999353E+04  0.50400001928E-02 0. -1.
       -1    1    3    3    0  502 -0.86344711066E+03 -0.52048687338E+02 -0.51833516095E+03  0.10084251672E+04  0.50400001928E-02 0.  1.
</event>
<event>
 5   0  0.6978115E-05  0.2411213E+04  0.7818609E-02  0.8435317E-01
       -2   -1    0    0    0  501  0.00000000000E+00  0.00000000000E+00  0.67974894333E+03  0.67974894333E+03  0.25500000920E-02 0.  1.
        2   -1    0    0  501    0  0.00000000000E+00  0.00000000000E+00 -0.21382704168E+04  0.21382704168E+04  0.25500000920E-02 0. -1.
    10030    2    1    2    0    0  0.00000000000E+00  0.00000000000E+00 -0.14585214734E+04  0.28180193601E+04  0.24112130195E+04 0.  0.
        4    1    3    3  502    0 -0.86391253472E+03 -0.83062677410E+03 -0.88253502476E+03  0.14883398094E+04  0.12699999809E+01 0.  1.
       -4    1    3    3    0  502  0.86391253472E+03  0.83062677410E+03 -0.57598644868E+03  0.13296795507E+04  0.12699999809E+01 0. -1.
</event>
<event>
 5   0  0.6600166E-05  0.2402750E+04  0.7818609E-02  0.8438475E-01
       -2   -1    0    0    0  501  0.00000000000E+00  0.00000000000E+00  0.15477174472E+04  0.15477174472E+04  0.25500000920E-02 0.  1.
        2   -1    0    0  501    0  0.00000000000E+00  0.00000000000E+00 -0.93253564537E+03  0.93253564537E+03  0.25500000920E-02 0. -1.
    10030    2    1    2    0    0  0.00000000000E+00  0.00000000000E+00  0.61518180185E+03  0.24802530926E+04  0.24027498318E+04 0.  0.
        5    1    3    3  502    0  0.16461498502E+03  0.94217107851E+03 -0.44283523821E+03  0.10539969510E+04  0.46999998093E+01 0. -1.
       -5    1    3    3    0  502 -0.16461498502E+03 -0.94217107851E+03  0.10580170401E+04  0.14262561416E+04  0.46999998093E+01 0.  1.
</event>
<event>
 5   0  0.2901816E-05  0.2357963E+04  0.7818609E-02  0.8455411E-01
        1   -1    0    0  501    0  0.00000000000E+00  0.00000000000E+00  0.10646717980E+04  0.10646717980E+04  0.50400001928E-02 0. -1.
       -1   -1    0    0    0  501  0.00000000000E+00  0.00000000000E+00 -0.13055645928E+04  0.13055645928E+04  0.50400001928E-02 0.  1.
    10030    2    1    2    0    0  0.00000000000E+00  0.00000000000E+00 -0.24089279474E+03  0.23702363908E+04  0.23579633606E+04 0.  0.
        4    1    3    3  502    0 -0.25891151428E+03  0.26479077925E+03 -0.12455787264E+04  0.12994680857E+04  0.12699999809E+01 0.  1.
       -4    1    3    3    0  502  0.25891151428E+03 -0.26479077925E+03  0.10046859317E+04  0.10707683051E+04  0.12699999809E+01 0. -1.
</event>
<event>
 5   0  0.6337926E-05  0.2415682E+04  0.7818609E-02  0.8433656E-01
       -2   -1    0    0    0  501  0.00000000000E+00  0.00000000000E+00  0.11540137791E+04  0.11540137791E+04  0.25500000920E-02 0. -1.
        2   -1    0    0  501    0  0.00000000000E+00  0.00000000000E+00 -0.12641784833E+04  0.12641784833E+04  0.25500000920E-02 0.  1.
    10030    2    1    2    0    0  0.00000000000E+00  0.00000000000E+00 -0.11016470426E+03  0.24181922624E+04  0.24156815924E+04 0.  0.
        1    1    3    3  502    0  0.62270812851E+03  0.90425172991E+03 -0.55903659159E+03  0.12320545910E+04  0.50400001928E-02 0.  1.
       -1    1    3    3    0  502 -0.62270812851E+03 -0.90425172991E+03  0.44887188733E+03  0.11861376714E+04  0.50400001928E-02 0. -1.
</event>
<event>
 5   0  0.2901816E-05  0.2411517E+04  0.7818609E-02  0.8435204E-01
        1   -1    0    0  501    0  0.00000000000E+00  0.00000000000E+00  0.14865103657E+04  0.14865103657E+04  0.50400001928E-02 0.  1.
       -1   -1    0    0    0  501  0.00000000000E+00  0.00000000000E+00 -0.97803148520E+03  0.97803148521E+03  0.50400001928E-02 0. -1.
    10030    2    1    2    0    0  0.00000000000E+00  0.00000000000E+00  0.50847888048E+03  0.24645418509E+04  0.24115173155E+04 0.  0.
        4    1    3    3  502    0  0.70886695949E+03 -0.95940025512E+03  0.43392084219E+03  0.12693423990E+04  0.12699999809E+01 0.  1.
       -4    1    3    3    0  502 -0.70886695949E+03  0.95940025512E+03  0.74558038292E+02  0.11951994519E+04  0.12699999809E+01 0. -1.
</event>
<event>
 5   0  0.2915546E-05  0.2393181E+04  0.7818609E-02  0.8442061E-01
        1   -1    0    0  501    0  0.00000000000E+00  0.00000000000E+00  0.19690004832E+04  0.19690004833E+04  0.50400001928E-02 0. -1.
       -1   -1    0    0    0  501  0.00000000000E+00  0.00000000000E+00 -0.72718580118E+03  0.72718580120E+03  0.50400001928E-02 0.  1.
    10030    2    1    2    0    0  0.00000000000E+00  0.00000000000E+00  0.12418146821E+04  0.26961862845E+04  0.23931813086E+04 0.  0.
        2    1    3    3  502    0  0.19194492741E+03  0.11704192086E+04  0.79941475761E+03  0.14303104326E+04  0.25500000920E-02 0. -1.
       -2    1    3    3    0  502 -0.19194492741E+03 -0.11704192086E+04  0.44239992446E+03  0.12658758518E+04  0.25500000920E-02 0.  1.
</event>
<event>
 5   0  0.2339125E-05  0.2036587E+04  0.7818609E-02  0.8589704E-01
        4   -1    0    0  501    0  0.00000000000E+00  0.00000000000E+00  0.10457530193E+04  0.10457537904E+04  0.12699999809E+01 0. -1.
       -4   -1    0    0    0  501  0.00000000000E+00  0.00000000000E+00 -0.99155332549E+03  0.99155413881E+03  0.12699999809E+01 0.  1.
    10030    2    1    2    0    0  0.00000000000E+00  0.00000000000E+00  0.54199693765E+02  0.20373079292E+04  0.20365868486E+04 0.  0.
        5    1    3    3  502    0  0.70970284969E+03 -0.21114957762E+02 -0.70307326333E+03  0.99922874254E+03  0.46999998093E+01 0.  1.
       -5    1    3    3    0  502 -0.70970284969E+03  0.21114957762E+02  0.75727295709E+03  0.10380791867E+04  0.46999998093E+01 0. -1.
</event>
<event>
 5   0  0.2943123E-05  0.2441097E+04  0.7818609E-02  0.8424276E-01
       -1   -1    0    0    0  501  0.00000000000E+00  0.00000000000E+00  0.13136329828E+04  0.13136329828E+04  0.50400001928E-02 0. -1.
        1   -1    0    0  501    0  0.00000000000E+00  0.00000000000E+00 -0.11340601654E+04  0.11340601654E+04  0.50400001928E-02 0.  1.
    10030    2    1    2    0    0  0.00000000000E+00  0.00000000000E+00  0.17957281738E+03  0.24476931482E+04  0.24410971613E+04 0.  0.
        1    1    3    3  502    0 -0.49345268594E+03 -0.43883695432E+03 -0.93946926201E+03  0.11483361529E+04  0.50400001928E-02 0.  1.
       -1    1    3    3    0  502  0.49345268594E+03  0.43883695432E+03  0.11190420794E+04  0.12993569953E+04  0.50400001928E-02 0. -1.
</event>
<event>
 5   0  0.2901816E-05  0.2434574E+04  0.7818609E-02  0.8426672E-01
       -1   -1    0    0    0  501  0.00000000000E+00  0.00000000000E+00  0.77797362887E+03  0.77797362889E+03  0.50400001928E-02 0.  1.
        1   -1    0    0  501    0  0.00000000000E+00  0.00000000000E+00 -0.19046763183E+04  0.19046763183E+04  0.50400001928E-02 0. -1.
    10030    2    1    2    0    0  0.00000000000E+00  0.00000000000E+00 -0.11267026894E+04  0.26826499472E+04  0.24345742520E+04 0.  0.
        4    1    3    3  502    0 -0.45903658987E+03  0.53645777540E+03 -0.16560002733E+04  0.18002333331E+04  0.12699999809E+01 0. -1.
       -4    1    3    3    0  502  0.45903658987E+03 -0.53645777540E+03  0.52929758386E+03  0.88241661408E+03  0.12699999809E+01 0.  1.
</event>
<event>
 5   0  0.6978115E-05  0.2391572E+04  0.7818609E-02  0.8442665E-01
        2   -1    0    0  501    0  0.00000000000E+00  0.00000000000E+00  0.22950207576E+04  0.22950207576E+04  0.25500000920E-02 0.  1.
       -2   -1    0    0    0  501  0.00000000000E+00  0.00000000000E+00 -0.62304646224E+03  0.62304646225E+03  0.25500000920E-02 0. -1.
    10030    2    1    2    0    0  0.00000000000E+00  0.00000000000E+00  0.16719742954E+04  0.29180672199E+04  0.23915723395E+04 0.  0.
        4    1    3    3  502    0 -0.49490740612E+03  0.60027527850E+03 -0.27202305135E+03  0.82417346716E+03  0.12699999809E+01 0. -1.
       -4    1    3    3    0  502  0.49490740612E+03 -0.60027527850E+03  0.19439973467E+04  0.20938937527E+04  0.12699999809E+01 0.  1.
</event>
<event>
 5   0  0.6978115E-05  0.2422076E+04  0.7818609E-02  0.8431285E-01
       -2   -1    0    0    0  501  0.00000000000E+00  0.00000000000E+00  0.66991962848E+03  0.66991962849E+03  0.25500000920E-02 0. -1.
        2   -1    0    0  501    0  0.00000000000E+00  0.00000000000E+00 -0.21892376836E+04  0.21892376836E+04  0.25500000920E-02 0.  1.
    10030    2    1    2    0    0  0.00000000000E+00  0.00000000000E+00 -0.15193180551E+04  0.28591573121E+04  0.24220762132E+04 0.  0.
        4    1    3    3  502    0  0.94508673204E+02  0.11780231802E+04 -0.44747065407E+03  0.12636859189E+04  0.12699999809E+01 0.  1.
       -4    1    3    3    0  502 -0.94508673204E+02 -0.11780231802E+04 -0.10718474010E+04  0.15954713932E+04  0.12699999809E+01 0. -1.
</event>
<event>
 5   0  0.2847158E-05  0.2399459E+04  0.7818609E-02  0.8439706E-01
        1   -1    0    0  501    0  0.00000000000E+00  0.00000000000E+00  0.10111107359E+04  0.10111107359E+04  0.50400001928E-02 0.  1.
       -1   -1    0    0    0  501  0.00000000000E+00  0.00000000000E+00 -0.14235345137E+04  0.14235345137E+04  0.50400001928E-02 0. -1.
    10030    2    1    2    0    0  0.00000000000E+00  0.00000000000E+00 -0.41242377774E+03  0.24346452496E+04  0.23994591305E+04 0.  0.
        5    1    3    3  502    0  0.95126446302E+03 -0.48527357442E+03 -0.76097847255E+03  0.13112989157E+04  0.46999998093E+01 0. -1.
       -5    1    3    3    0  502 -0.95126446302E+03  0.48527357442E+03  0.34855469481E+03  0.11233463339E+04  0.46999998093E+01 0.  1.
</event>
<event>
 5   0  0.6703961E-05  0.2398124E+04  0.7818609E-02  0.8440206E-01
        2   -1    0    0  501    0  0.00000000000E+00  0.00000000000E+00  0.20303201657E+04  0.20303201657E+04  0.25500000920E-02 0.  1.
       -2   -1    0    0    0  501  0.00000000000E+00  0.00000000000E+00 -0.70813917134E+03  0.70813917135E+03  0.25500000920E-02 0. -1.
    10030    2    1    2    0    0  0.00000000000E+00  0.00000000000E+00  0.13221809944E+04  0.27384593371E+04  0.23981236329E+04 0.  0.
        2    1    3    3  502    0  0.35058771189E+02 -0.36804584086E+03 -0.64142766430E+03  0.74034877385E+03  0.25500000920E-02 0. -1.
       -2    1    3    3    0  502 -0.35058771189E+02  0.36804584086E+03  0.19636086587E+04  0.19981105632E+04  0.25500000920E-02 0.  1.
</event>
<event>
 5   0  0.2847158E-05  0.2332466E+04  0.7818609E-02  0.8465229E-01
       -1   -1    0    0    0  501  0.00000000000E+00  0.00000000000E+00  0.93816792881E+03  0.93816792882E+03  0.50400001928E-02 0. -1.
        1   -1    0    0  501    0  0.00000000000E+00  0.00000000000E+00 -0.14497394738E+04  0.14497394738E+04  0.50400001928E-02 0.  1.
    10030    2    1    2    0    0  0.00000000000E+00  0.00000000000E+00 -0.51157154497E+03  0.23879074026E+04  0.23324657163E+04 0.  0.
        5    1    3    3  502    0  0.90435875530E+03 -0.62192144758E+03  0.14782613464E+03  0.11074862082E+04  0.46999998093E+01 0. -1.
       -5    1    3    3    0  502 -0.90435875530E+03  0.62192144758E+03 -0.65939767961E+03  0.12804211944E+04  0.46999998093E+01 0.  1.
</event>
<event>
 5   0  0.6337926E-05  0.2294476E+04  0.7818609E-02  0.8480102E-01
        2   -1    0    0  501    0  0.00000000000E+00  0.00000000000E+00  0.13132267543E+04  0.13132267543E+04  0.25500000920E-02 0.  1.
       -2   -1    0    0    0  501  0.00000000000E+00  0.00000000000E+00 -0.10022299766E+04  0.10022299766E+04  0.25500000920E-02 0. -1.
    10030    2    1    2    0    0  0.00000000000E+00  0.00000000000E+00  0.31099677778E+03  0.23154567309E+04  0.22944761661E+04 0.  0.
        1    1    3    3  502    0  0.98958285281E+03 -0.55477292850E+03 -0.16672317173E+02  0.11346035391E+04  0.50400001928E-02 0. -1.
       -1    1    3    3    0  502 -0.98958285281E+03  0.55477292850E+03  0.32766909496E+03  0.11808531918E+04  0.50400001928E-02 0.  1.
</event>
<event>
 5   0  0.6978115E-05  0.2347866E+04  0.7818609E-02  0.8459284E-01
        2   -1    0    0  501    0  0.00000000000E+00  0.00000000000E+00  0.16800632423E+04  0.16800632423E+04  0.25500000920E-02 0.  1.
       -2   -1    0    0    0  501  0.00000000000E+00  0.00000000000E+00 -0.82027796306E+03  0.82027796306E+03  0.25500000920E-02 0. -1.
    10030    2    1    2    0    0  0.00000000000E+00  0.00000000000E+00  0.85978527920E+03  0.25003412053E+04  0.23478661411E+04 0.  0.
        4    1    3    3  502    0 -0.12856142173E+02 -0.39551863167E+03 -0.74710528791E+03  0.84543964451E+03  0.12699999809E+01 0. -1.
       -4    1    3    3    0  502  0.12856142173E+02  0.39551863167E+03  0.16068905671E+04  0.16549015608E+04  0.12699999809E+01 0.  1.
</event>
<event>
 5   0  0.2943244E-05  0.2414243E+04  0.7818609E-02  0.8434190E-01
        1   -1    0    0  501    0  0.00000000000E+00  0.00000000000E+00  0.17185026999E+04  0.17185026999E+04  0.50400001928E-02 0.  1.
       -1   -1    0    0    0  501  0.00000000000E+00  0.00000000000E+00 -0.84791419978E+03  0.84791419979E+03  0.50400001928E-02 0. -1.
    10030    2    1    2    0    0  0.00000000000E+00  0.00000000000E+00  0.87058850015E+03  0.25664168997E+04  0.24142434357E+04 0.  0.
        3    1    3    3  502    0 -0.41848551108E+03  0.10928314092E+04  0.12042829452E+03  0.11763985703E+04  0.10100000352E+00 0. -1.
       -3    1    3    3    0  502  0.41848551108E+03 -0.10928314092E+04  0.75016020563E+03  0.13900183294E+04  0.10100000352E+00 0.  1.
</event>
<event>
 5   0  0.6978115E-05  0.1591639E+04  0.7818609E-02  0.8825701E-01
       -2   -1    0    0    0  501  0.00000000000E+00  0.00000000000E+00  0.62827737114E+03  0.62827737115E+03  0.25500000920E-02 0.  1.
        2   -1    0    0  501    0  0.00000000000E+00  0.00000000000E+00 -0.10080393575E+04  0.10080393575E+04  0.25500000920E-02 0. -1.
    10030    2    1    2    0    0  0.00000000000E+00  0.00000000000E+00 -0.37976198634E+03  0.16363167286E+04  0.15916385488E+04 0.  0.
        4    1    3    3  502    0 -0.38234402231E+03 -0.50283243621E+03  0.30775113507E+03  0.70266619695E+03  0.12699999809E+01 0.  1.
       -4    1    3    3    0  502  0.38234402231E+03  0.50283243621E+03 -0.68751312140E+03  0.93365053168E+03  0.12699999809E+01 0. -1.
</event>
<event>
 5   0  0.6600166E-05  0.2405341E+04  0.7818609E-02  0.8437507E-01
       -2   -1    0    0    0  501  0.00000000000E+00  0.00000000000E+00  0.10885898694E+04  0.10885898694E+04  0.25500000920E-02 0. -1.
        2   -1    0    0  501    0  0.00000000000E+00  0.00000000000E+00 -0.13287065504E+04  0.13287065504E+04  0.25500000920E-02 0.  1.
    10030    2    1    2    0    0  0.00000000000E+00  0.00000000000E+00 -0.24011668102E+03  0.24172964198E+04  0.24053411319E+04 0.  0.
        5    1    3    3  502    0 -0.24052309892E+03  0.21424458736E+03 -0.12845419848E+04  0.13243195630E+04  0.46999998093E+01 0.  1.
       -5    1    3    3    0  502  0.24052309892E+03 -0.21424458736E+03  0.10444253038E+04  0.10929768568E+04  0.46999998093E+01 0. -1.
</event>
<event>
 5   0  0.6337926E-05  0.2378575E+04  0.7818609E-02  0.8447569E-01
       -2   -1    0    0    0  501  0.00000000000E+00  0.00000000000E+00  0.22040410730E+04  0.22040410730E+04  0.25500000920E-02 0.  1.
        2   -1    0    0  501    0  0.00000000000E+00  0.00000000000E+00 -0.64173234411E+03  0.64173234411E+03  0.25500000920E-02 0. -1.
    10030    2    1    2    0    0  0.00000000000E+00  0.00000000000E+00  0.15623087289E+04  0.28457734171E+04  0.23785747365E+04 0.  0.
        1    1    3    3  502    0 -0.36055686617E+03 -0.74826577251E+02 -0.57180744868E+03  0.68012059872E+03  0.50400001928E-02 0. -1.
       -1    1    3    3    0  502  0.36055686617E+03  0.74826577251E+02  0.21341161776E+04  0.21656528184E+04  0.50400001928E-02 0.  1.
</event>
<event>
 5   0  0.2901816E-05  0.2312638E+04  0.7818609E-02  0.8472955E-01
        1   -1    0    0  501    0  0.00000000000E+00  0.00000000000E+00  0.12706075390E+04  0.12706075390E+04  0.50400001928E-02 0.  1.
       -1   -1    0    0    0  501  0.00000000000E+00  0.00000000000E+00 -0.10523107307E+04  0.10523107307E+04  0.50400001928E-02 0. -1.
    10030    2    1    2    0    0  0.00000000000E+00  0.00000000000E+00  0.21829680826E+03  0.23229182697E+04  0.23126382751E+04 0.  0.
        4    1    3    3  502    0  0.66793878440E+02  0.44414914470E+03  0.11794093021E+04  0.12620371625E+04  0.12699999809E+01 0.  1.
       -4    1    3    3    0  502 -0.66793878440E+02 -0.44414914470E+03 -0.96111249381E+03  0.10608811072E+04  0.12699999809E+01 0. -1.
</event>
<event>
 5   0  0.6337926E-05  0.2010362E+04  0.7818609E-02  0.8601791E-01
        2   -1    0    0  501    0  0.00000000000E+00  0.00000000000E+00  0.19461006399E+04  0.19461006399E+04  0.25500000920E-02 0.  1.
       -2   -1    0    0    0  501  0.00000000000E+00  0.00000000000E+00 -0.51918654046E+03  0.51918654046E+03  0.25500000920E-02 0. -1.
    10030    2    1    2    0    0  0.00000000000E+00  0.00000000000E+00  0.14269140995E+04  0.24652871804E+04  0.20103624137E+04 0.  0.
        1    1    3    3  502    0 -0.12958024011E+03 -0.68786763480E+03 -0.17120412376E+03  0.72059959315E+03  0.50400001928E-02 0. -1.
       -1    1    3    3    0  502  0.12958024011E+03  0.68786763480E+03  0.15981182232E+04  0.17446875872E+04  0.50400001928E-02 0.  1.
</event>
<event>
 5   0  0.2915546E-05  0.2404960E+04  0.7818609E-02  0.8437649E-01
        1   -1    0    0  501    0  0.00000000000E+00  0.00000000000E+00  0.20130390580E+04  0.20130390580E+04  0.50400001928E-02 0. -1.
       -1   -1    0    0    0  501  0.00000000000E+00  0.00000000000E+00 -0.71829638364E+03  0.71829638366E+03  0.50400001928E-02 0.  1.
    10030    2    1    2    0    0  0.00000000000E+00  0.00000000000E+00  0.12947426744E+04  0.27313354417E+04  0.24049604367E+04 0.  0.
        2    1    3    3  502    0  0.10257958626E+04  0.45542392119E+03  0.15718348274E+03  0.11333025840E+04  0.25500000920E-02 0. -1.
       -2    1    3    3    0  502 -0.10257958626E+04 -0.45542392119E+03  0.11375591916E+04  0.15980328577E+04  0.25500000920E-02 0.  1.
</event>
<event>
 5   0  0.6714629E-05  0.2354700E+04  0.7818609E-02  0.8456661E-01
        2   -1    0    0  501    0  0.00000000000E+00  0.00000000000E+00  0.14042347771E+04  0.14042347771E+04  0.25500000920E-02 0. -1.
       -2   -1    0    0    0  501  0.00000000000E+00  0.00000000000E+00 -0.98712301562E+03  0.98712301563E+03  0.25500000920E-02 0.  1.
    10030    2    1    2    0    0  0.00000000000E+00  0.00000000000E+00  0.41711176144E+03  0.23913577927E+04  0.23546995288E+04 0.  0.
        3    1    3    3  502    0 -0.69757797401E+03  0.44973880560E+03  0.10565841133E+04  0.13435959295E+04  0.10100000352E+00 0. -1.
       -3    1    3    3    0  502  0.69757797401E+03 -0.44973880560E+03 -0.63947235182E+03  0.10477618632E+04  0.10100000352E+00 0.  1.
</event>
<event>
 5   0  0.2901816E-05  0.2413817E+04  0.7818609E-02  0.8434349E-01
        1   -1    0    0  501    0  0.00000000000E+00  0.00000000000E+00  0.20757254919E+04  0.20757254919E+04  0.50400001928E-02 0.  1.
       -1   -1    0    0    0  501  0.00000000000E+00  0.00000000000E+00 -0.70174400612E+03  0.70174400614E+03  0.50400001928E-02 0. -1.
    10030    2    1    2    0    0  0.00000000000E+00  0.00000000000E+00  0.13739814857E+04  0.27774694980E+04  0.24138168301E+04 0.  0.
        4    1    3    3  502    0  0.10332493915E+04  0.62369772674E+03  0.68145442813E+03  0.13859959992E+04  0.12699999809E+01 0. -1.
       -4    1    3    3    0  502 -0.10332493915E+04 -0.62369772674E+03  0.69252705760E+03  0.13914734988E+04  0.12699999809E+01 0.  1.
</event>
<event>
 5   0  0.2901816E-05  0.2477498E+04  0.7818609E-02  0.8411046E-01
        1   -1    0    0  501    0  0.00000000000E+00  0.00000000000E+00  0.13342369557E+04  0.13342369557E+04  0.50400001928E-02 0. -1.
       -1   -1    0    0    0  501  0.00000000000E+00  0.00000000000E+00 -0.11500950195E+04  0.11500950195E+04  0.50400001928E-02 0.  1.
    10030    2    1    2    0    0  0.00000000000E+00  0.00000000000E+00  0.18414193626E+03  0.24843319752E+04  0.24774981555E+04 0.  0.
        4    1    3    3  502    0 -0.11859214315E+03 -0.43515932888E+03  0.12489733760E+04  0.13279171076E+04  0.12699999809E+01 0. -1.
       -4    1    3    3    0  502  0.11859214315E+03  0.43515932888E+03 -0.10648314397E+04  0.11564148675E+04  0.12699999809E+01 0.  1.
</event>
<event>
 5   0  0.6337926E-05  0.2184671E+04  0.7818609E-02  0.8524836E-01
       -2   -1    0    0    0  501  0.00000000000E+00  0.00000000000E+00  0.89849330609E+03  0.89849330609E+03  0.25500000920E-02 0.  1.
        2   -1    0    0  501    0  0.00000000000E+00  0.00000000000E+00 -0.13279974343E+04  0.13279974343E+04  0.25500000920E-02 0. -1.
    10030    2    1    2    0    0  0.00000000000E+00  0.00000000000E+00 -0.42950412822E+03  0.22264907404E+04  0.21846709640E+04 0.  0.
        1    1    3    3  502    0 -0.20220151869E+03  0.10699650198E+04 -0.12657293870E+03  0.10962350599E+04  0.50400001928E-02 0.  1.
       -1    1    3    3    0  502  0.20220151869E+03 -0.10699650198E+04 -0.30293118951E+03  0.11302556805E+04  0.50400001928E-02 0. -1.
</event>
<event>
 5   0  0.6978115E-05  0.2386934E+04  0.7818609E-02  0.8444411E-01
       -2   -1    0    0    0  501  0.00000000000E+00  0.00000000000E+00  0.74581874861E+03  0.74581874861E+03  0.25500000920E-02 0. -1.
        2   -1    0    0  501    0  0.00000000000E+00  0.00000000000E+00 -0.19097990742E+04  0.19097990742E+04  0.25500000920E-02 0.  1.
    10030    2    1    2    0    0  0.00000000000E+00  0.00000000000E+00 -0.11639803256E+04  0.26556178228E+04  0.23869343985E+04 0.  0.
        4    1    3    3  502    0 -0.92020048512E+03 -0.32855711202E+03 -0.13444365510E+04  0.16619957765E+04  0.12699999809E+01 0.  1.
       -4    1    3    3    0  502  0.92020048512E+03  0.32855711202E+03  0.18045622540E+03  0.99362204628E+03  0.12699999809E+01 0. -1.
</event>
<event>
 5   0  0.2847158E-05  0.2408137E+04  0.7818609E-02  0.8436463E-01
       -1   -1    0    0    0  501  0.00000000000E+00  0.00000000000E+00  0.71074657652E+03  0.71074657654E+03  0.50400001928E-02 0.  1.
        1   -1    0    0  501    0  0.00000000000E+00  0.00000000000E+00 -0.20398003163E+04  0.20398003163E+04  0.50400001928E-02 0. -1.
    10030    2    1    2    0    0  0.00000000000E+00  0.00000000000E+00 -0.13290537398E+04  0.27505468928E+04  0.24081371154E+04 0.  0.
        5    1    3    3  502    0 -0.73994290720E+03  0.94822494132E+03 -0.60079974009E+03  0.13444807410E+04  0.46999998093E+01 0. -1.
       -5    1    3    3    0  502  0.73994290720E+03 -0.94822494132E+03 -0.72825399966E+03  0.14060661518E+04  0.46999998093E+01 0.  1.
</event>
<event>
 5   0  0.6337926E-05  0.2512475E+04  0.7818609E-02  0.8398555E-01
        2   -1    0    0  501    0  0.00000000000E+00  0.00000000000E+00  0.18857613060E+04  0.18857613060E+04  0.25500000920E-02 0.  1.
       -2   -1    0    0    0  501  0.00000000000E+00  0.00000000000E+00 -0.83686754315E+03  0.83686754315E+03  0.25500000920E-02 0. -1.
    10030    2    1    2    0    0  0.00000000000E+00  0.00000000000E+00  0.10488937628E+04  0.27226288491E+04  0.25124748207E+04 0.  0.
        1    1    3    3  502    0 -0.51647006814E+03 -0.11169100279E+04  0.79838196138E+03  0.14668480146E+04  0.50400001928E-02 0.  1.
       -1    1    3    3    0  502  0.51647006814E+03  0.11169100279E+04  0.25051180146E+03  0.12557808345E+04  0.50400001928E-02 0. -1.
</event>
<event>
 5   0  0.6714629E-05  0.2284169E+04  0.7818609E-02  0.8484189E-01
        2   -1    0    0  501    0  0.00000000000E+00  0.00000000000E+00  0.13883776898E+04  0.13883776898E+04  0.25500000920E-02 0.  1.
       -2   -1    0    0    0  501  0.00000000000E+00  0.00000000000E+00 -0.93948309368E+03  0.93948309368E+03  0.25500000920E-02 0. -1.
    10030    2    1    2    0    0  0.00000000000E+00  0.00000000000E+00  0.44889459608E+03  0.23278607834E+04  0.22841693170E+04 0.  0.
        3    1    3    3  502    0 -0.57052286168E+03 -0.48978913300E+03 -0.65162796346E+03  0.99499183085E+03  0.10100000352E+00 0. -1.
       -3    1    3    3    0  502  0.57052286168E+03  0.48978913300E+03  0.11005225595E+04  0.13328689526E+04  0.10100000352E+00 0.  1.
</event>
<event>
 5   0  0.2943123E-05  0.2407971E+04  0.7818609E-02  0.8436525E-01
       -1   -1    0    0    0  501  0.00000000000E+00  0.00000000000E+00  0.62191283581E+03  0.62191283583E+03  0.50400001928E-02 0.  1.
        1   -1    0    0  501    0  0.00000000000E+00  0.00000000000E+00 -0.23308433428E+04  0.23308433429E+04  0.50400001928E-02 0. -1.
    10030    2    1    2    0    0  0.00000000000E+00  0.00000000000E+00 -0.17089305070E+04  0.29527561787E+04  0.24079712566E+04 0.  0.
        1    1    3    3  502    0 -0.61514868217E+03  0.34202780227E+02 -0.21229023078E+04  0.22104958583E+04  0.50400001928E-02 0.  1.
       -1    1    3    3    0  502  0.61514868217E+03 -0.34202780227E+02  0.41397180072E+03  0.74226032035E+03  0.50400001928E-02 0. -1.
</event>
<event>
 5   0  0.2901816E-05  0.2384763E+04  0.7818609E-02  0.8445230E-01
       -1   -1    0    0    0  501  0.00000000000E+00  0.00000000000E+00  0.59851256217E+03  0.59851256219E+03  0.50400001928E-02 0. -1.
        1   -1    0    0  501    0  0.00000000000E+00  0.00000000000E+00 -0.23755118449E+04  0.23755118449E+04  0.50400001928E-02 0.  1.
    10030    2    1    2    0    0  0.00000000000E+00  0.00000000000E+00 -0.17769992828E+04  0.29740244071E+04  0.23847630329E+04 0.  0.
        4    1    3    3  502    0  0.57924124773E+03  0.18360515852E+03 -0.21679362270E+04  0.22514840383E+04  0.12699999809E+01 0.  1.
       -4    1    3    3    0  502 -0.57924124773E+03 -0.18360515852E+03  0.39093694426E+03  0.72254036884E+03  0.12699999809E+01 0. -1.
</event>
<event>
 5   0  0.2943244E-05  0.2446567E+04  0.7818609E-02  0.8422272E-01
       -1   -1    0    0    0  501  0.00000000000E+00  0.00000000000E+00  0.74158230366E+03  0.74158230368E+03  0.50400001928E-02 0. -1.
        1   -1    0    0  501    0  0.00000000000E+00  0.00000000000E+00 -0.20178785562E+04  0.20178785562E+04  0.50400001928E-02 0.  1.
    10030    2    1    2    0    0  0.00000000000E+00  0.00000000000E+00 -0.12762962525E+04  0.27594608599E+04  0.24465674144E+04 0.  0.
        3    1    3    3  502    0  0.16859899096E+03 -0.51978304621E+03  0.59627307523E+03  0.80879022331E+03  0.10100000352E+00 0. -1.
       -3    1    3    3    0  502 -0.16859899096E+03  0.51978304621E+03 -0.18725693278E+04  0.19506706366E+04  0.10100000352E+00 0.  1.
</event>
<event>
 5   0  0.2847158E-05  0.2411090E+04  0.7818609E-02  0.8435363E-01
       -1   -1    0    0    0  501  0.00000000000E+00  0.00000000000E+00  0.63615399955E+03  0.63615399957E+03  0.50400001928E-02 0. -1.
        1   -1    0    0  501    0  0.00000000000E+00  0.00000000000E+00 -0.22845709751E+04  0.22845709751E+04  0.50400001928E-02 0.  1.
    10030    2    1    2    0    0  0.00000000000E+00  0.00000000000E+00 -0.16484169755E+04  0.29207249747E+04  0.24110901792E+04 0.  0.
        5    1    3    3  502    0 -0.86395220425E+03 -0.69637509977E+03 -0.25349302665E+03  0.11382585363E+04  0.46999998093E+01 0. -1.
       -5    1    3    3    0  502  0.86395220425E+03  0.69637509977E+03 -0.13949239489E+04  0.17824664384E+04  0.46999998093E+01 0.  1.
</event>
<event>
 5   0  0.2943244E-05  0.2021714E+04  0.7818609E-02  0.8596535E-01
       -1   -1    0    0    0  501  0.00000000000E+00  0.00000000000E+00  0.67131399156E+03  0.67131399158E+03  0.50400001928E-02 0.  1.
        1   -1    0    0  501    0  0.00000000000E+00  0.00000000000E+00 -0.15221372661E+04  0.15221372661E+04  0.50400001928E-02 0. -1.
    10030    2    1    2    0    0  0.00000000000E+00  0.00000000000E+00 -0.85082327450E+03  0.21934512576E+04  0.20217141675E+04 0.  0.
        3    1    3    3  502    0 -0.82482051184E+02 -0.23052043195E+03  0.63865966291E+03  0.68398036049E+03  0.10100000352E+00 0.  1.
       -3    1    3    3    0  502  0.82482051184E+02  0.23052043195E+03 -0.14894829374E+04  0.15094708971E+04  0.10100000352E+00 0. -1.
</event>
<event>
 5   0  0.6978115E-05  0.2407163E+04  0.7818609E-02  0.8436827E-01
       -2   -1    0    0    0  501  0.00000000000E+00  0.00000000000E+00  0.13831267318E+04  0.13831267318E+04  0.25500000920E-02 0. -1.
        2   -1    0    0  501    0  0.00000000000E+00  0.00000000000E+00 -0.10473431333E+04  0.10473431333E+04  0.25500000920E-02 0.  1.
    10030    2    1    2    0    0  0.00000000000E+00  0.00000000000E+00  0.33578359852E+03  0.24304698651E+04  0.24071628819E+04 0.  0.
        4    1    3    3  502    0 -0.86849133565E+03 -0.50716258509E+01 -0.67342491755E+03  0.10990021174E+04  0.12699999809E+01 0.  1.
       -4    1    3    3    0  502  0.86849133565E+03  0.50716258509E+01  0.10092085161E+04  0.13314677478E+04  0.12699999809E+01 0. -1.
</event>
<event>
 5   0  0.6337926E-05  0.2363701E+04  0.7818609E-02  0.8453220E-01
        2   -1    0    0  501    0  0.00000000000E+00  0.00000000000E+00  0.14616136395E+04  0.14616136395E+04  0.25500000920E-02 0.  1.
       -2   -1    0    0    0  501  0.00000000000E+00  0.00000000000E+00 -0.95563625725E+03  0.95563625726E+03  0.25500000920E-02 0. -1.
    10030    2    1    2    0    0  0.00000000000E+00  0.00000000000E+00  0.50597738224E+03  0.24172498968E+04  0.23637013246E+04 0.  0.
        1    1    3    3  502    0  0.27367128920E+03 -0.11017258329E+04  0.58918425681E+03  0.12789972142E+04  0.50400001928E-02 0.  1.
       -1    1    3    3    0  502 -0.27367128920E+03  0.11017258329E+04 -0.83206874572E+02  0.11382526826E+04  0.50400001928E-02 0. -1.
</event>
<event>
 5   0  0.2915546E-05  0.2416051E+04  0.7818609E-02  0.8433519E-01
       -1   -1    0    0    0  501  0.00000000000E+00  0.00000000000E+00  0.61894507321E+03  0.61894507324E+03  0.50400001928E-02 0.  1.
        1   -1    0    0  501    0  0.00000000000E+00  0.00000000000E+00 -0.23577621902E+04  0.23577621902E+04  0.50400001928E-02 0. -1.
    10030    2    1    2    0    0  0.00000000000E+00  0.00000000000E+00 -0.17388171170E+04  0.29767072635E+04  0.24160507375E+04 0.  0.
        2    1    3    3  502    0 -0.93498122851E+02  0.10133164470E+03 -0.23480363424E+04  0.23520809226E+04  0.25500000920E-02 0. -1.
       -2    1    3    3    0  502  0.93498122851E+02 -0.10133164470E+03  0.60921922536E+03  0.62462634090E+03  0.25500000920E-02 0.  1.
</event>
<event>
 5   0  0.6600166E-05  0.2344633E+04  0.7818609E-02  0.8460528E-01
       -2   -1    0    0    0  501  0.00000000000E+00  0.00000000000E+00  0.13606465130E+04  0.13606465130E+04  0.25500000920E-02 0. -1.
        2   -1    0    0  501    0  0.00000000000E+00  0.00000000000E+00 -0.10100539250E+04  0.10100539250E+04  0.25500000920E-02 0.  1.
    10030    2    1    2    0    0  0.00000000000E+00  0.00000000000E+00  0.35059258799E+03  0.23707004379E+04  0.23446333197E+04 0.  0.
        5    1    3    3  502    0  0.48187501052E+03  0.94379978811E+03  0.68221098909E+03  0.12603156309E+04  0.46999998093E+01 0.  1.
       -5    1    3    3    0  502 -0.48187501052E+03 -0.94379978811E+03 -0.33161840110E+03  0.11103848071E+04  0.46999998093E+01 0. -1.
</event>
<event>
 5   0  0.2915546E-05  0.2394017E+04  0.7818609E-02  0.8441747E-01
        1   -1    0    0  501    0  0.00000000000E+00  0.00000000000E+00  0.10069109459E+04  0.10069109459E+04  0.50400001928E-02 0.  1.
       -1   -1    0    0    0  501  0.00000000000E+00  0.00000000000E+00 -0.14229952954E+04  0.14229952954E+04  0.50400001928E-02 0. -1.
    10030    2    1    2    0    0  0.00000000000E+00  0.00000000000E+00 -0.41608434944E+03  0.24299062413E+04  0.23940171586E+04 0.  0.
        2    1    3    3  502    0 -0.91257292635E+03  0.33882021924E+03  0.49899300855E+03  0.10938841390E+04  0.25500000920E-02 0.  1.
       -2    1    3    3    0  502  0.91257292635E+03 -0.33882021924E+03 -0.91507735800E+03  0.13360221024E+04  0.25500000920E-02 0. -1.
</event>
<event>
 5   0  0.6703961E-05  0.2316257E+04  0.7818609E-02  0.8471539E-01
        2   -1    0    0  501    0  0.00000000000E+00  0.00000000000E+00  0.18360906582E+04  0.18360906582E+04  0.25500000920E-02 0.  1.
       -2   -1    0    0    0  501  0.00000000000E+00  0.00000000000E+00 -0.73049829720E+03  0.73049829720E+03  0.25500000920E-02 0. -1.
    10030    2    1    2    0    0  0.00000000000E+00  0.00000000000E+00  0.11055923610E+04  0.25665889554E+04  0.23162565483E+04 0.  0.
        2    1    3    3  502    0 -0.42059835405E+03 -0.69778365321E+03 -0.35923616057E+03  0.89042440510E+03  0.25500000920E-02 0. -1.
       -2    1    3    3    0  502  0.42059835405E+03  0.69778365321E+03  0.14648285216E+04  0.16761645503E+04  0.25500000920E-02 0.  1.
</event>
<event>
 5   0  0.6714629E-05  0.2400163E+04  0.7818609E-02  0.8439442E-01
        2   -1    0    0  501    0  0.00000000000E+00  0.00000000000E+00  0.79170356953E+03  0.79170356954E+03  0.25500000920E-02 0.  1.
       -2   -1    0    0    0  501  0.00000000000E+00  0.00000000000E+00 -0.18191099764E+04  0.18191099764E+04  0.25500000920E-02 0. -1.
    10030    2    1    2    0    0  0.00000000000E+00  0.00000000000E+00 -0.10274064069E+04  0.26108135460E+04  0.24001632125E+04 0.  0.
        3    1    3    3  502    0 -0.77412633368E+03  0.85918551501E+03 -0.16506727064E+03  0.11682116862E+04  0.10100000352E+00 0.  1.
       -3    1    3    3    0  502  0.77412633368E+03 -0.85918551501E+03 -0.86233913625E+03  0.14426018598E+04  0.10100000352E+00 0. -1.
</event>
<event>
 5   0  0.2339125E-05  0.2703944E+04  0.7818609E-02  0.8333727E-01
        3   -1    0    0  501    0  0.00000000000E+00  0.00000000000E+00  0.77542626840E+03  0.77542627498E+03  0.10100000352E+00 0.  1.
       -3   -1    0    0    0  501  0.00000000000E+00  0.00000000000E+00 -0.23571910099E+04  0.23571910121E+04  0.10100000352E+00 0. -1.
    10030    2    1    2    0    0  0.00000000000E+00  0.00000000000E+00 -0.15817647416E+04  0.31326172871E+04  0.27039436699E+04 0.  0.
        3    1    3    3  502    0 -0.32480645231E+03  0.56179648892E+03  0.58319914666E+03  0.87248827000E+03  0.10100000352E+00 0.  1.
       -3    1    3    3    0  502  0.32480645231E+03 -0.56179648892E+03 -0.21649638882E+04  0.22601290171E+04  0.10100000352E+00 0. -1.
</event>
<event>
 5   0  0.6337926E-05  0.2338810E+04  0.7818609E-02  0.8462774E-01
        2   -1    0    0  501    0  0.00000000000E+00  0.00000000000E+00  0.17027375699E+04  0.17027375699E+04  0.25500000920E-02 0.  1.
       -2   -1    0    0    0  501  0.00000000000E+00  0.00000000000E+00 -0.80312329787E+03  0.80312329787E+03  0.25500000920E-02 0. -1.
    10030    2    1    2    0    0  0.00000000000E+00  0.00000000000E+00  0.89961427199E+03  0.25058608677E+04  0.23388101355E+04 0.  0.
        1    1    3    3  502    0 -0.71637033970E+03  0.91491412290E+03  0.59054325883E+03  0.13034552760E+04  0.50400001928E-02 0. -1.
       -1    1    3    3    0  502  0.71637033970E+03 -0.91491412290E+03  0.30907101317E+03  0.12024055918E+04  0.50400001928E-02 0.  1.
</event>
<event>
 5   0  0.6978115E-05  0.2391719E+04  0.7818609E-02  0.8442610E-01
        2   -1    0    0  501    0  0.00000000000E+00  0.00000000000E+00  0.13121421244E+04  0.13121421244E+04  0.25500000920E-02 0. -1.
       -2   -1    0    0    0  501  0.00000000000E+00  0.00000000000E+00 -0.10898816756E+04  0.10898816756E+04  0.25500000920E-02 0.  1.
    10030    2    1    2    0    0  0.00000000000E+00  0.00000000000E+00  0.22226044873E+03  0.24020238000E+04  0.23917187604E+04 0.  0.
        4    1    3    3  502    0  0.94075038140E+03 -0.65819172870E+02 -0.62738469999E+03  0.11326767493E+04  0.12699999809E+01 0.  1.
       -4    1    3    3    0  502 -0.94075038140E+03  0.65819172870E+02  0.84964514872E+03  0.12693470508E+04  0.12699999809E+01 0. -1.
</event>
<event>
 5   0  0.2847158E-05  0.2346229E+04  0.7818609E-02  0.8459914E-01
        1   -1    0    0  501    0  0.00000000000E+00  0.00000000000E+00  0.16108706725E+04  0.16108706726E+04  0.50400001928E-02 0.  1.
       -1   -1    0    0    0  501  0.00000000000E+00  0.00000000000E+00 -0.85431898762E+03  0.85431898764E+03  0.50400001928E-02 0. -1.
    10030    2    1    2    0    0  0.00000000000E+00  0.00000000000E+00  0.75655168492E+03  0.24651896602E+04  0.23462288057E+04 0.  0.
        5    1    3    3  502    0  0.63429354240E+03  0.77256216913E+03 -0.26685469902E+03  0.10346081981E+04  0.46999998093E+01 0. -1.
       -5    1    3    3    0  502 -0.63429354240E+03 -0.77256216913E+03  0.10234063839E+04  0.14305814621E+04  0.46999998093E+01 0.  1.
</event>
<event>
 5   0  0.2901816E-05  0.2392844E+04  0.7818609E-02  0.8442187E-01
       -1   -1    0    0    0  501  0.00000000000E+00  0.00000000000E+00  0.72954676540E+03  0.72954676542E+03  0.50400001928E-02 0.  1.
        1   -1    0    0  501    0  0.00000000000E+00  0.00000000000E+00 -0.19620759349E+04  0.19620759349E+04  0.50400001928E-02 0. -1.
    10030    2    1    2    0    0  0.00000000000E+00  0.00000000000E+00 -0.12325291695E+04  0.26916227003E+04  0.23928444595E+04 0.  0.
        4    1    3    3  502    0  0.40815922454E+01 -0.11111065558E+04 -0.11718760961E+03  0.11172774886E+04  0.12699999809E+01 0.  1.
       -4    1    3    3    0  502 -0.40815922454E+01  0.11111065558E+04 -0.11153415599E+04  0.15743452118E+04  0.12699999809E+01 0. -1.
</event>
<event>
 5   0  0.2847158E-05  0.2666509E+04  0.7818609E-02  0.8345954E-01
       -1   -1    0    0    0  501  0.00000000000E+00  0.00000000000E+00  0.81257640618E+03  0.81257640620E+03  0.50400001928E-02 0.  1.
        1   -1    0    0  501    0  0.00000000000E+00  0.00000000000E+00 -0.21875700729E+04  0.21875700729E+04  0.50400001928E-02 0. -1.
    10030    2    1    2    0    0  0.00000000000E+00  0.00000000000E+00 -0.13749936668E+04  0.30001464791E+04  0.26665091998E+04 0.  0.
        5    1    3    3  502    0 -0.96633973073E+03 -0.64622203805E+03  0.46967315160E+02  0.11634618242E+04  0.46999998093E+01 0.  1.
       -5    1    3    3    0  502  0.96633973073E+03  0.64622203805E+03 -0.14219609819E+04  0.18366846550E+04  0.46999998093E+01 0. -1.
</event>
<event>
 5   0  0.6714629E-05  0.2377535E+04  0.7818609E-02  0.8447962E-01
       -2   -1    0    0    0  501  0.00000000000E+00  0.00000000000E+00  0.10237359035E+04  0.10237359035E+04  0.25500000920E-02 0.  1.
        2   -1    0    0  501    0  0.00000000000E+00  0.00000000000E+00 -0.13804024781E+04  0.13804024781E+04  0.25500000920E-02 0. -1.
    10030    2    1    2    0    0  0.00000000000E+00  0.00000000000E+00 -0.35666657457E+03  0.24041383816E+04  0.23775345029E+04 0.  0.
        3    1    3    3  502    0  0.42404710502E+03 -0.17415563483E+03 -0.12874297409E+04  0.13666094835E+04  0.10100000352E+00 0. -1.
       -3    1    3    3    0  502 -0.42404710502E+03  0.17415563483E+03  0.93076316631E+03  0.10375288981E+04  0.10100000352E+00 0.  1.
</event>
<event>
 5   0  0.6703961E-05  0.2377104E+04  0.7818609E-02  0.8448125E-01
        2   -1    0    0  501    0  0.00000000000E+00  0.00000000000E+00  0.15370418960E+04  0.15370418960E+04  0.25500000920E-02 0. -1.
       -2   -1    0    0    0  501  0.00000000000E+00  0.00000000000E+00 -0.91907459125E+03  0.91907459125E+03  0.25500000920E-02 0.  1.
    10030    2    1    2    0    0  0.00000000000E+00  0.00000000000E+00  0.61796730471E+03  0.24561164872E+04  0.23771042487E+04 0.  0.
        2    1    3    3  502    0 -0.95234192933E+03 -0.38168846765E+03 -0.31097250711E+03  0.10720751545E+04  0.25500000920E-02 0.  1.
       -2    1    3    3    0  502  0.95234192933E+03  0.38168846765E+03  0.92893981181E+03  0.13840413327E+04  0.25500000920E-02 0. -1.
</event>
<event>
 5   0  0.6600166E-05  0.2340049E+04  0.7818609E-02  0.8462296E-01
        2   -1    0    0  501    0  0.00000000000E+00  0.00000000000E+00  0.13763187813E+04  0.13763187813E+04  0.25500000920E-02 0.  1.
       -2   -1    0    0    0  501  0.00000000000E+00  0.00000000000E+00 -0.99465093146E+03  0.99465093146E+03  0.25500000920E-02 0. -1.
    10030    2    1    2    0    0  0.00000000000E+00  0.00000000000E+00  0.38166784988E+03  0.23709697128E+04  0.23400485105E+04 0.  0.
        5    1    3    3  502    0  0.21615310792E+03  0.42631550516E+03 -0.89120434146E+03  0.10113032899E+04  0.46999998093E+01 0. -1.
       -5    1    3    3    0  502 -0.21615310792E+03 -0.42631550516E+03  0.12728721913E+04  0.13596664229E+04  0.46999998093E+01 0.  1.
</event>
<event>
 5   0  0.2901816E-05  0.2394131E+04  0.7818609E-02  0.8441704E-01
        1   -1    0    0  501    0  0.00000000000E+00  0.00000000000E+00  0.23706712041E+04  0.23706712041E+04  0.50400001928E-02 0.  1.
       -1   -1    0    0    0  501  0.00000000000E+00  0.00000000000E+00 -0.60445556152E+03  0.60445556154E+03  0.50400001928E-02 0. -1.
    10030    2    1    2    0    0  0.00000000000E+00  0.00000000000E+00  0.17662156426E+04  0.29751267657E+04  0.23941306513E+04 0.  0.
        4    1    3    3  502    0 -0.53348542234E+03 -0.16870334646E+03  0.21981707237E+04  0.22682644595E+04  0.12699999809E+01 0.  1.
       -4    1    3    3    0  502  0.53348542234E+03  0.16870334646E+03 -0.43195508104E+03  0.70686230618E+03  0.12699999809E+01 0. -1.
</event>
<event>
 5   0  0.2943123E-05  0.2538806E+04  0.7818609E-02  0.8389290E-01
        1   -1    0    0  501    0  0.00000000000E+00  0.00000000000E+00  0.17862170122E+04  0.17862170122E+04  0.50400001928E-02 0. -1.
       -1   -1    0    0    0  501  0.00000000000E+00  0.00000000000E+00 -0.90212073724E+03  0.90212073726E+03  0.50400001928E-02 0.  1.
    10030    2    1    2    0    0  0.00000000000E+00  0.00000000000E+00  0.88409627494E+03  0.26883377494E+04  0.25388055522E+04 0.  0.
        1    1    3    3  502    0 -0.11936409664E+04  0.30907480776E+03  0.12248274745E+03  0.12390754686E+04  0.50400001928E-02 0. -1.
       -1    1    3    3    0  502  0.11936409664E+04 -0.30907480776E+03  0.76161352748E+03  0.14492622808E+04  0.50400001928E-02 0.  1.
</event>
<event>
 5   0  0.6703961E-05  0.2394772E+04  0.7818609E-02  0.8441464E-01
        2   -1    0    0  501    0  0.00000000000E+00  0.00000000000E+00  0.12820612734E+04  0.12820612734E+04  0.25500000920E-02 0.  1.
       -2   -1    0    0    0  501  0.00000000000E+00  0.00000000000E+00 -0.11183028286E+04  0.11183028286E+04  0.25500000920E-02 0. -1.
    10030    2    1    2    0    0  0.00000000000E+00  0.00000000000E+00  0.16375844476E+03  0.24003641020E+04  0.23947715953E+04 0.  0.
        2    1    3    3  502    0 -0.33448067329E+03 -0.36521498730E+03  0.11745963874E+04  0.12747297679E+04  0.25500000920E-02 0.  1.
       -2    1    3    3    0  502  0.33448067329E+03  0.36521498730E+03 -0.10108379427E+04  0.11256343341E+04  0.25500000920E-02 0. -1.
</event>
<event>
 5   0  0.2339125E-05  0.2543280E+04  0.7818609E-02  0.8387727E-01
       -3   -1    0    0    0  501  0.00000000000E+00  0.00000000000E+00  0.17949216925E+04  0.17949216954E+04  0.10100000352E+00 0. -1.
        3   -1    0    0  501    0  0.00000000000E+00  0.00000000000E+00 -0.90091309396E+03  0.90091309962E+03  0.10100000352E+00 0.  1.
    10030    2    1    2    0    0  0.00000000000E+00  0.00000000000E+00  0.89400859856E+03  0.26958347950E+04  0.25432801394E+04 0.  0.
        4    1    3    3  502    0  0.11613405874E+04  0.45232280356E+03  0.17935276395E+03  0.12591572203E+04  0.12699999809E+01 0.  1.
       -4    1    3    3    0  502 -0.11613405874E+04 -0.45232280356E+03  0.71465583461E+03  0.14366775747E+04  0.12699999809E+01 0. -1.
</event>
<event>
 5   0  0.2901816E-05  0.2407424E+04  0.7818609E-02  0.8436729E-01
        1   -1    0    0  501    0  0.00000000000E+00  0.00000000000E+00  0.12551210293E+04  0.12551210293E+04  0.50400001928E-02 0.  1.
       -1   -1    0    0    0  501  0.00000000000E+00  0.00000000000E+00 -0.11544086631E+04  0.11544086632E+04  0.50400001928E-02 0. -1.
    10030    2    1    2    0    0  0.00000000000E+00  0.00000000000E+00  0.10071236613E+03  0.24095296924E+04  0.24074240088E+04 0.  0.
        4    1    3    3  502    0  0.55181241680E+03 -0.25563760327E+03 -0.98933700480E+03  0.11613082491E+04  0.12699999809E+01 0.  1.
       -4    1    3    3    0  502 -0.55181241680E+03  0.25563760327E+03  0.10900493709E+04  0.12482214433E+04  0.12699999809E+01 0. -1.
</event>
<event>
 5   0  0.6978115E-05  0.2464856E+04  0.7818609E-02  0.8415614E-01
       -2   -1    0    0    0  501  0.00000000000E+00  0.00000000000E+00  0.97209884375E+03  0.97209884376E+03  0.25500000920E-02 0. -1.
        2   -1    0    0  501    0  0.00000000000E+00  0.00000000000E+00 -0.15624741276E+04  0.15624741276E+04  0.25500000920E-02 0.  1.
    10030    2    1    2    0    0  0.00000000000E+00  0.00000000000E+00 -0.59037528389E+03  0.25345729714E+04  0.24648564201E+04 0.  0.
        4    1    3    3  502    0 -0.15430916518E+03  0.11835964916E+04 -0.61073137400E+03  0.13407857388E+04  0.12699999809E+01 0.  1.
       -4    1    3    3    0  502  0.15430916518E+03 -0.11835964916E+04  0.20356090108E+02  0.11937872326E+04  0.12699999809E+01 0. -1.
</event>
<event>
 5   0  0.2847158E-05  0.2423755E+04  0.7818609E-02  0.8430663E-01
        1   -1    0    0  501    0  0.00000000000E+00  0.00000000000E+00  0.14090598889E+04  0.14090598889E+04  0.50400001928E-02 0.  1.
       -1   -1    0    0    0  501  0.00000000000E+00  0.00000000000E+00 -0.10422888731E+04  0.10422888731E+04  0.50400001928E-02 0. -1.
    10030    2    1    2    0    0  0.00000000000E+00  0.00000000000E+00  0.36677101578E+03  0.24513487619E+04  0.24237553042E+04 0.  0.
        5    1    3    3  502    0  0.93878089482E+03 -0.54349051714E+03  0.72984572947E+03  0.13074358070E+04  0.46999998093E+01 0. -1.
       -5    1    3    3    0  502 -0.93878089482E+03  0.54349051714E+03 -0.36307471369E+03  0.11439129549E+04  0.46999998093E+01 0.  1.
</event>
<event>
 5   0  0.6714629E-05  0.2358017E+04  0.7818609E-02  0.8455391E-01
       -2   -1    0    0    0  501  0.00000000000E+00  0.00000000000E+00  0.95273517901E+03  0.95273517901E+03  0.25500000920E-02 0. -1.
        2   -1    0    0  501    0  0.00000000000E+00  0.00000000000E+00 -0.14590216265E+04  0.14590216265E+04  0.25500000920E-02 0.  1.
    10030    2    1    2    0    0  0.00000000000E+00  0.00000000000E+00 -0.50628644746E+03  0.24117568055E+04  0.23580171589E+04 0.  0.
        3    1    3    3  502    0  0.73063840995E+03 -0.71926745102E+03  0.34226041820E+03  0.10808886882E+04  0.10100000352E+00 0. -1.
       -3    1    3    3    0  502 -0.73063840995E+03  0.71926745102E+03 -0.84854686566E+03  0.13308681173E+04  0.10100000352E+00 0.  1.
</event>
<event>
 5   0  0.6337926E-05  0.2518092E+04  0.7818609E-02  0.8396568E-01
        2   -1    0    0  501    0  0.00000000000E+00  0.00000000000E+00  0.10718868498E+04  0.10718868498E+04  0.25500000920E-02 0.  1.
       -2   -1    0    0    0  501  0.00000000000E+00  0.00000000000E+00 -0.14788842245E+04  0.14788842245E+04  0.25500000920E-02 0. -1.
    10030    2    1    2    0    0  0.00000000000E+00  0.00000000000E+00 -0.40699737475E+03  0.25507710743E+04  0.25180917796E+04 0.  0.
        1    1    3    3  502    0  0.56015782641E+03 -0.58420996764E+02  0.93717312801E+03  0.10933815781E+04  0.50400001928E-02 0.  1.
       -1    1    3    3    0  502 -0.56015782641E+03  0.58420996764E+02 -0.13441705028E+04  0.14573894963E+04  0.50400001928E-02 0. -1.
</event>
<event>
 5   0  0.2943244E-05  0.1733875E+04  0.7818609E-02  0.8742277E-01
        1   -1    0    0  501    0  0.00000000000E+00  0.00000000000E+00  0.11348014061E+04  0.11348014061E+04  0.50400001928E-02 0.  1.
       -1   -1    0    0    0  501  0.00000000000E+00  0.00000000000E+00 -0.66230133860E+03  0.66230133862E+03  0.50400001928E-02 0. -1.
    10030    2    1    2    0    0  0.00000000000E+00  0.00000000000E+00  0.47250006753E+03  0.17971027448E+04  0.17338748402E+04 0.  0.
        3    1    3    3  502    0  0.22125496596E+03 -0.52570729961E+03 -0.44044301791E+03  0.72063304604E+03  0.10100000352E+00 0. -1.
       -3    1    3    3    0  502 -0.22125496596E+03  0.52570729961E+03  0.91294308544E+03  0.10764696987E+04  0.10100000352E+00 0.  1.
</event>
<event>
 5   0  0.2915546E-05  0.2392700E+04  0.7818609E-02  0.8442242E-01
        1   -1    0    0  501    0  0.00000000000E+00  0.00000000000E+00  0.92880324078E+03  0.92880324079E+03  0.50400001928E-02 0.  1.
       -1   -1    0    0    0  501  0.00000000000E+00  0.00000000000E+00 -0.15409647469E+04  0.15409647469E+04  0.50400001928E-02 0. -1.
    10030    2    1    2    0    0  0.00000000000E+00  0.00000000000E+00 -0.61216150615E+03  0.24697679877E+04  0.23926997730E+04 0.  0.
        2    1    3    3  502    0 -0.67753663819E+03  0.97823357524E+03 -0.17858623235E+03  0.12032829535E+04  0.25500000920E-02 0.  1.
       -2    1    3    3    0  502  0.67753663819E+03 -0.97823357524E+03 -0.43357527380E+03  0.12664850342E+04  0.25500000920E-02 0. -1.
</event>
<event>
 5   0  0.2901816E-05  0.2367391E+04  0.7818609E-02  0.8451814E-01
       -1   -1    0    0    0  501  0.00000000000E+00  0.00000000000E+00  0.14569845336E+04  0.14569845336E+04  0.50400001928E-02 0. -1.
        1   -1    0    0  501    0  0.00000000000E+00  0.00000000000E+00 -0.96166777890E+03  0.96166777892E+03  0.50400001928E-02 0.  1.
    10030    2    1    2    0    0  0.00000000000E+00  0.00000000000E+00  0.49531675469E+03  0.24186523125E+04  0.23673910369E+04 0.  0.
        4    1    3    3  502    0  0.72624685560E+02  0.49483922795E+03  0.13437322698E+04  0.14337915581E+04  0.12699999809E+01 0. -1.
       -4    1    3    3    0  502 -0.72624685560E+02 -0.49483922795E+03 -0.84841551506E+03  0.98486075440E+03  0.12699999809E+01 0.  1.
</event>
<event>
 5   0  0.2901816E-05  0.2404263E+04  0.7818609E-02  0.8437909E-01
       -1   -1    0    0    0  501  0.00000000000E+00  0.00000000000E+00  0.70543483356E+03  0.70543483358E+03  0.50400001928E-02 0.  1.
        1   -1    0    0  501    0  0.00000000000E+00  0.00000000000E+00 -0.20485530688E+04  0.20485530689E+04  0.50400001928E-02 0. -1.
    10030    2    1    2    0    0  0.00000000000E+00  0.00000000000E+00 -0.13431182353E+04  0.27539879024E+04  0.24042634574E+04 0.  0.
        4    1    3    3  502    0 -0.48836164207E+03  0.82027831935E+02  0.58317384905E+03  0.76506144183E+03  0.12699999809E+01 0.  1.
       -4    1    3    3    0  502  0.48836164207E+03 -0.82027831935E+02 -0.19262920843E+04  0.19889264606E+04  0.12699999809E+01 0. -1.
</event>
<event>
 5   0  0.2943123E-05  0.2382171E+04  0.7818609E-02  0.8446209E-01
       -1   -1    0    0    0  501  0.00000000000E+00  0.00000000000E+00  0.13963019238E+04  0.13963019238E+04  0.50400001928E-02 0.  1.
        1   -1    0    0  501    0  0.00000000000E+00  0.00000000000E+00 -0.10160299999E+04  0.10160299999E+04  0.50400001928E-02 0. -1.
    10030    2    1    2    0    0  0.00000000000E+00  0.00000000000E+00  0.38027192396E+03  0.24123319237E+04  0.23821709791E+04 0.  0.
        1    1    3    3  502    0  0.51230909137E+03  0.10080084374E+04 -0.18896063297E+03  0.11464064445E+04  0.50400001928E-02 0. -1.
       -1    1    3    3    0  502 -0.51230909137E+03 -0.10080084374E+04  0.56923255693E+03  0.12659254792E+04  0.50400001928E-02 0.  1.
</event>
<event>
 5   0  0.6600166E-05  0.2376188E+04  0.7818609E-02  0.8448472E-01
        2   -1    0    0  501    0  0.00000000000E+00  0.00000000000E+00  0.17085932574E+04  0.17085932574E+04  0.25500000920E-02 0. -1.
       -2   -1    0    0    0  501  0.00000000000E+00  0.00000000000E+00 -0.82615792012E+03  0.82615792012E+03  0.25500000920E-02 0.  1.
    10030    2    1    2    0    0  0.00000000000E+00  0.00000000000E+00  0.88243533726E+03  0.25347511775E+04  0.23761884200E+04 0.  0.
        5    1    3    3  502    0 -0.33937837733E+03 -0.70205316363E+03  0.13974084306E+04  0.16002589601E+04  0.46999998093E+01 0. -1.
       -5    1    3    3    0  502  0.33937837733E+03  0.70205316363E+03 -0.51497309330E+03  0.93449221740E+03  0.46999998093E+01 0.  1.
</event>
<event>
 5   0  0.6703961E-05  0.2227874E+04  0.7818609E-02  0.8506915E-01
       -2   -1    0    0    0  501  0.00000000000E+00  0.00000000000E+00  0.11573827530E+04  0.11573827530E+04  0.25500000920E-02 0. -1.
        2   -1    0    0  501    0  0.00000000000E+00  0.00000000000E+00 -0.10721216816E+04  0.10721216816E+04  0.25500000920E-02 0.  1.
    10030    2    1    2    0    0  0.00000000000E+00  0.00000000000E+00  0.85261071437E+02  0.22295044346E+04  0.22278735542E+04 0.  0.
        2    1    3    3  502    0  0.60348619260E+03  0.83094016711E+02 -0.89065869627E+03  0.10790612186E+04  0.25500000920E-02 0.  1.
       -2    1    3    3    0  502 -0.60348619260E+03 -0.83094016711E+02  0.97591976771E+03  0.11504432160E+04  0.25500000920E-02 0. -1.
</event>
<event>
 5   0  0.2915546E-05  0.2430725E+04  0.7818609E-02  0.8428089E-01
       -1   -1    0    0    0  501  0.00000000000E+00  0.00000000000E+00  0.65284167405E+03  0.65284167407E+03  0.50400001928E-02 0.  1.
        1   -1    0    0  501    0  0.00000000000E+00  0.00000000000E+00 -0.22625790700E+04  0.22625790700E+04  0.50400001928E-02 0. -1.
    10030    2    1    2    0    0  0.00000000000E+00  0.00000000000E+00 -0.16097373959E+04  0.29154207441E+04  0.24307249188E+04 0.  0.
        2    1    3    3  502    0  0.50435561395E+03 -0.18966476562E+03  0.50174323442E+03  0.73627004688E+03  0.25500000920E-02 0.  1.
       -2    1    3    3    0  502 -0.50435561395E+03  0.18966476562E+03 -0.21114806304E+04  0.21791506972E+04  0.25500000920E-02 0. -1.
</event>
<event>
 5   0  0.2943123E-05  0.2275596E+04  0.7818609E-02  0.8487606E-01
       -1   -1    0    0    0  501  0.00000000000E+00  0.00000000000E+00  0.97069076758E+03  0.97069076759E+03  0.50400001928E-02 0. -1.
        1   -1    0    0  501    0  0.00000000000E+00  0.00000000000E+00 -0.13336729464E+04  0.13336729464E+04  0.50400001928E-02 0.  1.
    10030    2    1    2    0    0  0.00000000000E+00  0.00000000000E+00 -0.36298217885E+03  0.23043637140E+04  0.22755957603E+04 0.  0.
        1    1    3    3  502    0  0.81657766543E+03  0.38332927134E+03 -0.88368625142E+03  0.12627912753E+04  0.50400001928E-02 0.  1.
       -1    1    3    3    0  502 -0.81657766543E+03 -0.38332927134E+03  0.52070407257E+03  0.10415724388E+04  0.50400001928E-02 0. -1.
</event>
<event>
 5   0  0.2943244E-05  0.2447835E+04  0.7818609E-02  0.8421809E-01
       -1   -1    0    0    0  501  0.00000000000E+00  0.00000000000E+00  0.14400947831E+04  0.14400947831E+04  0.50400001928E-02 0. -1.
        1   -1    0    0  501    0  0.00000000000E+00  0.00000000000E+00 -0.10401913044E+04  0.10401913044E+04  0.50400001928E-02 0.  1.
    10030    2    1    2    0    0  0.00000000000E+00  0.00000000000E+00  0.39990347864E+03  0.24802860875E+04  0.24478350197E+04 0.  0.
        3    1    3    3  502    0  0.71871660327E+01 -0.22703248031E+02 -0.10399565355E+04  0.10402291569E+04  0.10100000352E+00 0.  1.
       -3    1    3    3    0  502 -0.71871660327E+01  0.22703248031E+02  0.14398600142E+04  0.14400569306E+04  0.10100000352E+00 0. -1.
</event>
<event>
 5   0  0.2943123E-05  0.2374140E+04  0.7818609E-02  0.8449249E-01
       -1   -1    0    0    0  501  0.00000000000E+00  0.00000000000E+00  0.12846764244E+04  0.12846764244E+04  0.50400001928E-02 0.  1.
        1   -1    0    0  501    0  0.00000000000E+00  0.00000000000E+00 -0.10968790629E+04  0.10968790629E+04  0.50400001928E-02 0. -1.
    10030    2    1    2    0    0  0.00000000000E+00  0.00000000000E+00  0.18779736148E+03  0.23815554873E+04  0.23741395683E+04 0.  0.
        1    1    3    3  502    0  0.97273015737E+03 -0.11548664490E+03  0.76651049836E+03  0.12438164930E+04  0.50400001928E-02 0.  1.
       -1    1    3    3    0  502 -0.97273015737E+03  0.11548664490E+03 -0.57871313688E+03  0.11377389942E+04  0.50400001928E-02 0. -1.
</event>
<event>
 5   0  0.2901816E-05  0.1984124E+04  0.7818609E-02  0.8614079E-01
       -1   -1    0    0    0  501  0.00000000000E+00  0.00000000000E+00  0.15738163559E+04  0.15738163560E+04  0.50400001928E-02 0. -1.
        1   -1    0    0  501    0  0.00000000000E+00  0.00000000000E+00 -0.62535083324E+03  0.62535083326E+03  0.50400001928E-02 0.  1.
    10030    2    1    2    0    0  0.00000000000E+00  0.00000000000E+00  0.94846552270E+03  0.21991671892E+04  0.19841243606E+04 0.  0.
        4    1    3    3  502    0 -0.91796039996E+03 -0.31515470458E+03  0.70195591196E+03  0.11977969356E+04  0.12699999809E+01 0.  1.
       -4    1    3    3    0  502  0.91796039996E+03  0.31515470458E+03  0.24650961074E+03  0.10013702536E+04  0.12699999809E+01 0. -1.
</event>
<event>
 5   0  0.2901816E-05  0.2391463E+04  0.7818609E-02  0.8442706E-01
       -1   -1    0    0    0  501  0.00000000000E+00  0.00000000000E+00  0.68447598160E+03  0.68447598162E+03  0.50400001928E-02 0. -1.
        1   -1    0    0  501    0  0.00000000000E+00  0.00000000000E+00 -0.20888595238E+04  0.20888595238E+04  0.50400001928E-02 0.  1.
    10030    2    1    2    0    0  0.00000000000E+00  0.00000000000E+00 -0.14043835422E+04  0.27733355054E+04  0.23914632951E+04 0.  0.
        4    1    3    3  502    0  0.60274336145E+02 -0.18729414495E+03  0.66557389082E+03  0.69404777168E+03  0.12699999809E+01 0. -1.
       -4    1    3    3    0  502 -0.60274336145E+02  0.18729414495E+03 -0.20699574330E+04  0.20792877337E+04  0.12699999809E+01 0.  1.
</event>
<event>
 5   0  0.2943244E-05  0.1697903E+04  0.7818609E-02  0.8762561E-01
        1   -1    0    0  501    0  0.00000000000E+00  0.00000000000E+00  0.44015728874E+03  0.44015728877E+03  0.50400001928E-02 0.  1.
       -1   -1    0    0    0  501  0.00000000000E+00  0.00000000000E+00 -0.16374123047E+04  0.16374123047E+04  0.50400001928E-02 0. -1.
    10030    2    1    2    0    0  0.00000000000E+00  0.00000000000E+00 -0.11972550160E+04  0.20775695935E+04  0.16979033667E+04 0.  0.
        3    1    3    3  502    0 -0.25709265676E+03 -0.13494002210E+03 -0.15747679476E+04  0.16013118193E+04  0.10100000352E+00 0. -1.
       -3    1    3    3    0  502  0.25709265676E+03  0.13494002210E+03  0.37751293162E+03  0.47625777418E+03  0.10100000352E+00 0.  1.
</event>
<event>
 5   0  0.6703961E-05  0.2351620E+04  0.7818609E-02  0.8457841E-01
        2   -1    0    0  501    0  0.00000000000E+00  0.00000000000E+00  0.22767351762E+04  0.22767351762E+04  0.25500000920E-02 0. -1.
       -2   -1    0    0    0  501  0.00000000000E+00  0.00000000000E+00 -0.60724221776E+03  0.60724221777E+03  0.25500000920E-02 0.  1.
    10030    2    1    2    0    0  0.00000000000E+00  0.00000000000E+00  0.16694929584E+04  0.28839773940E+04  0.23516204776E+04 0.  0.
        2    1    3    3  502    0  0.28830741512E+02 -0.14972738323E+03 -0.59506610990E+03  0.61429079116E+03  0.25500000920E-02 0.  1.
       -2    1    3    3    0  502 -0.28830741512E+02  0.14972738323E+03  0.22645590683E+04  0.22696866028E+04  0.25500000920E-02 0. -1.
</event>
<event>
 5   0  0.2847158E-05  0.2406085E+04  0.7818609E-02  0.8437229E-01
       -1   -1    0    0    0  501  0.00000000000E+00  0.00000000000E+00  0.79881590707E+03  0.79881590708E+03  0.50400001928E-02 0.  1.
        1   -1    0    0  501    0  0.00000000000E+00  0.00000000000E+00 -0.18118205248E+04  0.18118205248E+04  0.50400001928E-02 0. -1.
    10030    2    1    2    0    0  0.00000000000E+00  0.00000000000E+00 -0.10130046177E+04  0.26106364319E+04  0.24060848331E+04 0.  0.
        5    1    3    3  502    0  0.59009949410E+03 -0.10479077515E+04 -0.47286866039E+03  0.12922673595E+04  0.46999998093E+01 0.  1.
       -5    1    3    3    0  502 -0.59009949410E+03  0.10479077515E+04 -0.54013595734E+03  0.13183690724E+04  0.46999998093E+01 0. -1.
</event>
<event>
 5   0  0.6337926E-05  0.2460478E+04  0.7818609E-02  0.8417202E-01
       -2   -1    0    0    0  501  0.00000000000E+00  0.00000000000E+00  0.11754768159E+04  0.11754768159E+04  0.25500000920E-02 0.  1.
        2   -1    0    0  501    0  0.00000000000E+00  0.00000000000E+00 -0.12875521392E+04  0.12875521392E+04  0.25500000920E-02 0. -1.
    10030    2    1    2    0    0  0.00000000000E+00  0.00000000000E+00 -0.11207532328E+03  0.24630289551E+04  0.24604777495E+04 0.  0.
        1    1    3    3  502    0  0.23439472259E+03  0.21879383721E+03  0.11329127003E+04  0.11774136129E+04  0.50400001928E-02 0.  1.
       -1    1    3    3    0  502 -0.23439472259E+03 -0.21879383721E+03 -0.12449880236E+04  0.12856153422E+04  0.50400001928E-02 0. -1.
</event>
<event>
 5   0  0.2943244E-05  0.2371346E+04  0.7818609E-02  0.8450310E-01
        1   -1    0    0  501    0  0.00000000000E+00  0.00000000000E+00  0.52475274518E+03  0.52475274520E+03  0.50400001928E-02 0. -1.
       -1   -1    0    0    0  501  0.00000000000E+00  0.00000000000E+00 -0.26790144757E+04  0.26790144757E+04  0.50400001928E-02 0.  1.
    10030    2    1    2    0    0  0.00000000000E+00  0.00000000000E+00 -0.21542617305E+04  0.32037672209E+04  0.23713457787E+04 0.  0.
        3    1    3    3  502    0  0.53234348549E+03  0.40591095394E+03 -0.23992582693E+04  0.24909021543E+04  0.10100000352E+00 0.  1.
       -3    1    3    3    0  502 -0.53234348549E+03 -0.40591095394E+03  0.24499653876E+03  0.71286506667E+03  0.10100000352E+00 0. -1.
</event>
<event>
 5   0  0.6337926E-05  0.2397805E+04  0.7818609E-02  0.8440326E-01
       -2   -1    0    0    0  501  0.00000000000E+00  0.00000000000E+00  0.13596597084E+04  0.13596597084E+04  0.25500000920E-02 0.  1.
        2   -1    0    0  501    0  0.00000000000E+00  0.00000000000E+00 -0.10571520944E+04  0.10571520944E+04  0.25500000920E-02 0. -1.
    10030    2    1    2    0    0  0.00000000000E+00  0.00000000000E+00  0.30250761400E+03  0.24168118027E+04  0.23978049198E+04 0.  0.
        1    1    3    3  502    0  0.28782781241E+03 -0.82698325257E+03  0.97665966602E+03  0.13117203410E+04  0.50400001928E-02 0.  1.
       -1    1    3    3    0  502 -0.28782781241E+03  0.82698325257E+03 -0.67415205202E+03  0.11050914618E+04  0.50400001928E-02 0. -1.
</event>
<event>
 5   0  0.2943123E-05  0.2244290E+04  0.7818609E-02  0.8500217E-01
        1   -1    0    0  501    0  0.00000000000E+00  0.00000000000E+00  0.17306581634E+04  0.17306581634E+04  0.50400001928E-02 0. -1.
       -1   -1    0    0    0  501  0.00000000000E+00  0.00000000000E+00 -0.72758976464E+03  0.72758976466E+03  0.50400001928E-02 0.  1.
    10030    2    1    2    0    0  0.00000000000E+00  0.00000000000E+00  0.10030683988E+04  0.24582479281E+04  0.22442897904E+04 0.  0.
        1    1    3    3  502    0  0.65924837099E+03 -0.42312459272E+03 -0.37853573333E+03  0.87001846937E+03  0.50400001928E-02 0.  1.
       -1    1    3    3    0  502 -0.65924837099E+03  0.42312459272E+03  0.13816041321E+04  0.15882294587E+04  0.50400001928E-02 0. -1.
</event>
<event>
 5   0  0.6600166E-05  0.2353673E+04  0.7818609E-02  0.8457054E-01
        2   -1    0    0  501    0  0.00000000000E+00  0.00000000000E+00  0.16534361187E+04  0.16534361187E+04  0.25500000920E-02 0.  1.
       -2   -1    0    0    0  501  0.00000000000E+00  0.00000000000E+00 -0.83761584700E+03  0.83761584701E+03  0.25500000920E-02 0. -1.
    10030    2    1    2    0    0  0.00000000000E+00  0.00000000000E+00  0.81582027168E+03  0.24910519657E+04  0.23536731252E+04 0.  0.
        5    1    3    3  502    0 -0.58280544532E+03 -0.71567607062E+03 -0.36482001050E+03  0.99245662636E+03  0.46999998093E+01 0.  1.
       -5    1    3    3    0  502  0.58280544532E+03  0.71567607062E+03  0.11806402822E+04  0.14985953393E+04  0.46999998093E+01 0. -1.
</event>
<event>
 5   0  0.2915546E-05  0.2394060E+04  0.7818609E-02  0.8441731E-01
        1   -1    0    0  501    0  0.00000000000E+00  0.00000000000E+00  0.14255434198E+04  0.14255434198E+04  0.50400001928E-02 0.  1.
       -1   -1    0    0    0  501  0.00000000000E+00  0.00000000000E+00 -0.10051469434E+04  0.10051469434E+04  0.50400001928E-02 0. -1.
    10030    2    1    2    0    0  0.00000000000E+00  0.00000000000E+00  0.42039647643E+03  0.24306903632E+04  0.23940598247E+04 0.  0.
        2    1    3    3  502    0  0.15483166477E+03  0.75591382501E+03  0.11393519825E+04  0.13760456007E+04  0.25500000920E-02 0.  1.
       -2    1    3    3    0  502 -0.15483166477E+03 -0.75591382501E+03 -0.71895550607E+03  0.10546447625E+04  0.25500000920E-02 0. -1.
</event>
<event>
 5   0  0.6714629E-05  0.2425121E+04  0.7818609E-02  0.8430158E-01
       -2   -1    0    0    0  501  0.00000000000E+00  0.00000000000E+00  0.59958060816E+03  0.59958060817E+03  0.25500000920E-02 0. -1.
        2   -1    0    0  501    0  0.00000000000E+00  0.00000000000E+00 -0.24522191729E+04  0.24522191729E+04  0.25500000920E-02 0.  1.
    10030    2    1    2    0    0  0.00000000000E+00  0.00000000000E+00 -0.18526385647E+04  0.30517997810E+04  0.24251210799E+04 0.  0.
        3    1    3    3  502    0  0.31656814886E+03 -0.10364862303E+04 -0.24191941569E+03  0.11104251944E+04  0.10100000352E+00 0. -1.
       -3    1    3    3    0  502 -0.31656814886E+03  0.10364862303E+04 -0.16107191490E+04  0.19413745866E+04  0.10100000352E+00 0.  1.
</event>
<event>
 5   0  0.6703961E-05  0.2392612E+04  0.7818609E-02  0.8442275E-01
       -2   -1    0    0    0  501  0.00000000000E+00  0.00000000000E+00  0.77763550995E+03  0.77763550995E+03  0.25500000920E-02 0.  1.
        2   -1    0    0  501    0  0.00000000000E+00  0.00000000000E+00 -0.18403834754E+04  0.18403834754E+04  0.25500000920E-02 0. -1.
    10030    2    1    2    0    0  0.00000000000E+00  0.00000000000E+00 -0.10627479654E+04  0.26180189853E+04  0.23926115793E+04 0.  0.
        2    1    3    3  502    0  0.73453135116E+02  0.11169154253E+04 -0.69399557632E+02  0.11214774759E+04  0.25500000920E-02 0.  1.
       -2    1    3    3    0  502 -0.73453135116E+02 -0.11169154253E+04 -0.99334840779E+03  0.14965415095E+04  0.25500000920E-02 0. -1.
</event>
<event>
 5   0  0.2915546E-05  0.2727293E+04  0.7818609E-02  0.8326203E-01
       -1   -1    0    0    0  501  0.00000000000E+00  0.00000000000E+00  0.20812101066E+04  0.20812101066E+04  0.50400001928E-02 0. -1.
        1   -1    0    0  501    0  0.00000000000E+00  0.00000000000E+00 -0.89348560456E+03  0.89348560457E+03  0.50400001928E-02 0.  1.
    10030    2    1    2    0    0  0.00000000000E+00  0.00000000000E+00  0.11877245020E+04  0.29746957111E+04  0.27272926284E+04 0.  0.
        2    1    3    3  502    0  0.12431167789E+04 -0.44533480525E+03  0.96513593477E+03  0.16355885141E+04  0.25500000920E-02 0.  1.
       -2    1    3    3    0  502 -0.12431167789E+04  0.44533480525E+03  0.22258856723E+03  0.13391071970E+04  0.25500000920E-02 0. -1.
</event>
<event>
 5   0  0.6600166E-05  0.2400169E+04  0.7818609E-02  0.8439440E-01
        2   -1    0    0  501    0  0.00000000000E+00  0.00000000000E+00  0.18725486070E+04  0.18725486070E+04  0.25500000920E-02 0. -1.
       -2   -1    0    0    0  501  0.00000000000E+00  0.00000000000E+00 -0.76911355184E+03  0.76911355184E+03  0.25500000920E-02 0.  1.
    10030    2    1    2    0    0  0.00000000000E+00  0.00000000000E+00  0.11034350552E+04  0.26416621588E+04  0.24001687525E+04 0.  0.
        5    1    3    3  502    0 -0.71676045511E+03 -0.66708260357E+03  0.13153855930E+04  0.16398189224E+04  0.46999998093E+01 0. -1.
       -5    1    3    3    0  502  0.71676045511E+03  0.66708260357E+03 -0.21195053780E+03  0.10018432365E+04  0.46999998093E+01 0.  1.
</event>
<event>
 5   0  0.6600166E-05  0.2379463E+04  0.7818609E-02  0.8447233E-01
       -2   -1    0    0    0  501  0.00000000000E+00  0.00000000000E+00  0.11619495372E+04  0.11619495372E+04  0.25500000920E-02 0. -1.
        2   -1    0    0  501    0  0.00000000000E+00  0.00000000000E+00 -0.12181773303E+04  0.12181773303E+04  0.25500000920E-02 0.  1.
    10030    2    1    2    0    0  0.00000000000E+00  0.00000000000E+00 -0.56227793039E+02  0.23801268675E+04  0.23794626160E+04 0.  0.
        5    1    3    3  502    0  0.24732738253E+03  0.29019358311E+03 -0.11553958233E+04  0.12166941885E+04  0.46999998093E+01 0.  1.
       -5    1    3    3    0  502 -0.24732738253E+03 -0.29019358311E+03  0.10991680303E+04  0.11634326790E+04  0.46999998093E+01 0. -1.
</event>
<event>
 5   0  0.6714629E-05  0.2365612E+04  0.7818609E-02  0.8452491E-01
        2   -1    0    0  501    0  0.00000000000E+00  0.00000000000E+00  0.14692492399E+04  0.14692492399E+04  0.25500000920E-02 0. -1.
       -2   -1    0    0    0  501  0.00000000000E+00  0.00000000000E+00 -0.95220741809E+03  0.95220741810E+03  0.25500000920E-02 0.  1.
    10030    2    1    2    0    0  0.00000000000E+00  0.00000000000E+00  0.51704182183E+03  0.24214566580E+04  0.23656119929E+04 0.  0.
        3    1    3    3  502    0 -0.12774840100E+03 -0.25560719159E+03 -0.91634404283E+03  0.95986514958E+03  0.10100000352E+00 0.  1.
       -3    1    3    3    0  502  0.12774840100E+03  0.25560719159E+03  0.14333858647E+04  0.14615915084E+04  0.10100000352E+00 0. -1.
</event>
<event>
 5   0  0.6337926E-05  0.2358198E+04  0.7818609E-02  0.8455321E-01
        2   -1    0    0  501    0  0.00000000000E+00  0.00000000000E+00  0.18147083445E+04  0.18147083445E+04  0.25500000920E-02 0.  1.
       -2   -1    0    0    0  501  0.00000000000E+00  0.00000000000E+00 -0.76611462979E+03  0.76611462979E+03  0.25500000920E-02 0. -1.
    10030    2    1    2    0    0  0.00000000000E+00  0.00000000000E+00  0.10485937147E+04  0.25808229743E+04  0.23581981354E+04 0.  0.
        1    1    3    3  502    0 -0.80060110881E+03 -0.86476562881E+03  0.56658229702E+03  0.13075921488E+04  0.50400001928E-02 0.  1.
       -1    1    3    3    0  502  0.80060110881E+03  0.86476562881E+03  0.48201141765E+03  0.12732308255E+04  0.50400001928E-02 0. -1.
</event>
<event>
 5   0  0.2847158E-05  0.2343934E+04  0.7818609E-02  0.8460797E-01
        1   -1    0    0  501    0  0.00000000000E+00  0.00000000000E+00  0.14173152216E+04  0.14173152216E+04  0.50400001928E-02 0. -1.
       -1   -1    0    0    0  501  0.00000000000E+00  0.00000000000E+00 -0.96909071126E+03  0.96909071128E+03  0.50400001928E-02 0.  1.
    10030    2    1    2    0    0  0.00000000000E+00  0.00000000000E+00  0.44822451036E+03  0.23864059329E+04  0.23439343133E+04 0.  0.
        5    1    3    3  502    0 -0.15812464379E+03 -0.42589028516E+03 -0.87578654821E+03  0.98661548031E+03  0.46999998093E+01 0.  1.
       -5    1    3    3    0  502  0.15812464379E+03  0.42589028516E+03  0.13240110586E+04  0.13997904526E+04  0.46999998093E+01 0. -1.
</event>
<event>
 5   0  0.2943123E-05  0.2118170E+04  0.7818609E-02  0.8553281E-01
       -1   -1    0    0    0  501  0.00000000000E+00  0.00000000000E+00  0.62579426234E+03  0.62579426236E+03  0.50400001928E-02 0. -1.
        1   -1    0    0  501    0  0.00000000000E+00  0.00000000000E+00 -0.17923806017E+04  0.17923806017E+04  0.50400001928E-02 0.  1.
    10030    2    1    2    0    0  0.00000000000E+00  0.00000000000E+00 -0.11665863394E+04  0.24181748641E+04  0.21181704337E+04 0.  0.
        1    1    3    3  502    0  0.80257844070E+03  0.37893675739E+02 -0.13710150103E+04  0.15891035972E+04  0.50400001928E-02 0.  1.
       -1    1    3    3    0  502 -0.80257844070E+03 -0.37893675739E+02  0.20442867088E+03  0.82907126693E+03  0.50400001928E-02 0. -1.
</event>
<event>
 5   0  0.6703961E-05  0.2848549E+04  0.7818609E-02  0.8288352E-01
        2   -1    0    0  501    0  0.00000000000E+00  0.00000000000E+00  0.15404857422E+04  0.15404857422E+04  0.25500000920E-02 0.  1.
       -2   -1    0    0    0  501  0.00000000000E+00  0.00000000000E+00 -0.13168303779E+04  0.13168303779E+04  0.25500000920E-02 0. -1.
    10030    2    1    2    0    0  0.00000000000E+00  0.00000000000E+00  0.22365536434E+03  0.28573161201E+04  0.28485494007E+04 0.  0.
        2    1    3    3  502    0  0.61829537740E+03  0.37995798178E+03  0.13411201344E+04  0.15248804729E+04  0.25500000920E-02 0.  1.
       -2    1    3    3    0  502 -0.61829537740E+03 -0.37995798178E+03 -0.11174647701E+04  0.13324356472E+04  0.25500000920E-02 0. -1.
</event>
<event>
 5   0  0.2915546E-05  0.2397788E+04  0.7818609E-02  0.8440332E-01
       -1   -1    0    0    0  501  0.00000000000E+00  0.00000000000E+00  0.15306805217E+04  0.15306805217E+04  0.50400001928E-02 0. -1.
        1   -1    0    0  501    0  0.00000000000E+00  0.00000000000E+00 -0.93902482342E+03  0.93902482344E+03  0.50400001928E-02 0.  1.
    10030    2    1    2    0    0  0.00000000000E+00  0.00000000000E+00  0.59165569828E+03  0.24697053452E+04  0.23977881530E+04 0.  0.
        2    1    3    3  502    0 -0.11335360990E+03 -0.22258681886E+03  0.15035812518E+04  0.15241884770E+04  0.25500000920E-02 0. -1.
       -2    1    3    3    0  502  0.11335360990E+03  0.22258681886E+03 -0.91192555349E+03  0.94551686813E+03  0.25500000920E-02 0.  1.
</event>
<event>
 5   0  0.6337926E-05  0.2431740E+04  0.7818609E-02  0.8427715E-01
        2   -1    0    0  501    0  0.00000000000E+00  0.00000000000E+00  0.16794070446E+04  0.16794070446E+04  0.25500000920E-02 0.  1.
       -2   -1    0    0    0  501  0.00000000000E+00  0.00000000000E+00 -0.88027507485E+03  0.88027507486E+03  0.25500000920E-02 0. -1.
    10030    2    1    2    0    0  0.00000000000E+00  0.00000000000E+00  0.79913196974E+03  0.25596821194E+04  0.24317402508E+04 0.  0.
        1    1    3    3  502    0 -0.35911135726E+03  0.79261133464E+03  0.12934488070E+04  0.15589110016E+04  0.50400001928E-02 0.  1.
       -1    1    3    3    0  502  0.35911135726E+03 -0.79261133464E+03 -0.49431683722E+03  0.10007711178E+04  0.50400001928E-02 0. -1.
</event>
<event>
 5   0  0.6600166E-05  0.2385602E+04  0.7818609E-02  0.8444914E-01
       -2   -1    0    0    0  501  0.00000000000E+00  0.00000000000E+00  0.61265646508E+03  0.61265646508E+03  0.25500000920E-02 0.  1.
        2   -1    0    0  501    0  0.00000000000E+00  0.00000000000E+00 -0.23223043024E+04  0.23223043024E+04  0.25500000920E-02 0. -1.
    10030    2    1    2    0    0  0.00000000000E+00  0.00000000000E+00 -0.17096478373E+04  0.29349607675E+04  0.23856024352E+04 0.  0.
        5    1    3    3  502    0 -0.30003301150E+03 -0.85672266997E+03  0.97161506042E+02  0.91293810824E+03  0.46999998093E+01 0.  1.
       -5    1    3    3    0  502  0.30003301150E+03  0.85672266997E+03 -0.18068093433E+04  0.20220226592E+04  0.46999998093E+01 0. -1.
</event>
<event>
 5   0  0.2943244E-05  0.2397198E+04  0.7818609E-02  0.8440553E-01
       -1   -1    0    0    0  501  0.00000000000E+00  0.00000000000E+00  0.15183705810E+04  0.15183705810E+04  0.50400001928E-02 0.  1.
        1   -1    0    0  501    0  0.00000000000E+00  0.00000000000E+00 -0.94617210243E+03  0.94617210244E+03  0.50400001928E-02 0. -1.
    10030    2    1    2    0    0  0.00000000000E+00  0.00000000000E+00  0.57219847853E+03  0.24645426834E+04  0.23971982687E+04 0.  0.
        3    1    3    3  502    0 -0.78211075961E+03  0.22865186233E+03  0.11898046311E+04  0.14420866773E+04  0.10100000352E+00 0.  1.
       -3    1    3    3    0  502  0.78211075961E+03 -0.22865186233E+03 -0.61760615261E+03  0.10224560061E+04  0.10100000352E+00 0. -1.
</event>
<event>
 5   0  0.2847158E-05  0.2349576E+04  0.7818609E-02  0.8458626E-01
        1   -1    0    0  501    0  0.00000000000E+00  0.00000000000E+00  0.69226018194E+03  0.69226018196E+03  0.50400001928E-02 0. -1.
       -1   -1    0    0    0  501  0.00000000000E+00  0.00000000000E+00 -0.19936541610E+04  0.19936541610E+04  0.50400001928E-02 0.  1.
    10030    2    1    2    0    0  0.00000000000E+00  0.00000000000E+00 -0.13013939790E+04  0.26859143430E+04  0.23495764659E+04 0.  0.
        5    1    3    3  502    0  0.59364508926E+03 -0.66449152689E+03 -0.15258901791E+04  0.17670105857E+04  0.46999998093E+01 0.  1.
       -5    1    3    3    0  502 -0.59364508926E+03  0.66449152689E+03  0.22449620002E+03  0.91890375728E+03  0.46999998093E+01 0. -1.
</event>
<event>
 5   0  0.6337926E-05  0.2225443E+04  0.7818609E-02  0.8507912E-01
        2   -1    0    0  501    0  0.00000000000E+00  0.00000000000E+00  0.13676438993E+04  0.13676438993E+04  0.25500000920E-02 0.  1.
       -2   -1    0    0    0  501  0.00000000000E+00  0.00000000000E+00 -0.90531539087E+03  0.90531539088E+03  0.25500000920E-02 0. -1.
    10030    2    1    2    0    0  0.00000000000E+00  0.00000000000E+00  0.46232850838E+03  0.22729592901E+04  0.22254429413E+04 0.  0.
        1    1    3    3  502    0 -0.88887088816E+03 -0.40368576715E+03  0.77650796802E+03  0.12474046171E+04  0.50400001928E-02 0.  1.
       -1    1    3    3    0  502  0.88887088816E+03  0.40368576715E+03 -0.31417945964E+03  0.10255546730E+04  0.50400001928E-02 0. -1.
</event>
<event>
 5   0  0.6978115E-05  0.2345015E+04  0.7818609E-02  0.8460381E-01
       -2   -1    0    0    0  501  0.00000000000E+00  0.00000000000E+00  0.92240690405E+03  0.92240690405E+03  0.25500000920E-02 0.  1.
        2   -1    0    0  501    0  0.00000000000E+00  0.00000000000E+00 -0.14904195797E+04  0.14904195797E+04  0.25500000920E-02 0. -1.
    10030    2    1    2    0    0  0.00000000000E+00  0.00000000000E+00 -0.56801267561E+03  0.24128264837E+04  0.23450145502E+04 0.  0.
        4    1    3    3  502    0  0.11461146309E+04 -0.21166964474E+03 -0.41572751587E+03  0.12374222263E+04  0.12699999809E+01 0. -1.
       -4    1    3    3    0  502 -0.11461146309E+04  0.21166964474E+03 -0.15228515974E+03  0.11754042575E+04  0.12699999809E+01 0.  1.
</event>
<event>
 5   0  0.2339125E-05  0.2444792E+04  0.7818609E-02  0.8422922E-01
       -4   -1    0    0    0  501  0.00000000000E+00  0.00000000000E+00  0.10792340707E+04  0.10792348180E+04  0.12699999809E+01 0.  1.
        4   -1    0    0  501    0  0.00000000000E+00  0.00000000000E+00 -0.13845470794E+04  0.13845476619E+04  0.12699999809E+01 0. -1.
    10030    2    1    2    0    0  0.00000000000E+00  0.00000000000E+00 -0.30531300872E+03  0.24637824799E+04  0.24447920310E+04 0.  0.
        3    1    3    3  502    0 -0.32161018566E+03  0.53403577716E+02 -0.13399278996E+04  0.13790184335E+04  0.10100000352E+00 0. -1.
       -3    1    3    3    0  502  0.32161018566E+03 -0.53403577716E+02  0.10346148909E+04  0.10847640464E+04  0.10100000352E+00 0.  1.
</event>
<event>
 5   0  0.2901816E-05  0.2423974E+04  0.7818609E-02  0.8430582E-01
       -1   -1    0    0    0  501  0.00000000000E+00  0.00000000000E+00  0.13754666420E+04  0.13754666420E+04  0.50400001928E-02 0.  1.
        1   -1    0    0  501    0  0.00000000000E+00  0.00000000000E+00 -0.10679375760E+04  0.10679375760E+04  0.50400001928E-02 0. -1.
    10030    2    1    2    0    0  0.00000000000E+00  0.00000000000E+00  0.30752906595E+03  0.24434042180E+04  0.24239740193E+04 0.  0.
        4    1    3    3  502    0 -0.76228351232E+03 -0.40018359466E+03 -0.70611956258E+03  0.11134763186E+04  0.12699999809E+01 0. -1.
       -4    1    3    3    0  502  0.76228351232E+03  0.40018359466E+03  0.10136486285E+04  0.13299278994E+04  0.12699999809E+01 0.  1.
</event>
<event>
 5   0  0.6714629E-05  0.2383537E+04  0.7818609E-02  0.8445693E-01
       -2   -1    0    0    0  501  0.00000000000E+00  0.00000000000E+00  0.12095978261E+04  0.12095978261E+04  0.25500000920E-02 0. -1.
        2   -1    0    0  501    0  0.00000000000E+00  0.00000000000E+00 -0.11742016478E+04  0.11742016479E+04  0.25500000920E-02 0.  1.
    10030    2    1    2    0    0  0.00000000000E+00  0.00000000000E+00  0.35396178286E+02  0.23837994740E+04  0.23835366670E+04 0.  0.
        3    1    3    3  502    0  0.47078355849E+02 -0.11846072865E+04 -0.10397450323E+03  0.11900930646E+04  0.10100000352E+00 0. -1.
       -3    1    3    3    0  502 -0.47078355849E+02  0.11846072865E+04  0.13937068151E+03  0.11937064094E+04  0.10100000352E+00 0.  1.
</event>
<event>
 5   0  0.2943123E-05  0.2346241E+04  0.7818609E-02  0.8459909E-01
        1   -1    0    0  501    0  0.00000000000E+00  0.00000000000E+00  0.24185327780E+04  0.24185327780E+04  0.50400001928E-02 0.  1.
       -1   -1    0    0    0  501  0.00000000000E+00  0.00000000000E+00 -0.56902735559E+03  0.56902735561E+03  0.50400001928E-02 0. -1.
    10030    2    1    2    0    0  0.00000000000E+00  0.00000000000E+00  0.18495054224E+04  0.29875601336E+04  0.23462406621E+04 0.  0.
        1    1    3    3  502    0  0.69357641777E+03  0.94571720582E+03  0.96036139435E+03  0.15158242934E+04  0.50400001928E-02 0.  1.
       -1    1    3    3    0  502 -0.69357641777E+03 -0.94571720582E+03  0.88914402802E+03  0.14717358402E+04  0.50400001928E-02 0. -1.
</event>
<event>
 5   0  0.6714629E-05  0.2402676E+04  0.7818609E-02  0.8438502E-01
       -2   -1    0    0    0  501  0.00000000000E+00  0.00000000000E+00  0.10612854969E+04  0.10612854969E+04  0.25500000920E-02 0.  1.
        2   -1    0    0  501    0  0.00000000000E+00  0.00000000000E+00 -0.13598727993E+04  0.13598727993E+04  0.25500000920E-02 0. -1.
    10030    2    1    2    0    0  0.00000000000E+00  0.00000000000E+00 -0.29858730235E+03  0.24211582962E+04  0.24026762408E+04 0.  0.
        3    1    3    3  502    0 -0.23267969867E+03  0.10307107999E+04 -0.72527479163E+03  0.12816115359E+04  0.10100000352E+00 0. -1.
       -3    1    3    3    0  502  0.23267969867E+03 -0.10307107999E+04  0.42668748928E+03  0.11395467603E+04  0.10100000352E+00 0.  1.
</event>
<event>
 5   0  0.2915546E-05  0.2404193E+04  0.7818609E-02  0.8437936E-01
        1   -1    0    0  501    0  0.00000000000E+00  0.00000000000E+00  0.30178861146E+04  0.30178861146E+04  0.50400001928E-02 0. -1.
       -1   -1    0    0    0  501  0.00000000000E+00  0.00000000000E+00 -0.47882374160E+03  0.47882374163E+03  0.50400001928E-02 0.  1.
    10030    2    1    2    0    0  0.00000000000E+00  0.00000000000E+00  0.25390623730E+04  0.34967098562E+04  0.24041926056E+04 0.  0.
        2    1    3    3  502    0 -0.10017186326E+03  0.11964828035E+04  0.13547113881E+04  0.18102067413E+04  0.25500000920E-02 0. -1.
       -2    1    3    3    0  502  0.10017186326E+03 -0.11964828035E+04  0.11843509849E+04  0.16865031149E+04  0.25500000920E-02 0.  1.
</event>
<event>
 5   0  0.6337926E-05  0.2180209E+04  0.7818609E-02  0.8526711E-01
        2   -1    0    0  501    0  0.00000000000E+00  0.00000000000E+00  0.98342878138E+03  0.98342878139E+03  0.25500000920E-02 0.  1.
       -2   -1    0    0    0  501  0.00000000000E+00  0.00000000000E+00 -0.12083512452E+04  0.12083512452E+04  0.25500000920E-02 0. -1.
    10030    2    1    2    0    0  0.00000000000E+00  0.00000000000E+00 -0.22492246382E+03  0.21917800266E+04  0.21802086070E+04 0.  0.
        1    1    3    3  502    0 -0.10105600148E+04 -0.16562583335E+03 -0.48816110456E+03  0.11344446766E+04  0.50400001928E-02 0. -1.
       -1    1    3    3    0  502  0.10105600148E+04  0.16562583335E+03  0.26323864074E+03  0.10573353500E+04  0.50400001928E-02 0.  1.
</event>
<event>
 5   0  0.6703961E-05  0.2398109E+04  0.7818609E-02  0.8440212E-01
        2   -1    0    0  501    0  0.00000000000E+00  0.00000000000E+00  0.16709423240E+04  0.16709423240E+04  0.25500000920E-02 0. -1.
       -2   -1    0    0    0  501  0.00000000000E+00  0.00000000000E+00 -0.86043155942E+03  0.86043155943E+03  0.25500000920E-02 0.  1.
    10030    2    1    2    0    0  0.00000000000E+00  0.00000000000E+00  0.81051076453E+03  0.25313738834E+04  0.23981088462E+04 0.  0.
        2    1    3    3  502    0  0.55272196199E+03  0.98475247794E+02 -0.71311814632E+03  0.90759926858E+03  0.25500000920E-02 0.  1.
       -2    1    3    3    0  502 -0.55272196199E+03 -0.98475247794E+02  0.15236289109E+04  0.16237746148E+04  0.25500000920E-02 0. -1.
</event>
<event>
 5   0  0.2339125E-05  0.2394214E+04  0.7818609E-02  0.8441673E-01
        3   -1    0    0  501    0  0.00000000000E+00  0.00000000000E+00  0.10741071336E+04  0.10741071384E+04  0.10100000352E+00 0.  1.
       -3   -1    0    0    0  501  0.00000000000E+00  0.00000000000E+00 -0.13341916821E+04  0.13341916860E+04  0.10100000352E+00 0. -1.
    10030    2    1    2    0    0  0.00000000000E+00  0.00000000000E+00 -0.26008454848E+03  0.24082988243E+04  0.23942137029E+04 0.  0.
        2    1    3    3  502    0 -0.80923579072E+03  0.44782467000E+03 -0.89454994607E+03  0.12867125188E+04  0.25500000920E-02 0. -1.
       -2    1    3    3    0  502  0.80923579072E+03 -0.44782467000E+03  0.63446539758E+03  0.11215863055E+04  0.25500000920E-02 0.  1.
</event>
<event>
 5   0  0.2901816E-05  0.2416186E+04  0.7818609E-02  0.8433468E-01
       -1   -1    0    0    0  501  0.00000000000E+00  0.00000000000E+00  0.26739410445E+04  0.26739410445E+04  0.50400001928E-02 0.  1.
        1   -1    0    0  501    0  0.00000000000E+00  0.00000000000E+00 -0.54581945213E+03  0.54581945216E+03  0.50400001928E-02 0. -1.
    10030    2    1    2    0    0  0.00000000000E+00  0.00000000000E+00  0.21281215924E+04  0.32197604967E+04  0.24161862809E+04 0.  0.
        4    1    3    3  502    0  0.70426398722E+03  0.35591193151E+03  0.22830807898E+04  0.24155994230E+04  0.12699999809E+01 0.  1.
       -4    1    3    3    0  502 -0.70426398722E+03 -0.35591193151E+03 -0.15495919741E+03  0.80416107369E+03  0.12699999809E+01 0. -1.
</event>
<event>
 5   0  0.2339125E-05  0.2209602E+04  0.7818609E-02  0.8514442E-01
       -3   -1    0    0    0  501  0.00000000000E+00  0.00000000000E+00  0.22461246734E+04  0.22461246757E+04  0.10100000352E+00 0. -1.
        3   -1    0    0  501    0  0.00000000000E+00  0.00000000000E+00 -0.54341831902E+03  0.54341832841E+03  0.10100000352E+00 0.  1.
    10030    2    1    2    0    0  0.00000000000E+00  0.00000000000E+00  0.17027063544E+04  0.27895430041E+04  0.22096020552E+04 0.  0.
        3    1    3    3  502    0 -0.89936557817E+03 -0.10325685735E+03  0.16508676172E+04  0.18827863186E+04  0.10100000352E+00 0. -1.
       -3    1    3    3    0  502  0.89936557817E+03  0.10325685735E+03  0.51838737170E+02  0.90675668548E+03  0.10100000352E+00 0.  1.
</event>
<event>
 5   0  0.6978115E-05  0.2425215E+04  0.7818609E-02  0.8430123E-01
        2   -1    0    0  501    0  0.00000000000E+00  0.00000000000E+00  0.90392727550E+03  0.90392727550E+03  0.25500000920E-02 0. -1.
       -2   -1    0    0    0  501  0.00000000000E+00  0.00000000000E+00 -0.16266981734E+04  0.16266981734E+04  0.25500000920E-02 0.  1.
    10030    2    1    2    0    0  0.00000000000E+00  0.00000000000E+00 -0.72277089794E+03  0.25306254489E+04  0.24252149166E+04 0.  0.
        4    1    3    3  502    0 -0.97531789719E+03 -0.69187765152E+03 -0.15145568432E+03  0.12053547704E+04  0.12699999809E+01 0. -1.
       -4    1    3    3    0  502  0.97531789719E+03  0.69187765152E+03 -0.57131521361E+03  0.13252706786E+04  0.12699999809E+01 0.  1.
</event>
<event>
 5   0  0.6600166E-05  0.2369997E+04  0.7818609E-02  0.8450822E-01
       -2   -1    0    0    0  501  0.00000000000E+00  0.00000000000E+00  0.59154926834E+03  0.59154926835E+03  0.25500000920E-02 0.  1.
        2   -1    0    0  501    0  0.00000000000E+00  0.00000000000E+00 -0.23738033170E+04  0.23738033170E+04  0.25500000920E-02 0. -1.
    10030    2    1    2    0    0  0.00000000000E+00  0.00000000000E+00 -0.17822540486E+04  0.29653525853E+04  0.23699971438E+04 0.  0.
        5    1    3    3  502    0 -0.68454449029E+03  0.50912773248E+03 -0.19201527793E+04  0.21011475419E+04  0.46999998093E+01 0. -1.
       -5    1    3    3    0  502  0.68454449029E+03 -0.50912773248E+03  0.13789873063E+03  0.86420504342E+03  0.46999998093E+01 0.  1.
</event>
<event>
 5   0  0.2943123E-05  0.2456746E+04  0.7818609E-02  0.8418559E-01
        1   -1    0    0  501    0  0.00000000000E+00  0.00000000000E+00  0.19273309096E+04  0.19273309096E+04  0.50400001928E-02 0.  1.
       -1   -1    0    0    0  501  0.00000000000E+00  0.00000000000E+00 -0.78289642452E+03  0.78289642454E+03  0.50400001928E-02 0. -1.
    10030    2    1    2    0    0  0.00000000000E+00  0.00000000000E+00  0.11444344851E+04  0.27102273342E+04  0.24567462043E+04 0.  0.
        1    1    3    3  502    0  0.10675216089E+04  0.45008552698E+03  0.10226611581E+04  0.15453204236E+04  0.50400001928E-02 0.  1.
       -1    1    3    3    0  502 -0.10675216089E+04 -0.45008552698E+03  0.12177332698E+03  0.11649069106E+04  0.50400001928E-02 0. -1.
</event>
<event>
 5   0  0.6978115E-05  0.1590054E+04  0.7818609E-02  0.8826682E-01
        2   -1    0    0  501    0  0.00000000000E+00  0.00000000000E+00  0.94098538910E+03  0.94098538910E+03  0.25500000920E-02 0. -1.
       -2   -1    0    0    0  501  0.00000000000E+00  0.00000000000E+00 -0.67170860957E+03  0.67170860958E+03  0.25500000920E-02 0.  1.
    10030    2    1    2    0    0  0.00000000000E+00  0.00000000000E+00  0.26927677953E+03  0.16126939987E+04  0.15900540712E+04 0.  0.
        4    1    3    3  502    0 -0.27899182179E+02 -0.49560806505E+03 -0.49521974748E+03  0.70117753080E+03  0.12699999809E+01 0.  1.
       -4    1    3    3    0  502  0.27899182179E+02  0.49560806505E+03  0.76449652701E+03  0.91151646788E+03  0.12699999809E+01 0. -1.
</event>
<event>
 5   0  0.2339125E-05  0.1729137E+04  0.7818609E-02  0.8744919E-01
        3   -1    0    0  501    0  0.00000000000E+00  0.00000000000E+00  0.13413815258E+04  0.13413815296E+04  0.10100000352E+00 0.  1.
       -3   -1    0    0    0  501  0.00000000000E+00  0.00000000000E+00 -0.55724540328E+03  0.55724541243E+03  0.10100000352E+00 0. -1.
    10030    2    1    2    0    0  0.00000000000E+00  0.00000000000E+00  0.78413612248E+03  0.18986269420E+04  0.17291370120E+04 0.  0.
        3    1    3    3  502    0  0.22777411324E+03  0.71851222441E+03  0.85706081524E+03  0.11413562610E+04  0.10100000352E+00 0.  1.
       -3    1    3    3    0  502 -0.22777411324E+03 -0.71851222441E+03 -0.72924692762E+02  0.75727068100E+03  0.10100000352E+00 0. -1.
</event>
<event>
 5   0  0.2943244E-05  0.1913543E+04  0.7818609E-02  0.8648144E-01
        1   -1    0    0  501    0  0.00000000000E+00  0.00000000000E+00  0.25529592702E+04  0.25529592702E+04  0.50400001928E-02 0. -1.
       -1   -1    0    0    0  501  0.00000000000E+00  0.00000000000E+00 -0.35856884416E+03  0.35856884420E+03  0.50400001928E-02 0.  1.
    10030    2    1    2    0    0  0.00000000000E+00  0.00000000000E+00  0.21943904261E+04  0.29115281144E+04  0.19135429494E+04 0.  0.
        3    1    3    3  502    0  0.27912895940E+03 -0.43441611939E+03 -0.12835733378E+03  0.53207702083E+03  0.10100000352E+00 0.  1.
       -3    1    3    3    0  502 -0.27912895940E+03  0.43441611939E+03  0.23227477598E+04  0.23794510936E+04  0.10100000352E+00 0. -1.
</event>
<event>
 5   0  0.2915546E-05  0.2434660E+04  0.7818609E-02  0.8426640E-01
       -1   -1    0    0    0  501  0.00000000000E+00  0.00000000000E+00  0.93836516663E+03  0.93836516665E+03  0.50400001928E-02 0.  1.
        1   -1    0    0  501    0  0.00000000000E+00  0.00000000000E+00 -0.15792273825E+04  0.15792273825E+04  0.50400001928E-02 0. -1.
    10030    2    1    2    0    0  0.00000000000E+00  0.00000000000E+00 -0.64086221582E+03  0.25175925491E+04  0.24346597018E+04 0.  0.
        2    1    3    3  502    0 -0.87507264869E+03  0.47148516244E+02  0.55328630509E+03  0.10363883724E+04  0.25500000920E-02 0.  1.
       -2    1    3    3    0  502  0.87507264869E+03 -0.47148516244E+02 -0.11941485209E+04  0.14812041767E+04  0.25500000920E-02 0. -1.
</event>
<event>
 5   0  0.2915546E-05  0.2432543E+04  0.7818609E-02  0.8427420E-01
        1   -1    0    0  501    0  0.00000000000E+00  0.00000000000E+00  0.10831014840E+04  0.10831014840E+04  0.50400001928E-02 0. -1.
       -1   -1    0    0    0  501  0.00000000000E+00  0.00000000000E+00 -0.13658150696E+04  0.13658150696E+04  0.50400001928E-02 0.  1.
    10030    2    1    2    0    0  0.00000000000E+00  0.00000000000E+00 -0.28271358561E+03  0.24489165536E+04  0.24325429729E+04 0.  0.
        2    1    3    3  502    0  0.57088619385E+03 -0.55216987130E+03 -0.10687051332E+04  0.13315154054E+04  0.25500000920E-02 0.  1.
       -2    1    3    3    0  502 -0.57088619385E+03  0.55216987130E+03  0.78599154758E+03  0.11174011482E+04  0.25500000920E-02 0. -1.
</event>
<event>
 5   0  0.2943123E-05  0.2408006E+04  0.7818609E-02  0.8436512E-01
        1   -1    0    0  501    0  0.00000000000E+00  0.00000000000E+00  0.22212063933E+04  0.22212063933E+04  0.50400001928E-02 0. -1.
       -1   -1    0    0    0  501  0.00000000000E+00  0.00000000000E+00 -0.65262852569E+03  0.65262852571E+03  0.50400001928E-02 0.  1.
    10030    2    1    2    0    0  0.00000000000E+00  0.00000000000E+00  0.15685778676E+04  0.28738349191E+04  0.24080055264E+04 0.  0.
        1    1    3    3  502    0 -0.30763176262E+03  0.39372896496E+03 -0.52305013334E+03  0.72335416031E+03  0.50400001928E-02 0.  1.
       -1    1    3    3    0  502  0.30763176262E+03 -0.39372896496E+03  0.20916280010E+04  0.21504807587E+04  0.50400001928E-02 0. -1.
</event>
<event>
 5   0  0.2847158E-05  0.2430150E+04  0.7818609E-02  0.8428301E-01
        1   -1    0    0  501    0  0.00000000000E+00  0.00000000000E+00  0.12020161052E+04  0.12020161052E+04  0.50400001928E-02 0. -1.
       -1   -1    0    0    0  501  0.00000000000E+00  0.00000000000E+00 -0.12282757207E+04  0.12282757207E+04  0.50400001928E-02 0.  1.
    10030    2    1    2    0    0  0.00000000000E+00  0.00000000000E+00 -0.26259615469E+02  0.24302918260E+04  0.24301499526E+04 0.  0.
        5    1    3    3  502    0 -0.51468281437E+02  0.84802707336E+03 -0.88184973710E+03  0.12245325435E+04  0.46999998093E+01 0.  1.
       -5    1    3    3    0  502  0.51468281437E+02 -0.84802707336E+03  0.85559012163E+03  0.12057592825E+04  0.46999998093E+01 0. -1.
</event>
<event>
 5   0  0.2915546E-05  0.2398804E+04  0.7818609E-02  0.8439951E-01
        1   -1    0    0  501    0  0.00000000000E+00  0.00000000000E+00  0.14692932856E+04  0.14692932857E+04  0.50400001928E-02 0.  1.
       -1   -1    0    0    0  501  0.00000000000E+00  0.00000000000E+00 -0.97908645915E+03  0.97908645916E+03  0.50400001928E-02 0. -1.
    10030    2    1    2    0    0  0.00000000000E+00  0.00000000000E+00  0.49020682649E+03  0.24483797448E+04  0.23988040024E+04 0.  0.
        2    1    3    3  502    0  0.47530028208E+02  0.24285910053E+03  0.14429530610E+04  0.14640195294E+04  0.25500000920E-02 0.  1.
       -2    1    3    3    0  502 -0.47530028208E+02 -0.24285910053E+03 -0.95274623450E+03  0.98436021539E+03  0.25500000920E-02 0. -1.
</event>
<event>
 5   0  0.6978115E-05  0.2400944E+04  0.7818609E-02  0.8439150E-01
        2   -1    0    0  501    0  0.00000000000E+00  0.00000000000E+00  0.12927560695E+04  0.12927560695E+04  0.25500000920E-02 0.  1.
       -2   -1    0    0    0  501  0.00000000000E+00  0.00000000000E+00 -0.11147753832E+04  0.11147753832E+04  0.25500000920E-02 0. -1.
    10030    2    1    2    0    0  0.00000000000E+00  0.00000000000E+00  0.17798068626E+03  0.24075314527E+04  0.24009436834E+04 0.  0.
        4    1    3    3  502    0 -0.68502924157E+03 -0.91021766363E+03  0.46867128197E+03  0.12318342585E+04  0.12699999809E+01 0.  1.
       -4    1    3    3    0  502  0.68502924157E+03  0.91021766363E+03 -0.29069059571E+03  0.11756971941E+04  0.12699999809E+01 0. -1.
</event>
<event>
 5   0  0.6978115E-05  0.2406533E+04  0.7818609E-02  0.8437062E-01
       -2   -1    0    0    0  501  0.00000000000E+00  0.00000000000E+00  0.13903907030E+04  0.13903907030E+04  0.25500000920E-02 0. -1.
        2   -1    0    0  501    0  0.00000000000E+00  0.00000000000E+00 -0.10413263565E+04  0.10413263565E+04  0.25500000920E-02 0.  1.
    10030    2    1    2    0    0  0.00000000000E+00  0.00000000000E+00  0.34906434658E+03  0.24317170595E+04  0.24065331785E+04 0.  0.
        4    1    3    3  502    0  0.81095382563E+03 -0.16379237708E+03 -0.70832429607E+03  0.10891276194E+04  0.12699999809E+01 0.  1.
       -4    1    3    3    0  502 -0.81095382563E+03  0.16379237708E+03  0.10573886426E+04  0.13425894401E+04  0.12699999809E+01 0. -1.
</event>
<event>
 5   0  0.6337926E-05  0.2292681E+04  0.7818609E-02  0.8480812E-01
       -2   -1    0    0    0  501  0.00000000000E+00  0.00000000000E+00  0.13922543285E+04  0.13922543285E+04  0.25500000920E-02 0. -1.
        2   -1    0    0  501    0  0.00000000000E+00  0.00000000000E+00 -0.94386264560E+03  0.94386264560E+03  0.25500000920E-02 0.  1.
    10030    2    1    2    0    0  0.00000000000E+00  0.00000000000E+00  0.44839168294E+03  0.23361169742E+04  0.22926812721E+04 0.  0.
        1    1    3    3  502    0  0.62815133311E+03  0.79806209309E+02  0.11978906382E+04  0.13549483789E+04  0.50400001928E-02 0. -1.
       -1    1    3    3    0  502 -0.62815133311E+03 -0.79806209309E+02 -0.74949895527E+03  0.98116859525E+03  0.50400001928E-02 0.  1.
</event>
<event>
 5   0  0.2901816E-05  0.2377891E+04  0.7818609E-02  0.8447827E-01
        1   -1    0    0  501    0  0.00000000000E+00  0.00000000000E+00  0.21768907297E+04  0.21768907297E+04  0.50400001928E-02 0. -1.
       -1   -1    0    0    0  501  0.00000000000E+00  0.00000000000E+00 -0.64936275141E+03  0.64936275143E+03  0.50400001928E-02 0.  1.
    10030    2    1    2    0    0  0.00000000000E+00  0.00000000000E+00  0.15275279783E+04  0.28262534811E+04  0.23778912959E+04 0.  0.
        4    1    3    3  502    0 -0.82042279194E+03 -0.14940078425E+03 -0.24347969689E+03  0.86873363441E+03  0.12699999809E+01 0.  1.
       -4    1    3    3    0  502  0.82042279194E+03  0.14940078425E+03  0.17710076752E+04  0.19575198467E+04  0.12699999809E+01 0. -1.
</event>
<event>
 5   0  0.2901816E-05  0.2399396E+04  0.7818609E-02  0.8439730E-01
        1   -1    0    0  501    0  0.00000000000E+00  0.00000000000E+00  0.17959557362E+04  0.17959557362E+04  0.50400001928E-02 0.  1.
       -1   -1    0    0    0  501  0.00000000000E+00  0.00000000000E+00 -0.80139829928E+03  0.80139829930E+03  0.50400001928E-02 0. -1.
    10030    2    1    2    0    0  0.00000000000E+00  0.00000000000E+00  0.99455743695E+03  0.25973540355E+04  0.23993964846E+04 0.  0.
        4    1    3    3  502    0 -0.99605161530E+03 -0.36753090276E+02 -0.22549346400E+03  0.10219190404E+04  0.12699999809E+01 0. -1.
       -4    1    3    3    0  502  0.99605161530E+03  0.36753090276E+02  0.12200509009E+04  0.15754349951E+04  0.12699999809E+01 0.  1.
</event>
<event>
 5   0  0.6600166E-05  0.1928269E+04  0.7818609E-02  0.8640912E-01
       -2   -1    0    0    0  501  0.00000000000E+00  0.00000000000E+00  0.62448987548E+03  0.62448987549E+03  0.25500000920E-02 0. -1.
        2   -1    0    0  501    0  0.00000000000E+00  0.00000000000E+00 -0.14885038578E+04  0.14885038578E+04  0.25500000920E-02 0.  1.
    10030    2    1    2    0    0  0.00000000000E+00  0.00000000000E+00 -0.86401398236E+03  0.21129937333E+04  0.19282692642E+04 0.  0.
        5    1    3    3  502    0  0.17450278192E+03  0.81984681083E+03  0.90004208991E+02  0.84304380773E+03  0.46999998093E+01 0. -1.
       -5    1    3    3    0  502 -0.17450278192E+03 -0.81984681083E+03 -0.95401819135E+03  0.12699499256E+04  0.46999998093E+01 0.  1.
</event>
<event>
 5   0  0.2847158E-05  0.2384755E+04  0.7818609E-02  0.8445233E-01
        1   -1    0    0  501    0  0.00000000000E+00  0.00000000000E+00  0.11361777883E+04  0.11361777883E+04  0.50400001928E-02 0. -1.
       -1   -1    0    0    0  501  0.00000000000E+00  0.00000000000E+00 -0.12513565574E+04  0.12513565574E+04  0.50400001928E-02 0.  1.
    10030    2    1    2    0    0  0.00000000000E+00  0.00000000000E+00 -0.11517876904E+03  0.23875343457E+04  0.23847545163E+04 0.  0.
        5    1    3    3  502    0 -0.11883815577E+04 -0.82467513179E+02 -0.56654709379E+01  0.11912622738E+04  0.46999998093E+01 0. -1.
       -5    1    3    3    0  502  0.11883815577E+04  0.82467513179E+02 -0.10951329810E+03  0.11962720719E+04  0.46999998093E+01 0.  1.
</event>
<event>
 5   0  0.2847158E-05  0.2464929E+04  0.7818609E-02  0.8415587E-01
        1   -1    0    0  501    0  0.00000000000E+00  0.00000000000E+00  0.83822769933E+03  0.83822769935E+03  0.50400001928E-02 0.  1.
       -1   -1    0    0    0  501  0.00000000000E+00  0.00000000000E+00 -0.18121200456E+04  0.18121200456E+04  0.50400001928E-02 0. -1.
    10030    2    1    2    0    0  0.00000000000E+00  0.00000000000E+00 -0.97389234626E+03  0.26503477449E+04  0.24649293838E+04 0.  0.
        5    1    3    3  502    0 -0.16164187688E+03 -0.85723395279E+03 -0.14230501595E+04  0.16691530765E+04  0.46999998093E+01 0. -1.
       -5    1    3    3    0  502  0.16164187688E+03  0.85723395279E+03  0.44915781329E+03  0.98119466846E+03  0.46999998093E+01 0.  1.
</event>
<event>
 5   0  0.6703961E-05  0.2416475E+04  0.7818609E-02  0.8433361E-01
        2   -1    0    0  501    0  0.00000000000E+00  0.00000000000E+00  0.21853361304E+04  0.21853361304E+04  0.25500000920E-02 0.  1.
       -2   -1    0    0    0  501  0.00000000000E+00  0.00000000000E+00 -0.66801504417E+03  0.66801504418E+03  0.25500000920E-02 0. -1.
    10030    2    1    2    0    0  0.00000000000E+00  0.00000000000E+00  0.15173210862E+04  0.28533511746E+04  0.24164746319E+04 0.  0.
        2    1    3    3  502    0  0.90211150730E+03  0.75264089688E+02 -0.18624336606E+03  0.92420584623E+03  0.25500000920E-02 0. -1.
       -2    1    3    3    0  502 -0.90211150730E+03 -0.75264089688E+02  0.17035644523E+04  0.19291453283E+04  0.25500000920E-02 0.  1.
</event>
<event>
 5   0  0.2943244E-05  0.2415063E+04  0.7818609E-02  0.8433886E-01
       -1   -1    0    0    0  501  0.00000000000E+00  0.00000000000E+00  0.83941932881E+03  0.83941932882E+03  0.50400001928E-02 0.  1.
        1   -1    0    0  501    0  0.00000000000E+00  0.00000000000E+00 -0.17370719766E+04  0.17370719766E+04  0.50400001928E-02 0. -1.
    10030    2    1    2    0    0  0.00000000000E+00  0.00000000000E+00 -0.89765264781E+03  0.25764913055E+04  0.24150625605E+04 0.  0.
        3    1    3    3  502    0 -0.82470706275E+03  0.30461701342E+03 -0.13319235152E+04  0.15959177688E+04  0.10100000352E+00 0. -1.
       -3    1    3    3    0  502  0.82470706275E+03 -0.30461701342E+03  0.43427086744E+03  0.98057353662E+03  0.10100000352E+00 0.  1.
</event>
<event>
 5   0  0.6714629E-05  0.2264416E+04  0.7818609E-02  0.8492085E-01
       -2   -1    0    0    0  501  0.00000000000E+00  0.00000000000E+00  0.66492271061E+03  0.66492271061E+03  0.25500000920E-02 0. -1.
        2   -1    0    0  501    0  0.00000000000E+00  0.00000000000E+00 -0.19278859434E+04  0.19278859434E+04  0.25500000920E-02 0.  1.
    10030    2    1    2    0    0  0.00000000000E+00  0.00000000000E+00 -0.12629632328E+04  0.25928086540E+04  0.22644161695E+04 0.  0.
        3    1    3    3  502    0  0.10487041529E+04  0.42333075260E+03 -0.69320473762E+03  0.13264698055E+04  0.10100000352E+00 0.  1.
       -3    1    3    3    0  502 -0.10487041529E+04 -0.42333075260E+03 -0.56975849516E+03  0.12663388485E+04  0.10100000352E+00 0. -1.
</event>
<event>
 5   0  0.2339125E-05  0.2494200E+04  0.7818609E-02  0.8405055E-01
        3   -1    0    0  501    0  0.00000000000E+00  0.00000000000E+00  0.15377438980E+04  0.15377439013E+04  0.10100000352E+00 0. -1.
       -3   -1    0    0    0  501  0.00000000000E+00  0.00000000000E+00 -0.10113893850E+04  0.10113893901E+04  0.10100000352E+00 0.  1.
    10030    2    1    2    0    0  0.00000000000E+00  0.00000000000E+00  0.52635451295E+03  0.25491332914E+04  0.24941995638E+04 0.  0.
        5    1    3    3  502    0 -0.72081536651E+03  0.62972520567E+03  0.10802264085E+04  0.14432739902E+04  0.46999998093E+01 0. -1.
       -5    1    3    3    0  502  0.72081536651E+03 -0.62972520567E+03 -0.55387189557E+03  0.11058593012E+04  0.46999998093E+01 0.  1.
</event>
<event>
 5   0  0.6978115E-05  0.2391331E+04  0.7818609E-02  0.8442756E-01
        2   -1    0    0  501    0  0.00000000000E+00  0.00000000000E+00  0.13690482702E+04  0.13690482702E+04  0.25500000920E-02 0. -1.
       -2   -1    0    0    0  501  0.00000000000E+00  0.00000000000E+00 -0.10442407847E+04  0.10442407847E+04  0.25500000920E-02 0.  1.
    10030    2    1    2    0    0  0.00000000000E+00  0.00000000000E+00  0.32480748541E+03  0.24132890549E+04  0.23913310436E+04 0.  0.
        4    1    3    3  502    0 -0.11911622150E+04 -0.12260030408E+02  0.58518254568E+02  0.11926624543E+04  0.12699999809E+01 0.  1.
       -4    1    3    3    0  502  0.11911622150E+04  0.12260030408E+02  0.26628923085E+03  0.12206266006E+04  0.12699999809E+01 0. -1.
</event>
<event>
 5   0  0.6978115E-05  0.2059849E+04  0.7818609E-02  0.8579140E-01
       -2   -1    0    0    0  501  0.00000000000E+00  0.00000000000E+00  0.86420853329E+03  0.86420853329E+03  0.25500000920E-02 0. -1.
        2   -1    0    0  501    0  0.00000000000E+00  0.00000000000E+00 -0.12274166707E+04  0.12274166707E+04  0.25500000920E-02 0.  1.
    10030    2    1    2    0    0  0.00000000000E+00  0.00000000000E+00 -0.36320813745E+03  0.20916252040E+04  0.20598485000E+04 0.  0.
        4    1    3    3  502    0 -0.10250037565E+03  0.10222797704E+04 -0.10852090823E+03  0.10331218013E+04  0.12699999809E+01 0. -1.
       -4    1    3    3    0  502  0.10250037565E+03 -0.10222797704E+04 -0.25468722923E+03  0.10585034027E+04  0.12699999809E+01 0.  1.
</event>
<event>
 5   0  0.2915546E-05  0.2641488E+04  0.7818609E-02  0.8354244E-01
        1   -1    0    0  501    0  0.00000000000E+00  0.00000000000E+00  0.24950801226E+04  0.24950801226E+04  0.50400001928E-02 0. -1.
       -1   -1    0    0    0  501  0.00000000000E+00  0.00000000000E+00 -0.69912168343E+03  0.69912168345E+03  0.50400001928E-02 0.  1.
    10030    2    1    2    0    0  0.00000000000E+00  0.00000000000E+00  0.17959584391E+04  0.31942018060E+04  0.26414879259E+04 0.  0.
        2    1    3    3  502    0 -0.12730010206E+04  0.22612898201E+03  0.57193459409E+03  0.14137804267E+04  0.25500000920E-02 0.  1.
       -2    1    3    3    0  502  0.12730010206E+04 -0.22612898201E+03  0.12240238450E+04  0.17804213794E+04  0.25500000920E-02 0. -1.
</event>
<event>
 5   0  0.6337926E-05  0.2334687E+04  0.7818609E-02  0.8464369E-01
       -2   -1    0    0    0  501  0.00000000000E+00  0.00000000000E+00  0.10807213783E+04  0.10807213783E+04  0.25500000920E-02 0.  1.
        2   -1    0    0  501    0  0.00000000000E+00  0.00000000000E+00 -0.12609081985E+04  0.12609081985E+04  0.25500000920E-02 0. -1.
    10030    2    1    2    0    0  0.00000000000E+00  0.00000000000E+00 -0.18018682021E+03  0.23416295768E+04  0.23346866567E+04 0.  0.
        1    1    3    3  502    0 -0.97231612743E+03 -0.31138595083E+03  0.47756724835E+03  0.11271336827E+04  0.50400001928E-02 0.  1.
       -1    1    3    3    0  502  0.97231612743E+03  0.31138595083E+03 -0.65775406856E+03  0.12144958941E+04  0.50400001928E-02 0. -1.
</event>
<event>
 5   0  0.2943123E-05  0.2398448E+04  0.7818609E-02  0.8440085E-01
        1   -1    0    0  501    0  0.00000000000E+00  0.00000000000E+00  0.14291740702E+04  0.14291740702E+04  0.50400001928E-02 0. -1.
       -1   -1    0    0    0  501  0.00000000000E+00  0.00000000000E+00 -0.10062720060E+04  0.10062720060E+04  0.50400001928E-02 0.  1.
    10030    2    1    2    0    0  0.00000000000E+00  0.00000000000E+00  0.42290206419E+03  0.24354460762E+04  0.23984477135E+04 0.  0.
        1    1    3    3  502    0  0.48690554937E+03  0.10750453336E+04 -0.47616874676E+01  0.11801788665E+04  0.50400001928E-02 0.  1.
       -1    1    3    3    0  502 -0.48690554937E+03 -0.10750453336E+04  0.42766375166E+03  0.12552672097E+04  0.50400001928E-02 0. -1.
</event>
<event>
 5   0  0.2847158E-05  0.2365836E+04  0.7818609E-02  0.8452406E-01
       -1   -1    0    0    0  501  0.00000000000E+00  0.00000000000E+00  0.64097330023E+03  0.64097330025E+03  0.50400001928E-02 0.  1.
        1   -1    0    0  501    0  0.00000000000E+00  0.00000000000E+00 -0.21830789993E+04  0.21830789993E+04  0.50400001928E-02 0. -1.
    10030    2    1    2    0    0  0.00000000000E+00  0.00000000000E+00 -0.15421056990E+04  0.28240522995E+04  0.23658363011E+04 0.  0.
        5    1    3    3  502    0 -0.62981765875E+02 -0.23595532849E+02 -0.21807836850E+04  0.21818256170E+04  0.46999998093E+01 0. -1.
       -5    1    3    3    0  502  0.62981765875E+02  0.23595532849E+02  0.63867798599E+03  0.64222668256E+03  0.46999998093E+01 0.  1.
</event>
<event>
 5   0  0.6337926E-05  0.2093749E+04  0.7818609E-02  0.8564002E-01
        2   -1    0    0  501    0  0.00000000000E+00  0.00000000000E+00  0.66859356421E+03  0.66859356422E+03  0.25500000920E-02 0.  1.
       -2   -1    0    0    0  501  0.00000000000E+00  0.00000000000E+00 -0.16391819701E+04  0.16391819701E+04  0.25500000920E-02 0. -1.
    10030    2    1    2    0    0  0.00000000000E+00  0.00000000000E+00 -0.97058840586E+03  0.23077755343E+04  0.20937492837E+04 0.  0.
        1    1    3    3  502    0 -0.55284350861E+03 -0.11798928258E+02 -0.14650763691E+04  0.15659578306E+04  0.50400001928E-02 0. -1.
       -1    1    3    3    0  502  0.55284350861E+03  0.11798928258E+02  0.49448796327E+03  0.74181770373E+03  0.50400001928E-02 0.  1.
</event>
<event>
 5   0  0.2847158E-05  0.2417225E+04  0.7818609E-02  0.8433083E-01
        1   -1    0    0  501    0  0.00000000000E+00  0.00000000000E+00  0.16902545675E+04  0.16902545675E+04  0.50400001928E-02 0. -1.
       -1   -1    0    0    0  501  0.00000000000E+00  0.00000000000E+00 -0.86421534152E+03  0.86421534153E+03  0.50400001928E-02 0.  1.
    10030    2    1    2    0    0  0.00000000000E+00  0.00000000000E+00  0.82603922593E+03  0.25544699090E+04  0.24172247957E+04 0.  0.
        5    1    3    3  502    0 -0.82074090107E+02 -0.46584027421E+03  0.15883631671E+04  0.16573059337E+04  0.46999998093E+01 0. -1.
       -5    1    3    3    0  502  0.82074090107E+02  0.46584027421E+03 -0.76232394114E+03  0.89716397530E+03  0.46999998093E+01 0.  1.
</event>
<event>
 5   0  0.2943244E-05  0.2393386E+04  0.7818609E-02  0.8441984E-01
        1   -1    0    0  501    0  0.00000000000E+00  0.00000000000E+00  0.84490130220E+03  0.84490130221E+03  0.50400001928E-02 0. -1.
       -1   -1    0    0    0  501  0.00000000000E+00  0.00000000000E+00 -0.16949599002E+04  0.16949599002E+04  0.50400001928E-02 0.  1.
    10030    2    1    2    0    0  0.00000000000E+00  0.00000000000E+00 -0.85005859803E+03  0.25398612025E+04  0.23933857415E+04 0.  0.
        3    1    3    3  502    0 -0.29204308459E+03  0.87587456396E+03 -0.12329562832E+04  0.15403332826E+04  0.10100000352E+00 0.  1.
       -3    1    3    3    0  502  0.29204308459E+03 -0.87587456396E+03  0.38289768516E+03  0.99952791984E+03  0.10100000352E+00 0. -1.
</event>
<event>
 5   0  0.2901816E-05  0.2367175E+04  0.7818609E-02  0.8451896E-01
        1   -1    0    0  501    0  0.00000000000E+00  0.00000000000E+00  0.19037089100E+04  0.19037089100E+04  0.50400001928E-02 0.  1.
       -1   -1    0    0    0  501  0.00000000000E+00  0.00000000000E+00 -0.73586851912E+03  0.73586851914E+03  0.50400001928E-02 0. -1.
    10030    2    1    2    0    0  0.00000000000E+00  0.00000000000E+00  0.11678403909E+04  0.26395774291E+04  0.23671750729E+04 0.  0.
        4    1    3    3  502    0 -0.64064356906E+03 -0.36155145504E+03  0.16178382766E+04  0.17772298499E+04  0.12699999809E+01 0.  1.
       -4    1    3    3    0  502  0.64064356906E+03  0.36155145504E+03 -0.44999788579E+03  0.86234757919E+03  0.12699999809E+01 0. -1.
</event>
<event>
 5   0  0.6600166E-05  0.2381167E+04  0.7818609E-02  0.8446588E-01
       -2   -1    0    0    0  501  0.00000000000E+00  0.00000000000E+00  0.67348454682E+03  0.67348454683E+03  0.25500000920E-02 0.  1.
        2   -1    0    0  501    0  0.00000000000E+00  0.00000000000E+00 -0.21047090790E+04  0.21047090790E+04  0.25500000920E-02 0. -1.
    10030    2    1    2    0    0  0.00000000000E+00  0.00000000000E+00 -0.14312245322E+04  0.27781936258E+04  0.23811669746E+04 0.  0.
        5    1    3    3  502    0 -0.75249212799E+03 -0.91767448095E+03 -0.82688791735E+03  0.14464219901E+04  0.46999998093E+01 0.  1.
       -5    1    3    3    0  502  0.75249212799E+03  0.91767448095E+03 -0.60433661484E+03  0.13317716357E+04  0.46999998093E+01 0. -1.
</event>
<event>
 5   0  0.6337926E-05  0.2421505E+04  0.7818609E-02  0.8431496E-01
        2   -1    0    0  501    0  0.00000000000E+00  0.00000000000E+00  0.13536427946E+04  0.13536427946E+04  0.25500000920E-02 0. -1.
       -2   -1    0    0    0  501  0.00000000000E+00  0.00000000000E+00 -0.10829456910E+04  0.10829456910E+04  0.25500000920E-02 0.  1.
    10030    2    1    2    0    0  0.00000000000E+00  0.00000000000E+00  0.27069710358E+03  0.24365884857E+04  0.24215050127E+04 0.  0.
        1    1    3    3  502    0 -0.29985161085E+03 -0.10196997230E+04  0.71880789777E+03  0.12831146899E+04  0.50400001928E-02 0. -1.
       -1    1    3    3    0  502  0.29985161085E+03  0.10196997230E+04 -0.44811079419E+03  0.11534737957E+04  0.50400001928E-02 0.  1.
</event>
<event>
 5   0  0.2915546E-05  0.2368377E+04  0.7818609E-02  0.8451438E-01
        1   -1    0    0  501    0  0.00000000000E+00  0.00000000000E+00  0.22999172128E+04  0.22999172128E+04  0.50400001928E-02 0.  1.
       -1   -1    0    0    0  501  0.00000000000E+00  0.00000000000E+00 -0.60971872767E+03  0.60971872769E+03  0.50400001928E-02 0. -1.
    10030    2    1    2    0    0  0.00000000000E+00  0.00000000000E+00  0.16901984852E+04  0.29096359405E+04  0.23683771632E+04 0.  0.
        2    1    3    3  502    0 -0.57171495477E+03 -0.20219877560E+03  0.20946839003E+04  0.21806978187E+04  0.25500000920E-02 0.  1.
       -2    1    3    3    0  502  0.57171495477E+03  0.20219877560E+03 -0.40448541515E+03  0.72893812181E+03  0.25500000920E-02 0. -1.
</event>
<event>
 5   0  0.2847158E-05  0.2347496E+04  0.7818609E-02  0.8459426E-01
        1   -1    0    0  501    0  0.00000000000E+00  0.00000000000E+00  0.14532461307E+04  0.14532461307E+04  0.50400001928E-02 0. -1.
       -1   -1    0    0    0  501  0.00000000000E+00  0.00000000000E+00 -0.94800465408E+03  0.94800465410E+03  0.50400001928E-02 0.  1.
    10030    2    1    2    0    0  0.00000000000E+00  0.00000000000E+00  0.50524147658E+03  0.24012507848E+04  0.23474957682E+04 0.  0.
        5    1    3    3  502    0  0.37987097366E+03 -0.56078817094E+03  0.12331517091E+04  0.14069365860E+04  0.46999998093E+01 0. -1.
       -5    1    3    3    0  502 -0.37987097366E+03  0.56078817094E+03 -0.72791023253E+03  0.99431419879E+03  0.46999998093E+01 0.  1.
</event>
<event>
 5   0  0.6714629E-05  0.2411903E+04  0.7818609E-02  0.8435061E-01
        2   -1    0    0  501    0  0.00000000000E+00  0.00000000000E+00  0.12380702254E+04  0.12380702254E+04  0.25500000920E-02 0.  1.
       -2   -1    0    0    0  501  0.00000000000E+00  0.00000000000E+00 -0.11746657692E+04  0.11746657692E+04  0.25500000920E-02 0. -1.
    10030    2    1    2    0    0  0.00000000000E+00  0.00000000000E+00  0.63404456131E+02  0.24127359946E+04  0.24119027457E+04 0.  0.
        3    1    3    3  502    0  0.22082613235E+03 -0.40825414257E+03  0.11451380047E+04  0.12356280531E+04  0.10100000352E+00 0.  1.
       -3    1    3    3    0  502 -0.22082613235E+03  0.40825414257E+03 -0.10817335486E+04  0.11771079415E+04  0.10100000352E+00 0. -1.
</event>
<event>
 5   0  0.6337926E-05  0.2455783E+04  0.7818609E-02  0.8418910E-01
       -2   -1    0    0    0  501  0.00000000000E+00  0.00000000000E+00  0.83330167341E+03  0.83330167342E+03  0.25500000920E-02 0. -1.
        2   -1    0    0  501    0  0.00000000000E+00  0.00000000000E+00 -0.18093296367E+04  0.18093296367E+04  0.25500000920E-02 0.  1.
    10030    2    1    2    0    0  0.00000000000E+00  0.00000000000E+00 -0.97602796329E+03  0.26426313101E+04  0.24557829008E+04 0.  0.
        1    1    3    3  502    0  0.42463595191E+03  0.44133704681E+03  0.65720716127E+03  0.89834032159E+03  0.50400001928E-02 0. -1.
       -1    1    3    3    0  502 -0.42463595191E+03 -0.44133704681E+03 -0.16332351246E+04  0.17442909885E+04  0.50400001928E-02 0.  1.
</event>
<event>
 5   0  0.2847158E-05  0.2412549E+04  0.7818609E-02  0.8434820E-01
       -1   -1    0    0    0  501  0.00000000000E+00  0.00000000000E+00  0.10055054085E+04  0.10055054085E+04  0.50400001928E-02 0.  1.
        1   -1    0    0  501    0  0.00000000000E+00  0.00000000000E+00 -0.14471306626E+04  0.14471306626E+04  0.50400001928E-02 0. -1.
    10030    2    1    2    0    0  0.00000000000E+00  0.00000000000E+00 -0.44162525414E+03  0.24526360711E+04  0.24125486176E+04 0.  0.
        5    1    3    3  502    0  0.79126330278E+03  0.70901868866E+03 -0.80150476129E+03  0.13308783143E+04  0.46999998093E+01 0. -1.
       -5    1    3    3    0  502 -0.79126330278E+03 -0.70901868866E+03  0.35987950715E+03  0.11217577568E+04  0.46999998093E+01 0.  1.
</event>
<event>
 5   0  0.2915546E-05  0.2383395E+04  0.7818609E-02  0.8445746E-01
       -1   -1    0    0    0  501  0.00000000000E+00  0.00000000000E+00  0.10442559320E+04  0.10442559320E+04  0.50400001928E-02 0.  1.
        1   -1    0    0  501    0  0.00000000000E+00  0.00000000000E+00 -0.13599570889E+04  0.13599570889E+04  0.50400001928E-02 0. -1.
    10030    2    1    2    0    0  0.00000000000E+00  0.00000000000E+00 -0.31570115690E+03  0.24042130208E+04  0.23833952734E+04 0.  0.
        2    1    3    3  502    0  0.17428763477E+03 -0.99308074852E+03  0.48296002990E+03  0.11179606179E+04  0.25500000920E-02 0.  1.
       -2    1    3    3    0  502 -0.17428763477E+03  0.99308074852E+03 -0.79866118680E+03  0.12862524029E+04  0.25500000920E-02 0. -1.
</event>
<event>
 5   0  0.2847158E-05  0.2421340E+04  0.7818609E-02  0.8431557E-01
       -1   -1    0    0    0  501  0.00000000000E+00  0.00000000000E+00  0.84731613984E+03  0.84731613986E+03  0.50400001928E-02 0. -1.
        1   -1    0    0  501    0  0.00000000000E+00  0.00000000000E+00 -0.17298405516E+04  0.17298405516E+04  0.50400001928E-02 0.  1.
    10030    2    1    2    0    0  0.00000000000E+00  0.00000000000E+00 -0.88252441176E+03  0.25771566915E+04  0.24213399751E+04 0.  0.
        5    1    3    3  502    0 -0.61396038377E+03  0.50734070137E+03  0.52920091770E+03  0.95625187132E+03  0.46999998093E+01 0. -1.
       -5    1    3    3    0  502  0.61396038377E+03 -0.50734070137E+03 -0.14117253295E+04  0.16209048201E+04  0.46999998093E+01 0.  1.
</event>
<event>
 5   0  0.2915546E-05  0.2141497E+04  0.7818609E-02  0.8543181E-01
        1   -1    0    0  501    0  0.00000000000E+00  0.00000000000E+00  0.10284125884E+04  0.10284125884E+04  0.50400001928E-02 0.  1.
       -1   -1    0    0    0  501  0.00000000000E+00  0.00000000000E+00 -0.11148270559E+04  0.11148270559E+04  0.50400001928E-02 0. -1.
    10030    2    1    2    0    0  0.00000000000E+00  0.00000000000E+00 -0.86414467441E+02  0.21432396443E+04  0.21414968393E+04 0.  0.
        2    1    3    3  502    0 -0.62169334319E+03 -0.79950442292E+03  0.30462739743E+03  0.10575952848E+04  0.25500000920E-02 0.  1.
       -2    1    3    3    0  502  0.62169334319E+03  0.79950442292E+03 -0.39104186487E+03  0.10856443595E+04  0.25500000920E-02 0. -1.
</event>
<event>
 5   0  0.2847158E-05  0.1574319E+04  0.7818609E-02  0.8836482E-01
       -1   -1    0    0    0  501  0.00000000000E+00  0.00000000000E+00  0.75838103182E+03  0.75838103183E+03  0.50400001928E-02 0. -1.
        1   -1    0    0  501    0  0.00000000000E+00  0.00000000000E+00 -0.81702972475E+03  0.81702972477E+03  0.50400001928E-02 0.  1.
    10030    2    1    2    0    0  0.00000000000E+00  0.00000000000E+00 -0.58648692938E+02  0.15754107566E+04  0.15743187043E+04 0.  0.
        5    1    3    3  502    0 -0.60216405174E+03  0.42321306959E+03 -0.30860019718E+03  0.79810213581E+03  0.46999998093E+01 0.  1.
       -5    1    3    3    0  502  0.60216405174E+03 -0.42321306959E+03  0.24995150424E+03  0.77730862079E+03  0.46999998093E+01 0. -1.
</event>
<event>
 5   0  0.2915546E-05  0.2452959E+04  0.7818609E-02  0.8419939E-01
        1   -1    0    0  501    0  0.00000000000E+00  0.00000000000E+00  0.11149273291E+04  0.11149273292E+04  0.50400001928E-02 0.  1.
       -1   -1    0    0    0  501  0.00000000000E+00  0.00000000000E+00 -0.13491925162E+04  0.13491925162E+04  0.50400001928E-02 0. -1.
    10030    2    1    2    0    0  0.00000000000E+00  0.00000000000E+00 -0.23426518702E+03  0.24641198453E+04  0.24529587103E+04 0.  0.
        2    1    3    3  502    0 -0.30637048241E+03 -0.11805132886E+04  0.12983250273E+02  0.12196897400E+04  0.25500000920E-02 0.  1.
       -2    1    3    3    0  502  0.30637048241E+03  0.11805132886E+04 -0.24724843729E+03  0.12444301053E+04  0.25500000920E-02 0. -1.
</event>
<event>
 5   0  0.6714629E-05  0.2608474E+04  0.7818609E-02  0.8365328E-01
       -2   -1    0    0    0  501  0.00000000000E+00  0.00000000000E+00  0.83135796460E+03  0.83135796460E+03  0.25500000920E-02 0. -1.
        2   -1    0    0  501    0  0.00000000000E+00  0.00000000000E+00 -0.20460911178E+04  0.20460911178E+04  0.25500000920E-02 0.  1.
    10030    2    1    2    0    0  0.00000000000E+00  0.00000000000E+00 -0.12147331532E+04  0.28774490824E+04  0.26084739961E+04 0.  0.
        3    1    3    3  502    0  0.70229811292E+03 -0.14371600293E+03 -0.18092857206E+04  0.19461222361E+04  0.10100000352E+00 0.  1.
       -3    1    3    3    0  502 -0.70229811292E+03  0.14371600293E+03  0.59455256744E+03  0.93132684625E+03  0.10100000352E+00 0. -1.
</event>
<event>
 5   0  0.6703961E-05  0.2360341E+04  0.7818609E-02  0.8454502E-01
        2   -1    0    0  501    0  0.00000000000E+00  0.00000000000E+00  0.16282321252E+04  0.16282321252E+04  0.25500000920E-02 0. -1.
       -2   -1    0    0    0  501  0.00000000000E+00  0.00000000000E+00 -0.85540797127E+03  0.85540797127E+03  0.25500000920E-02 0.  1.
    10030    2    1    2    0    0  0.00000000000E+00  0.00000000000E+00  0.77282415396E+03  0.24836400965E+04  0.23603412796E+04 0.  0.
        2    1    3    3  502    0  0.22673951894E+03 -0.84284390719E+03  0.12222664751E+04  0.15019094505E+04  0.25500000920E-02 0. -1.
       -2    1    3    3    0  502 -0.22673951894E+03  0.84284390719E+03 -0.44944232111E+03  0.98173064603E+03  0.25500000920E-02 0.  1.
</event>
<event>
 5   0  0.6337926E-05  0.2427363E+04  0.7818609E-02  0.8429330E-01
       -2   -1    0    0    0  501  0.00000000000E+00  0.00000000000E+00  0.73785542674E+03  0.73785542675E+03  0.25500000920E-02 0.  1.
        2   -1    0    0  501    0  0.00000000000E+00  0.00000000000E+00 -0.19963562667E+04  0.19963562668E+04  0.25500000920E-02 0. -1.
    10030    2    1    2    0    0  0.00000000000E+00  0.00000000000E+00 -0.12585008400E+04  0.27342116935E+04  0.24273626059E+04 0.  0.
        1    1    3    3  502    0  0.41390723914E+02 -0.10741975409E+04 -0.12638604484E+04  0.16592036590E+04  0.50400001928E-02 0.  1.
       -1    1    3    3    0  502 -0.41390723914E+02  0.10741975409E+04  0.53596084096E+01  0.10750080345E+04  0.50400001928E-02 0. -1.
</event>
<event>
 5   0  0.2915546E-05  0.2287890E+04  0.7818609E-02  0.8482711E-01
       -1   -1    0    0    0  501  0.00000000000E+00  0.00000000000E+00  0.12560108736E+04  0.12560108736E+04  0.50400001928E-02 0.  1.
        1   -1    0    0  501    0  0.00000000000E+00  0.00000000000E+00 -0.10418780859E+04  0.10418780859E+04  0.50400001928E-02 0. -1.
    10030    2    1    2    0    0  0.00000000000E+00  0.00000000000E+00  0.21413278772E+03  0.22978889595E+04  0.22878900366E+04 0.  0.
        2    1    3    3  502    0  0.40463689482E+03  0.10002830531E+04  0.48861214519E+03  0.11844994856E+04  0.25500000920E-02 0.  1.
       -2    1    3    3    0  502 -0.40463689482E+03 -0.10002830531E+04 -0.27447935747E+03  0.11133894739E+04  0.25500000920E-02 0. -1.
</event>
<event>
 5   0  0.6978115E-05  0.2388228E+04  0.7818609E-02  0.8443924E-01
       -2   -1    0    0    0  501  0.00000000000E+00  0.00000000000E+00  0.62897660985E+03  0.62897660986E+03  0.25500000920E-02 0. -1.
        2   -1    0    0  501    0  0.00000000000E+00  0.00000000000E+00 -0.22670287826E+04  0.22670287826E+04  0.25500000920E-02 0.  1.
    10030    2    1    2    0    0  0.00000000000E+00  0.00000000000E+00 -0.16380521728E+04  0.28960053925E+04  0.23882278603E+04 0.  0.
        4    1    3    3  502    0  0.16991075954E+03 -0.63736045040E+03 -0.20260571801E+04  0.21307292929E+04  0.12699999809E+01 0.  1.
       -4    1    3    3    0  502 -0.16991075954E+03  0.63736045040E+03  0.38800500730E+03  0.76527609954E+03  0.12699999809E+01 0. -1.
</event>
<event>
 5   0  0.2943123E-05  0.2387559E+04  0.7818609E-02  0.8444176E-01
       -1   -1    0    0    0  501  0.00000000000E+00  0.00000000000E+00  0.74296407337E+03  0.74296407339E+03  0.50400001928E-02 0.  1.
        1   -1    0    0  501    0  0.00000000000E+00  0.00000000000E+00 -0.19181408487E+04  0.19181408487E+04  0.50400001928E-02 0. -1.
    10030    2    1    2    0    0  0.00000000000E+00  0.00000000000E+00 -0.11751767753E+04  0.26611049221E+04  0.23875592041E+04 0.  0.
        1    1    3    3  502    0  0.77693691573E+03  0.80430255506E+03 -0.10532820481E+04  0.15362085288E+04  0.50400001928E-02 0. -1.
       -1    1    3    3    0  502 -0.77693691573E+03 -0.80430255506E+03 -0.12189472726E+03  0.11248963933E+04  0.50400001928E-02 0.  1.
</event>
<event>
 5   0  0.2901816E-05  0.2382140E+04  0.7818609E-02  0.8446220E-01
        1   -1    0    0  501    0  0.00000000000E+00  0.00000000000E+00  0.16801870689E+04  0.16801870689E+04  0.50400001928E-02 0.  1.
       -1   -1    0    0    0  501  0.00000000000E+00  0.00000000000E+00 -0.84433928161E+03  0.84433928163E+03  0.50400001928E-02 0. -1.
    10030    2    1    2    0    0  0.00000000000E+00  0.00000000000E+00  0.83584778729E+03  0.25245263505E+04  0.23821401661E+04 0.  0.
        4    1    3    3  502    0 -0.55413643517E+03 -0.89324124485E+03 -0.17564251515E+03  0.10657387186E+04  0.12699999809E+01 0. -1.
       -4    1    3    3    0  502  0.55413643517E+03  0.89324124485E+03  0.10114903024E+04  0.14587876319E+04  0.12699999809E+01 0.  1.
</event>
<event>
 5   0  0.6714629E-05  0.2365187E+04  0.7818609E-02  0.8452653E-01
        2   -1    0    0  501    0  0.00000000000E+00  0.00000000000E+00  0.14888765984E+04  0.14888765984E+04  0.25500000920E-02 0. -1.
       -2   -1    0    0    0  501  0.00000000000E+00  0.00000000000E+00 -0.93931713884E+03  0.93931713884E+03  0.25500000920E-02 0.  1.
    10030    2    1    2    0    0  0.00000000000E+00  0.00000000000E+00  0.54955945957E+03  0.24281937372E+04  0.23651869326E+04 0.  0.
        3    1    3    3  502    0 -0.64381557103E+03 -0.95159964266E+03  0.56239803718E+03  0.12791919058E+04  0.10100000352E+00 0. -1.
       -3    1    3    3    0  502  0.64381557103E+03  0.95159964266E+03 -0.12838577613E+02  0.11490018315E+04  0.10100000352E+00 0.  1.
</event>
<event>
 5   0  0.2847158E-05  0.2370136E+04  0.7818609E-02  0.8450769E-01
        1   -1    0    0  501    0  0.00000000000E+00  0.00000000000E+00  0.11407293159E+04  0.11407293159E+04  0.50400001928E-02 0. -1.
       -1   -1    0    0    0  501  0.00000000000E+00  0.00000000000E+00 -0.12311305614E+04  0.12311305614E+04  0.50400001928E-02 0.  1.
    10030    2    1    2    0    0  0.00000000000E+00  0.00000000000E+00 -0.90401245472E+02  0.23718598773E+04  0.23701364713E+04 0.  0.
        5    1    3    3  502    0 -0.57871342801E+03 -0.83709588549E+03 -0.65287018822E+03  0.12090907021E+04  0.46999998093E+01 0.  1.
       -5    1    3    3    0  502  0.57871342801E+03  0.83709588549E+03  0.56246894275E+03  0.11627691752E+04  0.46999998093E+01 0. -1.
</event>
<event>
 5   0  0.6714629E-05  0.2357348E+04  0.7818609E-02  0.8455647E-01
       -2   -1    0    0    0  501  0.00000000000E+00  0.00000000000E+00  0.84467732202E+03  0.84467732202E+03  0.25500000920E-02 0.  1.
        2   -1    0    0  501    0  0.00000000000E+00  0.00000000000E+00 -0.16447375953E+04  0.16447375953E+04  0.25500000920E-02 0. -1.
    10030    2    1    2    0    0  0.00000000000E+00  0.00000000000E+00 -0.80006027331E+03  0.24894149174E+04  0.23573481266E+04 0.  0.
        3    1    3    3  502    0 -0.24062158863E+02  0.84529967215E+03 -0.12671032192E+04  0.15233716229E+04  0.10100000352E+00 0. -1.
       -3    1    3    3    0  502  0.24062158863E+02 -0.84529967215E+03  0.46704294589E+03  0.96604329444E+03  0.10100000352E+00 0.  1.
</event>
<event>
 5   0  0.2901816E-05  0.2113158E+04  0.7818609E-02  0.8555469E-01
       -1   -1    0    0    0  501  0.00000000000E+00  0.00000000000E+00  0.68618515508E+03  0.68618515509E+03  0.50400001928E-02 0.  1.
        1   -1    0    0  501    0  0.00000000000E+00  0.00000000000E+00 -0.16269071513E+04  0.16269071513E+04  0.50400001928E-02 0. -1.
    10030    2    1    2    0    0  0.00000000000E+00  0.00000000000E+00 -0.94072199623E+03  0.23130923064E+04  0.21131583338E+04 0.  0.
        4    1    3    3  502    0  0.56018250097E+03  0.84900821493E+03 -0.78331057038E+03  0.12838210335E+04  0.12699999809E+01 0.  1.
       -4    1    3    3    0  502 -0.56018250097E+03 -0.84900821493E+03 -0.15741142585E+03  0.10292712729E+04  0.12699999809E+01 0. -1.
</event>
<event>
 5   0  0.2847158E-05  0.2385269E+04  0.7818609E-02  0.8445039E-01
        1   -1    0    0  501    0  0.00000000000E+00  0.00000000000E+00  0.10684801704E+04  0.10684801704E+04  0.50400001928E-02 0. -1.
       -1   -1    0    0    0  501  0.00000000000E+00  0.00000000000E+00 -0.13312151063E+04  0.13312151063E+04  0.50400001928E-02 0.  1.
    10030    2    1    2    0    0  0.00000000000E+00  0.00000000000E+00 -0.26273493592E+03  0.23996952768E+04  0.23852689104E+04 0.  0.
        5    1    3    3  502    0 -0.80996840404E+03  0.45026675982E+03  0.62388316196E+03  0.11171576703E+04  0.46999998093E+01 0. -1.
       -5    1    3    3    0  502  0.80996840404E+03 -0.45026675982E+03 -0.88661809788E+03  0.12825376065E+04  0.46999998093E+01 0.  1.
</event>
<event>
 5   0  0.6600166E-05  0.2089843E+04  0.7818609E-02  0.8565731E-01
        2   -1    0    0  501    0  0.00000000000E+00  0.00000000000E+00  0.10439628665E+04  0.10439628665E+04  0.25500000920E-02 0.  1.
       -2   -1    0    0    0  501  0.00000000000E+00  0.00000000000E+00 -0.10458811960E+04  0.10458811960E+04  0.25500000920E-02 0. -1.
    10030    2    1    2    0    0  0.00000000000E+00  0.00000000000E+00 -0.19183295654E+01  0.20898440625E+04  0.20898431820E+04 0.  0.
        5    1    3    3  502    0  0.19329046235E+02 -0.20117233262E+03 -0.10261401281E+04  0.10458630751E+04  0.46999998093E+01 0. -1.
       -5    1    3    3    0  502 -0.19329046235E+02  0.20117233262E+03  0.10242217985E+04  0.10439809874E+04  0.46999998093E+01 0.  1.
</event>
<event>
 5   0  0.2943123E-05  0.2404348E+04  0.7818609E-02  0.8437878E-01
        1   -1    0    0  501    0  0.00000000000E+00  0.00000000000E+00  0.31207184319E+04  0.31207184319E+04  0.50400001928E-02 0.  1.
       -1   -1    0    0    0  501  0.00000000000E+00  0.00000000000E+00 -0.46310551270E+03  0.46310551273E+03  0.50400001928E-02 0. -1.
    10030    2    1    2    0    0  0.00000000000E+00  0.00000000000E+00  0.26576129192E+04  0.35838239447E+04  0.24043476533E+04 0.  0.
        1    1    3    3  502    0 -0.74533140116E+03 -0.58455375824E+03  0.22538951597E+03  0.97366443283E+03  0.50400001928E-02 0. -1.
       -1    1    3    3    0  502  0.74533140116E+03  0.58455375824E+03  0.24322234032E+04  0.26101595118E+04  0.50400001928E-02 0.  1.
</event>
<event>
 5   0  0.6600166E-05  0.2367108E+04  0.7818609E-02  0.8451922E-01
        2   -1    0    0  501    0  0.00000000000E+00  0.00000000000E+00  0.12481796768E+04  0.12481796768E+04  0.25500000920E-02 0. -1.
       -2   -1    0    0    0  501  0.00000000000E+00  0.00000000000E+00 -0.11222741423E+04  0.11222741423E+04  0.25500000920E-02 0.  1.
    10030    2    1    2    0    0  0.00000000000E+00  0.00000000000E+00  0.12590553448E+03  0.23704538192E+04  0.23671077511E+04 0.  0.
        5    1    3    3  502    0 -0.73804272563E+02 -0.17669965708E+03 -0.11066484859E+04  0.11231040917E+04  0.46999998093E+01 0.  1.
       -5    1    3    3    0  502  0.73804272563E+02  0.17669965708E+03  0.12325540204E+04  0.12473497275E+04  0.46999998093E+01 0. -1.
</event>
<event>
 5   0  0.2915546E-05  0.2426450E+04  0.7818609E-02  0.8429667E-01
       -1   -1    0    0    0  501  0.00000000000E+00  0.00000000000E+00  0.18501154846E+04  0.18501154846E+04  0.50400001928E-02 0. -1.
        1   -1    0    0  501    0  0.00000000000E+00  0.00000000000E+00 -0.79558032523E+03  0.79558032524E+03  0.50400001928E-02 0.  1.
    10030    2    1    2    0    0  0.00000000000E+00  0.00000000000E+00  0.10545351593E+04  0.26456958098E+04  0.24264504767E+04 0.  0.
        2    1    3    3  502    0  0.32779589931E+03  0.33235534615E+03 -0.69373942434E+03  0.83617259977E+03  0.25500000920E-02 0.  1.
       -2    1    3    3    0  502 -0.32779589931E+03 -0.33235534615E+03  0.17482745837E+04  0.18095232100E+04  0.25500000920E-02 0. -1.
</event>
<event>
 5   0  0.2943244E-05  0.2425848E+04  0.7818609E-02  0.8429890E-01
        1   -1    0    0  501    0  0.00000000000E+00  0.00000000000E+00  0.13702128069E+04  0.13702128069E+04  0.50400001928E-02 0. -1.
       -1   -1    0    0    0  501  0.00000000000E+00  0.00000000000E+00 -0.10736902899E+04  0.10736902899E+04  0.50400001928E-02 0.  1.
    10030    2    1    2    0    0  0.00000000000E+00  0.00000000000E+00  0.29652251703E+03  0.24439030968E+04  0.24258476340E+04 0.  0.
        3    1    3    3  502    0  0.46807271321E+03  0.68265595892E+03 -0.74494526993E+03  0.11135774282E+04  0.10100000352E+00 0.  1.
       -3    1    3    3    0  502 -0.46807271321E+03 -0.68265595892E+03  0.10414677870E+04  0.13303256686E+04  0.10100000352E+00 0. -1.
</event>
<event>
 5   0  0.2847158E-05  0.2403875E+04  0.7818609E-02  0.8438054E-01
        1   -1    0    0  501    0  0.00000000000E+00  0.00000000000E+00  0.13460017536E+04  0.13460017536E+04  0.50400001928E-02 0.  1.
       -1   -1    0    0    0  501  0.00000000000E+00  0.00000000000E+00 -0.10732928044E+04  0.10732928044E+04  0.50400001928E-02 0. -1.
    10030    2    1    2    0    0  0.00000000000E+00  0.00000000000E+00  0.27270894922E+03  0.24192945580E+04  0.24038752021E+04 0.  0.
        5    1    3    3  502    0 -0.30302157330E+02  0.48763802020E+03  0.12415435741E+04  0.13342269657E+04  0.46999998093E+01 0.  1.
       -5    1    3    3    0  502  0.30302157330E+02 -0.48763802020E+03 -0.96883462490E+03  0.10850675923E+04  0.46999998093E+01 0. -1.
</event>
<event>
 5   0  0.6703961E-05  0.2410689E+04  0.7818609E-02  0.8435513E-01
       -2   -1    0    0    0  501  0.00000000000E+00  0.00000000000E+00  0.10195227256E+04  0.10195227256E+04  0.25500000920E-02 0.  1.
        2   -1    0    0  501    0  0.00000000000E+00  0.00000000000E+00 -0.14250348739E+04  0.14250348739E+04  0.25500000920E-02 0. -1.
    10030    2    1    2    0    0  0.00000000000E+00  0.00000000000E+00 -0.40551214826E+03  0.24445575995E+04  0.24106890623E+04 0.  0.
        2    1    3    3  502    0  0.94595001810E+03 -0.54802502009E+03 -0.71753227457E+03  0.13076717571E+04  0.25500000920E-02 0. -1.
       -2    1    3    3    0  502 -0.94595001810E+03  0.54802502009E+03  0.31202012632E+03  0.11368858424E+04  0.25500000920E-02 0.  1.
</event>
<event>
 5   0  0.6337926E-05  0.2379206E+04  0.7818609E-02  0.8447330E-01
        2   -1    0    0  501    0  0.00000000000E+00  0.00000000000E+00  0.14601033352E+04  0.14601033352E+04  0.25500000920E-02 0.  1.
       -2   -1    0    0    0  501  0.00000000000E+00  0.00000000000E+00 -0.96921565478E+03  0.96921565478E+03  0.25500000920E-02 0. -1.
    10030    2    1    2    0    0  0.00000000000E+00  0.00000000000E+00  0.49088768046E+03  0.24293189900E+04  0.23792057583E+04 0.  0.
        1    1    3    3  502    0 -0.96489036231E+03  0.67205099957E+03  0.61400092821E+02  0.11774701392E+04  0.50400001928E-02 0. -1.
       -1    1    3    3    0  502  0.96489036231E+03 -0.67205099957E+03  0.42948758764E+03  0.12518488508E+04  0.50400001928E-02 0.  1.
</event>
<event>
 5   0  0.2943123E-05  0.2410197E+04  0.7818609E-02  0.8435696E-01
       -1   -1    0    0    0  501  0.00000000000E+00  0.00000000000E+00  0.12271718106E+04  0.12271718106E+04  0.50400001928E-02 0. -1.
        1   -1    0    0  501    0  0.00000000000E+00  0.00000000000E+00 -0.11834220936E+04  0.11834220936E+04  0.50400001928E-02 0.  1.
    10030    2    1    2    0    0  0.00000000000E+00  0.00000000000E+00  0.43749716930E+02  0.24105939042E+04  0.24101968661E+04 0.  0.
        1    1    3    3  502    0  0.38881052467E+03 -0.10370988751E+04 -0.45308707451E+03  0.11966768979E+04  0.50400001928E-02 0.  1.
       -1    1    3    3    0  502 -0.38881052467E+03  0.10370988751E+04  0.49683679144E+03  0.12139170063E+04  0.50400001928E-02 0. -1.
</event>
<event>
 5   0  0.2943244E-05  0.2295367E+04  0.7818609E-02  0.8479750E-01
       -1   -1    0    0    0  501  0.00000000000E+00  0.00000000000E+00  0.81583529566E+03  0.81583529568E+03  0.50400001928E-02 0.  1.
        1   -1    0    0  501    0  0.00000000000E+00  0.00000000000E+00 -0.16145137858E+04  0.16145137858E+04  0.50400001928E-02 0. -1.
    10030    2    1    2    0    0  0.00000000000E+00  0.00000000000E+00 -0.79867849015E+03  0.24303490815E+04  0.22953669265E+04 0.  0.
        3    1    3    3  502    0 -0.17174241930E+03 -0.26627879310E+03  0.76860501688E+03  0.83135644366E+03  0.10100000352E+00 0.  1.
       -3    1    3    3    0  502  0.17174241930E+03  0.26627879310E+03 -0.15672835070E+04  0.15989926378E+04  0.10100000352E+00 0. -1.
</event>
<event>
 5   0  0.2943244E-05  0.1607124E+04  0.7818609E-02  0.8816183E-01
       -1   -1    0    0    0  501  0.00000000000E+00  0.00000000000E+00  0.54157742953E+03  0.54157742955E+03  0.50400001928E-02 0. -1.
        1   -1    0    0  501    0  0.00000000000E+00  0.00000000000E+00 -0.11922797697E+04  0.11922797698E+04  0.50400001928E-02 0.  1.
    10030    2    1    2    0    0  0.00000000000E+00  0.00000000000E+00 -0.65070234022E+03  0.17338571993E+04  0.16071239069E+04 0.  0.
        3    1    3    3  502    0 -0.62264727670E+03 -0.44307501577E+03 -0.57354046748E+02  0.76635148441E+03  0.10100000352E+00 0. -1.
       -3    1    3    3    0  502  0.62264727670E+03  0.44307501577E+03 -0.59334829347E+03  0.96750571489E+03  0.10100000352E+00 0.  1.
</event>
<event>
 5   0  0.2915546E-05  0.2374152E+04  0.7818609E-02  0.8449244E-01
        1   -1    0    0  501    0  0.00000000000E+00  0.00000000000E+00  0.13316097317E+04  0.13316097318E+04  0.50400001928E-02 0.  1.
       -1   -1    0    0    0  501  0.00000000000E+00  0.00000000000E+00 -0.10582303482E+04  0.10582303482E+04  0.50400001928E-02 0. -1.
    10030    2    1    2    0    0  0.00000000000E+00  0.00000000000E+00  0.27337938354E+03  0.23898400800E+04  0.23741523372E+04 0.  0.
        2    1    3    3  502    0  0.71199672577E+03 -0.37793010162E+03  0.10138715569E+04  0.12952629205E+04  0.25500000920E-02 0.  1.
       -2    1    3    3    0  502 -0.71199672577E+03  0.37793010162E+03 -0.74049217338E+03  0.10945771595E+04  0.25500000920E-02 0. -1.
</event>
<event>
 5   0  0.6337926E-05  0.2499212E+04  0.7818609E-02  0.8403266E-01
       -2   -1    0    0    0  501  0.00000000000E+00  0.00000000000E+00  0.88979007826E+03  0.88979007827E+03  0.25500000920E-02 0. -1.
        2   -1    0    0  501    0  0.00000000000E+00  0.00000000000E+00 -0.17549248750E+04  0.17549248750E+04  0.25500000920E-02 0.  1.
    10030    2    1    2    0    0  0.00000000000E+00  0.00000000000E+00 -0.86513479675E+03  0.26447149533E+04  0.24992116692E+04 0.  0.
        1    1    3    3  502    0  0.77322473311E+03 -0.68520986337E+03 -0.11764331277E+04  0.15656896081E+04  0.50400001928E-02 0.  1.
       -1    1    3    3    0  502 -0.77322473311E+03  0.68520986337E+03  0.31129833098E+03  0.10790253452E+04  0.50400001928E-02 0. -1.
</event>
<event>
 5   0  0.6714629E-05  0.2270847E+04  0.7818609E-02  0.8489505E-01
       -2   -1    0    0    0  501  0.00000000000E+00  0.00000000000E+00  0.84168830418E+03  0.84168830418E+03  0.25500000920E-02 0. -1.
        2   -1    0    0  501    0  0.00000000000E+00  0.00000000000E+00 -0.15316680555E+04  0.15316680555E+04  0.25500000920E-02 0.  1.
    10030    2    1    2    0    0  0.00000000000E+00  0.00000000000E+00 -0.68997975129E+03  0.23733563596E+04  0.22708474966E+04 0.  0.
        3    1    3    3  502    0 -0.97315237056E+03  0.56845499984E+03 -0.48913017906E+03  0.12285825025E+04  0.10100000352E+00 0.  1.
       -3    1    3    3    0  502  0.97315237056E+03 -0.56845499984E+03 -0.20084957223E+03  0.11447738572E+04  0.10100000352E+00 0. -1.
</event>
<event>
 5   0  0.2943244E-05  0.2386118E+04  0.7818609E-02  0.8444719E-01
        1   -1    0    0  501    0  0.00000000000E+00  0.00000000000E+00  0.10659640240E+04  0.10659640240E+04  0.50400001928E-02 0.  1.
       -1   -1    0    0    0  501  0.00000000000E+00  0.00000000000E+00 -0.13353080056E+04  0.13353080056E+04  0.50400001928E-02 0. -1.
    10030    2    1    2    0    0  0.00000000000E+00  0.00000000000E+00 -0.26934398166E+03  0.24012720296E+04  0.23861184337E+04 0.  0.
        3    1    3    3  502    0  0.16243067775E+03  0.11815229230E+04 -0.16665656679E+03  0.12042236354E+04  0.10100000352E+00 0.  1.
       -3    1    3    3    0  502 -0.16243067775E+03 -0.11815229230E+04 -0.10268741487E+03  0.11970483942E+04  0.10100000352E+00 0. -1.
</event>
<event>
 5   0  0.6978115E-05  0.2371009E+04  0.7818609E-02  0.8450438E-01
       -2   -1    0    0    0  501  0.00000000000E+00  0.00000000000E+00  0.63114333331E+03  0.63114333332E+03  0.25500000920E-02 0. -1.
        2   -1    0    0  501    0  0.00000000000E+00  0.00000000000E+00 -0.22267852841E+04  0.22267852841E+04  0.25500000920E-02 0.  1.
    10030    2    1    2    0    0  0.00000000000E+00  0.00000000000E+00 -0.15956419507E+04  0.28579286174E+04  0.23710088037E+04 0.  0.
        4    1    3    3  502    0  0.87269167128E+03  0.52037396906E+03 -0.61621544992E+02  0.10179286068E+04  0.12699999809E+01 0. -1.
       -4    1    3    3    0  502 -0.87269167128E+03 -0.52037396906E+03 -0.15340204057E+04  0.18400000106E+04  0.12699999809E+01 0.  1.
</event>
<event>
 5   0  0.2943244E-05  0.1942274E+04  0.7818609E-02  0.8634095E-01
        1   -1    0    0  501    0  0.00000000000E+00  0.00000000000E+00  0.10762004835E+04  0.10762004835E+04  0.50400001928E-02 0.  1.
       -1   -1    0    0    0  501  0.00000000000E+00  0.00000000000E+00 -0.87633015536E+03  0.87633015538E+03  0.50400001928E-02 0. -1.
    10030    2    1    2    0    0  0.00000000000E+00  0.00000000000E+00  0.19987032817E+03  0.19525306389E+04  0.19422738602E+04 0.  0.
        3    1    3    3  502    0 -0.32934269149E+03 -0.54726154458E+03 -0.63546407637E+03  0.90098635349E+03  0.10100000352E+00 0. -1.
       -3    1    3    3    0  502  0.32934269149E+03  0.54726154458E+03  0.83533440455E+03  0.10515442854E+04  0.10100000352E+00 0.  1.
</event>
<event>
 5   0  0.2943244E-05  0.2583358E+04  0.7818609E-02  0.8373876E-01
       -1   -1    0    0    0  501  0.00000000000E+00  0.00000000000E+00  0.12814830347E+04  0.12814830348E+04  0.50400001928E-02 0. -1.
        1   -1    0    0  501    0  0.00000000000E+00  0.00000000000E+00 -0.13019564445E+04  0.13019564445E+04  0.50400001928E-02 0.  1.
    10030    2    1    2    0    0  0.00000000000E+00  0.00000000000E+00 -0.20473409728E+02  0.25834394792E+04  0.25833583535E+04 0.  0.
        3    1    3    3  502    0  0.15436058975E+03  0.89877832244E+03  0.90456271492E+03  0.12844700775E+04  0.10100000352E+00 0. -1.
       -3    1    3    3    0  502 -0.15436058975E+03 -0.89877832244E+03 -0.92503612465E+03  0.12989694017E+04  0.10100000352E+00 0.  1.
</event>
<event>
 5   0  0.6714629E-05  0.2341389E+04  0.7818609E-02  0.8461778E-01
       -2   -1    0    0    0  501  0.00000000000E+00  0.00000000000E+00  0.10358338823E+04  0.10358338823E+04  0.25500000920E-02 0. -1.
        2   -1    0    0  501    0  0.00000000000E+00  0.00000000000E+00 -0.13231136824E+04  0.13231136824E+04  0.25500000920E-02 0.  1.
    10030    2    1    2    0    0  0.00000000000E+00  0.00000000000E+00 -0.28727980009E+03  0.23589475648E+04  0.23413893161E+04 0.  0.
        3    1    3    3  502    0 -0.96320717168E+03  0.55432731623E+03  0.22719523559E+03  0.11343123531E+04  0.10100000352E+00 0. -1.
       -3    1    3    3    0  502  0.96320717168E+03 -0.55432731623E+03 -0.51447503568E+03  0.12246352117E+04  0.10100000352E+00 0.  1.
</event>
<event>
 5   0  0.2901816E-05  0.2420177E+04  0.7818609E-02  0.8431988E-01
       -1   -1    0    0    0  501  0.00000000000E+00  0.00000000000E+00  0.99911421745E+03  0.99911421746E+03  0.50400001928E-02 0. -1.
        1   -1    0    0  501    0  0.00000000000E+00  0.00000000000E+00 -0.14656128502E+04  0.14656128502E+04  0.50400001928E-02 0.  1.
    10030    2    1    2    0    0  0.00000000000E+00  0.00000000000E+00 -0.46649863271E+03  0.24647270676E+04  0.24201773785E+04 0.  0.
        4    1    3    3  502    0  0.94704994651E+03  0.55897340121E+03  0.28097912604E+03  0.11350355706E+04  0.12699999809E+01 0. -1.
       -4    1    3    3    0  502 -0.94704994651E+03 -0.55897340121E+03 -0.74747775875E+03  0.13296914970E+04  0.12699999809E+01 0.  1.
</event>
<event>
 5   0  0.2943244E-05  0.2354095E+04  0.7818609E-02  0.8456892E-01
        1   -1    0    0  501    0  0.00000000000E+00  0.00000000000E+00  0.10152974577E+04  0.10152974577E+04  0.50400001928E-02 0.  1.
       -1   -1    0    0    0  501  0.00000000000E+00  0.00000000000E+00 -0.13645662999E+04  0.13645662999E+04  0.50400001928E-02 0. -1.
    10030    2    1    2    0    0  0.00000000000E+00  0.00000000000E+00 -0.34926884221E+03  0.23798637576E+04  0.23540948963E+04 0.  0.
        3    1    3    3  502    0  0.74928992121E+03 -0.18066236215E+03  0.72469113661E+03  0.10579468459E+04  0.10100000352E+00 0.  1.
       -3    1    3    3    0  502 -0.74928992121E+03  0.18066236215E+03 -0.10739599788E+04  0.13219169117E+04  0.10100000352E+00 0. -1.
</event>
<event>
 5   0  0.6703961E-05  0.2016657E+04  0.7818609E-02  0.8598872E-01
        2   -1    0    0  501    0  0.00000000000E+00  0.00000000000E+00  0.87174263142E+03  0.87174263143E+03  0.25500000920E-02 0.  1.
       -2   -1    0    0    0  501  0.00000000000E+00  0.00000000000E+00 -0.11663150591E+04  0.11663150591E+04  0.25500000920E-02 0. -1.
    10030    2    1    2    0    0  0.00000000000E+00  0.00000000000E+00 -0.29457242766E+03  0.20380576905E+04  0.20166571932E+04 0.  0.
        2    1    3    3  502    0  0.45434661358E+03 -0.87899444075E+03 -0.34341909992E+03  0.10473770813E+04  0.25500000920E-02 0.  1.
       -2    1    3    3    0  502 -0.45434661358E+03  0.87899444075E+03  0.48846672258E+02  0.99068060925E+03  0.25500000920E-02 0. -1.
</event>
<event>
 5   0  0.2901816E-05  0.2233567E+04  0.7818609E-02  0.8504585E-01
       -1   -1    0    0    0  501  0.00000000000E+00  0.00000000000E+00  0.69695680895E+03  0.69695680897E+03  0.50400001928E-02 0. -1.
        1   -1    0    0  501    0  0.00000000000E+00  0.00000000000E+00 -0.17895011119E+04  0.17895011119E+04  0.50400001928E-02 0.  1.
    10030    2    1    2    0    0  0.00000000000E+00  0.00000000000E+00 -0.10925443030E+04  0.24864579209E+04  0.22335666407E+04 0.  0.
        4    1    3    3  502    0  0.99769100506E+03  0.18671039132E+02 -0.11045148667E+04  0.14885196179E+04  0.12699999809E+01 0.  1.
       -4    1    3    3    0  502 -0.99769100506E+03 -0.18671039132E+02  0.11970563699E+02  0.99793830299E+03  0.12699999809E+01 0. -1.
</event>
<event>
 5   0  0.6337926E-05  0.1706882E+04  0.7818609E-02  0.8757449E-01
        2   -1    0    0  501    0  0.00000000000E+00  0.00000000000E+00  0.93557284181E+03  0.93557284181E+03  0.25500000920E-02 0.  1.
       -2   -1    0    0    0  501  0.00000000000E+00  0.00000000000E+00 -0.77851925763E+03  0.77851925764E+03  0.25500000920E-02 0. -1.
    10030    2    1    2    0    0  0.00000000000E+00  0.00000000000E+00  0.15705358418E+03  0.17140920995E+04  0.17068819224E+04 0.  0.
        1    1    3    3  502    0 -0.68690939851E+03 -0.36113074043E+03 -0.27808103483E+03  0.82437187931E+03  0.50400001928E-02 0. -1.
       -1    1    3    3    0  502  0.68690939851E+03  0.36113074043E+03  0.43513461901E+03  0.88972022014E+03  0.50400001928E-02 0.  1.
</event>
<event>
 5   0  0.2915546E-05  0.2343632E+04  0.7818609E-02  0.8460914E-01
        1   -1    0    0  501    0  0.00000000000E+00  0.00000000000E+00  0.69246146096E+03  0.69246146098E+03  0.50400001928E-02 0.  1.
       -1   -1    0    0    0  501  0.00000000000E+00  0.00000000000E+00 -0.19830019682E+04  0.19830019682E+04  0.50400001928E-02 0. -1.
    10030    2    1    2    0    0  0.00000000000E+00  0.00000000000E+00 -0.12905405072E+04  0.26754634291E+04  0.23436317458E+04 0.  0.
        2    1    3    3  502    0  0.52705634168E+03  0.56558795803E+03  0.36002436001E+03  0.85281631398E+03  0.25500000920E-02 0.  1.
       -2    1    3    3    0  502 -0.52705634168E+03 -0.56558795803E+03 -0.16505648672E+04  0.18226471152E+04  0.25500000920E-02 0. -1.
</event>
<event>
 5   0  0.2901816E-05  0.2485817E+04  0.7818609E-02  0.8408056E-01
       -1   -1    0    0    0  501  0.00000000000E+00  0.00000000000E+00  0.24030708929E+04  0.24030708929E+04  0.50400001928E-02 0.  1.
        1   -1    0    0  501    0  0.00000000000E+00  0.00000000000E+00 -0.64285289277E+03  0.64285289279E+03  0.50400001928E-02 0. -1.
    10030    2    1    2    0    0  0.00000000000E+00  0.00000000000E+00  0.17602180001E+04  0.30459237857E+04  0.24858166264E+04 0.  0.
        4    1    3    3  502    0 -0.11382699835E+04 -0.46231844852E+03  0.11107252520E+04  0.16562334080E+04  0.12699999809E+01 0. -1.
       -4    1    3    3    0  502  0.11382699835E+04  0.46231844852E+03  0.64949274810E+03  0.13896903777E+04  0.12699999809E+01 0.  1.
</event>
<event>
 5   0  0.6714629E-05  0.2581215E+04  0.7818609E-02  0.8374610E-01
       -2   -1    0    0    0  501  0.00000000000E+00  0.00000000000E+00  0.88274142833E+03  0.88274142834E+03  0.25500000920E-02 0. -1.
        2   -1    0    0  501    0  0.00000000000E+00  0.00000000000E+00 -0.18869263186E+04  0.18869263186E+04  0.25500000920E-02 0.  1.
    10030    2    1    2    0    0  0.00000000000E+00  0.00000000000E+00 -0.10041848903E+04  0.27696677470E+04  0.25812152438E+04 0.  0.
        3    1    3    3  502    0  0.68799542189E+03  0.10589789351E+04 -0.21639391723E+03  0.12812495554E+04  0.10100000352E+00 0. -1.
       -3    1    3    3    0  502 -0.68799542189E+03 -0.10589789351E+04 -0.78779097305E+03  0.14884181916E+04  0.10100000352E+00 0.  1.
</event>
<event>
 5   0  0.2943244E-05  0.1714862E+04  0.7818609E-02  0.8752933E-01
        1   -1    0    0  501    0  0.00000000000E+00  0.00000000000E+00  0.11035837738E+04  0.11035837738E+04  0.50400001928E-02 0. -1.
       -1   -1    0    0    0  501  0.00000000000E+00  0.00000000000E+00 -0.66618257316E+03  0.66618257318E+03  0.50400001928E-02 0.  1.
    10030    2    1    2    0    0  0.00000000000E+00  0.00000000000E+00  0.43740120067E+03  0.17697663470E+04  0.17148624180E+04 0.  0.
        3    1    3    3  502    0  0.28688347577E+03 -0.80761709626E+03  0.19257681636E+03  0.87842662941E+03  0.10100000352E+00 0.  1.
       -3    1    3    3    0  502 -0.28688347577E+03  0.80761709626E+03  0.24482438431E+03  0.89133971762E+03  0.10100000352E+00 0. -1.
</event>
<event>
 5   0  0.6703961E-05  0.2574493E+04  0.7818609E-02  0.8376917E-01
        2   -1    0    0  501    0  0.00000000000E+00  0.00000000000E+00  0.15266007042E+04  0.15266007042E+04  0.25500000920E-02 0.  1.
       -2   -1    0    0    0  501  0.00000000000E+00  0.00000000000E+00 -0.10854204371E+04  0.10854204371E+04  0.25500000920E-02 0. -1.
    10030    2    1    2    0    0  0.00000000000E+00  0.00000000000E+00  0.44118026708E+03  0.26120211413E+04  0.25744930403E+04 0.  0.
        2    1    3    3  502    0 -0.21090085091E+03  0.95993119631E+03 -0.62282570837E+03  0.11635544395E+04  0.25500000920E-02 0. -1.
       -2    1    3    3    0  502  0.21090085091E+03 -0.95993119631E+03  0.10640059755E+04  0.14484667019E+04  0.25500000920E-02 0.  1.
</event>
<event>
 5   0  0.6714629E-05  0.2078213E+04  0.7818609E-02  0.8570902E-01
        2   -1    0    0  501    0  0.00000000000E+00  0.00000000000E+00  0.10684104764E+04  0.10684104764E+04  0.25500000920E-02 0. -1.
       -2   -1    0    0    0  501  0.00000000000E+00  0.00000000000E+00 -0.10106064488E+04  0.10106064488E+04  0.25500000920E-02 0.  1.
    10030    2    1    2    0    0  0.00000000000E+00  0.00000000000E+00  0.57804027607E+02  0.20790169251E+04  0.20782131915E+04 0.  0.
        3    1    3    3  502    0  0.54335828820E+03  0.46170160819E+03  0.78506198903E+03  0.10605323857E+04  0.10100000352E+00 0. -1.
       -3    1    3    3    0  502 -0.54335828820E+03 -0.46170160819E+03 -0.72725796142E+03  0.10184845394E+04  0.10100000352E+00 0.  1.
</event>
<event>
 5   0  0.6703961E-05  0.2414996E+04  0.7818609E-02  0.8433910E-01
        2   -1    0    0  501    0  0.00000000000E+00  0.00000000000E+00  0.85446709025E+03  0.85446709025E+03  0.25500000920E-02 0.  1.
       -2   -1    0    0    0  501  0.00000000000E+00  0.00000000000E+00 -0.17063875543E+04  0.17063875543E+04  0.25500000920E-02 0. -1.
    10030    2    1    2    0    0  0.00000000000E+00  0.00000000000E+00 -0.85192046406E+03  0.25608546446E+04  0.24149964873E+04 0.  0.
        2    1    3    3  502    0  0.49787082114E+03  0.44877332669E+03 -0.14910015951E+04  0.16347350274E+04  0.25500000920E-02 0. -1.
       -2    1    3    3    0  502 -0.49787082114E+03 -0.44877332669E+03  0.63908113101E+03  0.92611961717E+03  0.25500000920E-02 0.  1.
</event>
<event>
 5   0  0.6703961E-05  0.1710192E+04  0.7818609E-02  0.8755573E-01
        2   -1    0    0  501    0  0.00000000000E+00  0.00000000000E+00  0.21262227730E+04  0.21262227730E+04  0.25500000920E-02 0.  1.
       -2   -1    0    0    0  501  0.00000000000E+00  0.00000000000E+00 -0.34389130871E+03  0.34389130872E+03  0.25500000920E-02 0. -1.
    10030    2    1    2    0    0  0.00000000000E+00  0.00000000000E+00  0.17823314643E+04  0.24701140817E+04  0.17101924243E+04 0.  0.
        2    1    3    3  502    0 -0.68252607273E+03 -0.11587744788E+03  0.16622341582E+03  0.71196885244E+03  0.25500000920E-02 0. -1.
       -2    1    3    3    0  502  0.68252607273E+03  0.11587744788E+03  0.16161080485E+04  0.17581452293E+04  0.25500000920E-02 0.  1.
</event>
<event>
 5   0  0.2847158E-05  0.2423700E+04  0.7818609E-02  0.8430683E-01
        1   -1    0    0  501    0  0.00000000000E+00  0.00000000000E+00  0.19306924401E+04  0.19306924401E+04  0.50400001928E-02 0.  1.
       -1   -1    0    0    0  501  0.00000000000E+00  0.00000000000E+00 -0.76064984602E+03  0.76064984604E+03  0.50400001928E-02 0. -1.
    10030    2    1    2    0    0  0.00000000000E+00  0.00000000000E+00  0.11700425941E+04  0.26913422861E+04  0.24237004000E+04 0.  0.
        5    1    3    3  502    0  0.14843621466E+03  0.46905474553E+03  0.18147975583E+04  0.18803079354E+04  0.46999998093E+01 0.  1.
       -5    1    3    3    0  502 -0.14843621466E+03 -0.46905474553E+03 -0.64475496428E+03  0.81103435074E+03  0.46999998093E+01 0. -1.
</event>
<event>
 5   0  0.2901816E-05  0.2380512E+04  0.7818609E-02  0.8446836E-01
       -1   -1    0    0    0  501  0.00000000000E+00  0.00000000000E+00  0.15604234118E+04  0.15604234118E+04  0.50400001928E-02 0. -1.
        1   -1    0    0  501    0  0.00000000000E+00  0.00000000000E+00 -0.90790060923E+03  0.90790060924E+03  0.50400001928E-02 0.  1.
    10030    2    1    2    0    0  0.00000000000E+00  0.00000000000E+00  0.65252280253E+03  0.24683240210E+04  0.23805120174E+04 0.  0.
        4    1    3    3  502    0 -0.11564470573E+04  0.10775465809E+03  0.56417653387E+02  0.11628264820E+04  0.12699999809E+01 0. -1.
       -4    1    3    3    0  502  0.11564470573E+04 -0.10775465809E+03  0.59610514915E+03  0.13054975390E+04  0.12699999809E+01 0.  1.
</event>
<event>
 5   0  0.6703961E-05  0.2246446E+04  0.7818609E-02  0.8499341E-01
       -2   -1    0    0    0  501  0.00000000000E+00  0.00000000000E+00  0.14612705548E+04  0.14612705548E+04  0.25500000920E-02 0.  1.
        2   -1    0    0  501    0  0.00000000000E+00  0.00000000000E+00 -0.86337838888E+03  0.86337838888E+03  0.25500000920E-02 0. -1.
    10030    2    1    2    0    0  0.00000000000E+00  0.00000000000E+00  0.59789216587E+03  0.23246489436E+04  0.22464455634E+04 0.  0.
        2    1    3    3  502    0 -0.59200394539E+03  0.88226077865E+03 -0.78124242025E+02  0.10653432077E+04  0.25500000920E-02 0. -1.
       -2    1    3    3    0  502  0.59200394539E+03 -0.88226077865E+03  0.67601640790E+03  0.12593057360E+04  0.25500000920E-02 0.  1.
</event>
<event>
 5   0  0.6703961E-05  0.2456973E+04  0.7818609E-02  0.8418476E-01
        2   -1    0    0  501    0  0.00000000000E+00  0.00000000000E+00  0.13829182091E+04  0.13829182091E+04  0.25500000920E-02 0.  1.
       -2   -1    0    0    0  501  0.00000000000E+00  0.00000000000E+00 -0.10913005722E+04  0.10913005722E+04  0.25500000920E-02 0. -1.
    10030    2    1    2    0    0  0.00000000000E+00  0.00000000000E+00  0.29161763690E+03  0.24742187813E+04  0.24569732867E+04 0.  0.
        2    1    3    3  502    0 -0.36230950464E+03  0.11349654560E+04 -0.15590165238E+03  0.12015490372E+04  0.25500000920E-02 0.  1.
       -2    1    3    3    0  502  0.36230950464E+03 -0.11349654560E+04  0.44751928929E+03  0.12726697442E+04  0.25500000920E-02 0. -1.
</event>
<event>
 5   0  0.2339125E-05  0.2401055E+04  0.7818609E-02  0.8439109E-01
        3   -1    0    0  501    0  0.00000000000E+00  0.00000000000E+00  0.12373704059E+04  0.12373704101E+04  0.10100000352E+00 0. -1.
       -3   -1    0    0    0  501  0.00000000000E+00  0.00000000000E+00 -0.11647813626E+04  0.11647813670E+04  0.10100000352E+00 0.  1.
    10030    2    1    2    0    0  0.00000000000E+00  0.00000000000E+00  0.72589043351E+02  0.24021517770E+04  0.24010547663E+04 0.  0.
        4    1    3    3  502    0  0.22062627630E+02  0.10310937671E+04  0.65108587648E+03  0.12196538638E+04  0.12699999809E+01 0. -1.
       -4    1    3    3    0  502 -0.22062627630E+02 -0.10310937671E+04 -0.57849683313E+03  0.11824979132E+04  0.12699999809E+01 0.  1.
</event>
<event>
 5   0  0.6714629E-05  0.2435434E+04  0.7818609E-02  0.8426356E-01
       -2   -1    0    0    0  501  0.00000000000E+00  0.00000000000E+00  0.11475661009E+04  0.11475661009E+04  0.25500000920E-02 0.  1.
        2   -1    0    0  501    0  0.00000000000E+00  0.00000000000E+00 -0.12921560796E+04  0.12921560796E+04  0.25500000920E-02 0. -1.
    10030    2    1    2    0    0  0.00000000000E+00  0.00000000000E+00 -0.14458997869E+03  0.24397221805E+04  0.24354338537E+04 0.  0.
        3    1    3    3  502    0 -0.71074493973E+03 -0.35650896178E+03  0.85159652798E+03  0.11651067187E+04  0.10100000352E+00 0.  1.
       -3    1    3    3    0  502  0.71074493973E+03  0.35650896178E+03 -0.99618650668E+03  0.12746154618E+04  0.10100000352E+00 0. -1.
</event>
<event>
 5   0  0.2339125E-05  0.2023287E+04  0.7818609E-02  0.8595810E-01
        4   -1    0    0  501    0  0.00000000000E+00  0.00000000000E+00  0.71674376780E+03  0.71674489296E+03  0.12699999809E+01 0. -1.
       -4   -1    0    0    0  501  0.00000000000E+00  0.00000000000E+00 -0.14278757852E+04  0.14278763500E+04  0.12699999809E+01 0.  1.
    10030    2    1    2    0    0  0.00000000000E+00  0.00000000000E+00 -0.71113201738E+03  0.21446212429E+04  0.20232873077E+04 0.  0.
        5    1    3    3  502    0 -0.72238408329E+03 -0.45494121544E+03  0.21974466183E+03  0.88154414506E+03  0.46999998093E+01 0. -1.
       -5    1    3    3    0  502  0.72238408329E+03  0.45494121544E+03 -0.93087667921E+03  0.12630770979E+04  0.46999998093E+01 0.  1.
</event>
<event>
 5   0  0.2943123E-05  0.2249801E+04  0.7818609E-02  0.8497981E-01
       -1   -1    0    0    0  501  0.00000000000E+00  0.00000000000E+00  0.60611287408E+03  0.60611287410E+03  0.50400001928E-02 0.  1.
        1   -1    0    0  501    0  0.00000000000E+00  0.00000000000E+00 -0.20877313964E+04  0.20877313964E+04  0.50400001928E-02 0. -1.
    10030    2    1    2    0    0  0.00000000000E+00  0.00000000000E+00 -0.14816185223E+04  0.26938442705E+04  0.22498007707E+04 0.  0.
        1    1    3    3  502    0  0.40374037307E+03 -0.10331761137E+04 -0.96463007944E+03  0.14700239321E+04  0.50400001928E-02 0.  1.
       -1    1    3    3    0  502 -0.40374037307E+03  0.10331761137E+04 -0.51698844288E+03  0.12238203384E+04  0.50400001928E-02 0. -1.
</event>
<event>
 5   0  0.6703961E-05  0.2384959E+04  0.7818609E-02  0.8445156E-01
       -2   -1    0    0    0  501  0.00000000000E+00  0.00000000000E+00  0.78269252189E+03  0.78269252190E+03  0.25500000920E-02 0. -1.
        2   -1    0    0  501    0  0.00000000000E+00  0.00000000000E+00 -0.18168151128E+04  0.18168151128E+04  0.25500000920E-02 0.  1.
    10030    2    1    2    0    0  0.00000000000E+00  0.00000000000E+00 -0.10341225909E+04  0.25995076347E+04  0.23849592050E+04 0.  0.
        2    1    3    3  502    0 -0.11067411060E+04  0.34355382219E+03 -0.21050852744E+03  0.11778025915E+04  0.25500000920E-02 0. -1.
       -2    1    3    3    0  502  0.11067411060E+04 -0.34355382219E+03 -0.82361406343E+03  0.14217050432E+04  0.25500000920E-02 0.  1.
</event>
<event>
 5   0  0.6600166E-05  0.2196270E+04  0.7818609E-02  0.8519982E-01
        2   -1    0    0  501    0  0.00000000000E+00  0.00000000000E+00  0.15510569762E+04  0.15510569762E+04  0.25500000920E-02 0.  1.
       -2   -1    0    0    0  501  0.00000000000E+00  0.00000000000E+00 -0.77746994148E+03  0.77746994149E+03  0.25500000920E-02 0. -1.
    10030    2    1    2    0    0  0.00000000000E+00  0.00000000000E+00  0.77358703476E+03  0.23285269177E+04  0.21962697253E+04 0.  0.
        5    1    3    3  502    0  0.45555878462E+03  0.59298164233E+03  0.12394080755E+04  0.14475204669E+04  0.46999998093E+01 0.  1.
       -5    1    3    3    0  502 -0.45555878462E+03 -0.59298164233E+03 -0.46582104078E+03  0.88100645084E+03  0.46999998093E+01 0. -1.
</event>
<event>
 5   0  0.2339125E-05  0.2347904E+04  0.7818609E-02  0.8459269E-01
       -4   -1    0    0    0  501  0.00000000000E+00  0.00000000000E+00  0.97063507462E+03  0.97063590547E+03  0.12699999809E+01 0.  1.
        4   -1    0    0  501    0  0.00000000000E+00  0.00000000000E+00 -0.14198556468E+04  0.14198562148E+04  0.12699999809E+01 0. -1.
    10030    2    1    2    0    0  0.00000000000E+00  0.00000000000E+00 -0.44922057218E+03  0.23904921202E+04  0.23479040556E+04 0.  0.
        3    1    3    3  502    0  0.92020862447E+03 -0.35619661230E+03  0.42293189882E+03  0.10735601243E+04  0.10100000352E+00 0.  1.
       -3    1    3    3    0  502 -0.92020862447E+03  0.35619661230E+03 -0.87215247100E+03  0.13169319960E+04  0.10100000352E+00 0. -1.
</event>
<event>
 5   0  0.2847158E-05  0.2565711E+04  0.7818609E-02  0.8379943E-01
        1   -1    0    0  501    0  0.00000000000E+00  0.00000000000E+00  0.10201548818E+04  0.10201548818E+04  0.50400001928E-02 0.  1.
       -1   -1    0    0    0  501  0.00000000000E+00  0.00000000000E+00 -0.16132038850E+04  0.16132038850E+04  0.50400001928E-02 0. -1.
    10030    2    1    2    0    0  0.00000000000E+00  0.00000000000E+00 -0.59304900318E+03  0.26333587668E+04  0.25657106764E+04 0.  0.
        5    1    3    3  502    0  0.87836397330E+03  0.46373307041E+03 -0.11297948826E+04  0.15043371288E+04  0.46999998093E+01 0. -1.
       -5    1    3    3    0  502 -0.87836397330E+03 -0.46373307041E+03  0.53674587943E+03  0.11290216381E+04  0.46999998093E+01 0.  1.
</event>
<event>
 5   0  0.6978115E-05  0.2168895E+04  0.7818609E-02  0.8531487E-01
       -2   -1    0    0    0  501  0.00000000000E+00  0.00000000000E+00  0.11809189823E+04  0.11809189823E+04  0.25500000920E-02 0. -1.
        2   -1    0    0  501    0  0.00000000000E+00  0.00000000000E+00 -0.99585671861E+03  0.99585671861E+03  0.25500000920E-02 0.  1.
    10030    2    1    2    0    0  0.00000000000E+00  0.00000000000E+00  0.18506226372E+03  0.21767757009E+04  0.21688947441E+04 0.  0.
        4    1    3    3  502    0 -0.58145029897E+02  0.52653396882E+03  0.10422282358E+04  0.11691279542E+04  0.12699999809E+01 0. -1.
       -4    1    3    3    0  502  0.58145029897E+02 -0.52653396882E+03 -0.85716597213E+03  0.10076477467E+04  0.12699999809E+01 0.  1.
</event>
<event>
 5   0  0.2943244E-05  0.2387139E+04  0.7818609E-02  0.8444334E-01
       -1   -1    0    0    0  501  0.00000000000E+00  0.00000000000E+00  0.10806756014E+04  0.10806756015E+04  0.50400001928E-02 0.  1.
        1   -1    0    0  501    0  0.00000000000E+00  0.00000000000E+00 -0.13182573616E+04  0.13182573617E+04  0.50400001928E-02 0. -1.
    10030    2    1    2    0    0  0.00000000000E+00  0.00000000000E+00 -0.23758176020E+03  0.23989329631E+04  0.23871393484E+04 0.  0.
        3    1    3    3  502    0 -0.67879584700E+03 -0.22853435636E+03  0.84071248292E+03  0.11044406924E+04  0.10100000352E+00 0.  1.
       -3    1    3    3    0  502  0.67879584700E+03  0.22853435636E+03 -0.10782942431E+04  0.12944922707E+04  0.10100000352E+00 0. -1.
</event>
<event>
 5   0  0.2915546E-05  0.2388206E+04  0.7818609E-02  0.8443932E-01
       -1   -1    0    0    0  501  0.00000000000E+00  0.00000000000E+00  0.18703806487E+04  0.18703806487E+04  0.50400001928E-02 0.  1.
        1   -1    0    0  501    0  0.00000000000E+00  0.00000000000E+00 -0.76234853967E+03  0.76234853968E+03  0.50400001928E-02 0. -1.
    10030    2    1    2    0    0  0.00000000000E+00  0.00000000000E+00  0.11080321090E+04  0.26327291883E+04  0.23882059845E+04 0.  0.
        2    1    3    3  502    0 -0.94656187086E+03 -0.52154342959E+03  0.11138457018E+04  0.15519791145E+04  0.25500000920E-02 0.  1.
       -2    1    3    3    0  502  0.94656187086E+03  0.52154342959E+03 -0.58135928144E+01  0.10807500739E+04  0.25500000920E-02 0. -1.
</event>
<event>
 5   0  0.6703961E-05  0.2406138E+04  0.7818609E-02  0.8437209E-01
        2   -1    0    0  501    0  0.00000000000E+00  0.00000000000E+00  0.87602438627E+03  0.87602438627E+03  0.25500000920E-02 0.  1.
       -2   -1    0    0    0  501  0.00000000000E+00  0.00000000000E+00 -0.16522085644E+04  0.16522085644E+04  0.25500000920E-02 0. -1.
    10030    2    1    2    0    0  0.00000000000E+00  0.00000000000E+00 -0.77618417811E+03  0.25282329507E+04  0.24061379791E+04 0.  0.
        2    1    3    3  502    0  0.50332421004E+03 -0.59250589706E+03  0.57663459620E+03  0.96793902494E+03  0.25500000920E-02 0.  1.
       -2    1    3    3    0  502 -0.50332421004E+03  0.59250589706E+03 -0.13528187743E+04  0.15602939257E+04  0.25500000920E-02 0. -1.
</event>
<event>
 5   0  0.6714629E-05  0.2428793E+04  0.7818609E-02  0.8428802E-01
        2   -1    0    0  501    0  0.00000000000E+00  0.00000000000E+00  0.12444035172E+04  0.12444035172E+04  0.25500000920E-02 0.  1.
       -2   -1    0    0    0  501  0.00000000000E+00  0.00000000000E+00 -0.11851128947E+04  0.11851128947E+04  0.25500000920E-02 0. -1.
    10030    2    1    2    0    0  0.00000000000E+00  0.00000000000E+00  0.59290622480E+02  0.24295164118E+04  0.24287928313E+04 0.  0.
        3    1    3    3  502    0  0.93253623283E+03 -0.38727626955E+03 -0.64520515053E+03  0.11982889597E+04  0.10100000352E+00 0. -1.
       -3    1    3    3    0  502 -0.93253623283E+03  0.38727626955E+03  0.70449577301E+03  0.12312274521E+04  0.10100000352E+00 0.  1.
</event>
<event>
 5   0  0.2901816E-05  0.2403840E+04  0.7818609E-02  0.8438067E-01
       -1   -1    0    0    0  501  0.00000000000E+00  0.00000000000E+00  0.91359775410E+03  0.91359775411E+03  0.50400001928E-02 0.  1.
        1   -1    0    0  501    0  0.00000000000E+00  0.00000000000E+00 -0.15812338161E+04  0.15812338162E+04  0.50400001928E-02 0. -1.
    10030    2    1    2    0    0  0.00000000000E+00  0.00000000000E+00 -0.66763606205E+03  0.24948315703E+04  0.24038399807E+04 0.  0.
        4    1    3    3  502    0 -0.80398003422E+01  0.79761018747E+03  0.59930519224E+03  0.99770485410E+03  0.12699999809E+01 0.  1.
       -4    1    3    3    0  502  0.80398003422E+01 -0.79761018747E+03 -0.12669412543E+04  0.14971267162E+04  0.12699999809E+01 0. -1.
</event>
<event>
 5   0  0.6714629E-05  0.2408708E+04  0.7818609E-02  0.8436251E-01
       -2   -1    0    0    0  501  0.00000000000E+00  0.00000000000E+00  0.10463348851E+04  0.10463348851E+04  0.25500000920E-02 0. -1.
        2   -1    0    0  501    0  0.00000000000E+00  0.00000000000E+00 -0.13862375005E+04  0.13862375005E+04  0.25500000920E-02 0.  1.
    10030    2    1    2    0    0  0.00000000000E+00  0.00000000000E+00 -0.33990261548E+03  0.24325723856E+04  0.24087080818E+04 0.  0.
        3    1    3    3  502    0 -0.10564779215E+04 -0.57349301014E+03 -0.24436178617E+03  0.12266835468E+04  0.10100000352E+00 0. -1.
       -3    1    3    3    0  502  0.10564779215E+04  0.57349301014E+03 -0.95540829312E+02  0.12058888388E+04  0.10100000352E+00 0.  1.
</event>
<event>
 5   0  0.2943244E-05  0.2396361E+04  0.7818609E-02  0.8440867E-01
       -1   -1    0    0    0  501  0.00000000000E+00  0.00000000000E+00  0.97071890175E+03  0.97071890177E+03  0.50400001928E-02 0. -1.
        1   -1    0    0  501    0  0.00000000000E+00  0.00000000000E+00 -0.14789411116E+04  0.14789411116E+04  0.50400001928E-02 0.  1.
    10030    2    1    2    0    0  0.00000000000E+00  0.00000000000E+00 -0.50822220987E+03  0.24496600134E+04  0.23963606504E+04 0.  0.
        3    1    3    3  502    0 -0.77584109253E+03  0.66595870353E+03  0.38444701264E+03  0.10923506357E+04  0.10100000352E+00 0. -1.
       -3    1    3    3    0  502  0.77584109253E+03 -0.66595870353E+03 -0.89266922252E+03  0.13573093777E+04  0.10100000352E+00 0.  1.
</event>
<event>
 5   0  0.6703961E-05  0.2423503E+04  0.7818609E-02  0.8430756E-01
       -2   -1    0    0    0  501  0.00000000000E+00  0.00000000000E+00  0.50968016899E+03  0.50968016899E+03  0.25500000920E-02 0. -1.
        2   -1    0    0  501    0  0.00000000000E+00  0.00000000000E+00 -0.28809090518E+04  0.28809090518E+04  0.25500000920E-02 0.  1.
    10030    2    1    2    0    0  0.00000000000E+00  0.00000000000E+00 -0.23712288828E+04  0.33905892208E+04  0.24235034247E+04 0.  0.
        2    1    3    3  502    0  0.52872945697E+03  0.94657507234E+03 -0.42859946405E+03  0.11658716511E+04  0.25500000920E-02 0. -1.
       -2    1    3    3    0  502 -0.52872945697E+03 -0.94657507234E+03 -0.19426294187E+04  0.22247175697E+04  0.25500000920E-02 0.  1.
</event>
<event>
 5   0  0.6714629E-05  0.2418765E+04  0.7818609E-02  0.8432512E-01
       -2   -1    0    0    0  501  0.00000000000E+00  0.00000000000E+00  0.21293088389E+04  0.21293088389E+04  0.25500000920E-02 0. -1.
        2   -1    0    0  501    0  0.00000000000E+00  0.00000000000E+00 -0.68689226606E+03  0.68689226606E+03  0.25500000920E-02 0.  1.
    10030    2    1    2    0    0  0.00000000000E+00  0.00000000000E+00  0.14424165729E+04  0.28162011050E+04  0.24187647868E+04 0.  0.
        3    1    3    3  502    0  0.78830078477E+03 -0.66910381026E+03  0.14515660042E+04  0.17821789783E+04  0.10100000352E+00 0. -1.
       -3    1    3    3    0  502 -0.78830078477E+03  0.66910381026E+03 -0.91494312666E+01  0.10340221267E+04  0.10100000352E+00 0.  1.
</event>
<event>
 5   0  0.6337926E-05  0.2382913E+04  0.7818609E-02  0.8445928E-01
       -2   -1    0    0    0  501  0.00000000000E+00  0.00000000000E+00  0.78675362670E+03  0.78675362671E+03  0.25500000920E-02 0. -1.
        2   -1    0    0  501    0  0.00000000000E+00  0.00000000000E+00 -0.18043370287E+04  0.18043370287E+04  0.25500000920E-02 0.  1.
    10030    2    1    2    0    0  0.00000000000E+00  0.00000000000E+00 -0.10175834020E+04  0.25910906554E+04  0.23829130921E+04 0.  0.
        1    1    3    3  502    0 -0.20687152663E+02 -0.65327472096E+03  0.57441627371E+03  0.87014359439E+03  0.50400001928E-02 0. -1.
       -1    1    3    3    0  502  0.20687152663E+02  0.65327472096E+03 -0.15919996757E+04  0.17209470610E+04  0.50400001928E-02 0.  1.
</event>
<event>
 5   0  0.2943123E-05  0.2192376E+04  0.7818609E-02  0.8521608E-01
        1   -1    0    0  501    0  0.00000000000E+00  0.00000000000E+00  0.21445649720E+04  0.21445649720E+04  0.50400001928E-02 0. -1.
       -1   -1    0    0    0  501  0.00000000000E+00  0.00000000000E+00 -0.56031348319E+03  0.56031348321E+03  0.50400001928E-02 0.  1.
    10030    2    1    2    0    0  0.00000000000E+00  0.00000000000E+00  0.15842514888E+04  0.27048784552E+04  0.21923764909E+04 0.  0.
        1    1    3    3  502    0 -0.17452316208E+03  0.67552364705E+03  0.18352510364E+04  0.19633993222E+04  0.50400001928E-02 0. -1.
       -1    1    3    3    0  502  0.17452316208E+03 -0.67552364705E+03 -0.25099954756E+03  0.74147913303E+03  0.50400001928E-02 0.  1.
</event>
<event>
 5   0  0.6714629E-05  0.2309816E+04  0.7818609E-02  0.8474061E-01
       -2   -1    0    0    0  501  0.00000000000E+00  0.00000000000E+00  0.79335263000E+03  0.79335263000E+03  0.25500000920E-02 0. -1.
        2   -1    0    0  501    0  0.00000000000E+00  0.00000000000E+00 -0.16812358676E+04  0.16812358676E+04  0.25500000920E-02 0.  1.
    10030    2    1    2    0    0  0.00000000000E+00  0.00000000000E+00 -0.88788323765E+03  0.24745884977E+04  0.23098163540E+04 0.  0.
        3    1    3    3  502    0 -0.93125844923E+03 -0.23299347827E+03  0.24395647916E+03  0.99047616534E+03  0.10100000352E+00 0. -1.
       -3    1    3    3    0  502  0.93125844923E+03  0.23299347827E+03 -0.11318397168E+04  0.14841123323E+04  0.10100000352E+00 0.  1.
</event>
<event>
 5   0  0.2901816E-05  0.2302737E+04  0.7818609E-02  0.8476843E-01
       -1   -1    0    0    0  501  0.00000000000E+00  0.00000000000E+00  0.81683569977E+03  0.81683569979E+03  0.50400001928E-02 0. -1.
        1   -1    0    0  501    0  0.00000000000E+00  0.00000000000E+00 -0.16229086126E+04  0.16229086126E+04  0.50400001928E-02 0.  1.
    10030    2    1    2    0    0  0.00000000000E+00  0.00000000000E+00 -0.80607291279E+03  0.24397443124E+04  0.23027372340E+04 0.  0.
        4    1    3    3  502    0  0.81405827744E+03 -0.74919816122E+03 -0.74084724966E+03  0.13314822658E+04  0.12699999809E+01 0.  1.
       -4    1    3    3    0  502 -0.81405827744E+03  0.74919816122E+03 -0.65225663130E+02  0.11082620466E+04  0.12699999809E+01 0. -1.
</event>
<event>
 5   0  0.6600166E-05  0.2375995E+04  0.7818609E-02  0.8448546E-01
        2   -1    0    0  501    0  0.00000000000E+00  0.00000000000E+00  0.13327157026E+04  0.13327157026E+04  0.25500000920E-02 0.  1.
       -2   -1    0    0    0  501  0.00000000000E+00  0.00000000000E+00 -0.10589940845E+04  0.10589940845E+04  0.25500000920E-02 0. -1.
    10030    2    1    2    0    0  0.00000000000E+00  0.00000000000E+00  0.27372161809E+03  0.23917097871E+04  0.23759949876E+04 0.  0.
        5    1    3    3  502    0 -0.39176675432E+03 -0.51516223652E+03 -0.86594228965E+03  0.10810880902E+04  0.46999998093E+01 0. -1.
       -5    1    3    3    0  502  0.39176675432E+03  0.51516223652E+03  0.11396639077E+04  0.13106216969E+04  0.46999998093E+01 0.  1.
</event>
<event>
 5   0  0.2901816E-05  0.2338601E+04  0.7818609E-02  0.8462855E-01
        1   -1    0    0  501    0  0.00000000000E+00  0.00000000000E+00  0.10774540885E+04  0.10774540885E+04  0.50400001928E-02 0.  1.
       -1   -1    0    0    0  501  0.00000000000E+00  0.00000000000E+00 -0.12689760107E+04  0.12689760107E+04  0.50400001928E-02 0. -1.
    10030    2    1    2    0    0  0.00000000000E+00  0.00000000000E+00 -0.19152192215E+03  0.23464300992E+04  0.23386007705E+04 0.  0.
        4    1    3    3  502    0  0.59548587686E+03 -0.10062475625E+04 -0.84579531360E+02  0.11723023913E+04  0.12699999809E+01 0.  1.
       -4    1    3    3    0  502 -0.59548587686E+03  0.10062475625E+04 -0.10694239079E+03  0.11741277079E+04  0.12699999809E+01 0. -1.
</event>
<event>
 5   0  0.2943244E-05  0.2463949E+04  0.7818609E-02  0.8415943E-01
        1   -1    0    0  501    0  0.00000000000E+00  0.00000000000E+00  0.13835683907E+04  0.13835683907E+04  0.50400001928E-02 0. -1.
       -1   -1    0    0    0  501  0.00000000000E+00  0.00000000000E+00 -0.10969899571E+04  0.10969899571E+04  0.50400001928E-02 0.  1.
    10030    2    1    2    0    0  0.00000000000E+00  0.00000000000E+00  0.28657843364E+03  0.24805583478E+04  0.24639485624E+04 0.  0.
        3    1    3    3  502    0 -0.48339782709E+03  0.69853800881E+02  0.12819341721E+04  0.13718266088E+04  0.10100000352E+00 0. -1.
       -3    1    3    3    0  502  0.48339782709E+03 -0.69853800881E+02 -0.99535573847E+03  0.11087317390E+04  0.10100000352E+00 0.  1.
</event>
<event>
 5   0  0.6337926E-05  0.2447405E+04  0.7818609E-02  0.8421966E-01
       -2   -1    0    0    0  501  0.00000000000E+00  0.00000000000E+00  0.15756106299E+04  0.15756106299E+04  0.25500000920E-02 0. -1.
        2   -1    0    0  501    0  0.00000000000E+00  0.00000000000E+00 -0.95039175110E+03  0.95039175111E+03  0.25500000920E-02 0.  1.
    10030    2    1    2    0    0  0.00000000000E+00  0.00000000000E+00  0.62521887880E+03  0.25260023810E+04  0.24474046217E+04 0.  0.
        1    1    3    3  502    0 -0.95916743615E+03  0.75875851684E+03  0.26967187665E+03  0.12523735779E+04  0.50400001928E-02 0.  1.
       -1    1    3    3    0  502  0.95916743615E+03 -0.75875851684E+03  0.35554700215E+03  0.12736288031E+04  0.50400001928E-02 0. -1.
</event>
<event>
 5   0  0.6978115E-05  0.2354756E+04  0.7818609E-02  0.8456639E-01
       -2   -1    0    0    0  501  0.00000000000E+00  0.00000000000E+00  0.89465528013E+03  0.89465528014E+03  0.25500000920E-02 0. -1.
        2   -1    0    0  501    0  0.00000000000E+00  0.00000000000E+00 -0.15494448370E+04  0.15494448370E+04  0.25500000920E-02 0.  1.
    10030    2    1    2    0    0  0.00000000000E+00  0.00000000000E+00 -0.65478955689E+03  0.24441001172E+04  0.23547560423E+04 0.  0.
        4    1    3    3  502    0 -0.69749831577E+02  0.46285680051E+03  0.79392651991E+03  0.92164113878E+03  0.12699999809E+01 0. -1.
       -4    1    3    3    0  502  0.69749831577E+02 -0.46285680051E+03 -0.14487160768E+04  0.15224589784E+04  0.12699999809E+01 0.  1.
</event>
<event>
 5   0  0.6714629E-05  0.2035021E+04  0.7818609E-02  0.8590420E-01
        2   -1    0    0  501    0  0.00000000000E+00  0.00000000000E+00  0.14634832122E+04  0.14634832122E+04  0.25500000920E-02 0. -1.
       -2   -1    0    0    0  501  0.00000000000E+00  0.00000000000E+00 -0.70744071038E+03  0.70744071039E+03  0.25500000920E-02 0.  1.
    10030    2    1    2    0    0  0.00000000000E+00  0.00000000000E+00  0.75604250181E+03  0.21709239226E+04  0.20350209859E+04 0.  0.
        3    1    3    3  502    0 -0.77386314347E+03  0.65625908470E+03  0.45917695287E+03  0.11137251166E+04  0.10100000352E+00 0. -1.
       -3    1    3    3    0  502  0.77386314347E+03 -0.65625908470E+03  0.29686554894E+03  0.10571988060E+04  0.10100000352E+00 0.  1.
</event>
<event>
 5   0  0.2915546E-05  0.2611747E+04  0.7818609E-02  0.8364222E-01
       -1   -1    0    0    0  501  0.00000000000E+00  0.00000000000E+00  0.13940689160E+04  0.13940689160E+04  0.50400001928E-02 0.  1.
        1   -1    0    0  501    0  0.00000000000E+00  0.00000000000E+00 -0.12232579417E+04  0.12232579417E+04  0.50400001928E-02 0. -1.
    10030    2    1    2    0    0  0.00000000000E+00  0.00000000000E+00  0.17081097426E+03  0.26173268578E+04  0.26117472105E+04 0.  0.
        2    1    3    3  502    0 -0.61512230704E+03  0.81908736943E+03  0.89709035199E+03  0.13616352930E+04  0.25500000920E-02 0.  1.
       -2    1    3    3    0  502  0.61512230704E+03 -0.81908736943E+03 -0.72627937773E+03  0.12556915648E+04  0.25500000920E-02 0. -1.
</event>
<event>
 5   0  0.2915546E-05  0.2129288E+04  0.7818609E-02  0.8548450E-01
       -1   -1    0    0    0  501  0.00000000000E+00  0.00000000000E+00  0.17034607745E+04  0.17034607745E+04  0.50400001928E-02 0.  1.
        1   -1    0    0  501    0  0.00000000000E+00  0.00000000000E+00 -0.66539080245E+03  0.66539080247E+03  0.50400001928E-02 0. -1.
    10030    2    1    2    0    0  0.00000000000E+00  0.00000000000E+00  0.10380699720E+04  0.23688515769E+04  0.21292882677E+04 0.  0.
        2    1    3    3  502    0 -0.70193180037E+03  0.32863423673E+03 -0.29298842334E+03  0.82858368928E+03  0.25500000920E-02 0. -1.
       -2    1    3    3    0  502  0.70193180037E+03 -0.32863423673E+03  0.13310583953E+04  0.15402678877E+04  0.25500000920E-02 0.  1.
</event>
<event>
 5   0  0.6600166E-05  0.2265584E+04  0.7818609E-02  0.8491616E-01
        2   -1    0    0  501    0  0.00000000000E+00  0.00000000000E+00  0.18481767591E+04  0.18481767591E+04  0.25500000920E-02 0. -1.
       -2   -1    0    0    0  501  0.00000000000E+00  0.00000000000E+00 -0.69431574673E+03  0.69431574674E+03  0.25500000920E-02 0.  1.
    10030    2    1    2    0    0  0.00000000000E+00  0.00000000000E+00  0.11538610124E+04  0.25424925059E+04  0.22655844514E+04 0.  0.
        5    1    3    3  502    0  0.11916831460E+03 -0.10055978851E+04  0.71679839663E+01  0.10126705603E+04  0.46999998093E+01 0. -1.
       -5    1    3    3    0  502 -0.11916831460E+03  0.10055978851E+04  0.11466930284E+04  0.15298219456E+04  0.46999998093E+01 0.  1.
</event>
<event>
 5   0  0.2943123E-05  0.2388584E+04  0.7818609E-02  0.8443790E-01
       -1   -1    0    0    0  501  0.00000000000E+00  0.00000000000E+00  0.74913236896E+03  0.74913236898E+03  0.50400001928E-02 0. -1.
        1   -1    0    0  501    0  0.00000000000E+00  0.00000000000E+00 -0.19039808021E+04  0.19039808021E+04  0.50400001928E-02 0.  1.
    10030    2    1    2    0    0  0.00000000000E+00  0.00000000000E+00 -0.11548484331E+04  0.26531131710E+04  0.23885842240E+04 0.  0.
        1    1    3    3  502    0  0.41885502745E+03  0.59225307572E+03  0.47639941420E+03  0.86784770645E+03  0.50400001928E-02 0. -1.
       -1    1    3    3    0  502 -0.41885502745E+03 -0.59225307572E+03 -0.16312478473E+04  0.17852654646E+04  0.50400001928E-02 0.  1.
</event>
<event>
 5   0  0.6714629E-05  0.2257775E+04  0.7818609E-02  0.8494758E-01
        2   -1    0    0  501    0  0.00000000000E+00  0.00000000000E+00  0.18576308196E+04  0.18576308196E+04  0.25500000920E-02 0.  1.
       -2   -1    0    0    0  501  0.00000000000E+00  0.00000000000E+00 -0.68602810278E+03  0.68602810279E+03  0.25500000920E-02 0. -1.
    10030    2    1    2    0    0  0.00000000000E+00  0.00000000000E+00  0.11716027168E+04  0.25436589224E+04  0.22577749638E+04 0.  0.
        3    1    3    3  502    0 -0.48353239668E+02 -0.11037784716E+04  0.32467286963E+03  0.11515543550E+04  0.10100000352E+00 0. -1.
       -3    1    3    3    0  502  0.48353239668E+02  0.11037784716E+04  0.84692984715E+03  0.13921045673E+04  0.10100000352E+00 0.  1.
</event>
<event>
 5   0  0.2915546E-05  0.2400972E+04  0.7818609E-02  0.8439140E-01
       -1   -1    0    0    0  501  0.00000000000E+00  0.00000000000E+00  0.13441189529E+04  0.13441189529E+04  0.50400001928E-02 0. -1.
        1   -1    0    0  501    0  0.00000000000E+00  0.00000000000E+00 -0.10722020537E+04  0.10722020538E+04  0.50400001928E-02 0.  1.
    10030    2    1    2    0    0  0.00000000000E+00  0.00000000000E+00  0.27191689911E+03  0.24163210066E+04  0.24009723878E+04 0.  0.
        2    1    3    3  502    0 -0.11974078706E+04  0.29829741961E+02  0.54872425840E+02  0.11990356147E+04  0.25500000920E-02 0.  1.
       -2    1    3    3    0  502  0.11974078706E+04 -0.29829741961E+02  0.21704447327E+03  0.12172853920E+04  0.25500000920E-02 0. -1.
</event>
<event>
 5   0  0.2901816E-05  0.1939971E+04  0.7818609E-02  0.8635212E-01
        1   -1    0    0  501    0  0.00000000000E+00  0.00000000000E+00  0.71344803312E+03  0.71344803314E+03  0.50400001928E-02 0.  1.
       -1   -1    0    0    0  501  0.00000000000E+00  0.00000000000E+00 -0.13187673319E+04  0.13187673319E+04  0.50400001928E-02 0. -1.
    10030    2    1    2    0    0  0.00000000000E+00  0.00000000000E+00 -0.60531929875E+03  0.20322153650E+04  0.19399710916E+04 0.  0.
        4    1    3    3  502    0 -0.48004996072E+03 -0.15845059131E+03 -0.11698607929E+04  0.12744137642E+04  0.12699999809E+01 0. -1.
       -4    1    3    3    0  502  0.48004996072E+03  0.15845059131E+03  0.56454149417E+03  0.75780160082E+03  0.12699999809E+01 0.  1.
</event>
<event>
 5   0  0.2847158E-05  0.2354299E+04  0.7818609E-02  0.8456814E-01
       -1   -1    0    0    0  501  0.00000000000E+00  0.00000000000E+00  0.12554541648E+04  0.12554541648E+04  0.50400001928E-02 0. -1.
        1   -1    0    0  501    0  0.00000000000E+00  0.00000000000E+00 -0.11037292714E+04  0.11037292714E+04  0.50400001928E-02 0.  1.
    10030    2    1    2    0    0  0.00000000000E+00  0.00000000000E+00  0.15172489343E+03  0.23591834363E+04  0.23542994802E+04 0.  0.
        5    1    3    3  502    0 -0.46875097031E+03  0.91354796517E+03  0.65269717198E+03  0.12166893791E+04  0.46999998093E+01 0. -1.
       -5    1    3    3    0  502  0.46875097031E+03 -0.91354796517E+03 -0.50097227855E+03  0.11424940572E+04  0.46999998093E+01 0.  1.
</event>
<event>
 5   0  0.6978115E-05  0.1990682E+04  0.7818609E-02  0.8610990E-01
        2   -1    0    0  501    0  0.00000000000E+00  0.00000000000E+00  0.14324485035E+04  0.14324485035E+04  0.25500000920E-02 0. -1.
       -2   -1    0    0    0  501  0.00000000000E+00  0.00000000000E+00 -0.69161557383E+03  0.69161557383E+03  0.25500000920E-02 0.  1.
    10030    2    1    2    0    0  0.00000000000E+00  0.00000000000E+00  0.74083292969E+03  0.21240640774E+04  0.19906819874E+04 0.  0.
        4    1    3    3  502    0  0.51806582254E+03  0.33894628308E+02 -0.53569547903E+03  0.74599752109E+03  0.12699999809E+01 0.  1.
       -4    1    3    3    0  502 -0.51806582254E+03 -0.33894628308E+02  0.12765284087E+04  0.13780665563E+04  0.12699999809E+01 0. -1.
</event>
<event>
 5   0  0.2847158E-05  0.2391248E+04  0.7818609E-02  0.8442788E-01
        1   -1    0    0  501    0  0.00000000000E+00  0.00000000000E+00  0.17496832178E+04  0.17496832178E+04  0.50400001928E-02 0. -1.
       -1   -1    0    0    0  501  0.00000000000E+00  0.00000000000E+00 -0.81701445550E+03  0.81701445552E+03  0.50400001928E-02 0.  1.
    10030    2    1    2    0    0  0.00000000000E+00  0.00000000000E+00  0.93266876226E+03  0.25666976733E+04  0.23912477759E+04 0.  0.
        5    1    3    3  502    0  0.10939434033E+04  0.48002269274E+03  0.41418534471E+03  0.12643992822E+04  0.46999998093E+01 0. -1.
       -5    1    3    3    0  502 -0.10939434033E+04 -0.48002269274E+03  0.51848341755E+03  0.13022983911E+04  0.46999998093E+01 0.  1.
</event>
<event>
 5   0  0.6703961E-05  0.2172437E+04  0.7818609E-02  0.8529989E-01
        2   -1    0    0  501    0  0.00000000000E+00  0.00000000000E+00  0.84843051027E+03  0.84843051027E+03  0.25500000920E-02 0. -1.
       -2   -1    0    0    0  501  0.00000000000E+00  0.00000000000E+00 -0.13906514896E+04  0.13906514896E+04  0.25500000920E-02 0.  1.
    10030    2    1    2    0    0  0.00000000000E+00  0.00000000000E+00 -0.54222097932E+03  0.22390819999E+04  0.21724374817E+04 0.  0.
        2    1    3    3  502    0  0.89112793465E+03 -0.14969152702E+03 -0.89239145073E+03  0.12699917521E+04  0.25500000920E-02 0.  1.
       -2    1    3    3    0  502 -0.89112793465E+03  0.14969152702E+03  0.35017047140E+03  0.96909024772E+03  0.25500000920E-02 0. -1.
</event>
<event>
 5   0  0.2915546E-05  0.2251084E+04  0.7818609E-02  0.8497462E-01
        1   -1    0    0  501    0  0.00000000000E+00  0.00000000000E+00  0.64640384505E+03  0.64640384507E+03  0.50400001928E-02 0. -1.
       -1   -1    0    0    0  501  0.00000000000E+00  0.00000000000E+00 -0.19598344170E+04  0.19598344170E+04  0.50400001928E-02 0.  1.
    10030    2    1    2    0    0  0.00000000000E+00  0.00000000000E+00 -0.13134305719E+04  0.26062382620E+04  0.22510837415E+04 0.  0.
        2    1    3    3  502    0  0.24620207419E+03  0.61613350740E+03  0.39590663413E+03  0.77264352921E+03  0.25500000920E-02 0. -1.
       -2    1    3    3    0  502 -0.24620207419E+03 -0.61613350740E+03 -0.17093372061E+04  0.18335947328E+04  0.25500000920E-02 0.  1.
</event>
<event>
 5   0  0.2943123E-05  0.1700122E+04  0.7818609E-02  0.8761295E-01
        1   -1    0    0  501    0  0.00000000000E+00  0.00000000000E+00  0.71028970804E+03  0.71028970806E+03  0.50400001928E-02 0. -1.
       -1   -1    0    0    0  501  0.00000000000E+00  0.00000000000E+00 -0.10173367946E+04  0.10173367946E+04  0.50400001928E-02 0.  1.
    10030    2    1    2    0    0  0.00000000000E+00  0.00000000000E+00 -0.30704708654E+03  0.17276265026E+04  0.17001221778E+04 0.  0.
        1    1    3    3  502    0  0.89947237717E+02  0.84105772532E+03 -0.67686573058E+02  0.84855764395E+03  0.50400001928E-02 0. -1.
       -1    1    3    3    0  502 -0.89947237717E+02 -0.84105772532E+03 -0.23936051348E+03  0.87906885870E+03  0.50400001928E-02 0.  1.
</event>
<event>
 5   0  0.6703961E-05  0.2423534E+04  0.7818609E-02  0.8430745E-01
       -2   -1    0    0    0  501  0.00000000000E+00  0.00000000000E+00  0.13064955183E+04  0.13064955183E+04  0.25500000920E-02 0.  1.
        2   -1    0    0  501    0  0.00000000000E+00  0.00000000000E+00 -0.11239069732E+04  0.11239069732E+04  0.25500000920E-02 0. -1.
    10030    2    1    2    0    0  0.00000000000E+00  0.00000000000E+00  0.18258854511E+03  0.24304024915E+04  0.24235341330E+04 0.  0.
        2    1    3    3  502    0  0.33522145599E+03  0.47301377754E+03  0.11583888279E+04  0.12953687254E+04  0.25500000920E-02 0.  1.
       -2    1    3    3    0  502 -0.33522145599E+03 -0.47301377754E+03 -0.97580028275E+03  0.11350337661E+04  0.25500000920E-02 0. -1.
</event>
<event>
 5   0  0.6337926E-05  0.2171384E+04  0.7818609E-02  0.8530434E-01
       -2   -1    0    0    0  501  0.00000000000E+00  0.00000000000E+00  0.24770282846E+04  0.24770282846E+04  0.25500000920E-02 0. -1.
        2   -1    0    0  501    0  0.00000000000E+00  0.00000000000E+00 -0.47586319635E+03  0.47586319636E+03  0.25500000920E-02 0.  1.
    10030    2    1    2    0    0  0.00000000000E+00  0.00000000000E+00  0.20011650882E+04  0.29528914809E+04  0.21713835193E+04 0.  0.
        1    1    3    3  502    0 -0.38024780406E+03  0.99925803031E+03  0.74391697099E+03  0.13025043046E+04  0.50400001928E-02 0.  1.
       -1    1    3    3    0  502  0.38024780406E+03 -0.99925803031E+03  0.12572481172E+04  0.16503871764E+04  0.50400001928E-02 0. -1.
</event>
<event>
 5   0  0.2915546E-05  0.2412094E+04  0.7818609E-02  0.8434990E-01
        1   -1    0    0  501    0  0.00000000000E+00  0.00000000000E+00  0.15211078672E+04  0.15211078672E+04  0.50400001928E-02 0. -1.
       -1   -1    0    0    0  501  0.00000000000E+00  0.00000000000E+00 -0.95624338500E+03  0.95624338501E+03  0.50400001928E-02 0.  1.
    10030    2    1    2    0    0  0.00000000000E+00  0.00000000000E+00  0.56486448215E+03  0.24773512522E+04  0.24120939748E+04 0.  0.
        2    1    3    3  502    0  0.73174786341E+03  0.15322604797E+03  0.12544055270E+04  0.14602966765E+04  0.25500000920E-02 0. -1.
       -2    1    3    3    0  502 -0.73174786341E+03 -0.15322604797E+03 -0.68954104481E+03  0.10170545757E+04  0.25500000920E-02 0.  1.
</event>
<event>
 5   0  0.2943123E-05  0.2418483E+04  0.7818609E-02  0.8432616E-01
        1   -1    0    0  501    0  0.00000000000E+00  0.00000000000E+00  0.12809359977E+04  0.12809359978E+04  0.50400001928E-02 0. -1.
       -1   -1    0    0    0  501  0.00000000000E+00  0.00000000000E+00 -0.11415595700E+04  0.11415595700E+04  0.50400001928E-02 0.  1.
    10030    2    1    2    0    0  0.00000000000E+00  0.00000000000E+00  0.13937642775E+03  0.24224955678E+04  0.24184827862E+04 0.  0.
        1    1    3    3  502    0 -0.10695666086E+04 -0.33517481783E+03 -0.38488175327E+03  0.11850944489E+04  0.50400001928E-02 0.  1.
       -1    1    3    3    0  502  0.10695666086E+04  0.33517481783E+03  0.52425818101E+03  0.12374011189E+04  0.50400001928E-02 0. -1.
</event>
<event>
 5   0  0.2901816E-05  0.2351606E+04  0.7818609E-02  0.8457847E-01
       -1   -1    0    0    0  501  0.00000000000E+00  0.00000000000E+00  0.13197705564E+04  0.13197705564E+04  0.50400001928E-02 0.  1.
        1   -1    0    0  501    0  0.00000000000E+00  0.00000000000E+00 -0.10475399340E+04  0.10475399340E+04  0.50400001928E-02 0. -1.
    10030    2    1    2    0    0  0.00000000000E+00  0.00000000000E+00  0.27223062237E+03  0.23673104904E+04  0.23516057165E+04 0.  0.
        4    1    3    3  502    0  0.75427002137E+03  0.87378892473E+03  0.36139633092E+03  0.12095616028E+04  0.12699999809E+01 0.  1.
       -4    1    3    3    0  502 -0.75427002137E+03 -0.87378892473E+03 -0.89165708547E+02  0.11577488875E+04  0.12699999809E+01 0. -1.
</event>
<event>
 5   0  0.6978115E-05  0.2528336E+04  0.7818609E-02  0.8392960E-01
       -2   -1    0    0    0  501  0.00000000000E+00  0.00000000000E+00  0.69504136106E+03  0.69504136106E+03  0.25500000920E-02 0.  1.
        2   -1    0    0  501    0  0.00000000000E+00  0.00000000000E+00 -0.22993172695E+04  0.22993172695E+04  0.25500000920E-02 0. -1.
    10030    2    1    2    0    0  0.00000000000E+00  0.00000000000E+00 -0.16042759085E+04  0.29943586306E+04  0.25283358990E+04 0.  0.
        4    1    3    3  502    0 -0.97710992876E+03  0.80088891807E+03 -0.74981138514E+03  0.14691445123E+04  0.12699999809E+01 0.  1.
       -4    1    3    3    0  502  0.97710992876E+03 -0.80088891807E+03 -0.85446452334E+03  0.15252141183E+04  0.12699999809E+01 0. -1.
</event>
<event>
 5   0  0.2943244E-05  0.2395100E+04  0.7818609E-02  0.8441340E-01
        1   -1    0    0  501    0  0.00000000000E+00  0.00000000000E+00  0.18067227642E+04  0.18067227642E+04  0.50400001928E-02 0.  1.
       -1   -1    0    0    0  501  0.00000000000E+00  0.00000000000E+00 -0.79377231420E+03  0.79377231422E+03  0.50400001928E-02 0. -1.
    10030    2    1    2    0    0  0.00000000000E+00  0.00000000000E+00  0.10129504500E+04  0.26004950784E+04  0.23951004235E+04 0.  0.
        3    1    3    3  502    0  0.16101943977E+03 -0.97123423146E+03 -0.23383479311E+03  0.10118803847E+04  0.10100000352E+00 0. -1.
       -3    1    3    3    0  502 -0.16101943977E+03  0.97123423146E+03  0.12467852431E+04  0.15886146936E+04  0.10100000352E+00 0.  1.
</event>
<event>
 5   0  0.2943123E-05  0.2089736E+04  0.7818609E-02  0.8565778E-01
       -1   -1    0    0    0  501  0.00000000000E+00  0.00000000000E+00  0.57887488346E+03  0.57887488348E+03  0.50400001928E-02 0.  1.
        1   -1    0    0  501    0  0.00000000000E+00  0.00000000000E+00 -0.18859838897E+04  0.18859838897E+04  0.50400001928E-02 0. -1.
    10030    2    1    2    0    0  0.00000000000E+00  0.00000000000E+00 -0.13071090063E+04  0.24648587732E+04  0.20897355856E+04 0.  0.
        1    1    3    3  502    0  0.27916776344E+03 -0.78325151201E+03 -0.13998492517E+04  0.16281877959E+04  0.50400001928E-02 0. -1.
       -1    1    3    3    0  502 -0.27916776344E+03  0.78325151201E+03  0.92740245381E+02  0.83667097735E+03  0.50400001928E-02 0.  1.
</event>
<event>
 5   0  0.2943123E-05  0.2466815E+04  0.7818609E-02  0.8414904E-01
       -1   -1    0    0    0  501  0.00000000000E+00  0.00000000000E+00  0.94026564684E+03  0.94026564686E+03  0.50400001928E-02 0. -1.
        1   -1    0    0  501    0  0.00000000000E+00  0.00000000000E+00 -0.16179410528E+04  0.16179410529E+04  0.50400001928E-02 0.  1.
    10030    2    1    2    0    0  0.00000000000E+00  0.00000000000E+00 -0.67767540601E+03  0.25582066997E+04  0.24668152672E+04 0.  0.
        1    1    3    3  502    0  0.30110414798E+03  0.11761005497E+04 -0.11301300237E+03  0.12192818172E+04  0.50400001928E-02 0. -1.
       -1    1    3    3    0  502 -0.30110414798E+03 -0.11761005497E+04 -0.56466240364E+03  0.13389248825E+04  0.50400001928E-02 0.  1.
</event>
<event>
 5   0  0.6978115E-05  0.2380580E+04  0.7818609E-02  0.8446810E-01
       -2   -1    0    0    0  501  0.00000000000E+00  0.00000000000E+00  0.10909667430E+04  0.10909667430E+04  0.25500000920E-02 0.  1.
        2   -1    0    0  501    0  0.00000000000E+00  0.00000000000E+00 -0.12986559501E+04  0.12986559501E+04  0.25500000920E-02 0. -1.
    10030    2    1    2    0    0  0.00000000000E+00  0.00000000000E+00 -0.20768920702E+03  0.23896226931E+04  0.23805801412E+04 0.  0.
        4    1    3    3  502    0  0.18433682393E+03  0.82150154634E+03 -0.94843468174E+03  0.12682171792E+04  0.12699999809E+01 0. -1.
       -4    1    3    3    0  502 -0.18433682393E+03 -0.82150154634E+03  0.74074547472E+03  0.11214055139E+04  0.12699999809E+01 0.  1.
</event>
<event>
 5   0  0.6714629E-05  0.2077755E+04  0.7818609E-02  0.8571106E-01
       -2   -1    0    0    0  501  0.00000000000E+00  0.00000000000E+00  0.18113935378E+04  0.18113935378E+04  0.25500000920E-02 0.  1.
        2   -1    0    0  501    0  0.00000000000E+00  0.00000000000E+00 -0.59582114889E+03  0.59582114890E+03  0.25500000920E-02 0. -1.
    10030    2    1    2    0    0  0.00000000000E+00  0.00000000000E+00  0.12155723889E+04  0.24072146867E+04  0.20777551143E+04 0.  0.
        3    1    3    3  502    0 -0.91252406688E+03  0.40758517132E+03  0.27919308657E+03  0.10376775194E+04  0.10100000352E+00 0. -1.
       -3    1    3    3    0  502  0.91252406688E+03 -0.40758517132E+03  0.93637930233E+03  0.13695371673E+04  0.10100000352E+00 0.  1.
</event>
<event>
 5   0  0.6600166E-05  0.2410514E+04  0.7818609E-02  0.8435578E-01
       -2   -1    0    0    0  501  0.00000000000E+00  0.00000000000E+00  0.72339835979E+03  0.72339835980E+03  0.25500000920E-02 0. -1.
        2   -1    0    0  501    0  0.00000000000E+00  0.00000000000E+00 -0.20080837256E+04  0.20080837256E+04  0.25500000920E-02 0.  1.
    10030    2    1    2    0    0  0.00000000000E+00  0.00000000000E+00 -0.12846853658E+04  0.27314820854E+04  0.24105140310E+04 0.  0.
        5    1    3    3  502    0 -0.85959281343E+02  0.55276514981E+03  0.56736637523E+03  0.79678416314E+03  0.46999998093E+01 0. -1.
       -5    1    3    3    0  502  0.85959281343E+02 -0.55276514981E+03 -0.18520517411E+04  0.19346979223E+04  0.46999998093E+01 0.  1.
</event>
<event>
 5   0  0.6714629E-05  0.2417027E+04  0.7818609E-02  0.8433156E-01
       -2   -1    0    0    0  501  0.00000000000E+00  0.00000000000E+00  0.74803530196E+03  0.74803530197E+03  0.25500000920E-02 0. -1.
        2   -1    0    0  501    0  0.00000000000E+00  0.00000000000E+00 -0.19524539682E+04  0.19524539682E+04  0.25500000920E-02 0.  1.
    10030    2    1    2    0    0  0.00000000000E+00  0.00000000000E+00 -0.12044186662E+04  0.27004892702E+04  0.24170266806E+04 0.  0.
        3    1    3    3  502    0  0.42378717134E+03 -0.23257720608E+03 -0.18397254446E+04  0.19021770278E+04  0.10100000352E+00 0.  1.
       -3    1    3    3    0  502 -0.42378717134E+03  0.23257720608E+03  0.63530677840E+03  0.79831224233E+03  0.10100000352E+00 0. -1.
</event>
<event>
 5   0  0.2847158E-05  0.2345452E+04  0.7818609E-02  0.8460212E-01
        1   -1    0    0  501    0  0.00000000000E+00  0.00000000000E+00  0.83797586855E+03  0.83797586856E+03  0.50400001928E-02 0.  1.
       -1   -1    0    0    0  501  0.00000000000E+00  0.00000000000E+00 -0.16412008151E+04  0.16412008151E+04  0.50400001928E-02 0. -1.
    10030    2    1    2    0    0  0.00000000000E+00  0.00000000000E+00 -0.80322494653E+03  0.24791766836E+04  0.23454523474E+04 0.  0.
        5    1    3    3  502    0  0.27896595151E+03 -0.85272360738E+03 -0.11998542774E+04  0.14982095747E+04  0.46999998093E+01 0. -1.
       -5    1    3    3    0  502 -0.27896595151E+03  0.85272360738E+03  0.39662933090E+03  0.98096710894E+03  0.46999998093E+01 0.  1.
</event>
<event>
 5   0  0.6600166E-05  0.2342648E+04  0.7818609E-02  0.8461293E-01
        2   -1    0    0  501    0  0.00000000000E+00  0.00000000000E+00  0.14337846080E+04  0.14337846080E+04  0.25500000920E-02 0. -1.
       -2   -1    0    0    0  501  0.00000000000E+00  0.00000000000E+00 -0.95690809123E+03  0.95690809123E+03  0.25500000920E-02 0.  1.
    10030    2    1    2    0    0  0.00000000000E+00  0.00000000000E+00  0.47687651677E+03  0.23906926992E+04  0.23426481532E+04 0.  0.
        5    1    3    3  502    0  0.57123080895E+03  0.73165922742E+03  0.96747590877E+03  0.13407690279E+04  0.46999998093E+01 0. -1.
       -5    1    3    3    0  502 -0.57123080895E+03 -0.73165922742E+03 -0.49059939200E+03  0.10499236713E+04  0.46999998093E+01 0.  1.
</event>
<event>
 5   0  0.6703961E-05  0.2407604E+04  0.7818609E-02  0.8436662E-01
       -2   -1    0    0    0  501  0.00000000000E+00  0.00000000000E+00  0.10655038291E+04  0.10655038291E+04  0.25500000920E-02 0. -1.
        2   -1    0    0  501    0  0.00000000000E+00  0.00000000000E+00 -0.13600506528E+04  0.13600506528E+04  0.25500000920E-02 0.  1.
    10030    2    1    2    0    0  0.00000000000E+00  0.00000000000E+00 -0.29454682371E+03  0.24255544818E+04  0.24076039361E+04 0.  0.
        2    1    3    3  502    0 -0.40549694796E+03  0.68252642559E+03 -0.10589340964E+04  0.13234846115E+04  0.25500000920E-02 0.  1.
       -2    1    3    3    0  502  0.40549694796E+03 -0.68252642559E+03  0.76438727268E+03  0.11020698703E+04  0.25500000920E-02 0. -1.
</event>
<event>
 5   0  0.6600166E-05  0.2428745E+04  0.7818609E-02  0.8428820E-01
       -2   -1    0    0    0  501  0.00000000000E+00  0.00000000000E+00  0.19508112097E+04  0.19508112097E+04  0.25500000920E-02 0.  1.
        2   -1    0    0  501    0  0.00000000000E+00  0.00000000000E+00 -0.75594225096E+03  0.75594225096E+03  0.25500000920E-02 0. -1.
    10030    2    1    2    0    0  0.00000000000E+00  0.00000000000E+00  0.11948689587E+04  0.27067534606E+04  0.24287450398E+04 0.  0.
        5    1    3    3  502    0 -0.70039752573E+02  0.82296737235E+03 -0.39468909551E+03  0.91541380534E+03  0.46999998093E+01 0. -1.
       -5    1    3    3    0  502  0.70039752573E+02 -0.82296737235E+03  0.15895580542E+04  0.17913396553E+04  0.46999998093E+01 0.  1.
</event>
<event>
 5   0  0.2943123E-05  0.2338034E+04  0.7818609E-02  0.8463074E-01
        1   -1    0    0  501    0  0.00000000000E+00  0.00000000000E+00  0.18007283269E+04  0.18007283269E+04  0.50400001928E-02 0. -1.
       -1   -1    0    0    0  501  0.00000000000E+00  0.00000000000E+00 -0.75891572948E+03  0.75891572949E+03  0.50400001928E-02 0.  1.
    10030    2    1    2    0    0  0.00000000000E+00  0.00000000000E+00  0.10418125975E+04  0.25596440564E+04  0.23380342614E+04 0.  0.
        1    1    3    3  502    0  0.68413841507E+03 -0.93174439743E+03  0.71181382634E+03  0.13575241863E+04  0.50400001928E-02 0. -1.
       -1    1    3    3    0  502 -0.68413841507E+03  0.93174439743E+03  0.32999877113E+03  0.12021198701E+04  0.50400001928E-02 0.  1.
</event>
<event>
 5   0  0.6703961E-05  0.2396633E+04  0.7818609E-02  0.8440765E-01
        2   -1    0    0  501    0  0.00000000000E+00  0.00000000000E+00  0.15265399521E+04  0.15265399521E+04  0.25500000920E-02 0.  1.
       -2   -1    0    0    0  501  0.00000000000E+00  0.00000000000E+00 -0.94066498127E+03  0.94066498127E+03  0.25500000920E-02 0. -1.
    10030    2    1    2    0    0  0.00000000000E+00  0.00000000000E+00  0.58587497079E+03  0.24672049333E+04  0.23966332013E+04 0.  0.
        2    1    3    3  502    0  0.36011835814E+03 -0.11163140001E+04  0.54535235396E+03  0.12935421789E+04  0.25500000920E-02 0.  1.
       -2    1    3    3    0  502 -0.36011835814E+03  0.11163140001E+04  0.40522616829E+02  0.11736627544E+04  0.25500000920E-02 0. -1.
</event>
<event>
 5   0  0.2847158E-05  0.2242008E+04  0.7818609E-02  0.8501144E-01
        1   -1    0    0  501    0  0.00000000000E+00  0.00000000000E+00  0.13268702557E+04  0.13268702557E+04  0.50400001928E-02 0. -1.
       -1   -1    0    0    0  501  0.00000000000E+00  0.00000000000E+00 -0.94707848542E+03  0.94707848544E+03  0.50400001928E-02 0.  1.
    10030    2    1    2    0    0  0.00000000000E+00  0.00000000000E+00  0.37979177031E+03  0.22739487412E+04  0.22420082713E+04 0.  0.
        5    1    3    3  502    0  0.56795834006E+03  0.11873930881E+03  0.11627017005E+04  0.12994510509E+04  0.46999998093E+01 0. -1.
       -5    1    3    3    0  502 -0.56795834006E+03 -0.11873930881E+03 -0.78290993017E+03  0.97449769023E+03  0.46999998093E+01 0.  1.
</event>
<event>
 5   0  0.2943244E-05  0.2422358E+04  0.7818609E-02  0.8431180E-01
        1   -1    0    0  501    0  0.00000000000E+00  0.00000000000E+00  0.15701702157E+04  0.15701702157E+04  0.50400001928E-02 0. -1.
       -1   -1    0    0    0  501  0.00000000000E+00  0.00000000000E+00 -0.93426487617E+03  0.93426487618E+03  0.50400001928E-02 0.  1.
    10030    2    1    2    0    0  0.00000000000E+00  0.00000000000E+00  0.63590533957E+03  0.25044350919E+04  0.24223582577E+04 0.  0.
        3    1    3    3  502    0  0.10122387708E+04  0.61849769165E+03  0.57075376892E+03  0.13164066996E+04  0.10100000352E+00 0. -1.
       -3    1    3    3    0  502 -0.10122387708E+04 -0.61849769165E+03  0.65151570649E+02  0.11880283924E+04  0.10100000352E+00 0.  1.
</event>
<event>
 5   0  0.6978115E-05  0.1993052E+04  0.7818609E-02  0.8609876E-01
       -2   -1    0    0    0  501  0.00000000000E+00  0.00000000000E+00  0.97741080398E+03  0.97741080398E+03  0.25500000920E-02 0. -1.
        2   -1    0    0  501    0  0.00000000000E+00  0.00000000000E+00 -0.10160147792E+04  0.10160147792E+04  0.25500000920E-02 0.  1.
    10030    2    1    2    0    0  0.00000000000E+00  0.00000000000E+00 -0.38603975192E+02  0.19934255832E+04  0.19930517526E+04 0.  0.
        4    1    3    3  502    0 -0.62435153356E+03 -0.77661014311E+03 -0.30442183484E+02  0.99692852867E+03  0.12699999809E+01 0.  1.
       -4    1    3    3    0  502  0.62435153356E+03  0.77661014311E+03 -0.81617917079E+01  0.99649705448E+03  0.12699999809E+01 0. -1.
</event>
<event>
 5   0  0.2943244E-05  0.1995406E+04  0.7818609E-02  0.8608771E-01
        1   -1    0    0  501    0  0.00000000000E+00  0.00000000000E+00  0.26445967471E+04  0.26445967471E+04  0.50400001928E-02 0.  1.
       -1   -1    0    0    0  501  0.00000000000E+00  0.00000000000E+00 -0.37639446329E+03  0.37639446333E+03  0.50400001928E-02 0. -1.
    10030    2    1    2    0    0  0.00000000000E+00  0.00000000000E+00  0.22682022838E+04  0.30209912104E+04  0.19954062978E+04 0.  0.
        3    1    3    3  502    0 -0.11141016158E+03 -0.82197639806E+03  0.19734406322E+04  0.21406833867E+04  0.10100000352E+00 0.  1.
       -3    1    3    3    0  502  0.11141016158E+03  0.82197639806E+03  0.29476165162E+03  0.88030782374E+03  0.10100000352E+00 0. -1.
</event>
<event>
 5   0  0.2901816E-05  0.2098970E+04  0.7818609E-02  0.8561697E-01
        1   -1    0    0  501    0  0.00000000000E+00  0.00000000000E+00  0.11642379066E+04  0.11642379066E+04  0.50400001928E-02 0.  1.
       -1   -1    0    0    0  501  0.00000000000E+00  0.00000000000E+00 -0.94604289765E+03  0.94604289766E+03  0.50400001928E-02 0. -1.
    10030    2    1    2    0    0  0.00000000000E+00  0.00000000000E+00  0.21819500899E+03  0.21102808043E+04  0.20989702263E+04 0.  0.
        4    1    3    3  502    0  0.50801181143E+02 -0.70021530760E+03  0.89338773587E+03  0.11362330291E+04  0.12699999809E+01 0.  1.
       -4    1    3    3    0  502 -0.50801181143E+02  0.70021530760E+03 -0.67519272688E+03  0.97404777518E+03  0.12699999809E+01 0. -1.
</event>
<event>
 5   0  0.2943244E-05  0.1822562E+04  0.7818609E-02  0.8694392E-01
       -1   -1    0    0    0  501  0.00000000000E+00  0.00000000000E+00  0.82434589702E+03  0.82434589704E+03  0.50400001928E-02 0.  1.
        1   -1    0    0  501    0  0.00000000000E+00  0.00000000000E+00 -0.10073845763E+04  0.10073845763E+04  0.50400001928E-02 0. -1.
    10030    2    1    2    0    0  0.00000000000E+00  0.00000000000E+00 -0.18303867928E+03  0.18317304734E+04  0.18225623086E+04 0.  0.
        3    1    3    3  502    0 -0.70331515196E+03 -0.46688377776E+03 -0.43646688659E+03  0.95033468747E+03  0.10100000352E+00 0.  1.
       -3    1    3    3    0  502  0.70331515196E+03  0.46688377776E+03  0.25342820731E+03  0.88139578589E+03  0.10100000352E+00 0. -1.
</event>
<event>
 5   0  0.6600166E-05  0.2381090E+04  0.7818609E-02  0.8446617E-01
       -2   -1    0    0    0  501  0.00000000000E+00  0.00000000000E+00  0.16927317675E+04  0.16927317675E+04  0.25500000920E-02 0. -1.
        2   -1    0    0  501    0  0.00000000000E+00  0.00000000000E+00 -0.83734313233E+03  0.83734313234E+03  0.25500000920E-02 0.  1.
    10030    2    1    2    0    0  0.00000000000E+00  0.00000000000E+00  0.85538863519E+03  0.25300748999E+04  0.23810899357E+04 0.  0.
        5    1    3    3  502    0  0.48503519693E+03 -0.15448037885E+03 -0.71586603411E+03  0.87841311381E+03  0.46999998093E+01 0.  1.
       -5    1    3    3    0  502 -0.48503519693E+03  0.15448037885E+03  0.15712546693E+04  0.16516617861E+04  0.46999998093E+01 0. -1.
</event>
<event>
 5   0  0.2901816E-05  0.2422628E+04  0.7818609E-02  0.8431080E-01
       -1   -1    0    0    0  501  0.00000000000E+00  0.00000000000E+00  0.88133793454E+03  0.88133793455E+03  0.50400001928E-02 0. -1.
        1   -1    0    0  501    0  0.00000000000E+00  0.00000000000E+00 -0.16648345783E+04  0.16648345783E+04  0.50400001928E-02 0.  1.
    10030    2    1    2    0    0  0.00000000000E+00  0.00000000000E+00 -0.78349664376E+03  0.25461725129E+04  0.24226282163E+04 0.  0.
        4    1    3    3  502    0 -0.44569551138E+03  0.89536808423E+03 -0.11099345335E+04  0.14940832563E+04  0.12699999809E+01 0.  1.
       -4    1    3    3    0  502  0.44569551138E+03 -0.89536808423E+03  0.32643788971E+03  0.10520892566E+04  0.12699999809E+01 0. -1.
</event>
<event>
 5   0  0.2847158E-05  0.2399037E+04  0.7818609E-02  0.8439864E-01
       -1   -1    0    0    0  501  0.00000000000E+00  0.00000000000E+00  0.85683298194E+03  0.85683298196E+03  0.50400001928E-02 0. -1.
        1   -1    0    0  501    0  0.00000000000E+00  0.00000000000E+00 -0.16792591973E+04  0.16792591973E+04  0.50400001928E-02 0.  1.
    10030    2    1    2    0    0  0.00000000000E+00  0.00000000000E+00 -0.82242621531E+03  0.25360921792E+04  0.23990370280E+04 0.  0.
        5    1    3    3  502    0  0.68964494428E+03 -0.53149833970E+03  0.46098061808E+03  0.98520345843E+03  0.46999998093E+01 0. -1.
       -5    1    3    3    0  502 -0.68964494428E+03  0.53149833970E+03 -0.12834068334E+04  0.15508887208E+04  0.46999998093E+01 0.  1.
</event>
<event>
 5   0  0.6600166E-05  0.2360696E+04  0.7818609E-02  0.8454367E-01
        2   -1    0    0  501    0  0.00000000000E+00  0.00000000000E+00  0.14267145214E+04  0.14267145214E+04  0.25500000920E-02 0. -1.
       -2   -1    0    0    0  501  0.00000000000E+00  0.00000000000E+00 -0.97652420670E+03  0.97652420670E+03  0.25500000920E-02 0.  1.
    10030    2    1    2    0    0  0.00000000000E+00  0.00000000000E+00  0.45019031468E+03  0.24032387281E+04  0.23606958857E+04 0.  0.
        5    1    3    3  502    0  0.21383856944E+03  0.10071010841E+04  0.81274980073E+03  0.13117026553E+04  0.46999998093E+01 0. -1.
       -5    1    3    3    0  502 -0.21383856944E+03 -0.10071010841E+04 -0.36255948604E+03  0.10915360728E+04  0.46999998093E+01 0.  1.
</event>
<event>
 5   0  0.2847158E-05  0.2359265E+04  0.7818609E-02  0.8454914E-01
        1   -1    0    0  501    0  0.00000000000E+00  0.00000000000E+00  0.73606389980E+03  0.73606389982E+03  0.50400001928E-02 0. -1.
       -1   -1    0    0    0  501  0.00000000000E+00  0.00000000000E+00 -0.18905053533E+04  0.18905053533E+04  0.50400001928E-02 0.  1.
    10030    2    1    2    0    0  0.00000000000E+00  0.00000000000E+00 -0.11544414535E+04  0.26265692531E+04  0.23592649219E+04 0.  0.
        5    1    3    3  502    0 -0.10355023533E+04  0.52425976176E+03 -0.81180024519E+03  0.14163880646E+04  0.46999998093E+01 0.  1.
       -5    1    3    3    0  502  0.10355023533E+04 -0.52425976176E+03 -0.34264120829E+03  0.12101811885E+04  0.46999998093E+01 0. -1.
</event>
<event>
 5   0  0.6978115E-05  0.2301183E+04  0.7818609E-02  0.8477455E-01
       -2   -1    0    0    0  501  0.00000000000E+00  0.00000000000E+00  0.16488157374E+04  0.16488157374E+04  0.25500000920E-02 0. -1.
        2   -1    0    0  501    0  0.00000000000E+00  0.00000000000E+00 -0.80291639521E+03  0.80291639521E+03  0.25500000920E-02 0.  1.
    10030    2    1    2    0    0  0.00000000000E+00  0.00000000000E+00  0.84589934220E+03  0.24517321326E+04  0.23011833376E+04 0.  0.
        4    1    3    3  502    0  0.16022612179E+03  0.38819152334E+03 -0.71834320338E+03  0.83209593175E+03  0.12699999809E+01 0.  1.
       -4    1    3    3    0  502 -0.16022612179E+03 -0.38819152334E+03  0.15642425456E+04  0.16196362009E+04  0.12699999809E+01 0. -1.
</event>
<event>
 5   0  0.2901816E-05  0.2382131E+04  0.7818609E-02  0.8446224E-01
        1   -1    0    0  501    0  0.00000000000E+00  0.00000000000E+00  0.14552604050E+04  0.14552604050E+04  0.50400001928E-02 0. -1.
       -1   -1    0    0    0  501  0.00000000000E+00  0.00000000000E+00 -0.97483383260E+03  0.97483383261E+03  0.50400001928E-02 0.  1.
    10030    2    1    2    0    0  0.00000000000E+00  0.00000000000E+00  0.48042657236E+03  0.24300942376E+04  0.23821310443E+04 0.  0.
        4    1    3    3  502    0  0.33697748523E+03  0.38149978001E+03  0.13387137666E+04  0.14322192813E+04  0.12699999809E+01 0. -1.
       -4    1    3    3    0  502 -0.33697748523E+03 -0.38149978001E+03 -0.85828719428E+03  0.99787495633E+03  0.12699999809E+01 0.  1.
</event>
<event>
 5   0  0.2915546E-05  0.2415723E+04  0.7818609E-02  0.8433640E-01
       -1   -1    0    0    0  501  0.00000000000E+00  0.00000000000E+00  0.80062286157E+03  0.80062286159E+03  0.50400001928E-02 0. -1.
        1   -1    0    0  501    0  0.00000000000E+00  0.00000000000E+00 -0.18222433108E+04  0.18222433108E+04  0.50400001928E-02 0.  1.
    10030    2    1    2    0    0  0.00000000000E+00  0.00000000000E+00 -0.10216204492E+04  0.26228661724E+04  0.24157232076E+04 0.  0.
        2    1    3    3  502    0  0.93101427594E+03 -0.74931380766E+03 -0.70095839322E+03  0.13854968182E+04  0.25500000920E-02 0.  1.
       -2    1    3    3    0  502 -0.93101427594E+03  0.74931380766E+03 -0.32066205598E+03  0.12373693541E+04  0.25500000920E-02 0. -1.
</event>
<event>
 5   0  0.2943244E-05  0.2348649E+04  0.7818609E-02  0.8458983E-01
        1   -1    0    0  501    0  0.00000000000E+00  0.00000000000E+00  0.12190505866E+04  0.12190505866E+04  0.50400001928E-02 0.  1.
       -1   -1    0    0    0  501  0.00000000000E+00  0.00000000000E+00 -0.11312393889E+04  0.11312393889E+04  0.50400001928E-02 0. -1.
    10030    2    1    2    0    0  0.00000000000E+00  0.00000000000E+00  0.87811197668E+02  0.23502899755E+04  0.23486490079E+04 0.  0.
        3    1    3    3  502    0 -0.20408971666E+03 -0.54306961942E+03 -0.97781746555E+03  0.11369715168E+04  0.10100000352E+00 0. -1.
       -3    1    3    3    0  502  0.20408971666E+03  0.54306961942E+03  0.10656286632E+04  0.12133184586E+04  0.10100000352E+00 0.  1.
</event>
<event>
 5   0  0.6714629E-05  0.2399371E+04  0.7818609E-02  0.8439739E-01
        2   -1    0    0  501    0  0.00000000000E+00  0.00000000000E+00  0.15864440628E+04  0.15864440628E+04  0.25500000920E-02 0. -1.
       -2   -1    0    0    0  501  0.00000000000E+00  0.00000000000E+00 -0.90721472154E+03  0.90721472154E+03  0.25500000920E-02 0.  1.
    10030    2    1    2    0    0  0.00000000000E+00  0.00000000000E+00  0.67922934128E+03  0.24936587844E+04  0.23993710915E+04 0.  0.
        3    1    3    3  502    0  0.55696167105E+03  0.40388637598E+03 -0.68181633292E+03  0.96860932773E+03  0.10100000352E+00 0.  1.
       -3    1    3    3    0  502 -0.55696167105E+03 -0.40388637598E+03  0.13610456742E+04  0.15250494566E+04  0.10100000352E+00 0. -1.
</event>
<event>
 5   0  0.2915546E-05  0.2350814E+04  0.7818609E-02  0.8458151E-01
        1   -1    0    0  501    0  0.00000000000E+00  0.00000000000E+00  0.86639896645E+03  0.86639896647E+03  0.50400001928E-02 0. -1.
       -1   -1    0    0    0  501  0.00000000000E+00  0.00000000000E+00 -0.15946250571E+04  0.15946250571E+04  0.50400001928E-02 0.  1.
    10030    2    1    2    0    0  0.00000000000E+00  0.00000000000E+00 -0.72822609061E+03  0.24610240235E+04  0.23508139028E+04 0.  0.
        2    1    3    3  502    0 -0.37007034644E+03  0.10833945058E+04 -0.64283885052E+03  0.13129880061E+04  0.25500000920E-02 0.  1.
       -2    1    3    3    0  502  0.37007034644E+03 -0.10833945058E+04 -0.85387240085E+02  0.11480360174E+04  0.25500000920E-02 0. -1.
</event>
<event>
 5   0  0.2915546E-05  0.2416412E+04  0.7818609E-02  0.8433385E-01
       -1   -1    0    0    0  501  0.00000000000E+00  0.00000000000E+00  0.14858961323E+04  0.14858961323E+04  0.50400001928E-02 0. -1.
        1   -1    0    0  501    0  0.00000000000E+00  0.00000000000E+00 -0.98241152749E+03  0.98241152750E+03  0.50400001928E-02 0.  1.
    10030    2    1    2    0    0  0.00000000000E+00  0.00000000000E+00  0.50348460481E+03  0.24683076598E+04  0.24164117936E+04 0.  0.
        2    1    3    3  502    0 -0.81651061631E+03 -0.21986123439E+03 -0.62977050396E+03  0.10543431304E+04  0.25500000920E-02 0.  1.
       -2    1    3    3    0  502  0.81651061631E+03  0.21986123439E+03  0.11332551088E+04  0.14139645294E+04  0.25500000920E-02 0. -1.
</event>
<event>
 5   0  0.6600166E-05  0.2547102E+04  0.7818609E-02  0.8386395E-01
        2   -1    0    0  501    0  0.00000000000E+00  0.00000000000E+00  0.12713945530E+04  0.12713945530E+04  0.25500000920E-02 0.  1.
       -2   -1    0    0    0  501  0.00000000000E+00  0.00000000000E+00 -0.12757109906E+04  0.12757109906E+04  0.25500000920E-02 0. -1.
    10030    2    1    2    0    0  0.00000000000E+00  0.00000000000E+00 -0.43164376074E+01  0.25471055436E+04  0.25471018862E+04 0.  0.
        5    1    3    3  502    0  0.67745920465E+03  0.12650751717E+03  0.10688030703E+04  0.12717378735E+04  0.46999998093E+01 0.  1.
       -5    1    3    3    0  502 -0.67745920465E+03 -0.12650751717E+03 -0.10731195079E+04  0.12753676701E+04  0.46999998093E+01 0. -1.
</event>
<event>
 5   0  0.6978115E-05  0.2555483E+04  0.7818609E-02  0.8383482E-01
        2   -1    0    0  501    0  0.00000000000E+00  0.00000000000E+00  0.15780040067E+04  0.15780040067E+04  0.25500000920E-02 0.  1.
       -2   -1    0    0    0  501  0.00000000000E+00  0.00000000000E+00 -0.10346132448E+04  0.10346132448E+04  0.25500000920E-02 0. -1.
    10030    2    1    2    0    0  0.00000000000E+00  0.00000000000E+00  0.54339076197E+03  0.26126172515E+04  0.25554833951E+04 0.  0.
        4    1    3    3  502    0 -0.49236084950E+03  0.23256318384E+03  0.14534438150E+04  0.15520970900E+04  0.12699999809E+01 0.  1.
       -4    1    3    3    0  502  0.49236084950E+03 -0.23256318384E+03 -0.91005305305E+03  0.10605201615E+04  0.12699999809E+01 0. -1.
</event>
<event>
 5   0  0.2915546E-05  0.2542584E+04  0.7818609E-02  0.8387970E-01
        1   -1    0    0  501    0  0.00000000000E+00  0.00000000000E+00  0.16164155000E+04  0.16164155000E+04  0.50400001928E-02 0.  1.
       -1   -1    0    0    0  501  0.00000000000E+00  0.00000000000E+00 -0.99985654895E+03  0.99985654897E+03  0.50400001928E-02 0. -1.
    10030    2    1    2    0    0  0.00000000000E+00  0.00000000000E+00  0.61655895106E+03  0.26162720490E+04  0.25425842157E+04 0.  0.
        2    1    3    3  502    0 -0.51544646403E+03  0.74745298210E+03 -0.60734788279E+03  0.10923563834E+04  0.25500000920E-02 0. -1.
       -2    1    3    3    0  502  0.51544646403E+03 -0.74745298210E+03  0.12239068338E+04  0.15239156655E+04  0.25500000920E-02 0.  1.
</event>
<event>
 5   0  0.2943123E-05  0.2075516E+04  0.7818609E-02  0.8572106E-01
       -1   -1    0    0    0  501  0.00000000000E+00  0.00000000000E+00  0.52290348516E+03  0.52290348518E+03  0.50400001928E-02 0. -1.
        1   -1    0    0  501    0  0.00000000000E+00  0.00000000000E+00 -0.20595428994E+04  0.20595428994E+04  0.50400001928E-02 0.  1.
    10030    2    1    2    0    0  0.00000000000E+00  0.00000000000E+00 -0.15366394143E+04  0.25824463846E+04  0.20755164755E+04 0.  0.
        1    1    3    3  502    0  0.10187797062E+04  0.99866359215E+02 -0.55622546691E+03  0.11650202357E+04  0.50400001928E-02 0.  1.
       -1    1    3    3    0  502 -0.10187797062E+04 -0.99866359215E+02 -0.98041394737E+03  0.14174261489E+04  0.50400001928E-02 0. -1.
</event>
<event>
 5   0  0.2943244E-05  0.2399862E+04  0.7818609E-02  0.8439555E-01
       -1   -1    0    0    0  501  0.00000000000E+00  0.00000000000E+00  0.62244107674E+03  0.62244107676E+03  0.50400001928E-02 0.  1.
        1   -1    0    0  501    0  0.00000000000E+00  0.00000000000E+00 -0.23132058516E+04  0.23132058516E+04  0.50400001928E-02 0. -1.
    10030    2    1    2    0    0  0.00000000000E+00  0.00000000000E+00 -0.16907647749E+04  0.29356469284E+04  0.23998619469E+04 0.  0.
        3    1    3    3  502    0  0.35156812364E+02  0.39840277023E+03 -0.22292708740E+04  0.22648641038E+04  0.10100000352E+00 0. -1.
       -3    1    3    3    0  502 -0.35156812364E+02 -0.39840277023E+03  0.53850609912E+03  0.67078282460E+03  0.10100000352E+00 0.  1.
</event>
<event>
 5   0  0.6703961E-05  0.2384336E+04  0.7818609E-02  0.8445391E-01
        2   -1    0    0  501    0  0.00000000000E+00  0.00000000000E+00  0.13165868736E+04  0.13165868736E+04  0.25500000920E-02 0.  1.
       -2   -1    0    0    0  501  0.00000000000E+00  0.00000000000E+00 -0.10795072843E+04  0.10795072843E+04  0.25500000920E-02 0. -1.
    10030    2    1    2    0    0  0.00000000000E+00  0.00000000000E+00  0.23707958934E+03  0.23960941579E+04  0.23843364867E+04 0.  0.
        2    1    3    3  502    0 -0.10177893656E+04 -0.32198188432E+03 -0.41482936979E+03  0.11452733004E+04  0.25500000920E-02 0. -1.
       -2    1    3    3    0  502  0.10177893656E+04  0.32198188432E+03  0.65190895913E+03  0.12508208575E+04  0.25500000920E-02 0.  1.
</event>
<event>
 5   0  0.2943123E-05  0.2277885E+04  0.7818609E-02  0.8486692E-01
        1   -1    0    0  501    0  0.00000000000E+00  0.00000000000E+00  0.69558097352E+03  0.69558097354E+03  0.50400001928E-02 0.  1.
       -1   -1    0    0    0  501  0.00000000000E+00  0.00000000000E+00 -0.18649022824E+04  0.18649022824E+04  0.50400001928E-02 0. -1.
    10030    2    1    2    0    0  0.00000000000E+00  0.00000000000E+00 -0.11693213089E+04  0.25604832559E+04  0.22778854626E+04 0.  0.
        1    1    3    3  502    0  0.24044486171E+03 -0.57864119554E+03 -0.16537318530E+04  0.17684649859E+04  0.50400001928E-02 0. -1.
       -1    1    3    3    0  502 -0.24044486171E+03  0.57864119554E+03  0.48441054417E+03  0.79201827001E+03  0.50400001928E-02 0.  1.
</event>
<event>
 5   0  0.6600166E-05  0.2239734E+04  0.7818609E-02  0.8502070E-01
       -2   -1    0    0    0  501  0.00000000000E+00  0.00000000000E+00  0.84287285140E+03  0.84287285140E+03  0.25500000920E-02 0. -1.
        2   -1    0    0  501    0  0.00000000000E+00  0.00000000000E+00 -0.14878900916E+04  0.14878900916E+04  0.25500000920E-02 0.  1.
    10030    2    1    2    0    0  0.00000000000E+00  0.00000000000E+00 -0.64501724022E+03  0.23307629430E+04  0.22397340593E+04 0.  0.
        5    1    3    3  502    0 -0.11117022766E+04 -0.13436724624E+03 -0.33497747715E+03  0.11688321132E+04  0.46999998093E+01 0.  1.
       -5    1    3    3    0  502  0.11117022766E+04  0.13436724624E+03 -0.31003976307E+03  0.11619308298E+04  0.46999998093E+01 0. -1.
</event>
<event>
 5   0  0.2943244E-05  0.2520685E+04  0.7818609E-02  0.8395653E-01
        1   -1    0    0  501    0  0.00000000000E+00  0.00000000000E+00  0.15732470540E+04  0.15732470540E+04  0.50400001928E-02 0.  1.
       -1   -1    0    0    0  501  0.00000000000E+00  0.00000000000E+00 -0.10096721439E+04  0.10096721439E+04  0.50400001928E-02 0. -1.
    10030    2    1    2    0    0  0.00000000000E+00  0.00000000000E+00  0.56357491010E+03  0.25829191978E+04  0.25206854035E+04 0.  0.
        3    1    3    3  502    0  0.10977530266E+04 -0.52282262074E+03 -0.58153898285E+02  0.12172867724E+04  0.10100000352E+00 0.  1.
       -3    1    3    3    0  502 -0.10977530266E+04  0.52282262074E+03  0.62172880838E+03  0.13656324255E+04  0.10100000352E+00 0. -1.
</event>
<event>
 5   0  0.6703961E-05  0.2434502E+04  0.7818609E-02  0.8426698E-01
        2   -1    0    0  501    0  0.00000000000E+00  0.00000000000E+00  0.31159831188E+04  0.31159831188E+04  0.25500000920E-02 0.  1.
       -2   -1    0    0    0  501  0.00000000000E+00  0.00000000000E+00 -0.47551599808E+03  0.47551599808E+03  0.25500000920E-02 0. -1.
    10030    2    1    2    0    0  0.00000000000E+00  0.00000000000E+00  0.26404671207E+04  0.35914991169E+04  0.24345018568E+04 0.  0.
        2    1    3    3  502    0 -0.84902121070E+03  0.37529565723E+03  0.24818616198E+04  0.26497775277E+04  0.25500000920E-02 0.  1.
       -2    1    3    3    0  502  0.84902121070E+03 -0.37529565723E+03  0.15860550091E+03  0.94172158915E+03  0.25500000920E-02 0. -1.
</event>
<event>
 5   0  0.2339125E-05  0.2430159E+04  0.7818609E-02  0.8428298E-01
       -3   -1    0    0    0  501  0.00000000000E+00  0.00000000000E+00  0.79524837825E+03  0.79524838467E+03  0.10100000352E+00 0. -1.
        3   -1    0    0  501    0  0.00000000000E+00  0.00000000000E+00 -0.18565495518E+04  0.18565495546E+04  0.10100000352E+00 0.  1.
    10030    2    1    2    0    0  0.00000000000E+00  0.00000000000E+00 -0.10613011736E+04  0.26517979392E+04  0.24301588692E+04 0.  0.
        4    1    3    3  502    0  0.10491717845E+04 -0.33389643502E+03  0.30198472234E+02  0.11014362548E+04  0.12699999809E+01 0. -1.
       -4    1    3    3    0  502 -0.10491717845E+04  0.33389643502E+03 -0.10914996458E+04  0.15503616844E+04  0.12699999809E+01 0.  1.
</event>
<event>
 5   0  0.6600166E-05  0.2432185E+04  0.7818609E-02  0.8427551E-01
       -2   -1    0    0    0  501  0.00000000000E+00  0.00000000000E+00  0.11953661872E+04  0.11953661872E+04  0.25500000920E-02 0.  1.
        2   -1    0    0  501    0  0.00000000000E+00  0.00000000000E+00 -0.12371780111E+04  0.12371780111E+04  0.25500000920E-02 0. -1.
    10030    2    1    2    0    0  0.00000000000E+00  0.00000000000E+00 -0.41811823851E+02  0.24325441983E+04  0.24321848302E+04 0.  0.
        5    1    3    3  502    0  0.11469462892E+04 -0.37214106898E+03 -0.17867555588E+03  0.12189839251E+04  0.46999998093E+01 0.  1.
       -5    1    3    3    0  502 -0.11469462892E+04  0.37214106898E+03  0.13686373203E+03  0.12135602732E+04  0.46999998093E+01 0. -1.
</event>
<event>
 5   0  0.2943123E-05  0.2411238E+04  0.7818609E-02  0.8435308E-01
        1   -1    0    0  501    0  0.00000000000E+00  0.00000000000E+00  0.70466809526E+03  0.70466809528E+03  0.50400001928E-02 0.  1.
       -1   -1    0    0    0  501  0.00000000000E+00  0.00000000000E+00 -0.20626975789E+04  0.20626975789E+04  0.50400001928E-02 0. -1.
    10030    2    1    2    0    0  0.00000000000E+00  0.00000000000E+00 -0.13580294837E+04  0.27673656742E+04  0.24112380007E+04 0.  0.
        1    1    3    3  502    0  0.91504194258E+02 -0.95356284710E+03 -0.15191572755E+04  0.17959660210E+04  0.50400001928E-02 0. -1.
       -1    1    3    3    0  502 -0.91504194258E+02  0.95356284710E+03  0.16112779181E+03  0.97139965321E+03  0.50400001928E-02 0.  1.
</event>
<event>
 5   0  0.2915546E-05  0.2090678E+04  0.7818609E-02  0.8565361E-01
        1   -1    0    0  501    0  0.00000000000E+00  0.00000000000E+00  0.82682677551E+03  0.82682677553E+03  0.50400001928E-02 0.  1.
       -1   -1    0    0    0  501  0.00000000000E+00  0.00000000000E+00 -0.13215994773E+04  0.13215994773E+04  0.50400001928E-02 0. -1.
    10030    2    1    2    0    0  0.00000000000E+00  0.00000000000E+00 -0.49477270174E+03  0.21484262528E+04  0.20906782003E+04 0.  0.
        2    1    3    3  502    0  0.10227031317E+03  0.39913941715E+03 -0.12346320509E+04  0.13015712783E+04  0.25500000920E-02 0. -1.
       -2    1    3    3    0  502 -0.10227031317E+03 -0.39913941715E+03  0.73985934918E+03  0.84685497451E+03  0.25500000920E-02 0.  1.
</event>
<event>
 5   0  0.6714629E-05  0.2383322E+04  0.7818609E-02  0.8445774E-01
       -2   -1    0    0    0  501  0.00000000000E+00  0.00000000000E+00  0.12685010111E+04  0.12685010111E+04  0.25500000920E-02 0.  1.
        2   -1    0    0  501    0  0.00000000000E+00  0.00000000000E+00 -0.11194758026E+04  0.11194758026E+04  0.25500000920E-02 0. -1.
    10030    2    1    2    0    0  0.00000000000E+00  0.00000000000E+00  0.14902520846E+03  0.23879768137E+04  0.23833222086E+04 0.  0.
        3    1    3    3  502    0 -0.47348697607E+03  0.49086958002E+03  0.10536177218E+04  0.12550909031E+04  0.10100000352E+00 0.  1.
       -3    1    3    3    0  502  0.47348697607E+03 -0.49086958002E+03 -0.90459251336E+03  0.11328859106E+04  0.10100000352E+00 0. -1.
</event>
<event>
 5   0  0.2847158E-05  0.2403178E+04  0.7818609E-02  0.8438315E-01
       -1   -1    0    0    0  501  0.00000000000E+00  0.00000000000E+00  0.11596775241E+04  0.11596775241E+04  0.50400001928E-02 0. -1.
        1   -1    0    0  501    0  0.00000000000E+00  0.00000000000E+00 -0.12450154356E+04  0.12450154356E+04  0.50400001928E-02 0.  1.
    10030    2    1    2    0    0  0.00000000000E+00  0.00000000000E+00 -0.85337911471E+02  0.24046929597E+04  0.24031782438E+04 0.  0.
        5    1    3    3  502    0 -0.79098113306E+03  0.10572178140E+03 -0.94154806719E+03  0.12342459644E+04  0.46999998093E+01 0.  1.
       -5    1    3    3    0  502  0.79098113306E+03 -0.10572178140E+03  0.85621015572E+03  0.11704469952E+04  0.46999998093E+01 0. -1.
</event>
<event>
 5   0  0.6337926E-05  0.2366065E+04  0.7818609E-02  0.8452319E-01
        2   -1    0    0  501    0  0.00000000000E+00  0.00000000000E+00  0.10552027376E+04  0.10552027376E+04  0.25500000920E-02 0. -1.
       -2   -1    0    0    0  501  0.00000000000E+00  0.00000000000E+00 -0.13263473397E+04  0.13263473397E+04  0.25500000920E-02 0.  1.
    10030    2    1    2    0    0  0.00000000000E+00  0.00000000000E+00 -0.27114460203E+03  0.23815500773E+04  0.23660645333E+04 0.  0.
        1    1    3    3  502    0  0.30760893823E+03 -0.37538695550E+03  0.95038964438E+03  0.10671359339E+04  0.50400001928E-02 0. -1.
       -1    1    3    3    0  502 -0.30760893823E+03  0.37538695550E+03 -0.12215342464E+04  0.13144141434E+04  0.50400001928E-02 0.  1.
</event>
<event>
 5   0  0.2943123E-05  0.2343610E+04  0.7818609E-02  0.8460922E-01
       -1   -1    0    0    0  501  0.00000000000E+00  0.00000000000E+00  0.85559992277E+03  0.85559992279E+03  0.50400001928E-02 0.  1.
        1   -1    0    0  501    0  0.00000000000E+00  0.00000000000E+00 -0.16048700242E+04  0.16048700243E+04  0.50400001928E-02 0. -1.
    10030    2    1    2    0    0  0.00000000000E+00  0.00000000000E+00 -0.74927010148E+03  0.24604699470E+04  0.23436097532E+04 0.  0.
        1    1    3    3  502    0  0.91824152091E+03 -0.52515502251E+03  0.15465787795E+03  0.10690530144E+04  0.50400001928E-02 0.  1.
       -1    1    3    3    0  502 -0.91824152091E+03  0.52515502251E+03 -0.90392797942E+03  0.13914169326E+04  0.50400001928E-02 0. -1.
</event>
<event>
 5   0  0.6703961E-05  0.2386341E+04  0.7818609E-02  0.8444635E-01
       -2   -1    0    0    0  501  0.00000000000E+00  0.00000000000E+00  0.66055595904E+03  0.66055595904E+03  0.25500000920E-02 0. -1.
        2   -1    0    0  501    0  0.00000000000E+00  0.00000000000E+00 -0.21552395440E+04  0.21552395440E+04  0.25500000920E-02 0.  1.
    10030    2    1    2    0    0  0.00000000000E+00  0.00000000000E+00 -0.14946835849E+04  0.28157955030E+04  0.23863414038E+04 0.  0.
        2    1    3    3  502    0  0.99777355386E+03 -0.16548479346E+03 -0.39696374253E+00  0.10114036975E+04  0.25500000920E-02 0. -1.
       -2    1    3    3    0  502 -0.99777355386E+03  0.16548479346E+03 -0.14942866212E+04  0.18043918055E+04  0.25500000920E-02 0.  1.
</event>
<event>
 5   0  0.2943244E-05  0.2386851E+04  0.7818609E-02  0.8444443E-01
        1   -1    0    0  501    0  0.00000000000E+00  0.00000000000E+00  0.15455651383E+04  0.15455651383E+04  0.50400001928E-02 0. -1.
       -1   -1    0    0    0  501  0.00000000000E+00  0.00000000000E+00 -0.92151702164E+03  0.92151702165E+03  0.50400001928E-02 0.  1.
    10030    2    1    2    0    0  0.00000000000E+00  0.00000000000E+00  0.62404811663E+03  0.24670821599E+04  0.23868511332E+04 0.  0.
        3    1    3    3  502    0  0.73100055428E+03 -0.47700061233E+03  0.11532441731E+04  0.14463276003E+04  0.10100000352E+00 0. -1.
       -3    1    3    3    0  502 -0.73100055428E+03  0.47700061233E+03 -0.52919605648E+03  0.10207545596E+04  0.10100000352E+00 0.  1.
</event>
<event>
 5   0  0.6978115E-05  0.2442780E+04  0.7818609E-02  0.8423659E-01
       -2   -1    0    0    0  501  0.00000000000E+00  0.00000000000E+00  0.70092167284E+03  0.70092167284E+03  0.25500000920E-02 0.  1.
        2   -1    0    0  501    0  0.00000000000E+00  0.00000000000E+00 -0.21283311983E+04  0.21283311983E+04  0.25500000920E-02 0. -1.
    10030    2    1    2    0    0  0.00000000000E+00  0.00000000000E+00 -0.14274095255E+04  0.28292528712E+04  0.24427799442E+04 0.  0.
        4    1    3    3  502    0  0.11742850314E+04 -0.15665651923E+03 -0.10578808432E+04  0.15882695272E+04  0.12699999809E+01 0. -1.
       -4    1    3    3    0  502 -0.11742850314E+04  0.15665651923E+03 -0.36952868233E+03  0.12409833439E+04  0.12699999809E+01 0.  1.
</event>
<event>
 5   0  0.6337926E-05  0.2426485E+04  0.7818609E-02  0.8429654E-01
        2   -1    0    0  501    0  0.00000000000E+00  0.00000000000E+00  0.15159062364E+04  0.15159062364E+04  0.25500000920E-02 0.  1.
       -2   -1    0    0    0  501  0.00000000000E+00  0.00000000000E+00 -0.97100843359E+03  0.97100843360E+03  0.25500000920E-02 0. -1.
    10030    2    1    2    0    0  0.00000000000E+00  0.00000000000E+00  0.54489780276E+03  0.24869146699E+04  0.24264853101E+04 0.  0.
        1    1    3    3  502    0  0.47395873561E+03 -0.10376003308E+04  0.69590474748E+03  0.13362390307E+04  0.50400001928E-02 0.  1.
       -1    1    3    3    0  502 -0.47395873561E+03  0.10376003308E+04 -0.15100694472E+03  0.11506756393E+04  0.50400001928E-02 0. -1.
</event>
<event>
 5   0  0.2943244E-05  0.2382990E+04  0.7818609E-02  0.8445899E-01
        1   -1    0    0  501    0  0.00000000000E+00  0.00000000000E+00  0.13219350362E+04  0.13219350362E+04  0.50400001928E-02 0. -1.
       -1   -1    0    0    0  501  0.00000000000E+00  0.00000000000E+00 -0.10739258880E+04  0.10739258880E+04  0.50400001928E-02 0.  1.
    10030    2    1    2    0    0  0.00000000000E+00  0.00000000000E+00  0.24800914818E+03  0.23958609242E+04  0.23829899350E+04 0.  0.
        3    1    3    3  502    0 -0.36773802901E+03  0.18448836713E+03  0.12482539851E+04  0.13143078928E+04  0.10100000352E+00 0. -1.
       -3    1    3    3    0  502  0.36773802901E+03 -0.18448836713E+03 -0.10002448369E+04  0.10815530313E+04  0.10100000352E+00 0.  1.
</event>
<event>
 5   0  0.2847158E-05  0.2424860E+04  0.7818609E-02  0.8430254E-01
       -1   -1    0    0    0  501  0.00000000000E+00  0.00000000000E+00  0.61109961016E+03  0.61109961018E+03  0.50400001928E-02 0. -1.
        1   -1    0    0  501    0  0.00000000000E+00  0.00000000000E+00 -0.24054782149E+04  0.24054782149E+04  0.50400001928E-02 0.  1.
    10030    2    1    2    0    0  0.00000000000E+00  0.00000000000E+00 -0.17943786047E+04  0.30165778250E+04  0.24248602429E+04 0.  0.
        5    1    3    3  502    0 -0.16654275174E+03  0.66556708167E+03  0.34636459519E+03  0.76857436280E+03  0.46999998093E+01 0. -1.
       -5    1    3    3    0  502  0.16654275174E+03 -0.66556708167E+03 -0.21407431999E+04  0.22480034622E+04  0.46999998093E+01 0.  1.
</event>
<event>
 5   0  0.2943244E-05  0.2373505E+04  0.7818609E-02  0.8449490E-01
        1   -1    0    0  501    0  0.00000000000E+00  0.00000000000E+00  0.12472747542E+04  0.12472747542E+04  0.50400001928E-02 0. -1.
       -1   -1    0    0    0  501  0.00000000000E+00  0.00000000000E+00 -0.11291670560E+04  0.11291670560E+04  0.50400001928E-02 0.  1.
    10030    2    1    2    0    0  0.00000000000E+00  0.00000000000E+00  0.11810769817E+03  0.23764418102E+04  0.23735050556E+04 0.  0.
        3    1    3    3  502    0  0.14255825441E+03  0.76566963537E+03  0.95559949783E+03  0.12327786731E+04  0.10100000352E+00 0. -1.
       -3    1    3    3    0  502 -0.14255825441E+03 -0.76566963537E+03 -0.83749179966E+03  0.11436631371E+04  0.10100000352E+00 0.  1.
</event>
<event>
 5   0  0.2847158E-05  0.2402044E+04  0.7818609E-02  0.8438739E-01
       -1   -1    0    0    0  501  0.00000000000E+00  0.00000000000E+00  0.13770390749E+04  0.13770390749E+04  0.50400001928E-02 0. -1.
        1   -1    0    0  501    0  0.00000000000E+00  0.00000000000E+00 -0.10475041246E+04  0.10475041246E+04  0.50400001928E-02 0.  1.
    10030    2    1    2    0    0  0.00000000000E+00  0.00000000000E+00  0.32953495028E+03  0.24245431994E+04  0.24020442216E+04 0.  0.
        5    1    3    3  502    0  0.46559208140E+03 -0.11059430604E+04  0.21569781332E+03  0.12191938630E+04  0.46999998093E+01 0. -1.
       -5    1    3    3    0  502 -0.46559208140E+03  0.11059430604E+04  0.11383713695E+03  0.12053493364E+04  0.46999998093E+01 0.  1.
</event>
<event>
 5   0  0.6703961E-05  0.2429535E+04  0.7818609E-02  0.8428528E-01
        2   -1    0    0  501    0  0.00000000000E+00  0.00000000000E+00  0.15979460320E+04  0.15979460320E+04  0.25500000920E-02 0.  1.
       -2   -1    0    0    0  501  0.00000000000E+00  0.00000000000E+00 -0.92347276189E+03  0.92347276189E+03  0.25500000920E-02 0. -1.
    10030    2    1    2    0    0  0.00000000000E+00  0.00000000000E+00  0.67447327008E+03  0.25214187939E+04  0.24295346349E+04 0.  0.
        2    1    3    3  502    0 -0.72971351641E+03  0.10666619640E+03  0.13390418246E+04  0.15286897990E+04  0.25500000920E-02 0.  1.
       -2    1    3    3    0  502  0.72971351641E+03 -0.10666619640E+03 -0.66456855456E+03  0.99272899484E+03  0.25500000920E-02 0. -1.
</event>
<event>
 5   0  0.2943244E-05  0.2163685E+04  0.7818609E-02  0.8533697E-01
        1   -1    0    0  501    0  0.00000000000E+00  0.00000000000E+00  0.11749078941E+04  0.11749078941E+04  0.50400001928E-02 0.  1.
       -1   -1    0    0    0  501  0.00000000000E+00  0.00000000000E+00 -0.99614923020E+03  0.99614923021E+03  0.50400001928E-02 0. -1.
    10030    2    1    2    0    0  0.00000000000E+00  0.00000000000E+00  0.17875866390E+03  0.21710571243E+04  0.21636853693E+04 0.  0.
        3    1    3    3  502    0  0.73693223841E+03  0.22801085230E+03 -0.67170706241E+03  0.10228628748E+04  0.10100000352E+00 0. -1.
       -3    1    3    3    0  502 -0.73693223841E+03 -0.22801085230E+03  0.85046572631E+03  0.11481942495E+04  0.10100000352E+00 0.  1.
</event>
<event>
 5   0  0.6337926E-05  0.2441440E+04  0.7818609E-02  0.8424150E-01
        2   -1    0    0  501    0  0.00000000000E+00  0.00000000000E+00  0.14713997292E+04  0.14713997292E+04  0.25500000920E-02 0.  1.
       -2   -1    0    0    0  501  0.00000000000E+00  0.00000000000E+00 -0.10127479106E+04  0.10127479106E+04  0.25500000920E-02 0. -1.
    10030    2    1    2    0    0  0.00000000000E+00  0.00000000000E+00  0.45865181860E+03  0.24841476398E+04  0.24414397403E+04 0.  0.
        1    1    3    3  502    0 -0.27131489833E+03  0.34498023194E+03  0.13883454156E+04  0.14560652896E+04  0.50400001928E-02 0.  1.
       -1    1    3    3    0  502  0.27131489833E+03 -0.34498023194E+03 -0.92969359701E+03  0.10280823502E+04  0.50400001928E-02 0. -1.
</event>
<event>
 5   0  0.6978115E-05  0.2540606E+04  0.7818609E-02  0.8388660E-01
        2   -1    0    0  501    0  0.00000000000E+00  0.00000000000E+00  0.11093147862E+04  0.11093147862E+04  0.25500000920E-02 0.  1.
       -2   -1    0    0    0  501  0.00000000000E+00  0.00000000000E+00 -0.14546548852E+04  0.14546548852E+04  0.25500000920E-02 0. -1.
    10030    2    1    2    0    0  0.00000000000E+00  0.00000000000E+00 -0.34534009898E+03  0.25639696715E+04  0.25406063631E+04 0.  0.
        4    1    3    3  502    0  0.57907308210E+03  0.14430383752E+03 -0.13043740125E+04  0.14344136117E+04  0.12699999809E+01 0. -1.
       -4    1    3    3    0  502 -0.57907308210E+03 -0.14430383752E+03  0.95903391355E+03  0.11295560598E+04  0.12699999809E+01 0.  1.
</event>
<event>
 5   0  0.2943244E-05  0.1794713E+04  0.7818609E-02  0.8709116E-01
        1   -1    0    0  501    0  0.00000000000E+00  0.00000000000E+00  0.11483344034E+04  0.11483344034E+04  0.50400001928E-02 0. -1.
       -1   -1    0    0    0  501  0.00000000000E+00  0.00000000000E+00 -0.70123225584E+03  0.70123225586E+03  0.50400001928E-02 0.  1.
    10030    2    1    2    0    0  0.00000000000E+00  0.00000000000E+00  0.44710214759E+03  0.18495666593E+04  0.17947134860E+04 0.  0.
        3    1    3    3  502    0  0.45947297747E+03  0.74141931009E+03  0.63217690723E+01  0.87227173826E+03  0.10100000352E+00 0.  1.
       -3    1    3    3    0  502 -0.45947297747E+03 -0.74141931009E+03  0.44078037852E+03  0.97729492104E+03  0.10100000352E+00 0. -1.
</event>
<event>
 5   0  0.6714629E-05  0.2452514E+04  0.7818609E-02  0.8420101E-01
       -2   -1    0    0    0  501  0.00000000000E+00  0.00000000000E+00  0.12629812529E+04  0.12629812529E+04  0.25500000920E-02 0. -1.
        2   -1    0    0  501    0  0.00000000000E+00  0.00000000000E+00 -0.11906002335E+04  0.11906002335E+04  0.25500000920E-02 0.  1.
    10030    2    1    2    0    0  0.00000000000E+00  0.00000000000E+00  0.72381019437E+02  0.24535814864E+04  0.24525136286E+04 0.  0.
        3    1    3    3  502    0 -0.14634583432E+03  0.79548594979E+03  0.95827005382E+03  0.12539922272E+04  0.10100000352E+00 0. -1.
       -3    1    3    3    0  502  0.14634583432E+03 -0.79548594979E+03 -0.88588903438E+03  0.11995892593E+04  0.10100000352E+00 0.  1.
</event>
<event>
 5   0  0.6337926E-05  0.2277025E+04  0.7818609E-02  0.8487035E-01
       -2   -1    0    0    0  501  0.00000000000E+00  0.00000000000E+00  0.63060410282E+03  0.63060410283E+03  0.25500000920E-02 0.  1.
        2   -1    0    0  501    0  0.00000000000E+00  0.00000000000E+00 -0.20555059554E+04  0.20555059554E+04  0.25500000920E-02 0. -1.
    10030    2    1    2    0    0  0.00000000000E+00  0.00000000000E+00 -0.14249018526E+04  0.26861100583E+04  0.22770248035E+04 0.  0.
        1    1    3    3  502    0 -0.31783711961E+03 -0.58369809568E+02 -0.20002693634E+04  0.20262045789E+04  0.50400001928E-02 0. -1.
       -1    1    3    3    0  502  0.31783711961E+03  0.58369809568E+02  0.57536751078E+03  0.65990547941E+03  0.50400001928E-02 0.  1.
</event>
<event>
 5   0  0.2915546E-05  0.2430874E+04  0.7818609E-02  0.8428035E-01
       -1   -1    0    0    0  501  0.00000000000E+00  0.00000000000E+00  0.10989787585E+04  0.10989787585E+04  0.50400001928E-02 0.  1.
        1   -1    0    0  501    0  0.00000000000E+00  0.00000000000E+00 -0.13442357576E+04  0.13442357576E+04  0.50400001928E-02 0. -1.
    10030    2    1    2    0    0  0.00000000000E+00  0.00000000000E+00 -0.24525699905E+03  0.24432145161E+04  0.24308735418E+04 0.  0.
        2    1    3    3  502    0  0.94780232701E+03 -0.66402112822E+03  0.25078590365E+03  0.11841228312E+04  0.25500000920E-02 0.  1.
       -2    1    3    3    0  502 -0.94780232701E+03  0.66402112822E+03 -0.49604290270E+03  0.12590916850E+04  0.25500000920E-02 0. -1.
</event>
<event>
 5   0  0.2847158E-05  0.2407484E+04  0.7818609E-02  0.8436707E-01
       -1   -1    0    0    0  501  0.00000000000E+00  0.00000000000E+00  0.11399334813E+04  0.11399334814E+04  0.50400001928E-02 0. -1.
        1   -1    0    0  501    0  0.00000000000E+00  0.00000000000E+00 -0.12711223575E+04  0.12711223575E+04  0.50400001928E-02 0.  1.
    10030    2    1    2    0    0  0.00000000000E+00  0.00000000000E+00 -0.13118887614E+03  0.24110558388E+04  0.24074841094E+04 0.  0.
        5    1    3    3  502    0  0.24873015640E+03 -0.96828209971E+03  0.60587467971E+03  0.11689923579E+04  0.46999998093E+01 0. -1.
       -5    1    3    3    0  502 -0.24873015640E+03  0.96828209971E+03 -0.73706355585E+03  0.12420634809E+04  0.46999998093E+01 0.  1.
</event>
<event>
 5   0  0.2943123E-05  0.2395175E+04  0.7818609E-02  0.8441312E-01
       -1   -1    0    0    0  501  0.00000000000E+00  0.00000000000E+00  0.61569996021E+03  0.61569996023E+03  0.50400001928E-02 0. -1.
        1   -1    0    0  501    0  0.00000000000E+00  0.00000000000E+00 -0.23294061866E+04  0.23294061866E+04  0.50400001928E-02 0.  1.
    10030    2    1    2    0    0  0.00000000000E+00  0.00000000000E+00 -0.17137062264E+04  0.29451061469E+04  0.23951745627E+04 0.  0.
        1    1    3    3  502    0  0.13994212451E+03  0.39833322396E+03  0.52115589195E+03  0.67071351504E+03  0.50400001928E-02 0. -1.
       -1    1    3    3    0  502 -0.13994212451E+03 -0.39833322396E+03 -0.22348621184E+04  0.22743926318E+04  0.50400001928E-02 0.  1.
</event>
<event>
 5   0  0.6600166E-05  0.2246046E+04  0.7818609E-02  0.8499504E-01
        2   -1    0    0  501    0  0.00000000000E+00  0.00000000000E+00  0.13526172620E+04  0.13526172620E+04  0.25500000920E-02 0. -1.
       -2   -1    0    0    0  501  0.00000000000E+00  0.00000000000E+00 -0.93239993470E+03  0.93239993471E+03  0.25500000920E-02 0.  1.
    10030    2    1    2    0    0  0.00000000000E+00  0.00000000000E+00  0.42021732734E+03  0.22850171968E+04  0.22460456334E+04 0.  0.
        5    1    3    3  502    0 -0.44229294353E+03  0.28216209065E+03  0.12202721386E+04  0.13282788395E+04  0.46999998093E+01 0. -1.
       -5    1    3    3    0  502  0.44229294353E+03 -0.28216209065E+03 -0.80005481122E+03  0.95673835726E+03  0.46999998093E+01 0.  1.
</event>
<event>
 5   0  0.6714629E-05  0.2373826E+04  0.7818609E-02  0.8449368E-01
       -2   -1    0    0    0  501  0.00000000000E+00  0.00000000000E+00  0.53020978584E+03  0.53020978585E+03  0.25500000920E-02 0. -1.
        2   -1    0    0  501    0  0.00000000000E+00  0.00000000000E+00 -0.26569903088E+04  0.26569903088E+04  0.25500000920E-02 0.  1.
    10030    2    1    2    0    0  0.00000000000E+00  0.00000000000E+00 -0.21267805229E+04  0.31872000946E+04  0.23738258256E+04 0.  0.
        3    1    3    3  502    0  0.41895594097E+03  0.78187111474E+03 -0.21222202930E+04  0.23001446700E+04  0.10100000352E+00 0.  1.
       -3    1    3    3    0  502 -0.41895594097E+03 -0.78187111474E+03 -0.45602299388E+01  0.88705542467E+03  0.10100000352E+00 0. -1.
</event>
<event>
 5   0  0.6978115E-05  0.2433083E+04  0.7818609E-02  0.8427221E-01
        2   -1    0    0  501    0  0.00000000000E+00  0.00000000000E+00  0.14453334215E+04  0.14453334215E+04  0.25500000920E-02 0. -1.
       -2   -1    0    0    0  501  0.00000000000E+00  0.00000000000E+00 -0.10239667898E+04  0.10239667898E+04  0.25500000920E-02 0.  1.
    10030    2    1    2    0    0  0.00000000000E+00  0.00000000000E+00  0.42136663167E+03  0.24693002114E+04  0.24330831666E+04 0.  0.
        4    1    3    3  502    0 -0.61703181687E+03  0.10373253880E+04  0.56101975219E+02  0.12082720175E+04  0.12699999809E+01 0.  1.
       -4    1    3    3    0  502  0.61703181687E+03 -0.10373253880E+04  0.36526465645E+03  0.12610281939E+04  0.12699999809E+01 0. -1.
</event>
<event>
 5   0  0.6714629E-05  0.2254251E+04  0.7818609E-02  0.8496181E-01
        2   -1    0    0  501    0  0.00000000000E+00  0.00000000000E+00  0.35882916305E+04  0.35882916305E+04  0.25500000920E-02 0.  1.
       -2   -1    0    0    0  501  0.00000000000E+00  0.00000000000E+00 -0.35404378740E+03  0.35404378741E+03  0.25500000920E-02 0. -1.
    10030    2    1    2    0    0  0.00000000000E+00  0.00000000000E+00  0.32342478431E+04  0.39423354179E+04  0.22542514138E+04 0.  0.
        3    1    3    3  502    0  0.70050745561E+03 -0.64477046165E+03  0.26722045015E+04  0.28367440053E+04  0.10100000352E+00 0.  1.
       -3    1    3    3    0  502 -0.70050745561E+03  0.64477046165E+03  0.56204334159E+03  0.11055914126E+04  0.10100000352E+00 0. -1.
</event>
<event>
 5   0  0.2847158E-05  0.2291771E+04  0.7818609E-02  0.8481173E-01
        1   -1    0    0  501    0  0.00000000000E+00  0.00000000000E+00  0.20184744560E+04  0.20184744560E+04  0.50400001928E-02 0.  1.
       -1   -1    0    0    0  501  0.00000000000E+00  0.00000000000E+00 -0.65051763039E+03  0.65051763041E+03  0.50400001928E-02 0. -1.
    10030    2    1    2    0    0  0.00000000000E+00  0.00000000000E+00  0.13679568256E+04  0.26689920864E+04  0.22917706868E+04 0.  0.
        5    1    3    3  502    0 -0.23333864600E+02 -0.99758553493E+03  0.13399995643E+04  0.16707310649E+04  0.46999998093E+01 0.  1.
       -5    1    3    3    0  502  0.23333864600E+02  0.99758553493E+03  0.27957261311E+02  0.99826102157E+03  0.46999998093E+01 0. -1.
</event>
<event>
 5   0  0.2901816E-05  0.2347219E+04  0.7818609E-02  0.8459533E-01
       -1   -1    0    0    0  501  0.00000000000E+00  0.00000000000E+00  0.11567850117E+04  0.11567850117E+04  0.50400001928E-02 0.  1.
        1   -1    0    0  501    0  0.00000000000E+00  0.00000000000E+00 -0.11906782435E+04  0.11906782435E+04  0.50400001928E-02 0. -1.
    10030    2    1    2    0    0  0.00000000000E+00  0.00000000000E+00 -0.33893231835E+02  0.23474632552E+04  0.23472185632E+04 0.  0.
        4    1    3    3  502    0 -0.66429083121E+03 -0.16583502754E+03 -0.97023723864E+03  0.11874954640E+04  0.12699999809E+01 0. -1.
       -4    1    3    3    0  502  0.66429083121E+03  0.16583502754E+03  0.93634400681E+03  0.11599677913E+04  0.12699999809E+01 0.  1.
</event>
<event>
 5   0  0.2847158E-05  0.2443559E+04  0.7818609E-02  0.8423373E-01
        1   -1    0    0  501    0  0.00000000000E+00  0.00000000000E+00  0.20721253729E+04  0.20721253729E+04  0.50400001928E-02 0.  1.
       -1   -1    0    0    0  501  0.00000000000E+00  0.00000000000E+00 -0.72039331196E+03  0.72039331198E+03  0.50400001928E-02 0. -1.
    10030    2    1    2    0    0  0.00000000000E+00  0.00000000000E+00  0.13517320609E+04  0.27925186849E+04  0.24435590930E+04 0.  0.
        5    1    3    3  502    0 -0.53758906821E+02  0.12180050253E+04  0.76655133861E+03  0.14401560007E+04  0.46999998093E+01 0.  1.
       -5    1    3    3    0  502  0.53758906821E+02 -0.12180050253E+04  0.58518072234E+03  0.13523626842E+04  0.46999998093E+01 0. -1.
</event>
<event>
 5   0  0.2901816E-05  0.2431125E+04  0.7818609E-02  0.8427942E-01
       -1   -1    0    0    0  501  0.00000000000E+00  0.00000000000E+00  0.16105060545E+04  0.16105060545E+04  0.50400001928E-02 0. -1.
        1   -1    0    0  501    0  0.00000000000E+00  0.00000000000E+00 -0.91747054014E+03  0.91747054016E+03  0.50400001928E-02 0.  1.
    10030    2    1    2    0    0  0.00000000000E+00  0.00000000000E+00  0.69303551440E+03  0.25279765947E+04  0.24311247272E+04 0.  0.
        4    1    3    3  502    0  0.55151641996E+02  0.39475428520E+03  0.15406205359E+04  0.15913471958E+04  0.12699999809E+01 0. -1.
       -4    1    3    3    0  502 -0.55151641996E+02 -0.39475428520E+03 -0.84758502147E+03  0.93662939886E+03  0.12699999809E+01 0.  1.
</event>
<event>
 5   0  0.6714629E-05  0.2263322E+04  0.7818609E-02  0.8492525E-01
        2   -1    0    0  501    0  0.00000000000E+00  0.00000000000E+00  0.16409561469E+04  0.16409561469E+04  0.25500000920E-02 0.  1.
       -2   -1    0    0    0  501  0.00000000000E+00  0.00000000000E+00 -0.78043342413E+03  0.78043342414E+03  0.25500000920E-02 0. -1.
    10030    2    1    2    0    0  0.00000000000E+00  0.00000000000E+00  0.86052272277E+03  0.24213895710E+04  0.22633223585E+04 0.  0.
        3    1    3    3  502    0 -0.10208518690E+04  0.46658468974E+03  0.27590325359E+03  0.11558384085E+04  0.10100000352E+00 0. -1.
       -3    1    3    3    0  502  0.10208518690E+04 -0.46658468974E+03  0.58461946918E+03  0.12655511625E+04  0.10100000352E+00 0.  1.
</event>
<event>
 5   0  0.2943244E-05  0.2395143E+04  0.7818609E-02  0.8441324E-01
       -1   -1    0    0    0  501  0.00000000000E+00  0.00000000000E+00  0.89816651759E+03  0.89816651761E+03  0.50400001928E-02 0.  1.
        1   -1    0    0  501    0  0.00000000000E+00  0.00000000000E+00 -0.15967828708E+04  0.15967828708E+04  0.50400001928E-02 0. -1.
    10030    2    1    2    0    0  0.00000000000E+00  0.00000000000E+00 -0.69861635324E+03  0.24949493885E+04  0.23951425097E+04 0.  0.
        3    1    3    3  502    0 -0.10920714690E+04  0.24344577378E+03  0.95438744205E+02  0.11229401151E+04  0.10100000352E+00 0.  1.
       -3    1    3    3    0  502  0.10920714690E+04 -0.24344577378E+03 -0.79405509745E+03  0.13720092733E+04  0.10100000352E+00 0. -1.
</event>
<event>
 5   0  0.6600166E-05  0.2404731E+04  0.7818609E-02  0.8437734E-01
       -2   -1    0    0    0  501  0.00000000000E+00  0.00000000000E+00  0.11756638043E+04  0.11756638043E+04  0.25500000920E-02 0.  1.
        2   -1    0    0  501    0  0.00000000000E+00  0.00000000000E+00 -0.12296741385E+04  0.12296741385E+04  0.25500000920E-02 0. -1.
    10030    2    1    2    0    0  0.00000000000E+00  0.00000000000E+00 -0.54010334222E+02  0.24053379427E+04  0.24047314824E+04 0.  0.
        5    1    3    3  502    0  0.68140127378E+03 -0.96058383591E+03  0.21519694097E+03  0.11972304770E+04  0.46999998093E+01 0. -1.
       -5    1    3    3    0  502 -0.68140127378E+03  0.96058383591E+03 -0.26920727519E+03  0.12081074657E+04  0.46999998093E+01 0.  1.
</event>
<event>
 5   0  0.6714629E-05  0.2418054E+04  0.7818609E-02  0.8432775E-01
       -2   -1    0    0    0  501  0.00000000000E+00  0.00000000000E+00  0.11481986692E+04  0.11481986692E+04  0.25500000920E-02 0. -1.
        2   -1    0    0  501    0  0.00000000000E+00  0.00000000000E+00 -0.12730780524E+04  0.12730780524E+04  0.25500000920E-02 0.  1.
    10030    2    1    2    0    0  0.00000000000E+00  0.00000000000E+00 -0.12487938316E+03  0.24212767216E+04  0.24180541975E+04 0.  0.
        3    1    3    3  502    0  0.34755834135E+03 -0.26570700256E+03  0.10661602073E+04  0.11524298719E+04  0.10100000352E+00 0. -1.
       -3    1    3    3    0  502 -0.34755834135E+03  0.26570700256E+03 -0.11910395904E+04  0.12688468497E+04  0.10100000352E+00 0.  1.
</event>
<event>
 5   0  0.2943244E-05  0.2348669E+04  0.7818609E-02  0.8458975E-01
        1   -1    0    0  501    0  0.00000000000E+00  0.00000000000E+00  0.84536297340E+03  0.84536297341E+03  0.50400001928E-02 0. -1.
       -1   -1    0    0    0  501  0.00000000000E+00  0.00000000000E+00 -0.16313245678E+04  0.16313245678E+04  0.50400001928E-02 0.  1.
    10030    2    1    2    0    0  0.00000000000E+00  0.00000000000E+00 -0.78596159441E+03  0.24766875412E+04  0.23486688887E+04 0.  0.
        3    1    3    3  502    0 -0.51063595421E+03  0.10483337347E+04 -0.24645107774E+03  0.11918434632E+04  0.10100000352E+00 0. -1.
       -3    1    3    3    0  502  0.51063595421E+03 -0.10483337347E+04 -0.53951051667E+03  0.12848440780E+04  0.10100000352E+00 0.  1.
</event>
<event>
 5   0  0.6978115E-05  0.2425429E+04  0.7818609E-02  0.8430044E-01
       -2   -1    0    0    0  501  0.00000000000E+00  0.00000000000E+00  0.94029587535E+03  0.94029587535E+03  0.25500000920E-02 0. -1.
        2   -1    0    0  501    0  0.00000000000E+00  0.00000000000E+00 -0.15640576423E+04  0.15640576423E+04  0.25500000920E-02 0.  1.
    10030    2    1    2    0    0  0.00000000000E+00  0.00000000000E+00 -0.62376176694E+03  0.25043535176E+04  0.24254294052E+04 0.  0.
        4    1    3    3  502    0  0.10252918725E+04  0.13595922053E+02 -0.98045932658E+03  0.14187002421E+04  0.12699999809E+01 0.  1.
       -4    1    3    3    0  502 -0.10252918725E+04 -0.13595922053E+02  0.35669755963E+03  0.10856532756E+04  0.12699999809E+01 0. -1.
</event>
<event>
 5   0  0.6600166E-05  0.2418690E+04  0.7818609E-02  0.8432539E-01
       -2   -1    0    0    0  501  0.00000000000E+00  0.00000000000E+00  0.79966430492E+03  0.79966430492E+03  0.25500000920E-02 0. -1.
        2   -1    0    0  501    0  0.00000000000E+00  0.00000000000E+00 -0.18289121536E+04  0.18289121536E+04  0.25500000920E-02 0.  1.
    10030    2    1    2    0    0  0.00000000000E+00  0.00000000000E+00 -0.10292478487E+04  0.26285764585E+04  0.24186903614E+04 0.  0.
        5    1    3    3  502    0 -0.10674220964E+04  0.49166870217E+03 -0.82462331484E+03  0.14356718796E+04  0.46999998093E+01 0.  1.
       -5    1    3    3    0  502  0.10674220964E+04 -0.49166870217E+03 -0.20462453384E+03  0.11929045789E+04  0.46999998093E+01 0. -1.
</event>
<event>
 5   0  0.2915546E-05  0.2341738E+04  0.7818609E-02  0.8461644E-01
        1   -1    0    0  501    0  0.00000000000E+00  0.00000000000E+00  0.10037382641E+04  0.10037382641E+04  0.50400001928E-02 0. -1.
       -1   -1    0    0    0  501  0.00000000000E+00  0.00000000000E+00 -0.13658282038E+04  0.13658282038E+04  0.50400001928E-02 0.  1.
    10030    2    1    2    0    0  0.00000000000E+00  0.00000000000E+00 -0.36208993971E+03  0.23695664679E+04  0.23417378422E+04 0.  0.
        2    1    3    3  502    0  0.64875618698E+02  0.71305741014E+03  0.75639545843E+03  0.10415343516E+04  0.25500000920E-02 0. -1.
       -2    1    3    3    0  502 -0.64875618698E+02 -0.71305741014E+03 -0.11184853981E+04  0.13280321163E+04  0.25500000920E-02 0.  1.
</event>
<event>
 5   0  0.2901816E-05  0.2401466E+04  0.7818609E-02  0.8438955E-01
        1   -1    0    0  501    0  0.00000000000E+00  0.00000000000E+00  0.17074509209E+04  0.17074509210E+04  0.50400001928E-02 0.  1.
       -1   -1    0    0    0  501  0.00000000000E+00  0.00000000000E+00 -0.84439314535E+03  0.84439314537E+03  0.50400001928E-02 0. -1.
    10030    2    1    2    0    0  0.00000000000E+00  0.00000000000E+00  0.86305777559E+03  0.25518440663E+04  0.24014660970E+04 0.  0.
        4    1    3    3  502    0  0.26936423679E+03  0.22979870324E+03  0.16507165843E+04  0.16882628322E+04  0.12699999809E+01 0.  1.
       -4    1    3    3    0  502 -0.26936423679E+03 -0.22979870324E+03 -0.78765880870E+03  0.86358123411E+03  0.12699999809E+01 0. -1.
</event>
<event>
 5   0  0.2943244E-05  0.2401781E+04  0.7818609E-02  0.8438837E-01
       -1   -1    0    0    0  501  0.00000000000E+00  0.00000000000E+00  0.10230708267E+04  0.10230708267E+04  0.50400001928E-02 0.  1.
        1   -1    0    0  501    0  0.00000000000E+00  0.00000000000E+00 -0.14096167273E+04  0.14096167273E+04  0.50400001928E-02 0. -1.
    10030    2    1    2    0    0  0.00000000000E+00  0.00000000000E+00 -0.38654590060E+03  0.24326875540E+04  0.24017807981E+04 0.  0.
        3    1    3    3  502    0 -0.30725036586E+03  0.11342271491E+04  0.57427245070E+02  0.11765083561E+04  0.10100000352E+00 0.  1.
       -3    1    3    3    0  502  0.30725036586E+03 -0.11342271491E+04 -0.44397314567E+03  0.12561791980E+04  0.10100000352E+00 0. -1.
</event>
<event>
 5   0  0.2847158E-05  0.2035218E+04  0.7818609E-02  0.8590330E-01
       -1   -1    0    0    0  501  0.00000000000E+00  0.00000000000E+00  0.48710109907E+03  0.48710109910E+03  0.50400001928E-02 0. -1.
        1   -1    0    0  501    0  0.00000000000E+00  0.00000000000E+00 -0.21259007127E+04  0.21259007127E+04  0.50400001928E-02 0.  1.
    10030    2    1    2    0    0  0.00000000000E+00  0.00000000000E+00 -0.16387996137E+04  0.26130018118E+04  0.20352184882E+04 0.  0.
        5    1    3    3  502    0 -0.82708333429E+03 -0.27282504284E+03 -0.14366954653E+03  0.88270231362E+03  0.46999998093E+01 0. -1.
       -5    1    3    3    0  502  0.82708333429E+03  0.27282504284E+03 -0.14951300671E+04  0.17302994982E+04  0.46999998093E+01 0.  1.
</event>
<event>
 5   0  0.6337926E-05  0.2457876E+04  0.7818609E-02  0.8418148E-01
       -2   -1    0    0    0  501  0.00000000000E+00  0.00000000000E+00  0.19063924861E+04  0.19063924861E+04  0.25500000920E-02 0.  1.
        2   -1    0    0  501    0  0.00000000000E+00  0.00000000000E+00 -0.79222363845E+03  0.79222363845E+03  0.25500000920E-02 0. -1.
    10030    2    1    2    0    0  0.00000000000E+00  0.00000000000E+00  0.11141688477E+04  0.26986161246E+04  0.24578764751E+04 0.  0.
        1    1    3    3  502    0 -0.28920650262E+02  0.12044766543E+04  0.82307030688E+03  0.14591247873E+04  0.50400001928E-02 0. -1.
       -1    1    3    3    0  502  0.28920650262E+02 -0.12044766543E+04  0.29109854080E+03  0.12394913373E+04  0.50400001928E-02 0.  1.
</event>
<event>
 5   0  0.2943123E-05  0.2367634E+04  0.7818609E-02  0.8451721E-01
       -1   -1    0    0    0  501  0.00000000000E+00  0.00000000000E+00  0.81217542996E+03  0.81217542998E+03  0.50400001928E-02 0.  1.
        1   -1    0    0  501    0  0.00000000000E+00  0.00000000000E+00 -0.17255177852E+04  0.17255177852E+04  0.50400001928E-02 0. -1.
    10030    2    1    2    0    0  0.00000000000E+00  0.00000000000E+00 -0.91334235519E+03  0.25376932151E+04  0.23676343882E+04 0.  0.
        1    1    3    3  502    0 -0.42339012901E+03 -0.44584460275E+02 -0.16406276867E+04  0.16949649500E+04  0.50400001928E-02 0. -1.
       -1    1    3    3    0  502  0.42339012901E+03  0.44584460275E+02  0.72728533148E+03  0.84272826514E+03  0.50400001928E-02 0.  1.
</event>
<event>
 5   0  0.6337926E-05  0.1582029E+04  0.7818609E-02  0.8831665E-01
        2   -1    0    0  501    0  0.00000000000E+00  0.00000000000E+00  0.16799966072E+04  0.16799966072E+04  0.25500000920E-02 0.  1.
       -2   -1    0    0    0  501  0.00000000000E+00  0.00000000000E+00 -0.37244352396E+03  0.37244352397E+03  0.25500000920E-02 0. -1.
    10030    2    1    2    0    0  0.00000000000E+00  0.00000000000E+00  0.13075530832E+04  0.20524401311E+04  0.15820288956E+04 0.  0.
        1    1    3    3  502    0  0.37620809237E+03  0.47782023539E+03  0.13100072706E+04  0.14442865904E+04  0.50400001928E-02 0.  1.
       -1    1    3    3    0  502 -0.37620809237E+03 -0.47782023539E+03 -0.24541873561E+01  0.60815354079E+03  0.50400001928E-02 0. -1.
</event>
<event>
 5   0  0.2943244E-05  0.2369022E+04  0.7818609E-02  0.8451193E-01
       -1   -1    0    0    0  501  0.00000000000E+00  0.00000000000E+00  0.10356352570E+04  0.10356352570E+04  0.50400001928E-02 0.  1.
        1   -1    0    0  501    0  0.00000000000E+00  0.00000000000E+00 -0.13547881112E+04  0.13547881112E+04  0.50400001928E-02 0. -1.
    10030    2    1    2    0    0  0.00000000000E+00  0.00000000000E+00 -0.31915285418E+03  0.23904233682E+04  0.23690220207E+04 0.  0.
        3    1    3    3  502    0 -0.12612604813E+03 -0.94189889966E+03 -0.87306039427E+03  0.12904711463E+04  0.10100000352E+00 0. -1.
       -3    1    3    3    0  502  0.12612604813E+03  0.94189889966E+03  0.55390754008E+03  0.10999522219E+04  0.10100000352E+00 0.  1.
</event>
<event>
 5   0  0.2915546E-05  0.2406164E+04  0.7818609E-02  0.8437200E-01
        1   -1    0    0  501    0  0.00000000000E+00  0.00000000000E+00  0.14792642811E+04  0.14792642811E+04  0.50400001928E-02 0. -1.
       -1   -1    0    0    0  501  0.00000000000E+00  0.00000000000E+00 -0.97846330361E+03  0.97846330362E+03  0.50400001928E-02 0.  1.
    10030    2    1    2    0    0  0.00000000000E+00  0.00000000000E+00  0.50080097749E+03  0.24577275847E+04  0.24061635983E+04 0.  0.
        2    1    3    3  502    0  0.63128211584E+03 -0.30571738565E+03 -0.74800515026E+03  0.10254228077E+04  0.25500000920E-02 0.  1.
       -2    1    3    3    0  502 -0.63128211584E+03  0.30571738565E+03  0.12488061277E+04  0.14323047771E+04  0.25500000920E-02 0. -1.
</event>
<event>
 5   0  0.2847158E-05  0.2328673E+04  0.7818609E-02  0.8466701E-01
        1   -1    0    0  501    0  0.00000000000E+00  0.00000000000E+00  0.81391906276E+03  0.81391906278E+03  0.50400001928E-02 0. -1.
       -1   -1    0    0    0  501  0.00000000000E+00  0.00000000000E+00 -0.16656189081E+04  0.16656189081E+04  0.50400001928E-02 0.  1.
    10030    2    1    2    0    0  0.00000000000E+00  0.00000000000E+00 -0.85169984537E+03  0.24795379709E+04  0.23286725666E+04 0.  0.
        5    1    3    3  502    0  0.99337126476E+03  0.53797918685E+03 -0.72597760179E+03  0.13428602472E+04  0.46999998093E+01 0.  1.
       -5    1    3    3    0  502 -0.99337126476E+03 -0.53797918685E+03 -0.12572224357E+03  0.11366777237E+04  0.46999998093E+01 0. -1.
</event>
<event>
 5   0  0.6600166E-05  0.2404521E+04  0.7818609E-02  0.8437813E-01
       -2   -1    0    0    0  501  0.00000000000E+00  0.00000000000E+00  0.14019374387E+04  0.14019374387E+04  0.25500000920E-02 0.  1.
        2   -1    0    0  501    0  0.00000000000E+00  0.00000000000E+00 -0.10310234791E+04  0.10310234791E+04  0.25500000920E-02 0. -1.
    10030    2    1    2    0    0  0.00000000000E+00  0.00000000000E+00  0.37091395967E+03  0.24329609178E+04  0.24045210879E+04 0.  0.
        5    1    3    3  502    0  0.55125491758E+02  0.28494581453E+03 -0.99503648285E+03  0.10365098308E+04  0.46999998093E+01 0. -1.
       -5    1    3    3    0  502 -0.55125491758E+02 -0.28494581453E+03  0.13659504425E+04  0.13964510870E+04  0.46999998093E+01 0.  1.
</event>
<event>
 5   0  0.6600166E-05  0.2330114E+04  0.7818609E-02  0.8466141E-01
        2   -1    0    0  501    0  0.00000000000E+00  0.00000000000E+00  0.19370295419E+04  0.19370295419E+04  0.25500000920E-02 0.  1.
       -2   -1    0    0    0  501  0.00000000000E+00  0.00000000000E+00 -0.70074211031E+03  0.70074211031E+03  0.25500000920E-02 0. -1.
    10030    2    1    2    0    0  0.00000000000E+00  0.00000000000E+00  0.12362874316E+04  0.26377716522E+04  0.23301143053E+04 0.  0.
        5    1    3    3  502    0 -0.40641827454E+03  0.22567630401E+03  0.18274787929E+04  0.18856846068E+04  0.46999998093E+01 0.  1.
       -5    1    3    3    0  502  0.40641827454E+03 -0.22567630401E+03 -0.59119136132E+03  0.75208704534E+03  0.46999998093E+01 0. -1.
</event>
<event>
 5   0  0.6600166E-05  0.1701524E+04  0.7818609E-02  0.8760496E-01
       -2   -1    0    0    0  501  0.00000000000E+00  0.00000000000E+00  0.43651083860E+03  0.43651083861E+03  0.25500000920E-02 0. -1.
        2   -1    0    0  501    0  0.00000000000E+00  0.00000000000E+00 -0.16581400943E+04  0.16581400943E+04  0.25500000920E-02 0.  1.
    10030    2    1    2    0    0  0.00000000000E+00  0.00000000000E+00 -0.12216292556E+04  0.20946509329E+04  0.17015241674E+04 0.  0.
        5    1    3    3  502    0 -0.12825558577E+03 -0.86953804142E+02  0.41897663627E+03  0.44673702676E+03  0.46999998093E+01 0. -1.
       -5    1    3    3    0  502  0.12825558577E+03  0.86953804142E+02 -0.16406058919E+04  0.16479139061E+04  0.46999998093E+01 0.  1.
</event>
<event>
 5   0  0.2901816E-05  0.2415659E+04  0.7818609E-02  0.8433664E-01
       -1   -1    0    0    0  501  0.00000000000E+00  0.00000000000E+00  0.11979087885E+04  0.11979087885E+04  0.50400001928E-02 0. -1.
        1   -1    0    0  501    0  0.00000000000E+00  0.00000000000E+00 -0.12178326122E+04  0.12178326122E+04  0.50400001928E-02 0.  1.
    10030    2    1    2    0    0  0.00000000000E+00  0.00000000000E+00 -0.19923823678E+02  0.24157414007E+04  0.24156592384E+04 0.  0.
        4    1    3    3  502    0  0.19983904399E+03  0.48804231092E+03 -0.10966128013E+04  0.12168328520E+04  0.12699999809E+01 0.  1.
       -4    1    3    3    0  502 -0.19983904399E+03 -0.48804231092E+03  0.10766889776E+04  0.11989085487E+04  0.12699999809E+01 0. -1.
</event>
<event>
 5   0  0.6703961E-05  0.2416526E+04  0.7818609E-02  0.8433342E-01
        2   -1    0    0  501    0  0.00000000000E+00  0.00000000000E+00  0.15726691819E+04  0.15726691819E+04  0.25500000920E-02 0. -1.
       -2   -1    0    0    0  501  0.00000000000E+00  0.00000000000E+00 -0.92829376164E+03  0.92829376164E+03  0.25500000920E-02 0.  1.
    10030    2    1    2    0    0  0.00000000000E+00  0.00000000000E+00  0.64437542026E+03  0.25009629435E+04  0.24165255974E+04 0.  0.
        2    1    3    3  502    0 -0.72441270684E+03 -0.28551105372E+03 -0.63400463598E+03  0.10041176276E+04  0.25500000920E-02 0.  1.
       -2    1    3    3    0  502  0.72441270684E+03  0.28551105372E+03  0.12783800562E+04  0.14968453159E+04  0.25500000920E-02 0. -1.
</event>
<event>
 5   0  0.6714629E-05  0.2346401E+04  0.7818609E-02  0.8459847E-01
        2   -1    0    0  501    0  0.00000000000E+00  0.00000000000E+00  0.12329053834E+04  0.12329053834E+04  0.25500000920E-02 0.  1.
       -2   -1    0    0    0  501  0.00000000000E+00  0.00000000000E+00 -0.11163868529E+04  0.11163868529E+04  0.25500000920E-02 0. -1.
    10030    2    1    2    0    0  0.00000000000E+00  0.00000000000E+00  0.11651853051E+03  0.23492922364E+04  0.23464009555E+04 0.  0.
        3    1    3    3  502    0  0.32834634921E+03  0.97840209548E+03  0.61690500330E+03  0.12023534334E+04  0.10100000352E+00 0.  1.
       -3    1    3    3    0  502 -0.32834634921E+03 -0.97840209548E+03 -0.50038647279E+03  0.11469388030E+04  0.10100000352E+00 0. -1.
</event>
<event>
 5   0  0.2943123E-05  0.1496115E+04  0.7818609E-02  0.8887041E-01
       -1   -1    0    0    0  501  0.00000000000E+00  0.00000000000E+00  0.69048312583E+03  0.69048312585E+03  0.50400001928E-02 0. -1.
        1   -1    0    0  501    0  0.00000000000E+00  0.00000000000E+00 -0.81043253425E+03  0.81043253426E+03  0.50400001928E-02 0.  1.
    10030    2    1    2    0    0  0.00000000000E+00  0.00000000000E+00 -0.11994940841E+03  0.15009156601E+04  0.14961149549E+04 0.  0.
        1    1    3    3  502    0  0.67935823724E+03 -0.27604729910E+03  0.88351889343E+02  0.73860394138E+03  0.50400001928E-02 0.  1.
       -1    1    3    3    0  502 -0.67935823724E+03  0.27604729910E+03 -0.20830129776E+03  0.76231171873E+03  0.50400001928E-02 0. -1.
</event>
<event>
 5   0  0.6714629E-05  0.2405687E+04  0.7818609E-02  0.8437377E-01
        2   -1    0    0  501    0  0.00000000000E+00  0.00000000000E+00  0.26662508274E+04  0.26662508274E+04  0.25500000920E-02 0. -1.
       -2   -1    0    0    0  501  0.00000000000E+00  0.00000000000E+00 -0.54264681173E+03  0.54264681174E+03  0.25500000920E-02 0.  1.
    10030    2    1    2    0    0  0.00000000000E+00  0.00000000000E+00  0.21236040157E+04  0.32088976391E+04  0.24056870210E+04 0.  0.
        3    1    3    3  502    0  0.86209890274E+02 -0.83802841264E+03  0.22070051145E+04  0.23623283749E+04  0.10100000352E+00 0. -1.
       -3    1    3    3    0  502 -0.86209890274E+02  0.83802841264E+03 -0.83401098804E+02  0.84656926419E+03  0.10100000352E+00 0.  1.
</event>
<event>
 5   0  0.2901816E-05  0.2401032E+04  0.7818609E-02  0.8439117E-01
        1   -1    0    0  501    0  0.00000000000E+00  0.00000000000E+00  0.17731341552E+04  0.17731341552E+04  0.50400001928E-02 0. -1.
       -1   -1    0    0    0  501  0.00000000000E+00  0.00000000000E+00 -0.81282000090E+03  0.81282000092E+03  0.50400001928E-02 0.  1.
    10030    2    1    2    0    0  0.00000000000E+00  0.00000000000E+00  0.96031415425E+03  0.25859541561E+04  0.24010321994E+04 0.  0.
        4    1    3    3  502    0  0.71613674716E+03 -0.29009799274E+03  0.14697415429E+04  0.16604669529E+04  0.12699999809E+01 0. -1.
       -4    1    3    3    0  502 -0.71613674716E+03  0.29009799274E+03 -0.50942738861E+03  0.92548720315E+03  0.12699999809E+01 0.  1.
</event>
<event>
 5   0  0.6600166E-05  0.2296183E+04  0.7818609E-02  0.8479428E-01
       -2   -1    0    0    0  501  0.00000000000E+00  0.00000000000E+00  0.10022036478E+04  0.10022036478E+04  0.25500000920E-02 0. -1.
        2   -1    0    0  501    0  0.00000000000E+00  0.00000000000E+00 -0.13152154697E+04  0.13152154697E+04  0.25500000920E-02 0.  1.
    10030    2    1    2    0    0  0.00000000000E+00  0.00000000000E+00 -0.31301182195E+03  0.23174191175E+04  0.22961826943E+04 0.  0.
        5    1    3    3  502    0 -0.30878048334E+03 -0.61125265862E+03 -0.10865033950E+04  0.12843235250E+04  0.46999998093E+01 0.  1.
       -5    1    3    3    0  502  0.30878048334E+03  0.61125265862E+03  0.77349157307E+03  0.10330955925E+04  0.46999998093E+01 0. -1.
</event>
<event>
 5   0  0.2943244E-05  0.2369802E+04  0.7818609E-02  0.8450896E-01
       -1   -1    0    0    0  501  0.00000000000E+00  0.00000000000E+00  0.88401903500E+03  0.88401903502E+03  0.50400001928E-02 0.  1.
        1   -1    0    0  501    0  0.00000000000E+00  0.00000000000E+00 -0.15881904932E+04  0.15881904933E+04  0.50400001928E-02 0. -1.
    10030    2    1    2    0    0  0.00000000000E+00  0.00000000000E+00 -0.70417145825E+03  0.24722095283E+04  0.23698022089E+04 0.  0.
        3    1    3    3  502    0  0.11558572064E+04 -0.14351986460E+03 -0.12499375071E+03  0.11714210519E+04  0.10100000352E+00 0.  1.
       -3    1    3    3    0  502 -0.11558572064E+04  0.14351986460E+03 -0.57917770754E+03  0.13007884763E+04  0.10100000352E+00 0. -1.
</event>
<event>
 5   0  0.6703961E-05  0.2310134E+04  0.7818609E-02  0.8473936E-01
       -2   -1    0    0    0  501  0.00000000000E+00  0.00000000000E+00  0.12867915426E+04  0.12867915426E+04  0.25500000920E-02 0.  1.
        2   -1    0    0  501    0  0.00000000000E+00  0.00000000000E+00 -0.10368264001E+04  0.10368264001E+04  0.25500000920E-02 0. -1.
    10030    2    1    2    0    0  0.00000000000E+00  0.00000000000E+00  0.24996514251E+03  0.23236179427E+04  0.23101337129E+04 0.  0.
        2    1    3    3  502    0 -0.41564987746E+03 -0.94062558860E+03 -0.40405147112E+03  0.11048976920E+04  0.25500000920E-02 0.  1.
       -2    1    3    3    0  502  0.41564987746E+03  0.94062558860E+03  0.65401661363E+03  0.12187202507E+04  0.25500000920E-02 0. -1.
</event>
<event>
 5   0  0.2847158E-05  0.2352697E+04  0.7818609E-02  0.8457429E-01
        1   -1    0    0  501    0  0.00000000000E+00  0.00000000000E+00  0.17073309764E+04  0.17073309764E+04  0.50400001928E-02 0.  1.
       -1   -1    0    0    0  501  0.00000000000E+00  0.00000000000E+00 -0.81050214511E+03  0.81050214513E+03  0.50400001928E-02 0. -1.
    10030    2    1    2    0    0  0.00000000000E+00  0.00000000000E+00  0.89682883126E+03  0.25178331215E+04  0.23526966815E+04 0.  0.
        5    1    3    3  502    0 -0.61448823801E+03 -0.55246425711E+03  0.13444141100E+04  0.15780633509E+04  0.46999998093E+01 0.  1.
       -5    1    3    3    0  502  0.61448823801E+03  0.55246425711E+03 -0.44758527879E+03  0.93976977065E+03  0.46999998093E+01 0. -1.
</event>
<event>
 5   0  0.2915546E-05  0.2374275E+04  0.7818609E-02  0.8449198E-01
        1   -1    0    0  501    0  0.00000000000E+00  0.00000000000E+00  0.10248602281E+04  0.10248602281E+04  0.50400001928E-02 0.  1.
       -1   -1    0    0    0  501  0.00000000000E+00  0.00000000000E+00 -0.13751104191E+04  0.13751104191E+04  0.50400001928E-02 0. -1.
    10030    2    1    2    0    0  0.00000000000E+00  0.00000000000E+00 -0.35025019095E+03  0.23999706472E+04  0.23742754498E+04 0.  0.
        2    1    3    3  502    0  0.35981762990E+03  0.95051616675E+03 -0.79523495280E+03  0.12904837621E+04  0.25500000920E-02 0. -1.
       -2    1    3    3    0  502 -0.35981762990E+03 -0.95051616675E+03  0.44498476185E+03  0.11094868852E+04  0.25500000920E-02 0.  1.
</event>
<event>
 5   0  0.2847158E-05  0.2405558E+04  0.7818609E-02  0.8437426E-01
        1   -1    0    0  501    0  0.00000000000E+00  0.00000000000E+00  0.16986604625E+04  0.16986604626E+04  0.50400001928E-02 0. -1.
       -1   -1    0    0    0  501  0.00000000000E+00  0.00000000000E+00 -0.85165755787E+03  0.85165755789E+03  0.50400001928E-02 0.  1.
    10030    2    1    2    0    0  0.00000000000E+00  0.00000000000E+00  0.84700290467E+03  0.25503180204E+04  0.24055577492E+04 0.  0.
        5    1    3    3  502    0  0.52004032368E+03  0.83304579039E+03 -0.31272876213E+03  0.10306447476E+04  0.46999998093E+01 0.  1.
       -5    1    3    3    0  502 -0.52004032368E+03 -0.83304579039E+03  0.11597316668E+04  0.15196732728E+04  0.46999998093E+01 0. -1.
</event>
<event>
 5   0  0.6600166E-05  0.2039435E+04  0.7818609E-02  0.8588402E-01
       -2   -1    0    0    0  501  0.00000000000E+00  0.00000000000E+00  0.55749403648E+03  0.55749403649E+03  0.25500000920E-02 0. -1.
        2   -1    0    0  501    0  0.00000000000E+00  0.00000000000E+00 -0.18651748781E+04  0.18651748781E+04  0.25500000920E-02 0.  1.
    10030    2    1    2    0    0  0.00000000000E+00  0.00000000000E+00 -0.13076808416E+04  0.24226689146E+04  0.20394350900E+04 0.  0.
        5    1    3    3  502    0  0.23919649532E+03  0.17601280317E+03 -0.18126520272E+04  0.18368246874E+04  0.46999998093E+01 0.  1.
       -5    1    3    3    0  502 -0.23919649532E+03 -0.17601280317E+03  0.50497118563E+03  0.58584422722E+03  0.46999998093E+01 0. -1.
</event>
<event>
 5   0  0.2847158E-05  0.2432280E+04  0.7818609E-02  0.8427516E-01
       -1   -1    0    0    0  501  0.00000000000E+00  0.00000000000E+00  0.13513671173E+04  0.13513671173E+04  0.50400001928E-02 0. -1.
        1   -1    0    0  501    0  0.00000000000E+00  0.00000000000E+00 -0.10944444252E+04  0.10944444253E+04  0.50400001928E-02 0.  1.
    10030    2    1    2    0    0  0.00000000000E+00  0.00000000000E+00  0.25692269202E+03  0.24458115425E+04  0.24322797602E+04 0.  0.
        5    1    3    3  502    0  0.83313198131E+03  0.22965902794E+02 -0.76209424301E+03  0.11293564788E+04  0.46999998093E+01 0.  1.
       -5    1    3    3    0  502 -0.83313198131E+03 -0.22965902794E+02  0.10190169350E+04  0.13164550637E+04  0.46999998093E+01 0. -1.
</event>
<event>
 5   0  0.6337926E-05  0.2196205E+04  0.7818609E-02  0.8520009E-01
       -2   -1    0    0    0  501  0.00000000000E+00  0.00000000000E+00  0.90224253330E+03  0.90224253330E+03  0.25500000920E-02 0. -1.
        2   -1    0    0  501    0  0.00000000000E+00  0.00000000000E+00 -0.13364798599E+04  0.13364798599E+04  0.25500000920E-02 0.  1.
    10030    2    1    2    0    0  0.00000000000E+00  0.00000000000E+00 -0.43423732661E+03  0.22387223932E+04  0.21962048853E+04 0.  0.
        1    1    3    3  502    0 -0.39320914212E+02 -0.10760720325E+04 -0.43658140023E+03  0.11619296332E+04  0.50400001928E-02 0.  1.
       -1    1    3    3    0  502  0.39320914212E+02  0.10760720325E+04  0.23440736225E+01  0.10767927600E+04  0.50400001928E-02 0. -1.
</event>
<event>
 5   0  0.6600166E-05  0.2467259E+04  0.7818609E-02  0.8414744E-01
       -2   -1    0    0    0  501  0.00000000000E+00  0.00000000000E+00  0.10099513494E+04  0.10099513494E+04  0.25500000920E-02 0.  1.
        2   -1    0    0  501    0  0.00000000000E+00  0.00000000000E+00 -0.15068460750E+04  0.15068460750E+04  0.25500000920E-02 0. -1.
    10030    2    1    2    0    0  0.00000000000E+00  0.00000000000E+00 -0.49689472567E+03  0.25167974244E+04  0.24672585813E+04 0.  0.
        5    1    3    3  502    0  0.92439178634E+01  0.54928156331E+03  0.87827699212E+03  0.10359479961E+04  0.46999998093E+01 0.  1.
       -5    1    3    3    0  502 -0.92439178634E+01 -0.54928156331E+03 -0.13751717178E+04  0.14808494283E+04  0.46999998093E+01 0. -1.
</event>
<event>
 5   0  0.6600166E-05  0.2466576E+04  0.7818609E-02  0.8414991E-01
        2   -1    0    0  501    0  0.00000000000E+00  0.00000000000E+00  0.98180933591E+03  0.98180933591E+03  0.25500000920E-02 0.  1.
       -2   -1    0    0    0  501  0.00000000000E+00  0.00000000000E+00 -0.15491803695E+04  0.15491803695E+04  0.25500000920E-02 0. -1.
    10030    2    1    2    0    0  0.00000000000E+00  0.00000000000E+00 -0.56737103363E+03  0.25309897054E+04  0.24665763721E+04 0.  0.
        5    1    3    3  502    0 -0.23236373196E+03  0.29941676816E+03 -0.14879323193E+04  0.15354504166E+04  0.46999998093E+01 0. -1.
       -5    1    3    3    0  502  0.23236373196E+03 -0.29941676816E+03  0.92056128567E+03  0.99553928886E+03  0.46999998093E+01 0.  1.
</event>
<event>
 5   0  0.2847158E-05  0.2388917E+04  0.7818609E-02  0.8443665E-01
        1   -1    0    0  501    0  0.00000000000E+00  0.00000000000E+00  0.92627490285E+03  0.92627490286E+03  0.50400001928E-02 0.  1.
       -1   -1    0    0    0  501  0.00000000000E+00  0.00000000000E+00 -0.15402891039E+04  0.15402891039E+04  0.50400001928E-02 0. -1.
    10030    2    1    2    0    0  0.00000000000E+00  0.00000000000E+00 -0.61401420101E+03  0.24665640067E+04  0.23889170267E+04 0.  0.
        5    1    3    3  502    0 -0.19832955612E+03  0.74575596882E+03  0.63434037424E+03  0.99894763539E+03  0.46999998093E+01 0.  1.
       -5    1    3    3    0  502  0.19832955612E+03 -0.74575596882E+03 -0.12483545753E+04  0.14676163713E+04  0.46999998093E+01 0. -1.
</event>
<event>
 5   0  0.2847158E-05  0.2448503E+04  0.7818609E-02  0.8421565E-01
       -1   -1    0    0    0  501  0.00000000000E+00  0.00000000000E+00  0.14308918134E+04  0.14308918134E+04  0.50400001928E-02 0.  1.
        1   -1    0    0  501    0  0.00000000000E+00  0.00000000000E+00 -0.10474530848E+04  0.10474530848E+04  0.50400001928E-02 0. -1.
    10030    2    1    2    0    0  0.00000000000E+00  0.00000000000E+00  0.38343872862E+03  0.24783448983E+04  0.24485032522E+04 0.  0.
        5    1    3    3  502    0 -0.11274480365E+02 -0.64229046660E+03 -0.86314622460E+03  0.10759682395E+04  0.46999998093E+01 0. -1.
       -5    1    3    3    0  502  0.11274480365E+02  0.64229046660E+03  0.12465849532E+04  0.14023766587E+04  0.46999998093E+01 0.  1.
</event>
<event>
 5   0  0.6600166E-05  0.2355249E+04  0.7818609E-02  0.8456450E-01
       -2   -1    0    0    0  501  0.00000000000E+00  0.00000000000E+00  0.91581988261E+03  0.91581988261E+03  0.25500000920E-02 0. -1.
        2   -1    0    0  501    0  0.00000000000E+00  0.00000000000E+00 -0.15142703609E+04  0.15142703609E+04  0.25500000920E-02 0.  1.
    10030    2    1    2    0    0  0.00000000000E+00  0.00000000000E+00 -0.59845047826E+03  0.24300902435E+04  0.23552485254E+04 0.  0.
        5    1    3    3  502    0 -0.67419473234E+03  0.55649763788E+03  0.51486455680E+03  0.10145618561E+04  0.46999998093E+01 0. -1.
       -5    1    3    3    0  502  0.67419473234E+03 -0.55649763788E+03 -0.11133150351E+04  0.14155283873E+04  0.46999998093E+01 0.  1.
</event>
<event>
 5   0  0.2901816E-05  0.2411422E+04  0.7818609E-02  0.8435240E-01
       -1   -1    0    0    0  501  0.00000000000E+00  0.00000000000E+00  0.77002293540E+03  0.77002293542E+03  0.50400001928E-02 0. -1.
        1   -1    0    0  501    0  0.00000000000E+00  0.00000000000E+00 -0.18879165425E+04  0.18879165425E+04  0.50400001928E-02 0.  1.
    10030    2    1    2    0    0  0.00000000000E+00  0.00000000000E+00 -0.11178936071E+04  0.26579394780E+04  0.24114220186E+04 0.  0.
        4    1    3    3  502    0 -0.22820879072E+03 -0.27231729243E+03  0.71101123124E+03  0.79484246475E+03  0.12699999809E+01 0. -1.
       -4    1    3    3    0  502  0.22820879072E+03  0.27231729243E+03 -0.18289048384E+04  0.18630970132E+04  0.12699999809E+01 0.  1.
</event>
<event>
 5   0  0.6337926E-05  0.2403879E+04  0.7818609E-02  0.8438053E-01
        2   -1    0    0  501    0  0.00000000000E+00  0.00000000000E+00  0.11468864198E+04  0.11468864198E+04  0.25500000920E-02 0. -1.
       -2   -1    0    0    0  501  0.00000000000E+00  0.00000000000E+00 -0.12596347486E+04  0.12596347486E+04  0.25500000920E-02 0.  1.
    10030    2    1    2    0    0  0.00000000000E+00  0.00000000000E+00 -0.11274832877E+03  0.24065211684E+04  0.24038785220E+04 0.  0.
        1    1    3    3  502    0  0.83880681312E+03 -0.56236233264E+03  0.59611663742E+03  0.11726906277E+04  0.50400001928E-02 0. -1.
       -1    1    3    3    0  502 -0.83880681312E+03  0.56236233264E+03 -0.70886496619E+03  0.12338305407E+04  0.50400001928E-02 0.  1.
</event>
<event>
 5   0  0.2847158E-05  0.2433413E+04  0.7818609E-02  0.8427099E-01
       -1   -1    0    0    0  501  0.00000000000E+00  0.00000000000E+00  0.74455850159E+03  0.74455850160E+03  0.50400001928E-02 0.  1.
        1   -1    0    0  501    0  0.00000000000E+00  0.00000000000E+00 -0.19882588866E+04  0.19882588866E+04  0.50400001928E-02 0. -1.
    10030    2    1    2    0    0  0.00000000000E+00  0.00000000000E+00 -0.12437003850E+04  0.27328173882E+04  0.24334132879E+04 0.  0.
        5    1    3    3  502    0  0.22973040006E+03 -0.11287355711E+04 -0.10618935744E+04  0.15666716629E+04  0.46999998093E+01 0. -1.
       -5    1    3    3    0  502 -0.22973040006E+03  0.11287355711E+04 -0.18180681067E+03  0.11661457253E+04  0.46999998093E+01 0.  1.
</event>
<event>
 5   0  0.2943123E-05  0.2531679E+04  0.7818609E-02  0.8391786E-01
       -1   -1    0    0    0  501  0.00000000000E+00  0.00000000000E+00  0.97857673115E+03  0.97857673116E+03  0.50400001928E-02 0.  1.
        1   -1    0    0  501    0  0.00000000000E+00  0.00000000000E+00 -0.16374290435E+04  0.16374290435E+04  0.50400001928E-02 0. -1.
    10030    2    1    2    0    0  0.00000000000E+00  0.00000000000E+00 -0.65885231236E+03  0.26160057747E+04  0.25316792537E+04 0.  0.
        1    1    3    3  502    0  0.11330086182E+04  0.16266321009E+03 -0.88796943183E+03  0.14486744150E+04  0.50400001928E-02 0. -1.
       -1    1    3    3    0  502 -0.11330086182E+04 -0.16266321009E+03  0.22911711947E+03  0.11673313597E+04  0.50400001928E-02 0.  1.
</event>
<event>
 5   0  0.2943123E-05  0.2391876E+04  0.7818609E-02  0.8442551E-01
        1   -1    0    0  501    0  0.00000000000E+00  0.00000000000E+00  0.17132378629E+04  0.17132378629E+04  0.50400001928E-02 0. -1.
       -1   -1    0    0    0  501  0.00000000000E+00  0.00000000000E+00 -0.83483323976E+03  0.83483323978E+03  0.50400001928E-02 0.  1.
    10030    2    1    2    0    0  0.00000000000E+00  0.00000000000E+00  0.87840462315E+03  0.25480711027E+04  0.23918761804E+04 0.  0.
        1    1    3    3  502    0  0.10821256291E+04 -0.32151861310E+03  0.18579453907E+02  0.11290329012E+04  0.50400001928E-02 0.  1.
       -1    1    3    3    0  502 -0.10821256291E+04  0.32151861310E+03  0.85982516924E+03  0.14190382015E+04  0.50400001928E-02 0. -1.
</event>
<event>
 5   0  0.2901816E-05  0.2457755E+04  0.7818609E-02  0.8418192E-01
       -1   -1    0    0    0  501  0.00000000000E+00  0.00000000000E+00  0.27646724883E+04  0.27646724883E+04  0.50400001928E-02 0. -1.
        1   -1    0    0  501    0  0.00000000000E+00  0.00000000000E+00 -0.54622738815E+03  0.54622738817E+03  0.50400001928E-02 0.  1.
    10030    2    1    2    0    0  0.00000000000E+00  0.00000000000E+00  0.22184451001E+04  0.33108998765E+04  0.24577549369E+04 0.  0.
        4    1    3    3  502    0 -0.41911965489E+03  0.81034552356E+03  0.14038793563E+00  0.91231726130E+03  0.12699999809E+01 0. -1.
       -4    1    3    3    0  502  0.41911965489E+03 -0.81034552356E+03  0.22183047122E+04  0.23985826152E+04  0.12699999809E+01 0.  1.
</event>
<event>
 5   0  0.6978115E-05  0.1615559E+04  0.7818609E-02  0.8811046E-01
        2   -1    0    0  501    0  0.00000000000E+00  0.00000000000E+00  0.14433847222E+04  0.14433847222E+04  0.25500000920E-02 0.  1.
       -2   -1    0    0    0  501  0.00000000000E+00  0.00000000000E+00 -0.45206797145E+03  0.45206797146E+03  0.25500000920E-02 0. -1.
    10030    2    1    2    0    0  0.00000000000E+00  0.00000000000E+00  0.99131675073E+03  0.18954526936E+04  0.16155593500E+04 0.  0.
        4    1    3    3  502    0 -0.57455825050E+03 -0.56275153396E+03  0.58423606487E+03  0.99405224440E+03  0.12699999809E+01 0. -1.
       -4    1    3    3    0  502  0.57455825050E+03  0.56275153396E+03  0.40708068585E+03  0.90140044924E+03  0.12699999809E+01 0.  1.
</event>
<event>
 5   0  0.6337926E-05  0.2279728E+04  0.7818609E-02  0.8485957E-01
        2   -1    0    0  501    0  0.00000000000E+00  0.00000000000E+00  0.20553287945E+04  0.20553287945E+04  0.25500000920E-02 0. -1.
       -2   -1    0    0    0  501  0.00000000000E+00  0.00000000000E+00 -0.63215646314E+03  0.63215646314E+03  0.25500000920E-02 0.  1.
    10030    2    1    2    0    0  0.00000000000E+00  0.00000000000E+00  0.14231723313E+04  0.26874852576E+04  0.22797275112E+04 0.  0.
        1    1    3    3  502    0  0.60254700179E+03 -0.32046387985E+03 -0.36468972050E+03  0.77379492110E+03  0.50400001928E-02 0.  1.
       -1    1    3    3    0  502 -0.60254700179E+03  0.32046387985E+03  0.17878620518E+04  0.19136903365E+04  0.50400001928E-02 0. -1.
</event>
<event>
 5   0  0.2901816E-05  0.2382707E+04  0.7818609E-02  0.8446006E-01
        1   -1    0    0  501    0  0.00000000000E+00  0.00000000000E+00  0.95702205261E+03  0.95702205262E+03  0.50400001928E-02 0. -1.
       -1   -1    0    0    0  501  0.00000000000E+00  0.00000000000E+00 -0.14830621865E+04  0.14830621865E+04  0.50400001928E-02 0.  1.
    10030    2    1    2    0    0  0.00000000000E+00  0.00000000000E+00 -0.52604013392E+03  0.24400842392E+04  0.23827070470E+04 0.  0.
        4    1    3    3  502    0  0.44093690658E+03  0.10586418574E+04  0.67511655457E+02  0.11487851733E+04  0.12699999809E+01 0. -1.
       -4    1    3    3    0  502 -0.44093690658E+03 -0.10586418574E+04 -0.59355178937E+03  0.12912990658E+04  0.12699999809E+01 0.  1.
</event>
<event>
 5   0  0.6600166E-05  0.2571822E+04  0.7818609E-02  0.8377836E-01
       -2   -1    0    0    0  501  0.00000000000E+00  0.00000000000E+00  0.17579264621E+04  0.17579264621E+04  0.25500000920E-02 0.  1.
        2   -1    0    0  501    0  0.00000000000E+00  0.00000000000E+00 -0.94063526037E+03  0.94063526037E+03  0.25500000920E-02 0. -1.
    10030    2    1    2    0    0  0.00000000000E+00  0.00000000000E+00  0.81729120169E+03  0.26985617224E+04  0.25718224008E+04 0.  0.
        5    1    3    3  502    0  0.25217770689E+03  0.30961675877E+03 -0.87392024972E+03  0.96084068713E+03  0.46999998093E+01 0. -1.
       -5    1    3    3    0  502 -0.25217770689E+03 -0.30961675877E+03  0.16912114514E+04  0.17377210353E+04  0.46999998093E+01 0.  1.
</event>
<event>
 5   0  0.6714629E-05  0.2501239E+04  0.7818609E-02  0.8402544E-01
        2   -1    0    0  501    0  0.00000000000E+00  0.00000000000E+00  0.20565174231E+04  0.20565174231E+04  0.25500000920E-02 0. -1.
       -2   -1    0    0    0  501  0.00000000000E+00  0.00000000000E+00 -0.76053296982E+03  0.76053296982E+03  0.25500000920E-02 0.  1.
    10030    2    1    2    0    0  0.00000000000E+00  0.00000000000E+00  0.12959844533E+04  0.28170503930E+04  0.25012391356E+04 0.  0.
        3    1    3    3  502    0 -0.12136524750E+04 -0.30154182975E+03  0.66265475477E+03  0.14152706947E+04  0.10100000352E+00 0.  1.
       -3    1    3    3    0  502  0.12136524750E+04  0.30154182975E+03  0.63332969855E+03  0.14017796982E+04  0.10100000352E+00 0. -1.
</event>
<event>
 5   0  0.6978115E-05  0.2360333E+04  0.7818609E-02  0.8454505E-01
        2   -1    0    0  501    0  0.00000000000E+00  0.00000000000E+00  0.19574319977E+04  0.19574319977E+04  0.25500000920E-02 0.  1.
       -2   -1    0    0    0  501  0.00000000000E+00  0.00000000000E+00 -0.71154096124E+03  0.71154096124E+03  0.25500000920E-02 0. -1.
    10030    2    1    2    0    0  0.00000000000E+00  0.00000000000E+00  0.12458910364E+04  0.26689729589E+04  0.23603330656E+04 0.  0.
        4    1    3    3  502    0  0.11306680679E+04  0.33670282750E+03  0.58696743138E+03  0.13176917136E+04  0.12699999809E+01 0.  1.
       -4    1    3    3    0  502 -0.11306680679E+04 -0.33670282750E+03  0.65892360504E+03  0.13512812453E+04  0.12699999809E+01 0. -1.
</event>
<event>
 5   0  0.6703961E-05  0.2412693E+04  0.7818609E-02  0.8434767E-01
       -2   -1    0    0    0  501  0.00000000000E+00  0.00000000000E+00  0.18059301910E+04  0.18059301910E+04  0.25500000920E-02 0. -1.
        2   -1    0    0  501    0  0.00000000000E+00  0.00000000000E+00 -0.80582960791E+03  0.80582960792E+03  0.25500000920E-02 0.  1.
    10030    2    1    2    0    0  0.00000000000E+00  0.00000000000E+00  0.10001005831E+04  0.26117597989E+04  0.24126931158E+04 0.  0.
        2    1    3    3  502    0  0.40198671394E+03  0.99295796722E+03  0.11005380985E+04  0.15358199599E+04  0.25500000920E-02 0. -1.
       -2    1    3    3    0  502 -0.40198671394E+03 -0.99295796722E+03 -0.10043751537E+03  0.10759398391E+04  0.25500000920E-02 0.  1.
</event>
<event>
 5   0  0.6703961E-05  0.2670723E+04  0.7818609E-02  0.8344567E-01
        2   -1    0    0  501    0  0.00000000000E+00  0.00000000000E+00  0.19205034234E+04  0.19205034234E+04  0.25500000920E-02 0.  1.
       -2   -1    0    0    0  501  0.00000000000E+00  0.00000000000E+00 -0.92850137991E+03  0.92850137992E+03  0.25500000920E-02 0. -1.
    10030    2    1    2    0    0  0.00000000000E+00  0.00000000000E+00  0.99200204350E+03  0.28490048033E+04  0.26707228076E+04 0.  0.
        2    1    3    3  502    0 -0.73458363979E+03 -0.91283672208E+03 -0.18730986345E+03  0.11865786910E+04  0.25500000920E-02 0.  1.
       -2    1    3    3    0  502  0.73458363979E+03  0.91283672208E+03  0.11793119070E+04  0.16624261123E+04  0.25500000920E-02 0. -1.
</event>
<event>
 5   0  0.6703961E-05  0.2364292E+04  0.7818609E-02  0.8452995E-01
       -2   -1    0    0    0  501  0.00000000000E+00  0.00000000000E+00  0.12878141902E+04  0.12878141902E+04  0.25500000920E-02 0. -1.
        2   -1    0    0  501    0  0.00000000000E+00  0.00000000000E+00 -0.10851477331E+04  0.10851477331E+04  0.25500000920E-02 0.  1.
    10030    2    1    2    0    0  0.00000000000E+00  0.00000000000E+00  0.20266645712E+03  0.23729619234E+04  0.23642915634E+04 0.  0.
        2    1    3    3  502    0  0.10336729114E+04  0.29449904630E+03  0.59533663318E+03  0.12286720811E+04  0.25500000920E-02 0.  1.
       -2    1    3    3    0  502 -0.10336729114E+04 -0.29449904630E+03 -0.39267017606E+03  0.11442898423E+04  0.25500000920E-02 0. -1.
</event>
<event>
 5   0  0.6714629E-05  0.1589086E+04  0.7818609E-02  0.8827281E-01
        2   -1    0    0  501    0  0.00000000000E+00  0.00000000000E+00  0.67227465186E+03  0.67227465186E+03  0.25500000920E-02 0. -1.
       -2   -1    0    0    0  501  0.00000000000E+00  0.00000000000E+00 -0.93904860267E+03  0.93904860268E+03  0.25500000920E-02 0.  1.
    10030    2    1    2    0    0  0.00000000000E+00  0.00000000000E+00 -0.26677395081E+03  0.16113232545E+04  0.15890859919E+04 0.  0.
        3    1    3    3  502    0  0.47225412154E+03 -0.62440681202E+03  0.41232133790E+01  0.78289516112E+03  0.10100000352E+00 0.  1.
       -3    1    3    3    0  502 -0.47225412154E+03  0.62440681202E+03 -0.27089716419E+03  0.82842809343E+03  0.10100000352E+00 0. -1.
</event>
<event>
 5   0  0.6978115E-05  0.2507053E+04  0.7818609E-02  0.8400477E-01
        2   -1    0    0  501    0  0.00000000000E+00  0.00000000000E+00  0.10706682059E+04  0.10706682059E+04  0.25500000920E-02 0.  1.
       -2   -1    0    0    0  501  0.00000000000E+00  0.00000000000E+00 -0.14676150678E+04  0.14676150678E+04  0.25500000920E-02 0. -1.
    10030    2    1    2    0    0  0.00000000000E+00  0.00000000000E+00 -0.39694686192E+03  0.25382832737E+04  0.25070530841E+04 0.  0.
        4    1    3    3  502    0 -0.65627548211E+03 -0.10282646240E+04 -0.49068880152E+03  0.13148394420E+04  0.12699999809E+01 0. -1.
       -4    1    3    3    0  502  0.65627548211E+03  0.10282646240E+04  0.93741939604E+02  0.12234438317E+04  0.12699999809E+01 0.  1.
</event>
<event>
 5   0  0.6337926E-05  0.2383075E+04  0.7818609E-02  0.8445867E-01
       -2   -1    0    0    0  501  0.00000000000E+00  0.00000000000E+00  0.12500926171E+04  0.12500926171E+04  0.25500000920E-02 0. -1.
        2   -1    0    0  501    0  0.00000000000E+00  0.00000000000E+00 -0.11357247324E+04  0.11357247324E+04  0.25500000920E-02 0.  1.
    10030    2    1    2    0    0  0.00000000000E+00  0.00000000000E+00  0.11436788463E+03  0.23858173495E+04  0.23830745713E+04 0.  0.
        1    1    3    3  502    0 -0.58093753460E+03 -0.89161646004E+03  0.59379783212E+03  0.12186321005E+04  0.50400001928E-02 0. -1.
       -1    1    3    3    0  502  0.58093753460E+03  0.89161646004E+03 -0.47942994750E+03  0.11671852490E+04  0.50400001928E-02 0.  1.
</event>
<event>
 5   0  0.2943123E-05  0.2387424E+04  0.7818609E-02  0.8444227E-01
       -1   -1    0    0    0  501  0.00000000000E+00  0.00000000000E+00  0.14845519416E+04  0.14845519416E+04  0.50400001928E-02 0.  1.
        1   -1    0    0  501    0  0.00000000000E+00  0.00000000000E+00 -0.95985075734E+03  0.95985075735E+03  0.50400001928E-02 0. -1.
    10030    2    1    2    0    0  0.00000000000E+00  0.00000000000E+00  0.52470118428E+03  0.24444026990E+04  0.23874239720E+04 0.  0.
        1    1    3    3  502    0 -0.32692695546E+03 -0.99012083582E+03 -0.33266262226E+03  0.10944792935E+04  0.50400001928E-02 0. -1.
       -1    1    3    3    0  502  0.32692695546E+03  0.99012083582E+03  0.85736380655E+03  0.13499234054E+04  0.50400001928E-02 0.  1.
</event>
<event>
 5   0  0.2943244E-05  0.2423035E+04  0.7818609E-02  0.8430930E-01
        1   -1    0    0  501    0  0.00000000000E+00  0.00000000000E+00  0.14704965096E+04  0.14704965096E+04  0.50400001928E-02 0.  1.
       -1   -1    0    0    0  501  0.00000000000E+00  0.00000000000E+00 -0.99814888230E+03  0.99814888232E+03  0.50400001928E-02 0. -1.
    10030    2    1    2    0    0  0.00000000000E+00  0.00000000000E+00  0.47234762729E+03  0.24686453919E+04  0.24230348305E+04 0.  0.
        3    1    3    3  502    0 -0.41176670317E+02 -0.10252048371E+04  0.89253194648E+03  0.13599094683E+04  0.10100000352E+00 0.  1.
       -3    1    3    3    0  502  0.41176670317E+02  0.10252048371E+04 -0.42018431919E+03  0.11087359237E+04  0.10100000352E+00 0. -1.
</event>
<event>
 5   0  0.2943123E-05  0.1543451E+04  0.7818609E-02  0.8856062E-01
       -1   -1    0    0    0  501  0.00000000000E+00  0.00000000000E+00  0.15154832937E+04  0.15154832937E+04  0.50400001928E-02 0. -1.
        1   -1    0    0  501    0  0.00000000000E+00  0.00000000000E+00 -0.39298377549E+03  0.39298377552E+03  0.50400001928E-02 0.  1.
    10030    2    1    2    0    0  0.00000000000E+00  0.00000000000E+00  0.11224995182E+04  0.19084670692E+04  0.15434511285E+04 0.  0.
        1    1    3    3  502    0 -0.11735926441E+03 -0.54817432247E+03  0.12170484208E+04  0.13399534109E+04  0.50400001928E-02 0. -1.
       -1    1    3    3    0  502  0.11735926441E+03  0.54817432247E+03 -0.94548902547E+02  0.56851365838E+03  0.50400001928E-02 0.  1.
</event>
<event>
 5   0  0.6978115E-05  0.2352132E+04  0.7818609E-02  0.8457645E-01
        2   -1    0    0  501    0  0.00000000000E+00  0.00000000000E+00  0.13470304171E+04  0.13470304171E+04  0.25500000920E-02 0. -1.
       -2   -1    0    0    0  501  0.00000000000E+00  0.00000000000E+00 -0.10268005853E+04  0.10268005853E+04  0.25500000920E-02 0.  1.
    10030    2    1    2    0    0  0.00000000000E+00  0.00000000000E+00  0.32022983179E+03  0.23738310025E+04  0.23521323269E+04 0.  0.
        4    1    3    3  502    0  0.43812010529E+03  0.69714893165E+03 -0.68737230584E+03  0.10725894645E+04  0.12699999809E+01 0.  1.
       -4    1    3    3    0  502 -0.43812010529E+03 -0.69714893165E+03  0.10076021376E+04  0.13012415380E+04  0.12699999809E+01 0. -1.
</event>
<event>
 5   0  0.6703961E-05  0.2192429E+04  0.7818609E-02  0.8521586E-01
        2   -1    0    0  501    0  0.00000000000E+00  0.00000000000E+00  0.17634774046E+04  0.17634774046E+04  0.25500000920E-02 0. -1.
       -2   -1    0    0    0  501  0.00000000000E+00  0.00000000000E+00 -0.68143020358E+03  0.68143020359E+03  0.25500000920E-02 0.  1.
    10030    2    1    2    0    0  0.00000000000E+00  0.00000000000E+00  0.10820472010E+04  0.24449076081E+04  0.21924294897E+04 0.  0.
        2    1    3    3  502    0  0.10171139346E+04 -0.31334520409E+03  0.83391115069E+03  0.13520775792E+04  0.25500000920E-02 0. -1.
       -2    1    3    3    0  502 -0.10171139346E+04  0.31334520409E+03  0.24813605029E+03  0.10928300290E+04  0.25500000920E-02 0.  1.
</event>
<event>
 5   0  0.6703961E-05  0.2376516E+04  0.7818609E-02  0.8448348E-01
       -2   -1    0    0    0  501  0.00000000000E+00  0.00000000000E+00  0.79871714996E+03  0.79871714996E+03  0.25500000920E-02 0. -1.
        2   -1    0    0  501    0  0.00000000000E+00  0.00000000000E+00 -0.17677803842E+04  0.17677803842E+04  0.25500000920E-02 0.  1.
    10030    2    1    2    0    0  0.00000000000E+00  0.00000000000E+00 -0.96906323421E+03  0.25664975341E+04  0.23765155250E+04 0.  0.
        2    1    3    3  502    0  0.11213712563E+04  0.14232446196E+03 -0.88018943766E+03  0.14326420324E+04  0.25500000920E-02 0. -1.
       -2    1    3    3    0  502 -0.11213712563E+04 -0.14232446196E+03 -0.88873796547E+02  0.11338555017E+04  0.25500000920E-02 0.  1.
</event>
<event>
 5   0  0.6337926E-05  0.2443371E+04  0.7818609E-02  0.8423442E-01
        2   -1    0    0  501    0  0.00000000000E+00  0.00000000000E+00  0.14042263836E+04  0.14042263836E+04  0.25500000920E-02 0.  1.
       -2   -1    0    0    0  501  0.00000000000E+00  0.00000000000E+00 -0.10628736912E+04  0.10628736912E+04  0.25500000920E-02 0. -1.
    10030    2    1    2    0    0  0.00000000000E+00  0.00000000000E+00  0.34135269244E+03  0.24671000748E+04  0.24433708516E+04 0.  0.
        1    1    3    3  502    0  0.15587327866E+03  0.12086006766E+04  0.83214067168E+02  0.12214485889E+04  0.50400001928E-02 0. -1.
       -1    1    3    3    0  502 -0.15587327866E+03 -0.12086006766E+04  0.25813862527E+03  0.12456514859E+04  0.50400001928E-02 0.  1.
</event>
<event>
 5   0  0.6600166E-05  0.2424260E+04  0.7818609E-02  0.8430476E-01
        2   -1    0    0  501    0  0.00000000000E+00  0.00000000000E+00  0.21900201855E+04  0.21900201855E+04  0.25500000920E-02 0.  1.
       -2   -1    0    0    0  501  0.00000000000E+00  0.00000000000E+00 -0.67088854400E+03  0.67088854401E+03  0.25500000920E-02 0. -1.
    10030    2    1    2    0    0  0.00000000000E+00  0.00000000000E+00  0.15191316415E+04  0.28609087295E+04  0.24242602613E+04 0.  0.
        5    1    3    3  502    0  0.72964444280E+03  0.16408861934E+03 -0.36615074387E+03  0.83270315548E+03  0.46999998093E+01 0. -1.
       -5    1    3    3    0  502 -0.72964444280E+03 -0.16408861934E+03  0.18852823854E+04  0.20282055740E+04  0.46999998093E+01 0.  1.
</event>
<event>
 5   0  0.2915546E-05  0.2445841E+04  0.7818609E-02  0.8422538E-01
        1   -1    0    0  501    0  0.00000000000E+00  0.00000000000E+00  0.23325630697E+04  0.23325630697E+04  0.50400001928E-02 0.  1.
       -1   -1    0    0    0  501  0.00000000000E+00  0.00000000000E+00 -0.64115516239E+03  0.64115516241E+03  0.50400001928E-02 0. -1.
    10030    2    1    2    0    0  0.00000000000E+00  0.00000000000E+00  0.16914079073E+04  0.29737182321E+04  0.24458412490E+04 0.  0.
        2    1    3    3  502    0 -0.44423488397E+03  0.48821720841E+03  0.20973758785E+04  0.21987919980E+04  0.25500000920E-02 0.  1.
       -2    1    3    3    0  502  0.44423488397E+03 -0.48821720841E+03 -0.40596797117E+03  0.77492623413E+03  0.25500000920E-02 0. -1.
</event>
<event>
 5   0  0.2943244E-05  0.2406323E+04  0.7818609E-02  0.8437140E-01
        1   -1    0    0  501    0  0.00000000000E+00  0.00000000000E+00  0.21662455896E+04  0.21662455896E+04  0.50400001928E-02 0. -1.
       -1   -1    0    0    0  501  0.00000000000E+00  0.00000000000E+00 -0.66825161315E+03  0.66825161317E+03  0.50400001928E-02 0.  1.
    10030    2    1    2    0    0  0.00000000000E+00  0.00000000000E+00  0.14979939765E+04  0.28344972028E+04  0.24063225966E+04 0.  0.
        3    1    3    3  502    0  0.54007807721E+03  0.71119166903E+03 -0.20077350446E+03  0.91530756026E+03  0.10100000352E+00 0.  1.
       -3    1    3    3    0  502 -0.54007807721E+03 -0.71119166903E+03  0.16987674809E+04  0.19191896425E+04  0.10100000352E+00 0. -1.
</event>
<event>
 5   0  0.2943123E-05  0.2126372E+04  0.7818609E-02  0.8549715E-01
       -1   -1    0    0    0  501  0.00000000000E+00  0.00000000000E+00  0.62456030589E+03  0.62456030591E+03  0.50400001928E-02 0.  1.
        1   -1    0    0  501    0  0.00000000000E+00  0.00000000000E+00 -0.18098560171E+04  0.18098560171E+04  0.50400001928E-02 0. -1.
    10030    2    1    2    0    0  0.00000000000E+00  0.00000000000E+00 -0.11852957112E+04  0.24344163230E+04  0.21263717715E+04 0.  0.
        1    1    3    3  502    0  0.28515371408E+03 -0.10338169788E+03 -0.17592705623E+04  0.17852264079E+04  0.50400001928E-02 0. -1.
       -1    1    3    3    0  502 -0.28515371408E+03  0.10338169788E+03  0.57397485111E+03  0.64918991508E+03  0.50400001928E-02 0.  1.
</event>
<event>
 5   0  0.2915546E-05  0.2432836E+04  0.7818609E-02  0.8427312E-01
       -1   -1    0    0    0  501  0.00000000000E+00  0.00000000000E+00  0.12075892820E+04  0.12075892820E+04  0.50400001928E-02 0.  1.
        1   -1    0    0  501    0  0.00000000000E+00  0.00000000000E+00 -0.12253111943E+04  0.12253111943E+04  0.50400001928E-02 0. -1.
    10030    2    1    2    0    0  0.00000000000E+00  0.00000000000E+00 -0.17721912241E+02  0.24329004763E+04  0.24328359299E+04 0.  0.
        2    1    3    3  502    0 -0.10980418459E+04 -0.38855001284E+03 -0.35959188520E+03  0.12190050582E+04  0.25500000920E-02 0. -1.
       -2    1    3    3    0  502  0.10980418459E+04  0.38855001284E+03  0.34186997296E+03  0.12138954182E+04  0.25500000920E-02 0.  1.
</event>
<event>
 5   0  0.6714629E-05  0.2413913E+04  0.7818609E-02  0.8434313E-01
       -2   -1    0    0    0  501  0.00000000000E+00  0.00000000000E+00  0.13666818548E+04  0.13666818548E+04  0.25500000920E-02 0.  1.
        2   -1    0    0  501    0  0.00000000000E+00  0.00000000000E+00 -0.10658981153E+04  0.10658981153E+04  0.25500000920E-02 0. -1.
    10030    2    1    2    0    0  0.00000000000E+00  0.00000000000E+00  0.30078373956E+03  0.24325799701E+04  0.24139126855E+04 0.  0.
        3    1    3    3  502    0 -0.16094722388E+03  0.11928282073E+04  0.60254868135E+02  0.12051447217E+04  0.10100000352E+00 0. -1.
       -3    1    3    3    0  502  0.16094722388E+03 -0.11928282073E+04  0.24052887142E+03  0.12274352484E+04  0.10100000352E+00 0.  1.
</event>
<event>
 5   0  0.2915546E-05  0.2286547E+04  0.7818609E-02  0.8483244E-01
        1   -1    0    0  501    0  0.00000000000E+00  0.00000000000E+00  0.16830726197E+04  0.16830726197E+04  0.50400001928E-02 0.  1.
       -1   -1    0    0    0  501  0.00000000000E+00  0.00000000000E+00 -0.77659999936E+03  0.77659999938E+03  0.50400001928E-02 0. -1.
    10030    2    1    2    0    0  0.00000000000E+00  0.00000000000E+00  0.90647262031E+03  0.24596726191E+04  0.22865469122E+04 0.  0.
        2    1    3    3  502    0  0.21111044822E+03 -0.29336573518E+03 -0.71352671436E+03  0.79984463994E+03  0.25500000920E-02 0. -1.
       -2    1    3    3    0  502 -0.21111044822E+03  0.29336573518E+03  0.16199993347E+04  0.16598279791E+04  0.25500000920E-02 0.  1.
</event>
<event>
 5   0  0.6600166E-05  0.2344317E+04  0.7818609E-02  0.8460650E-01
       -2   -1    0    0    0  501  0.00000000000E+00  0.00000000000E+00  0.64898899961E+03  0.64898899961E+03  0.25500000920E-02 0. -1.
        2   -1    0    0  501    0  0.00000000000E+00  0.00000000000E+00 -0.21170699101E+04  0.21170699101E+04  0.25500000920E-02 0.  1.
    10030    2    1    2    0    0  0.00000000000E+00  0.00000000000E+00 -0.14680809105E+04  0.27660589097E+04  0.23443166024E+04 0.  0.
        5    1    3    3  502    0  0.46026141557E+03 -0.33819186022E+03  0.47368301769E+03  0.74203234176E+03  0.46999998093E+01 0. -1.
       -5    1    3    3    0  502 -0.46026141557E+03  0.33819186022E+03 -0.19417639282E+04  0.20240265680E+04  0.46999998093E+01 0.  1.
</event>
<event>
 5   0  0.6337926E-05  0.2305962E+04  0.7818609E-02  0.8475574E-01
        2   -1    0    0  501    0  0.00000000000E+00  0.00000000000E+00  0.21421459380E+04  0.21421459380E+04  0.25500000920E-02 0.  1.
       -2   -1    0    0    0  501  0.00000000000E+00  0.00000000000E+00 -0.62057653540E+03  0.62057653540E+03  0.25500000920E-02 0. -1.
    10030    2    1    2    0    0  0.00000000000E+00  0.00000000000E+00  0.15215694026E+04  0.27627224734E+04  0.23059622760E+04 0.  0.
        1    1    3    3  502    0 -0.90208117097E+03  0.59594515789E+03  0.28085850412E+03  0.11170418835E+04  0.50400001928E-02 0. -1.
       -1    1    3    3    0  502  0.90208117097E+03 -0.59594515789E+03  0.12407108985E+04  0.16456805899E+04  0.50400001928E-02 0.  1.
</event>
<event>
 5   0  0.2847158E-05  0.2352624E+04  0.7818609E-02  0.8457456E-01
       -1   -1    0    0    0  501  0.00000000000E+00  0.00000000000E+00  0.12582268291E+04  0.12582268291E+04  0.50400001928E-02 0. -1.
        1   -1    0    0  501    0  0.00000000000E+00  0.00000000000E+00 -0.10997304616E+04  0.10997304616E+04  0.50400001928E-02 0.  1.
    10030    2    1    2    0    0  0.00000000000E+00  0.00000000000E+00  0.15849636751E+03  0.23579572906E+04  0.23526243827E+04 0.  0.
        5    1    3    3  502    0 -0.96205042732E+03 -0.67483810312E+03  0.26776943561E+02  0.11754516514E+04  0.46999998093E+01 0. -1.
       -5    1    3    3    0  502  0.96205042732E+03  0.67483810312E+03  0.13171942395E+03  0.11825056392E+04  0.46999998093E+01 0.  1.
</event>
<event>
 5   0  0.2943244E-05  0.2256590E+04  0.7818609E-02  0.8495236E-01
       -1   -1    0    0    0  501  0.00000000000E+00  0.00000000000E+00  0.66160580157E+03  0.66160580159E+03  0.50400001928E-02 0. -1.
        1   -1    0    0  501    0  0.00000000000E+00  0.00000000000E+00 -0.19241811991E+04  0.19241811991E+04  0.50400001928E-02 0.  1.
    10030    2    1    2    0    0  0.00000000000E+00  0.00000000000E+00 -0.12625753976E+04  0.25857870007E+04  0.22565898561E+04 0.  0.
        3    1    3    3  502    0  0.94786328861E+03  0.44703397157E+03 -0.15225224604E+03  0.10589924184E+04  0.10100000352E+00 0.  1.
       -3    1    3    3    0  502 -0.94786328861E+03 -0.44703397157E+03 -0.11103231515E+04  0.15267945823E+04  0.10100000352E+00 0. -1.
</event>
<event>
 5   0  0.2901816E-05  0.2412683E+04  0.7818609E-02  0.8434771E-01
       -1   -1    0    0    0  501  0.00000000000E+00  0.00000000000E+00  0.10703939099E+04  0.10703939099E+04  0.50400001928E-02 0.  1.
        1   -1    0    0  501    0  0.00000000000E+00  0.00000000000E+00 -0.13595551685E+04  0.13595551685E+04  0.50400001928E-02 0. -1.
    10030    2    1    2    0    0  0.00000000000E+00  0.00000000000E+00 -0.28916125865E+03  0.24299490784E+04  0.24126827993E+04 0.  0.
        4    1    3    3  502    0 -0.23351790379E+03 -0.55331302949E+02 -0.13352703741E+04  0.13566653048E+04  0.12699999809E+01 0. -1.
       -4    1    3    3    0  502  0.23351790379E+03  0.55331302949E+02  0.10461091154E+04  0.10732837736E+04  0.12699999809E+01 0.  1.
</event>
<event>
 5   0  0.2847158E-05  0.2395048E+04  0.7818609E-02  0.8441360E-01
       -1   -1    0    0    0  501  0.00000000000E+00  0.00000000000E+00  0.76844948041E+03  0.76844948042E+03  0.50400001928E-02 0. -1.
        1   -1    0    0  501    0  0.00000000000E+00  0.00000000000E+00 -0.18661776346E+04  0.18661776346E+04  0.50400001928E-02 0.  1.
    10030    2    1    2    0    0  0.00000000000E+00  0.00000000000E+00 -0.10977281542E+04  0.26346271150E+04  0.23950475851E+04 0.  0.
        5    1    3    3  502    0 -0.50484871284E+03  0.10491304870E+04 -0.85705769008E+03  0.14457236858E+04  0.46999998093E+01 0. -1.
       -5    1    3    3    0  502  0.50484871284E+03 -0.10491304870E+04 -0.24067046411E+03  0.11889034292E+04  0.46999998093E+01 0.  1.
</event>
<event>
 5   0  0.6703961E-05  0.2405839E+04  0.7818609E-02  0.8437321E-01
        2   -1    0    0  501    0  0.00000000000E+00  0.00000000000E+00  0.16732063541E+04  0.16732063541E+04  0.25500000920E-02 0.  1.
       -2   -1    0    0    0  501  0.00000000000E+00  0.00000000000E+00 -0.86481614660E+03  0.86481614661E+03  0.25500000920E-02 0. -1.
    10030    2    1    2    0    0  0.00000000000E+00  0.00000000000E+00  0.80839020750E+03  0.25380225007E+04  0.24058394557E+04 0.  0.
        2    1    3    3  502    0  0.11913424650E+03  0.68567303037E+03 -0.63087260889E+03  0.93932993241E+03  0.25500000920E-02 0. -1.
       -2    1    3    3    0  502 -0.11913424650E+03 -0.68567303037E+03  0.14392628164E+04  0.15986925683E+04  0.25500000920E-02 0.  1.
</event>
<event>
 5   0  0.2915546E-05  0.2376154E+04  0.7818609E-02  0.8448485E-01
       -1   -1    0    0    0  501  0.00000000000E+00  0.00000000000E+00  0.15055992981E+04  0.15055992981E+04  0.50400001928E-02 0. -1.
        1   -1    0    0  501    0  0.00000000000E+00  0.00000000000E+00 -0.93751858312E+03  0.93751858313E+03  0.50400001928E-02 0.  1.
    10030    2    1    2    0    0  0.00000000000E+00  0.00000000000E+00  0.56808071493E+03  0.24431178812E+04  0.23761543053E+04 0.  0.
        2    1    3    3  502    0  0.15383605494E+03  0.90868578238E+03 -0.48685714459E+03  0.10423076619E+04  0.25500000920E-02 0.  1.
       -2    1    3    3    0  502 -0.15383605494E+03 -0.90868578238E+03  0.10549378595E+04  0.14008102193E+04  0.25500000920E-02 0. -1.
</event>
<event>
 5   0  0.6600166E-05  0.1690521E+04  0.7818609E-02  0.8766789E-01
       -2   -1    0    0    0  501  0.00000000000E+00  0.00000000000E+00  0.56598127035E+03  0.56598127036E+03  0.25500000920E-02 0. -1.
        2   -1    0    0  501    0  0.00000000000E+00  0.00000000000E+00 -0.12623479209E+04  0.12623479209E+04  0.25500000920E-02 0.  1.
    10030    2    1    2    0    0  0.00000000000E+00  0.00000000000E+00 -0.69636665056E+03  0.18283291913E+04  0.16905209610E+04 0.  0.
        5    1    3    3  502    0 -0.70971113178E+03 -0.44695337137E+03 -0.46154161841E+03  0.95734004527E+03  0.46999998093E+01 0. -1.
       -5    1    3    3    0  502  0.70971113178E+03  0.44695337137E+03 -0.23482503216E+03  0.87098914601E+03  0.46999998093E+01 0.  1.
</event>
<event>
 5   0  0.2943123E-05  0.2365720E+04  0.7818609E-02  0.8452450E-01
        1   -1    0    0  501    0  0.00000000000E+00  0.00000000000E+00  0.13891996422E+04  0.13891996422E+04  0.50400001928E-02 0. -1.
       -1   -1    0    0    0  501  0.00000000000E+00  0.00000000000E+00 -0.10071684154E+04  0.10071684154E+04  0.50400001928E-02 0.  1.
    10030    2    1    2    0    0  0.00000000000E+00  0.00000000000E+00  0.38203122680E+03  0.23963680576E+04  0.23657201883E+04 0.  0.
        1    1    3    3  502    0  0.23789199253E+03  0.68118048874E+03  0.11404730475E+04  0.13495474169E+04  0.50400001928E-02 0. -1.
       -1    1    3    3    0  502 -0.23789199253E+03 -0.68118048874E+03 -0.75844182074E+03  0.10468206407E+04  0.50400001928E-02 0.  1.
</event>
<event>
 5   0  0.6714629E-05  0.2272871E+04  0.7818609E-02  0.8488695E-01
       -2   -1    0    0    0  501  0.00000000000E+00  0.00000000000E+00  0.76210762265E+03  0.76210762266E+03  0.25500000920E-02 0.  1.
        2   -1    0    0  501    0  0.00000000000E+00  0.00000000000E+00 -0.16946240128E+04  0.16946240128E+04  0.25500000920E-02 0. -1.
    10030    2    1    2    0    0  0.00000000000E+00  0.00000000000E+00 -0.93251639014E+03  0.24567316355E+04  0.22728712042E+04 0.  0.
        3    1    3    3  502    0 -0.27012212532E+03 -0.10484968561E+03 -0.16540250932E+04  0.16792136369E+04  0.10100000352E+00 0. -1.
       -3    1    3    3    0  502  0.27012212532E+03  0.10484968561E+03  0.72150870311E+03  0.77751799852E+03  0.10100000352E+00 0.  1.
</event>
<event>
 5   0  0.6600166E-05  0.2418108E+04  0.7818609E-02  0.8432755E-01
        2   -1    0    0  501    0  0.00000000000E+00  0.00000000000E+00  0.14947637920E+04  0.14947637920E+04  0.25500000920E-02 0.  1.
       -2   -1    0    0    0  501  0.00000000000E+00  0.00000000000E+00 -0.97795520205E+03  0.97795520205E+03  0.25500000920E-02 0. -1.
    10030    2    1    2    0    0  0.00000000000E+00  0.00000000000E+00  0.51680858995E+03  0.24727189941E+04  0.24181083733E+04 0.  0.
        5    1    3    3  502    0 -0.69801924063E+02 -0.18327823438E+03  0.14783803442E+04  0.14913395830E+04  0.46999998093E+01 0.  1.
       -5    1    3    3    0  502  0.69801924063E+02  0.18327823438E+03 -0.96157175425E+03  0.98137941102E+03  0.46999998093E+01 0. -1.
</event>
<event>
 5   0  0.6600166E-05  0.2218962E+04  0.7818609E-02  0.8510577E-01
       -2   -1    0    0    0  501  0.00000000000E+00  0.00000000000E+00  0.11092803183E+04  0.11092803183E+04  0.25500000920E-02 0. -1.
        2   -1    0    0  501    0  0.00000000000E+00  0.00000000000E+00 -0.11096815192E+04  0.11096815192E+04  0.25500000920E-02 0.  1.
    10030    2    1    2    0    0  0.00000000000E+00  0.00000000000E+00 -0.40120090264E+00  0.22189618374E+04  0.22189618012E+04 0.  0.
        5    1    3    3  502    0 -0.24817140513E+03 -0.67934938123E+03 -0.84152168887E+03  0.11096330344E+04  0.46999998093E+01 0.  1.
       -5    1    3    3    0  502  0.24817140513E+03  0.67934938123E+03  0.84112048796E+03  0.11093288031E+04  0.46999998093E+01 0. -1.
</event>
<event>
 5   0  0.6714629E-05  0.2192788E+04  0.7818609E-02  0.8521436E-01
       -2   -1    0    0    0  501  0.00000000000E+00  0.00000000000E+00  0.11041048389E+04  0.11041048389E+04  0.25500000920E-02 0.  1.
        2   -1    0    0  501    0  0.00000000000E+00  0.00000000000E+00 -0.10887368072E+04  0.10887368072E+04  0.25500000920E-02 0. -1.
    10030    2    1    2    0    0  0.00000000000E+00  0.00000000000E+00  0.15368031755E+02  0.21928416461E+04  0.21927877937E+04 0.  0.
        3    1    3    3  502    0 -0.34958780583E+03 -0.55346999067E+03 -0.87184818777E+03  0.10902568217E+04  0.10100000352E+00 0. -1.
       -3    1    3    3    0  502  0.34958780583E+03  0.55346999067E+03  0.88721621953E+03  0.11025848244E+04  0.10100000352E+00 0.  1.
</event>
<event>
 5   0  0.2943123E-05  0.2336355E+04  0.7818609E-02  0.8463723E-01
        1   -1    0    0  501    0  0.00000000000E+00  0.00000000000E+00  0.11449331262E+04  0.11449331262E+04  0.50400001928E-02 0.  1.
       -1   -1    0    0    0  501  0.00000000000E+00  0.00000000000E+00 -0.11918942820E+04  0.11918942820E+04  0.50400001928E-02 0. -1.
    10030    2    1    2    0    0  0.00000000000E+00  0.00000000000E+00 -0.46961155765E+02  0.23368274082E+04  0.23363554922E+04 0.  0.
        1    1    3    3  502    0 -0.75192373487E+03  0.35151836527E+03  0.79868593226E+03  0.11518913502E+04  0.50400001928E-02 0.  1.
       -1    1    3    3    0  502  0.75192373487E+03 -0.35151836527E+03 -0.84564708803E+03  0.11849360581E+04  0.50400001928E-02 0. -1.
</event>
<event>
 5   0  0.2915546E-05  0.2410552E+04  0.7818609E-02  0.8435564E-01
        1   -1    0    0  501    0  0.00000000000E+00  0.00000000000E+00  0.25514699655E+04  0.25514699655E+04  0.50400001928E-02 0.  1.
       -1   -1    0    0    0  501  0.00000000000E+00  0.00000000000E+00 -0.56935429510E+03  0.56935429512E+03  0.50400001928E-02 0. -1.
    10030    2    1    2    0    0  0.00000000000E+00  0.00000000000E+00  0.19821156704E+04  0.31208242606E+04  0.24105521224E+04 0.  0.
        2    1    3    3  502    0 -0.50344439524E+03  0.29919426760E+03 -0.37276792693E+03  0.69421134838E+03  0.25500000920E-02 0. -1.
       -2    1    3    3    0  502  0.50344439524E+03 -0.29919426760E+03  0.23548835973E+04  0.24266129122E+04  0.25500000920E-02 0.  1.
</event>
<event>
 5   0  0.2847158E-05  0.2373963E+04  0.7818609E-02  0.8449316E-01
       -1   -1    0    0    0  501  0.00000000000E+00  0.00000000000E+00  0.49216411837E+03  0.49216411839E+03  0.50400001928E-02 0.  1.
        1   -1    0    0  501    0  0.00000000000E+00  0.00000000000E+00 -0.28627131973E+04  0.28627131973E+04  0.50400001928E-02 0. -1.
    10030    2    1    2    0    0  0.00000000000E+00  0.00000000000E+00 -0.23705490790E+04  0.33548773157E+04  0.23739626930E+04 0.  0.
        5    1    3    3  502    0  0.91492849847E+03 -0.51015411005E+03 -0.39647344419E+03  0.11200735044E+04  0.46999998093E+01 0.  1.
       -5    1    3    3    0  502 -0.91492849847E+03  0.51015411005E+03 -0.19740756348E+04  0.22348038113E+04  0.46999998093E+01 0. -1.
</event>
<event>
 5   0  0.6703961E-05  0.2387173E+04  0.7818609E-02  0.8444321E-01
        2   -1    0    0  501    0  0.00000000000E+00  0.00000000000E+00  0.11544939608E+04  0.11544939608E+04  0.25500000920E-02 0.  1.
       -2   -1    0    0    0  501  0.00000000000E+00  0.00000000000E+00 -0.12340026235E+04  0.12340026235E+04  0.25500000920E-02 0. -1.
    10030    2    1    2    0    0  0.00000000000E+00  0.00000000000E+00 -0.79508662673E+02  0.23884965843E+04  0.23871728688E+04 0.  0.
        2    1    3    3  502    0 -0.77934477207E+03  0.15756410597E+03  0.85093244734E+03  0.11645989658E+04  0.25500000920E-02 0.  1.
       -2    1    3    3    0  502  0.77934477207E+03 -0.15756410597E+03 -0.93044111001E+03  0.12238976185E+04  0.25500000920E-02 0. -1.
</event>
<event>
 5   0  0.2943244E-05  0.2366796E+04  0.7818609E-02  0.8452040E-01
        1   -1    0    0  501    0  0.00000000000E+00  0.00000000000E+00  0.20900953857E+04  0.20900953857E+04  0.50400001928E-02 0.  1.
       -1   -1    0    0    0  501  0.00000000000E+00  0.00000000000E+00 -0.67003206185E+03  0.67003206187E+03  0.50400001928E-02 0. -1.
    10030    2    1    2    0    0  0.00000000000E+00  0.00000000000E+00  0.14200633238E+04  0.27601274476E+04  0.23667960797E+04 0.  0.
        3    1    3    3  502    0 -0.86570664621E+03 -0.62477489280E+03  0.13054033798E+04  0.16863776737E+04  0.10100000352E+00 0.  1.
       -3    1    3    3    0  502  0.86570664621E+03  0.62477489280E+03  0.11465994399E+03  0.10737497739E+04  0.10100000352E+00 0. -1.
</event>
<event>
 5   0  0.2901816E-05  0.2384383E+04  0.7818609E-02  0.8445373E-01
        1   -1    0    0  501    0  0.00000000000E+00  0.00000000000E+00  0.79900534875E+03  0.79900534877E+03  0.50400001928E-02 0.  1.
       -1   -1    0    0    0  501  0.00000000000E+00  0.00000000000E+00 -0.17788631276E+04  0.17788631276E+04  0.50400001928E-02 0. -1.
    10030    2    1    2    0    0  0.00000000000E+00  0.00000000000E+00 -0.97985777885E+03  0.25778684764E+04  0.23843834873E+04 0.  0.
        4    1    3    3  502    0 -0.10428720213E+04  0.18800213563E+03 -0.10805088906E+04  0.15134159810E+04  0.12699999809E+01 0. -1.
       -4    1    3    3    0  502  0.10428720213E+04 -0.18800213563E+03  0.10065111178E+03  0.10644524954E+04  0.12699999809E+01 0.  1.
</event>
<event>
 5   0  0.6978115E-05  0.2361419E+04  0.7818609E-02  0.8454090E-01
       -2   -1    0    0    0  501  0.00000000000E+00  0.00000000000E+00  0.50358542303E+03  0.50358542304E+03  0.25500000920E-02 0.  1.
        2   -1    0    0  501    0  0.00000000000E+00  0.00000000000E+00 -0.27682996706E+04  0.27682996706E+04  0.25500000920E-02 0. -1.
    10030    2    1    2    0    0  0.00000000000E+00  0.00000000000E+00 -0.22647142476E+04  0.32718850937E+04  0.23614193704E+04 0.  0.
        4    1    3    3  502    0  0.60503400814E+03  0.93822554318E+03 -0.59978970154E+03  0.12673131499E+04  0.12699999809E+01 0.  1.
       -4    1    3    3    0  502 -0.60503400814E+03 -0.93822554318E+03 -0.16649245460E+04  0.20045719438E+04  0.12699999809E+01 0. -1.
</event>
<event>
 5   0  0.2901816E-05  0.2418529E+04  0.7818609E-02  0.8432599E-01
        1   -1    0    0  501    0  0.00000000000E+00  0.00000000000E+00  0.10073006199E+04  0.10073006200E+04  0.50400001928E-02 0.  1.
       -1   -1    0    0    0  501  0.00000000000E+00  0.00000000000E+00 -0.14517225000E+04  0.14517225000E+04  0.50400001928E-02 0. -1.
    10030    2    1    2    0    0  0.00000000000E+00  0.00000000000E+00 -0.44442188003E+03  0.24590231199E+04  0.24185292839E+04 0.  0.
        4    1    3    3  502    0  0.65081578668E+03  0.98282560854E+03  0.52143966238E+02  0.11799271042E+04  0.12699999809E+01 0. -1.
       -4    1    3    3    0  502 -0.65081578668E+03 -0.98282560854E+03 -0.49656584626E+03  0.12790960158E+04  0.12699999809E+01 0.  1.
</event>
<event>
 5   0  0.2901816E-05  0.1825540E+04  0.7818609E-02  0.8692834E-01
       -1   -1    0    0    0  501  0.00000000000E+00  0.00000000000E+00  0.37418822562E+03  0.37418822566E+03  0.50400001928E-02 0.  1.
        1   -1    0    0  501    0  0.00000000000E+00  0.00000000000E+00 -0.22265511250E+04  0.22265511250E+04  0.50400001928E-02 0. -1.
    10030    2    1    2    0    0  0.00000000000E+00  0.00000000000E+00 -0.18523628994E+04  0.26007393507E+04  0.18255401554E+04 0.  0.
        4    1    3    3  502    0 -0.45712708819E+03 -0.72587611768E+03 -0.48182523655E+03  0.98387930381E+03  0.12699999809E+01 0.  1.
       -4    1    3    3    0  502  0.45712708819E+03  0.72587611768E+03 -0.13705376629E+04  0.16168600469E+04  0.12699999809E+01 0. -1.
</event>
<event>
 5   0  0.2943123E-05  0.2406099E+04  0.7818609E-02  0.8437224E-01
        1   -1    0    0  501    0  0.00000000000E+00  0.00000000000E+00  0.66895384905E+03  0.66895384907E+03  0.50400001928E-02 0. -1.
       -1   -1    0    0    0  501  0.00000000000E+00  0.00000000000E+00 -0.21635695700E+04  0.21635695700E+04  0.50400001928E-02 0.  1.
    10030    2    1    2    0    0  0.00000000000E+00  0.00000000000E+00 -0.14946157209E+04  0.28325234190E+04  0.24060990765E+04 0.  0.
        1    1    3    3  502    0 -0.10892512026E+04  0.50450343667E+03 -0.84101605753E+03  0.14657079890E+04  0.50400001928E-02 0. -1.
       -1    1    3    3    0  502  0.10892512026E+04 -0.50450343667E+03 -0.65359966338E+03  0.13668154301E+04  0.50400001928E-02 0.  1.
</event>
<event>
 5   0  0.6337926E-05  0.2419379E+04  0.7818609E-02  0.8432284E-01
       -2   -1    0    0    0  501  0.00000000000E+00  0.00000000000E+00  0.74218336105E+03  0.74218336106E+03  0.25500000920E-02 0.  1.
        2   -1    0    0  501    0  0.00000000000E+00  0.00000000000E+00 -0.19716809381E+04  0.19716809381E+04  0.25500000920E-02 0. -1.
    10030    2    1    2    0    0  0.00000000000E+00  0.00000000000E+00 -0.12294975770E+04  0.27138642991E+04  0.24193790820E+04 0.  0.
        1    1    3    3  502    0  0.37632358977E+03  0.10582544476E+04 -0.11186828271E+04  0.15852360038E+04  0.50400001928E-02 0.  1.
       -1    1    3    3    0  502 -0.37632358977E+03 -0.10582544476E+04 -0.11081474988E+03  0.11286282953E+04  0.50400001928E-02 0. -1.
</event>
<event>
 5   0  0.2943244E-05  0.2425844E+04  0.7818609E-02  0.8429891E-01
       -1   -1    0    0    0  501  0.00000000000E+00  0.00000000000E+00  0.19519154960E+04  0.19519154960E+04  0.50400001928E-02 0. -1.
        1   -1    0    0  501    0  0.00000000000E+00  0.00000000000E+00 -0.75371076303E+03  0.75371076305E+03  0.50400001928E-02 0.  1.
    10030    2    1    2    0    0  0.00000000000E+00  0.00000000000E+00  0.11982047330E+04  0.27056262590E+04  0.24258439504E+04 0.  0.
        3    1    3    3  502    0 -0.75872214581E+03  0.86952134967E+03  0.18259860173E+03  0.11683616442E+04  0.10100000352E+00 0. -1.
       -3    1    3    3    0  502  0.75872214581E+03 -0.86952134967E+03  0.10156061312E+04  0.15372646148E+04  0.10100000352E+00 0.  1.
</event>
<event>
 5   0  0.6703961E-05  0.2829596E+04  0.7818609E-02  0.8294139E-01
        2   -1    0    0  501    0  0.00000000000E+00  0.00000000000E+00  0.23526487376E+04  0.23526487376E+04  0.25500000920E-02 0.  1.
       -2   -1    0    0    0  501  0.00000000000E+00  0.00000000000E+00 -0.85080823730E+03  0.85080823730E+03  0.25500000920E-02 0. -1.
    10030    2    1    2    0    0  0.00000000000E+00  0.00000000000E+00  0.15018405003E+04  0.32034569749E+04  0.28295956782E+04 0.  0.
        2    1    3    3  502    0 -0.10864683651E+04  0.28454690786E+03 -0.22315007442E+03  0.11450661146E+04  0.25500000920E-02 0. -1.
       -2    1    3    3    0  502  0.10864683651E+04 -0.28454690786E+03  0.17249905748E+04  0.20583908604E+04  0.25500000920E-02 0.  1.
</event>
<event>
 5   0  0.6714629E-05  0.2420245E+04  0.7818609E-02  0.8431963E-01
       -2   -1    0    0    0  501  0.00000000000E+00  0.00000000000E+00  0.14249581499E+04  0.14249581499E+04  0.25500000920E-02 0. -1.
        2   -1    0    0  501    0  0.00000000000E+00  0.00000000000E+00 -0.10276772009E+04  0.10276772009E+04  0.25500000920E-02 0.  1.
    10030    2    1    2    0    0  0.00000000000E+00  0.00000000000E+00  0.39728094894E+03  0.24526353508E+04  0.24202454445E+04 0.  0.
        3    1    3    3  502    0 -0.23862722751E+03  0.11224693003E+04  0.58785960646E+03  0.12893638784E+04  0.10100000352E+00 0.  1.
       -3    1    3    3    0  502  0.23862722751E+03 -0.11224693003E+04 -0.19057865752E+03  0.11632714725E+04  0.10100000352E+00 0. -1.
</event>
<event>
 5   0  0.2339125E-05  0.2409710E+04  0.7818609E-02  0.8435877E-01
        3   -1    0    0  501    0  0.00000000000E+00  0.00000000000E+00  0.21160014209E+04  0.21160014233E+04  0.10100000352E+00 0.  1.
       -3   -1    0    0    0  501  0.00000000000E+00  0.00000000000E+00 -0.68604672443E+03  0.68604673187E+03  0.10100000352E+00 0. -1.
    10030    2    1    2    0    0  0.00000000000E+00  0.00000000000E+00  0.14299546965E+04  0.28020481552E+04  0.24097102378E+04 0.  0.
        1    1    3    3  502    0  0.70627343277E+03 -0.63377478733E+03  0.15782714298E+04  0.18415844670E+04  0.50400001928E-02 0. -1.
       -1    1    3    3    0  502 -0.70627343277E+03  0.63377478733E+03 -0.14831673334E+03  0.96046368818E+03  0.50400001928E-02 0.  1.
</event>
<event>
 5   0  0.2847158E-05  0.2411777E+04  0.7818609E-02  0.8435108E-01
       -1   -1    0    0    0  501  0.00000000000E+00  0.00000000000E+00  0.60766315270E+03  0.60766315272E+03  0.50400001928E-02 0. -1.
        1   -1    0    0  501    0  0.00000000000E+00  0.00000000000E+00 -0.23930472560E+04  0.23930472560E+04  0.50400001928E-02 0.  1.
    10030    2    1    2    0    0  0.00000000000E+00  0.00000000000E+00 -0.17853841033E+04  0.30007104087E+04  0.24117766399E+04 0.  0.
        5    1    3    3  502    0 -0.10491602517E+04  0.10014933341E+02 -0.15314955978E+03  0.10603369324E+04  0.46999998093E+01 0. -1.
       -5    1    3    3    0  502  0.10491602517E+04 -0.10014933341E+02 -0.16322345435E+04  0.19403734763E+04  0.46999998093E+01 0.  1.
</event>
<event>
 5   0  0.6978115E-05  0.2403185E+04  0.7818609E-02  0.8438312E-01
       -2   -1    0    0    0  501  0.00000000000E+00  0.00000000000E+00  0.76915368438E+03  0.76915368438E+03  0.25500000920E-02 0. -1.
        2   -1    0    0  501    0  0.00000000000E+00  0.00000000000E+00 -0.18771595288E+04  0.18771595288E+04  0.25500000920E-02 0.  1.
    10030    2    1    2    0    0  0.00000000000E+00  0.00000000000E+00 -0.11080058444E+04  0.26463132132E+04  0.24031846935E+04 0.  0.
        4    1    3    3  502    0 -0.52991369819E+03  0.23707771117E+02  0.63324551003E+03  0.82605815462E+03  0.12699999809E+01 0. -1.
       -4    1    3    3    0  502  0.52991369819E+03 -0.23707771117E+02 -0.17412513545E+04  0.18202550586E+04  0.12699999809E+01 0.  1.
</event>
<event>
 5   0  0.6978115E-05  0.2409299E+04  0.7818609E-02  0.8436030E-01
        2   -1    0    0  501    0  0.00000000000E+00  0.00000000000E+00  0.11655676877E+04  0.11655676877E+04  0.25500000920E-02 0. -1.
       -2   -1    0    0    0  501  0.00000000000E+00  0.00000000000E+00 -0.12450422282E+04  0.12450422282E+04  0.25500000920E-02 0.  1.
    10030    2    1    2    0    0  0.00000000000E+00  0.00000000000E+00 -0.79474540437E+02  0.24106099159E+04  0.24092994758E+04 0.  0.
        4    1    3    3  502    0  0.93086692249E+03 -0.21633379184E+03  0.69405500330E+03  0.11811128216E+04  0.12699999809E+01 0. -1.
       -4    1    3    3    0  502 -0.93086692249E+03  0.21633379184E+03 -0.77352954374E+03  0.12294970943E+04  0.12699999809E+01 0.  1.
</event>
<event>
 5   0  0.6703961E-05  0.1998203E+04  0.7818609E-02  0.8607461E-01
        2   -1    0    0  501    0  0.00000000000E+00  0.00000000000E+00  0.20493846044E+04  0.20493846044E+04  0.25500000920E-02 0. -1.
       -2   -1    0    0    0  501  0.00000000000E+00  0.00000000000E+00 -0.48707489652E+03  0.48707489652E+03  0.25500000920E-02 0.  1.
    10030    2    1    2    0    0  0.00000000000E+00  0.00000000000E+00  0.15623097079E+04  0.25364595010E+04  0.19982029868E+04 0.  0.
        2    1    3    3  502    0  0.76365998745E+03  0.39704073932E+02  0.15973617300E+04  0.17709651286E+04  0.25500000920E-02 0. -1.
       -2    1    3    3    0  502 -0.76365998745E+03 -0.39704073932E+02 -0.35052022133E+02  0.76549437241E+03  0.25500000920E-02 0.  1.
</event>
<event>
 5   0  0.2847158E-05  0.2459539E+04  0.7818609E-02  0.8417544E-01
       -1   -1    0    0    0  501  0.00000000000E+00  0.00000000000E+00  0.19349658310E+04  0.19349658310E+04  0.50400001928E-02 0. -1.
        1   -1    0    0  501    0  0.00000000000E+00  0.00000000000E+00 -0.78158104710E+03  0.78158104712E+03  0.50400001928E-02 0.  1.
    10030    2    1    2    0    0  0.00000000000E+00  0.00000000000E+00  0.11533847839E+04  0.27165468782E+04  0.24595386725E+04 0.  0.
        5    1    3    3  502    0 -0.12041210356E+04  0.24933370839E+03  0.55973331807E+03  0.13510729972E+04  0.46999998093E+01 0.  1.
       -5    1    3    3    0  502  0.12041210356E+04 -0.24933370839E+03  0.59365146587E+03  0.13654738809E+04  0.46999998093E+01 0. -1.
</event>
<event>
 5   0  0.6714629E-05  0.2344735E+04  0.7818609E-02  0.8460489E-01
        2   -1    0    0  501    0  0.00000000000E+00  0.00000000000E+00  0.12004130103E+04  0.12004130103E+04  0.25500000920E-02 0. -1.
       -2   -1    0    0    0  501  0.00000000000E+00  0.00000000000E+00 -0.11449772958E+04  0.11449772958E+04  0.25500000920E-02 0.  1.
    10030    2    1    2    0    0  0.00000000000E+00  0.00000000000E+00  0.55435714406E+02  0.23453903061E+04  0.23447350745E+04 0.  0.
        3    1    3    3  502    0  0.35079543074E+03 -0.29037008054E+03  0.11083314691E+04  0.11982365682E+04  0.10100000352E+00 0. -1.
       -3    1    3    3    0  502 -0.35079543074E+03  0.29037008054E+03 -0.10528957547E+04  0.11471537379E+04  0.10100000352E+00 0.  1.
</event>
<event>
 5   0  0.2847158E-05  0.2306368E+04  0.7818609E-02  0.8475414E-01
       -1   -1    0    0    0  501  0.00000000000E+00  0.00000000000E+00  0.12605377400E+04  0.12605377400E+04  0.50400001928E-02 0. -1.
        1   -1    0    0  501    0  0.00000000000E+00  0.00000000000E+00 -0.10549734031E+04  0.10549734031E+04  0.50400001928E-02 0.  1.
    10030    2    1    2    0    0  0.00000000000E+00  0.00000000000E+00  0.20556433689E+03  0.23155111431E+04  0.23063683915E+04 0.  0.
        5    1    3    3  502    0 -0.34754493195E+03  0.31221122352E+03 -0.95569716082E+03  0.10637868588E+04  0.46999998093E+01 0.  1.
       -5    1    3    3    0  502  0.34754493195E+03 -0.31221122352E+03  0.11612614977E+04  0.12517242843E+04  0.46999998093E+01 0. -1.
</event>
<event>
 5   0  0.2943244E-05  0.2420277E+04  0.7818609E-02  0.8431951E-01
       -1   -1    0    0    0  501  0.00000000000E+00  0.00000000000E+00  0.77939939505E+03  0.77939939507E+03  0.50400001928E-02 0. -1.
        1   -1    0    0  501    0  0.00000000000E+00  0.00000000000E+00 -0.18789271164E+04  0.18789271164E+04  0.50400001928E-02 0.  1.
    10030    2    1    2    0    0  0.00000000000E+00  0.00000000000E+00 -0.10995277213E+04  0.26583265114E+04  0.24202765609E+04 0.  0.
        3    1    3    3  502    0 -0.32278945122E+03 -0.86643853143E+03 -0.14072742804E+04  0.16838437187E+04  0.10100000352E+00 0.  1.
       -3    1    3    3    0  502  0.32278945122E+03  0.86643853143E+03  0.30774655906E+03  0.97448279275E+03  0.10100000352E+00 0. -1.
</event>
<event>
 5   0  0.2339125E-05  0.2393946E+04  0.7818609E-02  0.8441774E-01
        3   -1    0    0  501    0  0.00000000000E+00  0.00000000000E+00  0.11595211605E+04  0.11595211649E+04  0.10100000352E+00 0.  1.
       -3   -1    0    0    0  501  0.00000000000E+00  0.00000000000E+00 -0.12356346323E+04  0.12356346364E+04  0.10100000352E+00 0. -1.
    10030    2    1    2    0    0  0.00000000000E+00  0.00000000000E+00 -0.76113471791E+02  0.23951558014E+04  0.23939461256E+04 0.  0.
        2    1    3    3  502    0  0.12338139121E+03 -0.71951169458E+03 -0.98712684406E+03  0.12277375341E+04  0.25500000920E-02 0. -1.
       -2    1    3    3    0  502 -0.12338139121E+03  0.71951169458E+03  0.91101337227E+03  0.11674182673E+04  0.25500000920E-02 0.  1.
</event>
<event>
 5   0  0.6978115E-05  0.2380144E+04  0.7818609E-02  0.8446975E-01
        2   -1    0    0  501    0  0.00000000000E+00  0.00000000000E+00  0.19747114100E+04  0.19747114100E+04  0.25500000920E-02 0. -1.
       -2   -1    0    0    0  501  0.00000000000E+00  0.00000000000E+00 -0.71720397921E+03  0.71720397922E+03  0.25500000920E-02 0.  1.
    10030    2    1    2    0    0  0.00000000000E+00  0.00000000000E+00  0.12575074308E+04  0.26919153892E+04  0.23801435932E+04 0.  0.
        4    1    3    3  502    0  0.27373626577E+03 -0.96002070773E+03  0.13614545372E+04  0.16882332103E+04  0.12699999809E+01 0. -1.
       -4    1    3    3    0  502 -0.27373626577E+03  0.96002070773E+03 -0.10394710644E+03  0.10036821789E+04  0.12699999809E+01 0.  1.
</event>
<event>
 5   0  0.2901816E-05  0.2364405E+04  0.7818609E-02  0.8452951E-01
        1   -1    0    0  501    0  0.00000000000E+00  0.00000000000E+00  0.21995865090E+04  0.21995865090E+04  0.50400001928E-02 0.  1.
       -1   -1    0    0    0  501  0.00000000000E+00  0.00000000000E+00 -0.63539357290E+03  0.63539357292E+03  0.50400001928E-02 0. -1.
    10030    2    1    2    0    0  0.00000000000E+00  0.00000000000E+00  0.15641929361E+04  0.28349800820E+04  0.23644053214E+04 0.  0.
        4    1    3    3  502    0 -0.57387526650E+02 -0.11643397335E+04  0.10177320241E+04  0.15475013503E+04  0.12699999809E+01 0.  1.
       -4    1    3    3    0  502  0.57387526650E+02  0.11643397335E+04  0.54646091204E+03  0.12874787317E+04  0.12699999809E+01 0. -1.
</event>
<event>
 5   0  0.2943244E-05  0.2021690E+04  0.7818609E-02  0.8596547E-01
        1   -1    0    0  501    0  0.00000000000E+00  0.00000000000E+00  0.19763305906E+04  0.19763305907E+04  0.50400001928E-02 0.  1.
       -1   -1    0    0    0  501  0.00000000000E+00  0.00000000000E+00 -0.51702245376E+03  0.51702245378E+03  0.50400001928E-02 0. -1.
    10030    2    1    2    0    0  0.00000000000E+00  0.00000000000E+00  0.14593081369E+04  0.24933530444E+04  0.20216896809E+04 0.  0.
        3    1    3    3  502    0 -0.44657907536E+03 -0.87265861542E+03  0.42544741470E+03  0.10686306389E+04  0.10100000352E+00 0. -1.
       -3    1    3    3    0  502  0.44657907536E+03  0.87265861542E+03  0.10338607222E+04  0.14247224055E+04  0.10100000352E+00 0.  1.
</event>
<event>
 5   0  0.6703961E-05  0.2369261E+04  0.7818609E-02  0.8451102E-01
       -2   -1    0    0    0  501  0.00000000000E+00  0.00000000000E+00  0.53558007966E+03  0.53558007967E+03  0.25500000920E-02 0. -1.
        2   -1    0    0  501    0  0.00000000000E+00  0.00000000000E+00 -0.26202427290E+04  0.26202427290E+04  0.25500000920E-02 0.  1.
    10030    2    1    2    0    0  0.00000000000E+00  0.00000000000E+00 -0.20846626494E+04  0.31558228087E+04  0.23692613276E+04 0.  0.
        2    1    3    3  502    0 -0.83770373394E+02 -0.10901555628E+02  0.53156296589E+03  0.53823369096E+03  0.25500000920E-02 0. -1.
       -2    1    3    3    0  502  0.83770373394E+02  0.10901555628E+02 -0.26162256153E+04  0.26175891177E+04  0.25500000920E-02 0.  1.
</event>
<event>
 5   0  0.2943244E-05  0.2375152E+04  0.7818609E-02  0.8448865E-01
       -1   -1    0    0    0  501  0.00000000000E+00  0.00000000000E+00  0.84006468422E+03  0.84006468424E+03  0.50400001928E-02 0.  1.
        1   -1    0    0  501    0  0.00000000000E+00  0.00000000000E+00 -0.16788423711E+04  0.16788423711E+04  0.50400001928E-02 0. -1.
    10030    2    1    2    0    0  0.00000000000E+00  0.00000000000E+00 -0.83877768687E+03  0.25189070553E+04  0.23751515205E+04 0.  0.
        3    1    3    3  502    0  0.10078141954E+03 -0.40323003320E+03 -0.15991886206E+04  0.16523182529E+04  0.10100000352E+00 0. -1.
       -3    1    3    3    0  502 -0.10078141954E+03  0.40323003320E+03  0.76041093376E+03  0.86658880248E+03  0.10100000352E+00 0.  1.
</event>
<event>
 5   0  0.6978115E-05  0.2411581E+04  0.7818609E-02  0.8435181E-01
        2   -1    0    0  501    0  0.00000000000E+00  0.00000000000E+00  0.18014960948E+04  0.18014960948E+04  0.25500000920E-02 0. -1.
       -2   -1    0    0    0  501  0.00000000000E+00  0.00000000000E+00 -0.80706841909E+03  0.80706841909E+03  0.25500000920E-02 0.  1.
    10030    2    1    2    0    0  0.00000000000E+00  0.00000000000E+00  0.99442767571E+03  0.26085645139E+04  0.24115808966E+04 0.  0.
        4    1    3    3  502    0 -0.10046288311E+04  0.81834690216E+02 -0.21862209295E+03  0.10313938323E+04  0.12699999809E+01 0.  1.
       -4    1    3    3    0  502  0.10046288311E+04 -0.81834690216E+02  0.12130497687E+04  0.15771706816E+04  0.12699999809E+01 0. -1.
</event>
<event>
 5   0  0.6337926E-05  0.2416286E+04  0.7818609E-02  0.8433432E-01
        2   -1    0    0  501    0  0.00000000000E+00  0.00000000000E+00  0.18309886542E+04  0.18309886542E+04  0.25500000920E-02 0.  1.
       -2   -1    0    0    0  501  0.00000000000E+00  0.00000000000E+00 -0.79716993116E+03  0.79716993116E+03  0.25500000920E-02 0. -1.
    10030    2    1    2    0    0  0.00000000000E+00  0.00000000000E+00  0.10338187231E+04  0.26281585854E+04  0.24162856615E+04 0.  0.
        1    1    3    3  502    0  0.69835917872E+03  0.96251997718E+03  0.28500307850E+03  0.12228560847E+04  0.50400001928E-02 0. -1.
       -1    1    3    3    0  502 -0.69835917872E+03 -0.96251997718E+03  0.74881564456E+03  0.14053025007E+04  0.50400001928E-02 0.  1.
</event>
<event>
 5   0  0.6337926E-05  0.2431946E+04  0.7818609E-02  0.8427639E-01
       -2   -1    0    0    0  501  0.00000000000E+00  0.00000000000E+00  0.97829112372E+03  0.97829112372E+03  0.25500000920E-02 0. -1.
        2   -1    0    0  501    0  0.00000000000E+00  0.00000000000E+00 -0.15114009766E+04  0.15114009766E+04  0.25500000920E-02 0.  1.
    10030    2    1    2    0    0  0.00000000000E+00  0.00000000000E+00 -0.53310985288E+03  0.24896921003E+04  0.24319458545E+04 0.  0.
        1    1    3    3  502    0  0.15447712466E+03  0.12051149303E+04 -0.31696833278E+03  0.12556409126E+04  0.50400001928E-02 0. -1.
       -1    1    3    3    0  502 -0.15447712466E+03 -0.12051149303E+04 -0.21614152010E+03  0.12340511878E+04  0.50400001928E-02 0.  1.
</event>
<event>
 5   0  0.6714629E-05  0.2573657E+04  0.7818609E-02  0.8377205E-01
        2   -1    0    0  501    0  0.00000000000E+00  0.00000000000E+00  0.10561875901E+04  0.10561875901E+04  0.25500000920E-02 0.  1.
       -2   -1    0    0    0  501  0.00000000000E+00  0.00000000000E+00 -0.15678347601E+04  0.15678347601E+04  0.25500000920E-02 0. -1.
    10030    2    1    2    0    0  0.00000000000E+00  0.00000000000E+00 -0.51164716999E+03  0.26240223502E+04  0.25736570222E+04 0.  0.
        3    1    3    3  502    0 -0.10466311054E+04 -0.51834392006E+03 -0.80658984723E+03  0.14194027907E+04  0.10100000352E+00 0. -1.
       -3    1    3    3    0  502  0.10466311054E+04  0.51834392006E+03  0.29494267724E+03  0.12046195596E+04  0.10100000352E+00 0.  1.
</event>
<event>
 5   0  0.6600166E-05  0.2449506E+04  0.7818609E-02  0.8421199E-01
        2   -1    0    0  501    0  0.00000000000E+00  0.00000000000E+00  0.10904510100E+04  0.10904510100E+04  0.25500000920E-02 0.  1.
       -2   -1    0    0    0  501  0.00000000000E+00  0.00000000000E+00 -0.13755953336E+04  0.13755953336E+04  0.25500000920E-02 0. -1.
    10030    2    1    2    0    0  0.00000000000E+00  0.00000000000E+00 -0.28514432361E+03  0.24660463436E+04  0.24495055182E+04 0.  0.
        5    1    3    3  502    0 -0.35229468203E+03  0.49435829135E+03  0.92832863144E+03  0.11091969172E+04  0.46999998093E+01 0.  1.
       -5    1    3    3    0  502  0.35229468203E+03 -0.49435829135E+03 -0.12134729551E+04  0.13568494264E+04  0.46999998093E+01 0. -1.
</event>
<event>
 5   0  0.2943244E-05  0.2202061E+04  0.7818609E-02  0.8517571E-01
       -1   -1    0    0    0  501  0.00000000000E+00  0.00000000000E+00  0.10118413705E+04  0.10118413705E+04  0.50400001928E-02 0. -1.
        1   -1    0    0  501    0  0.00000000000E+00  0.00000000000E+00 -0.11980814951E+04  0.11980814952E+04  0.50400001928E-02 0.  1.
    10030    2    1    2    0    0  0.00000000000E+00  0.00000000000E+00 -0.18624012466E+03  0.22099228657E+04  0.22020612362E+04 0.  0.
        3    1    3    3  502    0  0.37840136028E+03  0.12871411525E+03 -0.11227035311E+04  0.11917290556E+04  0.10100000352E+00 0.  1.
       -3    1    3    3    0  502 -0.37840136028E+03 -0.12871411525E+03  0.93646340649E+03  0.10181938101E+04  0.10100000352E+00 0. -1.
</event>
<event>
 5   0  0.2901816E-05  0.2414788E+04  0.7818609E-02  0.8433988E-01
        1   -1    0    0  501    0  0.00000000000E+00  0.00000000000E+00  0.12896807295E+04  0.12896807295E+04  0.50400001928E-02 0.  1.
       -1   -1    0    0    0  501  0.00000000000E+00  0.00000000000E+00 -0.11303576779E+04  0.11303576779E+04  0.50400001928E-02 0. -1.
    10030    2    1    2    0    0  0.00000000000E+00  0.00000000000E+00  0.15932305164E+03  0.24200384074E+04  0.24147882016E+04 0.  0.
        4    1    3    3  502    0 -0.32703183588E+03  0.89995823146E+03  0.81673612296E+03  0.12585444559E+04  0.12699999809E+01 0.  1.
       -4    1    3    3    0  502  0.32703183588E+03 -0.89995823146E+03 -0.65741307132E+03  0.11614939515E+04  0.12699999809E+01 0. -1.
</event>
<event>
 5   0  0.6978115E-05  0.2392047E+04  0.7818609E-02  0.8442487E-01
        2   -1    0    0  501    0  0.00000000000E+00  0.00000000000E+00  0.99521005356E+03  0.99521005356E+03  0.25500000920E-02 0.  1.
       -2   -1    0    0    0  501  0.00000000000E+00  0.00000000000E+00 -0.14373566134E+04  0.14373566134E+04  0.25500000920E-02 0. -1.
    10030    2    1    2    0    0  0.00000000000E+00  0.00000000000E+00 -0.44214655981E+03  0.24325666669E+04  0.23920466151E+04 0.  0.
        4    1    3    3  502    0 -0.69225463439E+03  0.41356555076E+02  0.76987844637E+03  0.10361666268E+04  0.12699999809E+01 0.  1.
       -4    1    3    3    0  502  0.69225463439E+03 -0.41356555076E+02 -0.12120250062E+04  0.13964000401E+04  0.12699999809E+01 0. -1.
</event>
<event>
 5   0  0.2943244E-05  0.2339157E+04  0.7818609E-02  0.8462640E-01
        1   -1    0    0  501    0  0.00000000000E+00  0.00000000000E+00  0.94494889305E+03  0.94494889306E+03  0.50400001928E-02 0.  1.
       -1   -1    0    0    0  501  0.00000000000E+00  0.00000000000E+00 -0.14476068033E+04  0.14476068033E+04  0.50400001928E-02 0. -1.
    10030    2    1    2    0    0  0.00000000000E+00  0.00000000000E+00 -0.50265791025E+03  0.23925556964E+04  0.23391574948E+04 0.  0.
        3    1    3    3  502    0  0.15096374688E+01 -0.95858105765E+03  0.43406844706E+03  0.10522810224E+04  0.10100000352E+00 0.  1.
       -3    1    3    3    0  502 -0.15096374688E+01  0.95858105765E+03 -0.93672635732E+03  0.13402746740E+04  0.10100000352E+00 0. -1.
</event>
<event>
 5   0  0.2915546E-05  0.2333887E+04  0.7818609E-02  0.8464679E-01
       -1   -1    0    0    0  501  0.00000000000E+00  0.00000000000E+00  0.60690319111E+03  0.60690319113E+03  0.50400001928E-02 0. -1.
        1   -1    0    0  501    0  0.00000000000E+00  0.00000000000E+00 -0.22437788600E+04  0.22437788600E+04  0.50400001928E-02 0.  1.
    10030    2    1    2    0    0  0.00000000000E+00  0.00000000000E+00 -0.16368756689E+04  0.28506820511E+04  0.23338865014E+04 0.  0.
        2    1    3    3  502    0 -0.36344132234E+02  0.78077248884E+03 -0.18768135108E+04  0.20330655498E+04  0.25500000920E-02 0.  1.
       -2    1    3    3    0  502  0.36344132234E+02 -0.78077248884E+03  0.23993784194E+03  0.81761650135E+03  0.25500000920E-02 0. -1.
</event>
<event>
 5   0  0.2943244E-05  0.2044742E+04  0.7818609E-02  0.8585983E-01
       -1   -1    0    0    0  501  0.00000000000E+00  0.00000000000E+00  0.13635632984E+04  0.13635632984E+04  0.50400001928E-02 0.  1.
        1   -1    0    0  501    0  0.00000000000E+00  0.00000000000E+00 -0.76655210363E+03  0.76655210365E+03  0.50400001928E-02 0. -1.
    10030    2    1    2    0    0  0.00000000000E+00  0.00000000000E+00  0.59701119475E+03  0.21301154020E+04  0.20447418564E+04 0.  0.
        3    1    3    3  502    0 -0.25328565593E+03  0.35051721399E+03  0.12635906097E+04  0.13355437769E+04  0.10100000352E+00 0.  1.
       -3    1    3    3    0  502  0.25328565593E+03 -0.35051721399E+03 -0.66657941498E+03  0.79457162514E+03  0.10100000352E+00 0. -1.
</event>
<event>
 5   0  0.2943244E-05  0.2517031E+04  0.7818609E-02  0.8396943E-01
       -1   -1    0    0    0  501  0.00000000000E+00  0.00000000000E+00  0.13306220295E+04  0.13306220295E+04  0.50400001928E-02 0. -1.
        1   -1    0    0  501    0  0.00000000000E+00  0.00000000000E+00 -0.11903161357E+04  0.11903161358E+04  0.50400001928E-02 0.  1.
    10030    2    1    2    0    0  0.00000000000E+00  0.00000000000E+00  0.14030589378E+03  0.25209381653E+04  0.25170306890E+04 0.  0.
        3    1    3    3  502    0  0.52445505605E+03  0.11386080820E+04 -0.41282495371E+02  0.12542670070E+04  0.10100000352E+00 0.  1.
       -3    1    3    3    0  502 -0.52445505605E+03 -0.11386080820E+04  0.18158838916E+03  0.12666711583E+04  0.10100000352E+00 0. -1.
</event>
<event>
 5   0  0.2847158E-05  0.2399152E+04  0.7818609E-02  0.8439821E-01
       -1   -1    0    0    0  501  0.00000000000E+00  0.00000000000E+00  0.10951902034E+04  0.10951902034E+04  0.50400001928E-02 0.  1.
        1   -1    0    0  501    0  0.00000000000E+00  0.00000000000E+00 -0.13139115151E+04  0.13139115151E+04  0.50400001928E-02 0. -1.
    10030    2    1    2    0    0  0.00000000000E+00  0.00000000000E+00 -0.21872131171E+03  0.24091017186E+04  0.23991523666E+04 0.  0.
        5    1    3    3  502    0 -0.10305126277E+03 -0.51544919459E+03 -0.11920963590E+04  0.13028519694E+04  0.46999998093E+01 0. -1.
       -5    1    3    3    0  502  0.10305126277E+03  0.51544919459E+03  0.97337504727E+03  0.11062497492E+04  0.46999998093E+01 0.  1.
</event>
<event>
 5   0  0.2915546E-05  0.2313970E+04  0.7818609E-02  0.8472433E-01
       -1   -1    0    0    0  501  0.00000000000E+00  0.00000000000E+00  0.12776374958E+04  0.12776374958E+04  0.50400001928E-02 0.  1.
        1   -1    0    0  501    0  0.00000000000E+00  0.00000000000E+00 -0.10477265696E+04  0.10477265696E+04  0.50400001928E-02 0. -1.
    10030    2    1    2    0    0  0.00000000000E+00  0.00000000000E+00  0.22991092616E+03  0.23253640654E+04  0.23139703980E+04 0.  0.
        2    1    3    3  502    0  0.99201577966E+03  0.23425846602E+02  0.71283928087E+03  0.12217953666E+04  0.25500000920E-02 0.  1.
       -2    1    3    3    0  502 -0.99201577966E+03 -0.23425846602E+02 -0.48292835471E+03  0.11035686989E+04  0.25500000920E-02 0. -1.
</event>
<event>
 5   0  0.2339125E-05  0.2118774E+04  0.7818609E-02  0.8553018E-01
       -3   -1    0    0    0  501  0.00000000000E+00  0.00000000000E+00  0.74173980177E+03  0.74173980864E+03  0.10100000352E+00 0.  1.
        3   -1    0    0  501    0  0.00000000000E+00  0.00000000000E+00 -0.15130655481E+04  0.15130655515E+04  0.10100000352E+00 0. -1.
    10030    2    1    2    0    0  0.00000000000E+00  0.00000000000E+00 -0.77132574635E+03  0.22548053601E+04  0.21187741279E+04 0.  0.
        3    1    3    3  502    0 -0.87726789312E+03  0.75005701945E+02  0.24129270416E+03  0.91293317987E+03  0.10100000352E+00 0.  1.
       -3    1    3    3    0  502  0.87726789312E+03 -0.75005701945E+02 -0.10126184505E+04  0.13418721803E+04  0.10100000352E+00 0. -1.
</event>
<event>
 5   0  0.2915546E-05  0.2431804E+04  0.7818609E-02  0.8427692E-01
        1   -1    0    0  501    0  0.00000000000E+00  0.00000000000E+00  0.15714576045E+04  0.15714576045E+04  0.50400001928E-02 0. -1.
       -1   -1    0    0    0  501  0.00000000000E+00  0.00000000000E+00 -0.94079408221E+03  0.94079408222E+03  0.50400001928E-02 0.  1.
    10030    2    1    2    0    0  0.00000000000E+00  0.00000000000E+00  0.63066352232E+03  0.25122516867E+04  0.24318042806E+04 0.  0.
        2    1    3    3  502    0  0.30243815675E+03  0.91381848924E+03 -0.45213363220E+03  0.10634650400E+04  0.25500000920E-02 0.  1.
       -2    1    3    3    0  502 -0.30243815675E+03 -0.91381848924E+03  0.10827971545E+04  0.14487866467E+04  0.25500000920E-02 0. -1.
</event>
<event>
 5   0  0.6600166E-05  0.2391535E+04  0.7818609E-02  0.8442679E-01
        2   -1    0    0  501    0  0.00000000000E+00  0.00000000000E+00  0.18385774617E+04  0.18385774617E+04  0.25500000920E-02 0. -1.
       -2   -1    0    0    0  501  0.00000000000E+00  0.00000000000E+00 -0.77769910777E+03  0.77769910778E+03  0.25500000920E-02 0.  1.
    10030    2    1    2    0    0  0.00000000000E+00  0.00000000000E+00  0.10608783539E+04  0.26162765695E+04  0.23915351150E+04 0.  0.
        5    1    3    3  502    0  0.51960796065E+03 -0.34234492092E+03 -0.58661753663E+03  0.85518109306E+03  0.46999998093E+01 0.  1.
       -5    1    3    3    0  502 -0.51960796065E+03  0.34234492092E+03  0.16474958906E+04  0.17610954764E+04  0.46999998093E+01 0. -1.
</event>
<event>
 5   0  0.2943244E-05  0.2262507E+04  0.7818609E-02  0.8492852E-01
        1   -1    0    0  501    0  0.00000000000E+00  0.00000000000E+00  0.90474856275E+03  0.90474856276E+03  0.50400001928E-02 0. -1.
       -1   -1    0    0    0  501  0.00000000000E+00  0.00000000000E+00 -0.14144643925E+04  0.14144643925E+04  0.50400001928E-02 0.  1.
    10030    2    1    2    0    0  0.00000000000E+00  0.00000000000E+00 -0.50971582978E+03  0.23192129553E+04  0.22625071281E+04 0.  0.
        3    1    3    3  502    0 -0.69005396007E+03 -0.65139294314E+02  0.66159509657E+03  0.95818874836E+03  0.10100000352E+00 0. -1.
       -3    1    3    3    0  502  0.69005396007E+03  0.65139294314E+02 -0.11713109263E+04  0.13610242069E+04  0.10100000352E+00 0.  1.
</event>
<event>
 5   0  0.6600166E-05  0.2420000E+04  0.7818609E-02  0.8432054E-01
        2   -1    0    0  501    0  0.00000000000E+00  0.00000000000E+00  0.15737997502E+04  0.15737997502E+04  0.25500000920E-02 0. -1.
       -2   -1    0    0    0  501  0.00000000000E+00  0.00000000000E+00 -0.93029613974E+03  0.93029613974E+03  0.25500000920E-02 0.  1.
    10030    2    1    2    0    0  0.00000000000E+00  0.00000000000E+00  0.64350361048E+03  0.25040958900E+04  0.24199998614E+04 0.  0.
        5    1    3    3  502    0  0.28238525555E+03 -0.48752102286E+02  0.15381710398E+04  0.15646438693E+04  0.46999998093E+01 0. -1.
       -5    1    3    3    0  502 -0.28238525555E+03  0.48752102286E+02 -0.89466742932E+03  0.93945202066E+03  0.46999998093E+01 0.  1.
</event>
<event>
 5   0  0.2943244E-05  0.2388610E+04  0.7818609E-02  0.8443780E-01
        1   -1    0    0  501    0  0.00000000000E+00  0.00000000000E+00  0.16622797372E+04  0.16622797372E+04  0.50400001928E-02 0. -1.
       -1   -1    0    0    0  501  0.00000000000E+00  0.00000000000E+00 -0.85807713426E+03  0.85807713427E+03  0.50400001928E-02 0.  1.
    10030    2    1    2    0    0  0.00000000000E+00  0.00000000000E+00  0.80420260295E+03  0.25203568715E+04  0.23886098327E+04 0.  0.
        3    1    3    3  502    0 -0.31996625724E+03  0.33271560607E+03 -0.76014572114E+03  0.88932536671E+03  0.10100000352E+00 0.  1.
       -3    1    3    3    0  502  0.31996625724E+03 -0.33271560607E+03  0.15643483241E+04  0.16310315048E+04  0.10100000352E+00 0. -1.
</event>
<event>
 5   0  0.6978115E-05  0.2404847E+04  0.7818609E-02  0.8437691E-01
        2   -1    0    0  501    0  0.00000000000E+00  0.00000000000E+00  0.19371072296E+04  0.19371072296E+04  0.25500000920E-02 0.  1.
       -2   -1    0    0    0  501  0.00000000000E+00  0.00000000000E+00 -0.74638194162E+03  0.74638194163E+03  0.25500000920E-02 0. -1.
    10030    2    1    2    0    0  0.00000000000E+00  0.00000000000E+00  0.11907252879E+04  0.26834891712E+04  0.24048466522E+04 0.  0.
        4    1    3    3  502    0 -0.83726010071E+02  0.12148158940E+03  0.19269677354E+04  0.19326081050E+04  0.12699999809E+01 0.  1.
       -4    1    3    3    0  502  0.83726010071E+02 -0.12148158940E+03 -0.73624244743E+03  0.75088106623E+03  0.12699999809E+01 0. -1.
</event>
<event>
 5   0  0.2901816E-05  0.2389207E+04  0.7818609E-02  0.8443555E-01
        1   -1    0    0  501    0  0.00000000000E+00  0.00000000000E+00  0.16000761658E+04  0.16000761658E+04  0.50400001928E-02 0. -1.
       -1   -1    0    0    0  501  0.00000000000E+00  0.00000000000E+00 -0.89188127435E+03  0.89188127437E+03  0.50400001928E-02 0.  1.
    10030    2    1    2    0    0  0.00000000000E+00  0.00000000000E+00  0.70819489142E+03  0.24919574401E+04  0.23892073747E+04 0.  0.
        4    1    3    3  502    0 -0.70497446847E+03 -0.74744624790E+03 -0.28154724730E+03  0.10653334502E+04  0.12699999809E+01 0.  1.
       -4    1    3    3    0  502  0.70497446847E+03  0.74744624790E+03  0.98974213872E+03  0.14266239900E+04  0.12699999809E+01 0. -1.
</event>
<event>
 5   0  0.6978115E-05  0.2394558E+04  0.7818609E-02  0.8441544E-01
        2   -1    0    0  501    0  0.00000000000E+00  0.00000000000E+00  0.27461955211E+04  0.27461955211E+04  0.25500000920E-02 0. -1.
       -2   -1    0    0    0  501  0.00000000000E+00  0.00000000000E+00 -0.52198656269E+03  0.52198656270E+03  0.25500000920E-02 0.  1.
    10030    2    1    2    0    0  0.00000000000E+00  0.00000000000E+00  0.22242089584E+04  0.32681820838E+04  0.23945581309E+04 0.  0.
        4    1    3    3  502    0 -0.25076196462E+03 -0.58150909066E+03 -0.27469450804E+03  0.69028477534E+03  0.12699999809E+01 0.  1.
       -4    1    3    3    0  502  0.25076196462E+03  0.58150909066E+03  0.24989034664E+04  0.25778973084E+04  0.12699999809E+01 0. -1.
</event>
<event>
 5   0  0.6703961E-05  0.2399069E+04  0.7818609E-02  0.8439852E-01
       -2   -1    0    0    0  501  0.00000000000E+00  0.00000000000E+00  0.12351883169E+04  0.12351883169E+04  0.25500000920E-02 0. -1.
        2   -1    0    0  501    0  0.00000000000E+00  0.00000000000E+00 -0.11649094348E+04  0.11649094348E+04  0.25500000920E-02 0.  1.
    10030    2    1    2    0    0  0.00000000000E+00  0.00000000000E+00  0.70278882128E+02  0.24000977517E+04  0.23990685894E+04 0.  0.
        2    1    3    3  502    0  0.69073140724E+03  0.97924091348E+03  0.88640233222E+02  0.12016154687E+04  0.25500000920E-02 0. -1.
       -2    1    3    3    0  502 -0.69073140724E+03 -0.97924091348E+03 -0.18361351094E+02  0.11984822831E+04  0.25500000920E-02 0.  1.
</event>
<event>
 5   0  0.2943123E-05  0.2311874E+04  0.7818609E-02  0.8473254E-01
        1   -1    0    0  501    0  0.00000000000E+00  0.00000000000E+00  0.10316929030E+04  0.10316929030E+04  0.50400001928E-02 0. -1.
       -1   -1    0    0    0  501  0.00000000000E+00  0.00000000000E+00 -0.12951430166E+04  0.12951430166E+04  0.50400001928E-02 0.  1.
    10030    2    1    2    0    0  0.00000000000E+00  0.00000000000E+00 -0.26345011356E+03  0.23268359196E+04  0.23118735766E+04 0.  0.
        1    1    3    3  502    0  0.67900660166E+03 -0.23665190647E+03 -0.10426437687E+04  0.12665544277E+04  0.50400001928E-02 0.  1.
       -1    1    3    3    0  502 -0.67900660166E+03  0.23665190647E+03  0.77919365510E+03  0.10602814919E+04  0.50400001928E-02 0. -1.
</event>
<event>
 5   0  0.2339125E-05  0.2453008E+04  0.7818609E-02  0.8419921E-01
       -3   -1    0    0    0  501  0.00000000000E+00  0.00000000000E+00  0.90069079696E+03  0.90069080263E+03  0.10100000352E+00 0. -1.
        3   -1    0    0  501    0  0.00000000000E+00  0.00000000000E+00 -0.16701760370E+04  0.16701760401E+04  0.10100000352E+00 0.  1.
    10030    2    1    2    0    0  0.00000000000E+00  0.00000000000E+00 -0.76948524008E+03  0.25708668427E+04  0.24530081101E+04 0.  0.
        4    1    3    3  502    0  0.57814944884E+03 -0.46241176438E+03 -0.14095956524E+04  0.15921818179E+04  0.12699999809E+01 0.  1.
       -4    1    3    3    0  502 -0.57814944884E+03  0.46241176438E+03  0.64011041231E+03  0.97868502486E+03  0.12699999809E+01 0. -1.
</event>
<event>
 5   0  0.2943123E-05  0.2478232E+04  0.7818609E-02  0.8410782E-01
        1   -1    0    0  501    0  0.00000000000E+00  0.00000000000E+00  0.11469892689E+04  0.11469892689E+04  0.50400001928E-02 0.  1.
       -1   -1    0    0    0  501  0.00000000000E+00  0.00000000000E+00 -0.13386425975E+04  0.13386425975E+04  0.50400001928E-02 0. -1.
    10030    2    1    2    0    0  0.00000000000E+00  0.00000000000E+00 -0.19165332857E+03  0.24856318664E+04  0.24782321878E+04 0.  0.
        1    1    3    3  502    0 -0.47228392000E+03  0.40736037034E+03  0.97807762802E+03  0.11600131115E+04  0.50400001928E-02 0.  1.
       -1    1    3    3    0  502  0.47228392000E+03 -0.40736037034E+03 -0.11697309566E+04  0.13256187549E+04  0.50400001928E-02 0. -1.
</event>
<event>
 5   0  0.6600166E-05  0.2436143E+04  0.7818609E-02  0.8426095E-01
        2   -1    0    0  501    0  0.00000000000E+00  0.00000000000E+00  0.12718797601E+04  0.12718797601E+04  0.25500000920E-02 0. -1.
       -2   -1    0    0    0  501  0.00000000000E+00  0.00000000000E+00 -0.11665400915E+04  0.11665400915E+04  0.25500000920E-02 0.  1.
    10030    2    1    2    0    0  0.00000000000E+00  0.00000000000E+00  0.10533966858E+03  0.24384198515E+04  0.24361434536E+04 0.  0.
        5    1    3    3  502    0 -0.11363318559E+04 -0.30240294706E+03 -0.26539905092E+03  0.12054693589E+04  0.46999998093E+01 0. -1.
       -5    1    3    3    0  502  0.11363318559E+04  0.30240294706E+03  0.37073871950E+03  0.12329504926E+04  0.46999998093E+01 0.  1.
</event>
<event>
 5   0  0.6714629E-05  0.2414037E+04  0.7818609E-02  0.8434267E-01
       -2   -1    0    0    0  501  0.00000000000E+00  0.00000000000E+00  0.98523180903E+03  0.98523180903E+03  0.25500000920E-02 0.  1.
        2   -1    0    0  501    0  0.00000000000E+00  0.00000000000E+00 -0.14787324233E+04  0.14787324233E+04  0.25500000920E-02 0. -1.
    10030    2    1    2    0    0  0.00000000000E+00  0.00000000000E+00 -0.49350061430E+03  0.24639642324E+04  0.24140374649E+04 0.  0.
        3    1    3    3  502    0 -0.84612565479E+03 -0.80239889981E+03  0.71338428656E+02  0.11682729988E+04  0.10100000352E+00 0.  1.
       -3    1    3    3    0  502  0.84612565479E+03  0.80239889981E+03 -0.56483904296E+03  0.12956912336E+04  0.10100000352E+00 0. -1.
</event>
<event>
 5   0  0.6714629E-05  0.2369731E+04  0.7818609E-02  0.8450924E-01
        2   -1    0    0  501    0  0.00000000000E+00  0.00000000000E+00  0.26261524726E+04  0.26261524726E+04  0.25500000920E-02 0. -1.
       -2   -1    0    0    0  501  0.00000000000E+00  0.00000000000E+00 -0.53458654197E+03  0.53458654197E+03  0.25500000920E-02 0.  1.
    10030    2    1    2    0    0  0.00000000000E+00  0.00000000000E+00  0.20915659306E+04  0.31607390146E+04  0.23697305915E+04 0.  0.
        3    1    3    3  502    0 -0.38636410400E+03 -0.48682297681E+03  0.23912870614E+04  0.24707342334E+04  0.10100000352E+00 0. -1.
       -3    1    3    3    0  502  0.38636410400E+03  0.48682297681E+03 -0.29972113081E+03  0.69000478119E+03  0.10100000352E+00 0.  1.
</event>
<event>
 5   0  0.2915546E-05  0.2382580E+04  0.7818609E-02  0.8446054E-01
        1   -1    0    0  501    0  0.00000000000E+00  0.00000000000E+00  0.14525463441E+04  0.14525463441E+04  0.50400001928E-02 0. -1.
       -1   -1    0    0    0  501  0.00000000000E+00  0.00000000000E+00 -0.97702356225E+03  0.97702356226E+03  0.50400001928E-02 0.  1.
    10030    2    1    2    0    0  0.00000000000E+00  0.00000000000E+00  0.47552278189E+03  0.24295699064E+04  0.23825801170E+04 0.  0.
        2    1    3    3  502    0  0.96161707118E+03 -0.35003561002E+03  0.85965793736E+03  0.13365044292E+04  0.25500000920E-02 0. -1.
       -2    1    3    3    0  502 -0.96161707118E+03  0.35003561002E+03 -0.38413515548E+03  0.10930654772E+04  0.25500000920E-02 0.  1.
</event>
<event>
 5   0  0.6978115E-05  0.2398596E+04  0.7818609E-02  0.8440029E-01
       -2   -1    0    0    0  501  0.00000000000E+00  0.00000000000E+00  0.10179469950E+04  0.10179469950E+04  0.25500000920E-02 0.  1.
        2   -1    0    0  501    0  0.00000000000E+00  0.00000000000E+00 -0.14129577662E+04  0.14129577662E+04  0.25500000920E-02 0. -1.
    10030    2    1    2    0    0  0.00000000000E+00  0.00000000000E+00 -0.39501077123E+03  0.24309047612E+04  0.23985963496E+04 0.  0.
        4    1    3    3  502    0 -0.84980461412E+03 -0.78833470098E+03  0.11433220770E+03  0.11647802151E+04  0.12699999809E+01 0.  1.
       -4    1    3    3    0  502  0.84980461412E+03  0.78833470098E+03 -0.50934297893E+03  0.12661245460E+04  0.12699999809E+01 0. -1.
</event>
<event>
 5   0  0.2943123E-05  0.2194364E+04  0.7818609E-02  0.8520778E-01
        1   -1    0    0  501    0  0.00000000000E+00  0.00000000000E+00  0.71899017472E+03  0.71899017474E+03  0.50400001928E-02 0. -1.
       -1   -1    0    0    0  501  0.00000000000E+00  0.00000000000E+00 -0.16743039336E+04  0.16743039336E+04  0.50400001928E-02 0.  1.
    10030    2    1    2    0    0  0.00000000000E+00  0.00000000000E+00 -0.95531375888E+03  0.23932941083E+04  0.21943637600E+04 0.  0.
        1    1    3    3  502    0  0.92365607621E+03 -0.31124306324E+03  0.71794445844E+02  0.97732657490E+03  0.50400001928E-02 0. -1.
       -1    1    3    3    0  502 -0.92365607621E+03  0.31124306324E+03 -0.10271082047E+04  0.14159675334E+04  0.50400001928E-02 0.  1.
</event>
<event>
 5   0  0.6714629E-05  0.2414770E+04  0.7818609E-02  0.8433994E-01
       -2   -1    0    0    0  501  0.00000000000E+00  0.00000000000E+00  0.62864876922E+03  0.62864876922E+03  0.25500000920E-02 0. -1.
        2   -1    0    0  501    0  0.00000000000E+00  0.00000000000E+00 -0.23189080791E+04  0.23189080791E+04  0.25500000920E-02 0.  1.
    10030    2    1    2    0    0  0.00000000000E+00  0.00000000000E+00 -0.16902593099E+04  0.29475568484E+04  0.24147701422E+04 0.  0.
        3    1    3    3  502    0 -0.11706171999E+04  0.13757217772E+03 -0.11646194069E+04  0.16569879619E+04  0.10100000352E+00 0.  1.
       -3    1    3    3    0  502  0.11706171999E+04 -0.13757217772E+03 -0.52563990299E+03  0.12905688864E+04  0.10100000352E+00 0. -1.
</event>
<event>
 5   0  0.2943123E-05  0.2403483E+04  0.7818609E-02  0.8438201E-01
       -1   -1    0    0    0  501  0.00000000000E+00  0.00000000000E+00  0.18843758413E+04  0.18843758413E+04  0.50400001928E-02 0.  1.
        1   -1    0    0  501    0  0.00000000000E+00  0.00000000000E+00 -0.76639842529E+03  0.76639842530E+03  0.50400001928E-02 0. -1.
    10030    2    1    2    0    0  0.00000000000E+00  0.00000000000E+00  0.11179774160E+04  0.26507742666E+04  0.24034830372E+04 0.  0.
        1    1    3    3  502    0 -0.13135730726E+03  0.18709916837E+03 -0.74219647298E+03  0.77660572075E+03  0.50400001928E-02 0. -1.
       -1    1    3    3    0  502  0.13135730726E+03 -0.18709916837E+03  0.18601738890E+04  0.18741685459E+04  0.50400001928E-02 0.  1.
</event>
<event>
 5   0  0.6600166E-05  0.1690386E+04  0.7818609E-02  0.8766867E-01
       -2   -1    0    0    0  501  0.00000000000E+00  0.00000000000E+00  0.64360048969E+03  0.64360048970E+03  0.25500000920E-02 0.  1.
        2   -1    0    0  501    0  0.00000000000E+00  0.00000000000E+00 -0.11099291649E+04  0.11099291649E+04  0.25500000920E-02 0. -1.
    10030    2    1    2    0    0  0.00000000000E+00  0.00000000000E+00 -0.46632867522E+03  0.17535296546E+04  0.16903857004E+04 0.  0.
        5    1    3    3  502    0 -0.28716099002E+03 -0.29372197793E+03  0.53307144191E+03  0.67299426943E+03  0.46999998093E+01 0.  1.
       -5    1    3    3    0  502  0.28716099002E+03  0.29372197793E+03 -0.99940011713E+03  0.10805353852E+04  0.46999998093E+01 0. -1.
</event>
<event>
 5   0  0.2339125E-05  0.2304548E+04  0.7818609E-02  0.8476130E-01
       -3   -1    0    0    0  501  0.00000000000E+00  0.00000000000E+00  0.11838886166E+04  0.11838886209E+04  0.10100000352E+00 0.  1.
        3   -1    0    0  501    0  0.00000000000E+00  0.00000000000E+00 -0.11215032706E+04  0.11215032751E+04  0.10100000352E+00 0. -1.
    10030    2    1    2    0    0  0.00000000000E+00  0.00000000000E+00  0.62385346027E+02  0.23053918961E+04  0.23045476482E+04 0.  0.
        4    1    3    3  502    0 -0.88220255466E+03 -0.17980857258E+02 -0.71011097826E+03  0.11326358078E+04  0.12699999809E+01 0. -1.
       -4    1    3    3    0  502  0.88220255466E+03  0.17980857258E+02  0.77249632429E+03  0.11727560883E+04  0.12699999809E+01 0.  1.
</event>
<event>
 5   0  0.2901816E-05  0.2461977E+04  0.7818609E-02  0.8416658E-01
       -1   -1    0    0    0  501  0.00000000000E+00  0.00000000000E+00  0.53165287212E+03  0.53165287214E+03  0.50400001928E-02 0. -1.
        1   -1    0    0  501    0  0.00000000000E+00  0.00000000000E+00 -0.28502300847E+04  0.28502300847E+04  0.50400001928E-02 0.  1.
    10030    2    1    2    0    0  0.00000000000E+00  0.00000000000E+00 -0.23185772126E+04  0.33818829568E+04  0.24619772629E+04 0.  0.
        4    1    3    3  502    0  0.33207574886E+03  0.98199091449E+03 -0.24733833202E+03  0.10657196266E+04  0.12699999809E+01 0. -1.
       -4    1    3    3    0  502 -0.33207574886E+03 -0.98199091449E+03 -0.20712388805E+04  0.23161633302E+04  0.12699999809E+01 0.  1.
</event>
<event>
 5   0  0.6703961E-05  0.2428034E+04  0.7818609E-02  0.8429082E-01
        2   -1    0    0  501    0  0.00000000000E+00  0.00000000000E+00  0.18713199435E+04  0.18713199435E+04  0.25500000920E-02 0. -1.
       -2   -1    0    0    0  501  0.00000000000E+00  0.00000000000E+00 -0.78759216001E+03  0.78759216002E+03  0.25500000920E-02 0.  1.
    10030    2    1    2    0    0  0.00000000000E+00  0.00000000000E+00  0.10837277835E+04  0.26589121036E+04  0.24280337036E+04 0.  0.
        2    1    3    3  502    0 -0.54794320136E+03  0.34168010078E+03  0.16676500896E+04  0.17883075419E+04  0.25500000920E-02 0. -1.
       -2    1    3    3    0  502  0.54794320136E+03 -0.34168010078E+03 -0.58392230608E+03  0.87060456162E+03  0.25500000920E-02 0.  1.
</event>
<event>
 5   0  0.6714629E-05  0.2439903E+04  0.7818609E-02  0.8424714E-01
        2   -1    0    0  501    0  0.00000000000E+00  0.00000000000E+00  0.16000025559E+04  0.16000025559E+04  0.25500000920E-02 0.  1.
       -2   -1    0    0    0  501  0.00000000000E+00  0.00000000000E+00 -0.93017460412E+03  0.93017460412E+03  0.25500000920E-02 0. -1.
    10030    2    1    2    0    0  0.00000000000E+00  0.00000000000E+00  0.66982795180E+03  0.25301771600E+04  0.24399030670E+04 0.  0.
        3    1    3    3  502    0  0.65602093442E+03 -0.26678788618E+03 -0.69518812574E+03  0.99238388891E+03  0.10100000352E+00 0. -1.
       -3    1    3    3    0  502 -0.65602093442E+03  0.26678788618E+03  0.13650160775E+04  0.15377932711E+04  0.10100000352E+00 0.  1.
</event>
<event>
 5   0  0.2847158E-05  0.2387360E+04  0.7818609E-02  0.8444251E-01
        1   -1    0    0  501    0  0.00000000000E+00  0.00000000000E+00  0.22905759213E+04  0.22905759214E+04  0.50400001928E-02 0. -1.
       -1   -1    0    0    0  501  0.00000000000E+00  0.00000000000E+00 -0.62205840452E+03  0.62205840454E+03  0.50400001928E-02 0.  1.
    10030    2    1    2    0    0  0.00000000000E+00  0.00000000000E+00  0.16685175168E+04  0.29126343259E+04  0.23873600509E+04 0.  0.
        5    1    3    3  502    0 -0.45489073085E+03  0.17073305672E+03 -0.49594384147E+03  0.69430377902E+03  0.46999998093E+01 0.  1.
       -5    1    3    3    0  502  0.45489073085E+03 -0.17073305672E+03  0.21644613583E+04  0.22183305469E+04  0.46999998093E+01 0. -1.
</event>
<event>
 5   0  0.6600166E-05  0.2417648E+04  0.7818609E-02  0.8432926E-01
        2   -1    0    0  501    0  0.00000000000E+00  0.00000000000E+00  0.11084419836E+04  0.11084419836E+04  0.25500000920E-02 0.  1.
       -2   -1    0    0    0  501  0.00000000000E+00  0.00000000000E+00 -0.13182968315E+04  0.13182968315E+04  0.25500000920E-02 0. -1.
    10030    2    1    2    0    0  0.00000000000E+00  0.00000000000E+00 -0.20985484791E+03  0.24267388151E+04  0.24176480761E+04 0.  0.
        5    1    3    3  502    0  0.16448252498E+03  0.11944235412E+04 -0.17817649084E+02  0.12058364961E+04  0.46999998093E+01 0.  1.
       -5    1    3    3    0  502 -0.16448252498E+03 -0.11944235412E+04 -0.19203719882E+03  0.12209023190E+04  0.46999998093E+01 0. -1.
</event>
<event>
 5   0  0.6978115E-05  0.2382594E+04  0.7818609E-02  0.8446049E-01
        2   -1    0    0  501    0  0.00000000000E+00  0.00000000000E+00  0.11560780737E+04  0.11560780737E+04  0.25500000920E-02 0. -1.
       -2   -1    0    0    0  501  0.00000000000E+00  0.00000000000E+00 -0.12275887073E+04  0.12275887073E+04  0.25500000920E-02 0.  1.
    10030    2    1    2    0    0  0.00000000000E+00  0.00000000000E+00 -0.71510633560E+02  0.23836667811E+04  0.23825938706E+04 0.  0.
        4    1    3    3  502    0  0.76822156140E+03 -0.66371587307E+03 -0.65933660424E+03  0.12105409940E+04  0.12699999809E+01 0.  1.
       -4    1    3    3    0  502 -0.76822156140E+03  0.66371587307E+03  0.58782597068E+03  0.11731257871E+04  0.12699999809E+01 0. -1.
</event>
<event>
 5   0  0.6703961E-05  0.1575743E+04  0.7818609E-02  0.8835590E-01
       -2   -1    0    0    0  501  0.00000000000E+00  0.00000000000E+00  0.72976538785E+03  0.72976538785E+03  0.25500000920E-02 0. -1.
        2   -1    0    0  501    0  0.00000000000E+00  0.00000000000E+00 -0.85060426334E+03  0.85060426334E+03  0.25500000920E-02 0.  1.
    10030    2    1    2    0    0  0.00000000000E+00  0.00000000000E+00 -0.12083887549E+03  0.15803696512E+04  0.15757430630E+04 0.  0.
        2    1    3    3  502    0 -0.45584493406E+03  0.96197331941E+02 -0.69765337516E+03  0.83890926950E+03  0.25500000920E-02 0.  1.
       -2    1    3    3    0  502  0.45584493406E+03 -0.96197331941E+02  0.57681449967E+03  0.74146038169E+03  0.25500000920E-02 0. -1.
</event>
<event>
 5   0  0.2915546E-05  0.2301844E+04  0.7818609E-02  0.8477195E-01
       -1   -1    0    0    0  501  0.00000000000E+00  0.00000000000E+00  0.82157809768E+03  0.82157809769E+03  0.50400001928E-02 0.  1.
        1   -1    0    0  501    0  0.00000000000E+00  0.00000000000E+00 -0.16122887964E+04  0.16122887964E+04  0.50400001928E-02 0. -1.
    10030    2    1    2    0    0  0.00000000000E+00  0.00000000000E+00 -0.79071069876E+03  0.24338668941E+04  0.23018437500E+04 0.  0.
        2    1    3    3  502    0  0.48945801287E+03  0.60397632973E+03  0.50200529985E+03  0.92540038595E+03  0.25500000920E-02 0.  1.
       -2    1    3    3    0  502 -0.48945801287E+03 -0.60397632973E+03 -0.12927159986E+04  0.15084665082E+04  0.25500000920E-02 0. -1.
</event>
<event>
 5   0  0.6703961E-05  0.2388947E+04  0.7818609E-02  0.8443653E-01
        2   -1    0    0  501    0  0.00000000000E+00  0.00000000000E+00  0.12488292554E+04  0.12488292554E+04  0.25500000920E-02 0. -1.
       -2   -1    0    0    0  501  0.00000000000E+00  0.00000000000E+00 -0.11424831981E+04  0.11424831981E+04  0.25500000920E-02 0.  1.
    10030    2    1    2    0    0  0.00000000000E+00  0.00000000000E+00  0.10634605728E+03  0.23913124534E+04  0.23889465808E+04 0.  0.
        2    1    3    3  502    0  0.59233085239E+03 -0.73207915841E+03 -0.68238169323E+03  0.11629447571E+04  0.25500000920E-02 0.  1.
       -2    1    3    3    0  502 -0.59233085239E+03  0.73207915841E+03  0.78872775051E+03  0.12283676963E+04  0.25500000920E-02 0. -1.
</event>
<event>
 5   0  0.6600166E-05  0.2350337E+04  0.7818609E-02  0.8458334E-01
       -2   -1    0    0    0  501  0.00000000000E+00  0.00000000000E+00  0.17347557390E+04  0.17347557390E+04  0.25500000920E-02 0. -1.
        2   -1    0    0  501    0  0.00000000000E+00  0.00000000000E+00 -0.79608940794E+03  0.79608940794E+03  0.25500000920E-02 0.  1.
    10030    2    1    2    0    0  0.00000000000E+00  0.00000000000E+00  0.93866633107E+03  0.25308451469E+04  0.23503367156E+04 0.  0.
        5    1    3    3  502    0 -0.47841437729E+03  0.47859534828E+03 -0.56521704317E+03  0.88171776645E+03  0.46999998093E+01 0.  1.
       -5    1    3    3    0  502  0.47841437729E+03 -0.47859534828E+03  0.15038833742E+04  0.16491273805E+04  0.46999998093E+01 0. -1.
</event>
<event>
 5   0  0.6978115E-05  0.2371010E+04  0.7818609E-02  0.8450437E-01
        2   -1    0    0  501    0  0.00000000000E+00  0.00000000000E+00  0.15396888396E+04  0.15396888396E+04  0.25500000920E-02 0. -1.
       -2   -1    0    0    0  501  0.00000000000E+00  0.00000000000E+00 -0.91279646437E+03  0.91279646438E+03  0.25500000920E-02 0.  1.
    10030    2    1    2    0    0  0.00000000000E+00  0.00000000000E+00  0.62689237527E+03  0.24524853040E+04  0.23710103577E+04 0.  0.
        4    1    3    3  502    0  0.21993369292E+03  0.10218730818E+04  0.89197371779E+03  0.13741230478E+04  0.12699999809E+01 0. -1.
       -4    1    3    3    0  502 -0.21993369292E+03 -0.10218730818E+04 -0.26508134251E+03  0.10783622562E+04  0.12699999809E+01 0.  1.
</event>
<event>
 5   0  0.6703961E-05  0.2011454E+04  0.7818609E-02  0.8601284E-01
        2   -1    0    0  501    0  0.00000000000E+00  0.00000000000E+00  0.92333759793E+03  0.92333759793E+03  0.25500000920E-02 0.  1.
       -2   -1    0    0    0  501  0.00000000000E+00  0.00000000000E+00 -0.10954676870E+04  0.10954676870E+04  0.25500000920E-02 0. -1.
    10030    2    1    2    0    0  0.00000000000E+00  0.00000000000E+00 -0.17213008908E+03  0.20188052849E+04  0.20114537059E+04 0.  0.
        2    1    3    3  502    0  0.36475472650E+03  0.31812120992E+03 -0.97089902368E+03  0.10848465462E+04  0.25500000920E-02 0. -1.
       -2    1    3    3    0  502 -0.36475472650E+03 -0.31812120992E+03  0.79876893460E+03  0.93395873870E+03  0.25500000920E-02 0.  1.
</event>
<event>
 5   0  0.6600166E-05  0.2439402E+04  0.7818609E-02  0.8424898E-01
        2   -1    0    0  501    0  0.00000000000E+00  0.00000000000E+00  0.13431182348E+04  0.13431182348E+04  0.25500000920E-02 0. -1.
       -2   -1    0    0    0  501  0.00000000000E+00  0.00000000000E+00 -0.11076242725E+04  0.11076242725E+04  0.25500000920E-02 0.  1.
    10030    2    1    2    0    0  0.00000000000E+00  0.00000000000E+00  0.23549396230E+03  0.24507425073E+04  0.24394018592E+04 0.  0.
        5    1    3    3  502    0  0.38878253425E+03  0.27328892683E+03 -0.10107781679E+04  0.11169302982E+04  0.46999998093E+01 0.  1.
       -5    1    3    3    0  502 -0.38878253425E+03 -0.27328892683E+03  0.12462721302E+04  0.13338122090E+04  0.46999998093E+01 0. -1.
</event>
<event>
 5   0  0.2943123E-05  0.2317226E+04  0.7818609E-02  0.8471160E-01
        1   -1    0    0  501    0  0.00000000000E+00  0.00000000000E+00  0.26376570867E+04  0.26376570867E+04  0.50400001928E-02 0.  1.
       -1   -1    0    0    0  501  0.00000000000E+00  0.00000000000E+00 -0.50893056688E+03  0.50893056691E+03  0.50400001928E-02 0. -1.
    10030    2    1    2    0    0  0.00000000000E+00  0.00000000000E+00  0.21287265198E+04  0.31465876536E+04  0.23172262008E+04 0.  0.
        1    1    3    3  502    0 -0.75578427922E+03 -0.30142461269E+03  0.21843871097E+04  0.23310113082E+04  0.50400001928E-02 0.  1.
       -1    1    3    3    0  502  0.75578427922E+03  0.30142461269E+03 -0.55660589923E+02  0.81557634538E+03  0.50400001928E-02 0. -1.
</event>
<event>
 5   0  0.6714629E-05  0.2343074E+04  0.7818609E-02  0.8461129E-01
       -2   -1    0    0    0  501  0.00000000000E+00  0.00000000000E+00  0.75896225462E+03  0.75896225462E+03  0.25500000920E-02 0.  1.
        2   -1    0    0  501    0  0.00000000000E+00  0.00000000000E+00 -0.18083887885E+04  0.18083887885E+04  0.25500000920E-02 0. -1.
    10030    2    1    2    0    0  0.00000000000E+00  0.00000000000E+00 -0.10494265339E+04  0.25673510431E+04  0.23430739059E+04 0.  0.
        3    1    3    3  502    0  0.16792421217E+03  0.75559667992E+03  0.43888061588E+03  0.88979834172E+03  0.10100000352E+00 0.  1.
       -3    1    3    3    0  502 -0.16792421217E+03 -0.75559667992E+03 -0.14883071497E+04  0.16775527014E+04  0.10100000352E+00 0. -1.
</event>
<event>
 5   0  0.2943123E-05  0.2874890E+04  0.7818609E-02  0.8280388E-01
       -1   -1    0    0    0  501  0.00000000000E+00  0.00000000000E+00  0.14424888161E+04  0.14424888161E+04  0.50400001928E-02 0. -1.
        1   -1    0    0  501    0  0.00000000000E+00  0.00000000000E+00 -0.14324188590E+04  0.14324188591E+04  0.50400001928E-02 0.  1.
    10030    2    1    2    0    0  0.00000000000E+00  0.00000000000E+00  0.10069957063E+02  0.28749076752E+04  0.28748900391E+04 0.  0.
        1    1    3    3  502    0  0.79117061749E+03 -0.94091520282E+02  0.12014720168E+04  0.14416446051E+04  0.50400001928E-02 0. -1.
       -1    1    3    3    0  502 -0.79117061749E+03  0.94091520282E+02 -0.11914020597E+04  0.14332630701E+04  0.50400001928E-02 0.  1.
</event>
<event>
 5   0  0.6703961E-05  0.2533822E+04  0.7818609E-02  0.8391034E-01
       -2   -1    0    0    0  501  0.00000000000E+00  0.00000000000E+00  0.13949507679E+04  0.13949507679E+04  0.25500000920E-02 0. -1.
        2   -1    0    0  501    0  0.00000000000E+00  0.00000000000E+00 -0.11506237493E+04  0.11506237493E+04  0.25500000920E-02 0.  1.
    10030    2    1    2    0    0  0.00000000000E+00  0.00000000000E+00  0.24432701858E+03  0.25455745172E+04  0.25338220005E+04 0.  0.
        2    1    3    3  502    0  0.15061462982E+03  0.83152863523E+03  0.10704371079E+04  0.13638035928E+04  0.25500000920E-02 0. -1.
       -2    1    3    3    0  502 -0.15061462982E+03 -0.83152863523E+03 -0.82611008929E+03  0.11817709243E+04  0.25500000920E-02 0.  1.
</event>
<event>
 5   0  0.6600166E-05  0.2137129E+04  0.7818609E-02  0.8545062E-01
       -2   -1    0    0    0  501  0.00000000000E+00  0.00000000000E+00  0.72378213522E+03  0.72378213522E+03  0.25500000920E-02 0.  1.
        2   -1    0    0  501    0  0.00000000000E+00  0.00000000000E+00 -0.15775876203E+04  0.15775876203E+04  0.25500000920E-02 0. -1.
    10030    2    1    2    0    0  0.00000000000E+00  0.00000000000E+00 -0.85380548513E+03  0.23013697556E+04  0.21371286684E+04 0.  0.
        5    1    3    3  502    0 -0.43060782870E+03 -0.97794479677E+03 -0.42375976035E+03  0.11495188351E+04  0.46999998093E+01 0. -1.
       -5    1    3    3    0  502  0.43060782870E+03  0.97794479677E+03 -0.43004572478E+03  0.11518509205E+04  0.46999998093E+01 0.  1.
</event>
<event>
 5   0  0.2943123E-05  0.2386266E+04  0.7818609E-02  0.8444663E-01
       -1   -1    0    0    0  501  0.00000000000E+00  0.00000000000E+00  0.17753843617E+04  0.17753843617E+04  0.50400001928E-02 0.  1.
        1   -1    0    0  501    0  0.00000000000E+00  0.00000000000E+00 -0.80183541972E+03  0.80183541974E+03  0.50400001928E-02 0. -1.
    10030    2    1    2    0    0  0.00000000000E+00  0.00000000000E+00  0.97354894196E+03  0.25772197814E+04  0.23862657562E+04 0.  0.
        1    1    3    3  502    0 -0.78441718023E+03  0.87337101147E+03  0.71709745665E+03  0.13756147712E+04  0.50400001928E-02 0.  1.
       -1    1    3    3    0  502  0.78441718023E+03 -0.87337101147E+03  0.25645148531E+03  0.12016050103E+04  0.50400001928E-02 0. -1.
</event>
<event>
 5   0  0.2901816E-05  0.2498678E+04  0.7818609E-02  0.8403457E-01
        1   -1    0    0  501    0  0.00000000000E+00  0.00000000000E+00  0.19837372889E+04  0.19837372889E+04  0.50400001928E-02 0.  1.
       -1   -1    0    0    0  501  0.00000000000E+00  0.00000000000E+00 -0.78682161036E+03  0.78682161037E+03  0.50400001928E-02 0. -1.
    10030    2    1    2    0    0  0.00000000000E+00  0.00000000000E+00  0.11969156785E+04  0.27705588992E+04  0.24986775448E+04 0.  0.
        4    1    3    3  502    0 -0.62531341802E+03  0.17211135859E+03  0.17824503136E+04  0.18967788284E+04  0.12699999809E+01 0.  1.
       -4    1    3    3    0  502  0.62531341802E+03 -0.17211135859E+03 -0.58553463506E+03  0.87378007088E+03  0.12699999809E+01 0. -1.
</event>
<event>
 5   0  0.2943244E-05  0.2505189E+04  0.7818609E-02  0.8401139E-01
        1   -1    0    0  501    0  0.00000000000E+00  0.00000000000E+00  0.12034372007E+04  0.12034372007E+04  0.50400001928E-02 0.  1.
       -1   -1    0    0    0  501  0.00000000000E+00  0.00000000000E+00 -0.13037598723E+04  0.13037598723E+04  0.50400001928E-02 0. -1.
    10030    2    1    2    0    0  0.00000000000E+00  0.00000000000E+00 -0.10032267160E+03  0.25071970730E+04  0.25051891195E+04 0.  0.
        3    1    3    3  502    0 -0.94221430383E+03 -0.21350387575E+03  0.74774892590E+03  0.12216710546E+04  0.10100000352E+00 0.  1.
       -3    1    3    3    0  502  0.94221430383E+03  0.21350387575E+03 -0.84807159750E+03  0.12855260184E+04  0.10100000352E+00 0. -1.
</event>
<event>
 5   0  0.2339125E-05  0.2405644E+04  0.7818609E-02  0.8437394E-01
        3   -1    0    0  501    0  0.00000000000E+00  0.00000000000E+00  0.12368590715E+04  0.12368590756E+04  0.10100000352E+00 0. -1.
       -3   -1    0    0    0  501  0.00000000000E+00  0.00000000000E+00 -0.11697211791E+04  0.11697211835E+04  0.10100000352E+00 0.  1.
    10030    2    1    2    0    0  0.00000000000E+00  0.00000000000E+00  0.67137892373E+02  0.24065802591E+04  0.24056435827E+04 0.  0.
        1    1    3    3  502    0  0.44006210407E+03 -0.10145673897E+04  0.50680558420E+03  0.12164923115E+04  0.50400001928E-02 0. -1.
       -1    1    3    3    0  502 -0.44006210407E+03  0.10145673897E+04 -0.43966769183E+03  0.11900879476E+04  0.50400001928E-02 0.  1.
</event>
<event>
 5   0  0.2847158E-05  0.2304519E+04  0.7818609E-02  0.8476142E-01
       -1   -1    0    0    0  501  0.00000000000E+00  0.00000000000E+00  0.66216531847E+03  0.66216531849E+03  0.50400001928E-02 0. -1.
        1   -1    0    0  501    0  0.00000000000E+00  0.00000000000E+00 -0.20050911019E+04  0.20050911019E+04  0.50400001928E-02 0.  1.
    10030    2    1    2    0    0  0.00000000000E+00  0.00000000000E+00 -0.13429257835E+04  0.26672564204E+04  0.23045188549E+04 0.  0.
        5    1    3    3  502    0 -0.78039294349E+02 -0.10264852466E+04 -0.72382466078E+02  0.10319997114E+04  0.46999998093E+01 0. -1.
       -5    1    3    3    0  502  0.78039294349E+02  0.10264852466E+04 -0.12705433174E+04  0.16352567090E+04  0.46999998093E+01 0.  1.
</event>
<event>
 5   0  0.2943244E-05  0.2403015E+04  0.7818609E-02  0.8438376E-01
        1   -1    0    0  501    0  0.00000000000E+00  0.00000000000E+00  0.11582042084E+04  0.11582042084E+04  0.50400001928E-02 0.  1.
       -1   -1    0    0    0  501  0.00000000000E+00  0.00000000000E+00 -0.12464293927E+04  0.12464293927E+04  0.50400001928E-02 0. -1.
    10030    2    1    2    0    0  0.00000000000E+00  0.00000000000E+00 -0.88225184325E+02  0.24046336011E+04  0.24030145801E+04 0.  0.
        3    1    3    3  502    0 -0.30157873949E+03  0.11624909409E+04 -0.82438607229E+01  0.12010007890E+04  0.10100000352E+00 0. -1.
       -3    1    3    3    0  502  0.30157873949E+03 -0.11624909409E+04 -0.79981323602E+02  0.12036328120E+04  0.10100000352E+00 0.  1.
</event>
<event>
 5   0  0.6600166E-05  0.2389687E+04  0.7818609E-02  0.8443375E-01
       -2   -1    0    0    0  501  0.00000000000E+00  0.00000000000E+00  0.11859715942E+04  0.11859715942E+04  0.25500000920E-02 0. -1.
        2   -1    0    0  501    0  0.00000000000E+00  0.00000000000E+00 -0.12037819544E+04  0.12037819544E+04  0.25500000920E-02 0.  1.
    10030    2    1    2    0    0  0.00000000000E+00  0.00000000000E+00 -0.17810360252E+02  0.23897535486E+04  0.23896871791E+04 0.  0.
        5    1    3    3  502    0  0.37327187126E+03 -0.83921928766E+03 -0.77313070376E+03  0.12005723959E+04  0.46999998093E+01 0.  1.
       -5    1    3    3    0  502 -0.37327187126E+03  0.83921928766E+03  0.75532034350E+03  0.11891811527E+04  0.46999998093E+01 0. -1.
</event>
<event>
 5   0  0.2847158E-05  0.2430432E+04  0.7818609E-02  0.8428197E-01
       -1   -1    0    0    0  501  0.00000000000E+00  0.00000000000E+00  0.11355772285E+04  0.11355772285E+04  0.50400001928E-02 0. -1.
        1   -1    0    0  501    0  0.00000000000E+00  0.00000000000E+00 -0.13004396032E+04  0.13004396032E+04  0.50400001928E-02 0.  1.
    10030    2    1    2    0    0  0.00000000000E+00  0.00000000000E+00 -0.16486237469E+03  0.24360168317E+04  0.24304317316E+04 0.  0.
        5    1    3    3  502    0 -0.78033862105E+03 -0.59036911842E+03  0.63982410979E+03  0.11691283253E+04  0.46999998093E+01 0. -1.
       -5    1    3    3    0  502  0.78033862105E+03  0.59036911842E+03 -0.80468648448E+03  0.12668885065E+04  0.46999998093E+01 0.  1.
</event>
<event>
 5   0  0.6600166E-05  0.2394839E+04  0.7818609E-02  0.8441438E-01
       -2   -1    0    0    0  501  0.00000000000E+00  0.00000000000E+00  0.86292653206E+03  0.86292653207E+03  0.25500000920E-02 0.  1.
        2   -1    0    0  501    0  0.00000000000E+00  0.00000000000E+00 -0.16615703263E+04  0.16615703263E+04  0.25500000920E-02 0. -1.
    10030    2    1    2    0    0  0.00000000000E+00  0.00000000000E+00 -0.79864379428E+03  0.25244968584E+04  0.23948387165E+04 0.  0.
        5    1    3    3  502    0 -0.86055778450E+02 -0.90930872153E+03  0.41690097772E+03  0.10040301107E+04  0.46999998093E+01 0.  1.
       -5    1    3    3    0  502  0.86055778450E+02  0.90930872153E+03 -0.12155447720E+04  0.15204667477E+04  0.46999998093E+01 0. -1.
</event>
<event>
 5   0  0.2901816E-05  0.2286002E+04  0.7818609E-02  0.8483461E-01
        1   -1    0    0  501    0  0.00000000000E+00  0.00000000000E+00  0.27801018778E+04  0.27801018778E+04  0.50400001928E-02 0. -1.
       -1   -1    0    0    0  501  0.00000000000E+00  0.00000000000E+00 -0.46992914672E+03  0.46992914675E+03  0.50400001928E-02 0.  1.
    10030    2    1    2    0    0  0.00000000000E+00  0.00000000000E+00  0.23101727311E+04  0.32500310245E+04  0.22860016652E+04 0.  0.
        4    1    3    3  502    0  0.37737506966E+03  0.68330357818E+03  0.23421362270E+04  0.24687890639E+04  0.12699999809E+01 0. -1.
       -4    1    3    3    0  502 -0.37737506966E+03 -0.68330357818E+03 -0.31963495931E+02  0.78124196068E+03  0.12699999809E+01 0.  1.
</event>
<event>
 5   0  0.2847158E-05  0.2384952E+04  0.7818609E-02  0.8445159E-01
       -1   -1    0    0    0  501  0.00000000000E+00  0.00000000000E+00  0.76301535922E+03  0.76301535923E+03  0.50400001928E-02 0. -1.
        1   -1    0    0  501    0  0.00000000000E+00  0.00000000000E+00 -0.18636578123E+04  0.18636578123E+04  0.50400001928E-02 0.  1.
    10030    2    1    2    0    0  0.00000000000E+00  0.00000000000E+00 -0.11006424531E+04  0.26266731715E+04  0.23849524399E+04 0.  0.
        5    1    3    3  502    0 -0.46386698476E+03 -0.93768154376E+03  0.80012500606E+02  0.10492108212E+04  0.46999998093E+01 0. -1.
       -5    1    3    3    0  502  0.46386698476E+03  0.93768154376E+03 -0.11806549537E+04  0.15774623503E+04  0.46999998093E+01 0.  1.
</event>
<event>
 5   0  0.6714629E-05  0.2316491E+04  0.7818609E-02  0.8471447E-01
       -2   -1    0    0    0  501  0.00000000000E+00  0.00000000000E+00  0.83956406507E+03  0.83956406507E+03  0.25500000920E-02 0.  1.
        2   -1    0    0  501    0  0.00000000000E+00  0.00000000000E+00 -0.15978920087E+04  0.15978920087E+04  0.25500000920E-02 0. -1.
    10030    2    1    2    0    0  0.00000000000E+00  0.00000000000E+00 -0.75832794361E+03  0.24374560737E+04  0.23164910622E+04 0.  0.
        3    1    3    3  502    0  0.48545818457E+03 -0.68320102740E+03 -0.12203467572E+04  0.14804322041E+04  0.10100000352E+00 0. -1.
       -3    1    3    3    0  502 -0.48545818457E+03  0.68320102740E+03  0.46201881361E+03  0.95702386968E+03  0.10100000352E+00 0.  1.
</event>
<event>
 5   0  0.6600166E-05  0.2350734E+04  0.7818609E-02  0.8458182E-01
       -2   -1    0    0    0  501  0.00000000000E+00  0.00000000000E+00  0.74528105816E+03  0.74528105816E+03  0.25500000920E-02 0.  1.
        2   -1    0    0  501    0  0.00000000000E+00  0.00000000000E+00 -0.18536467435E+04  0.18536467435E+04  0.25500000920E-02 0. -1.
    10030    2    1    2    0    0  0.00000000000E+00  0.00000000000E+00 -0.11083656853E+04  0.25989278017E+04  0.23507341887E+04 0.  0.
        5    1    3    3  502    0 -0.65829924860E+02 -0.50429642552E+03  0.61732507965E+03  0.79985049088E+03  0.46999998093E+01 0.  1.
       -5    1    3    3    0  502  0.65829924860E+02  0.50429642552E+03 -0.17256907650E+04  0.17990773108E+04  0.46999998093E+01 0. -1.
</event>
<event>
 5   0  0.2339125E-05  0.2390196E+04  0.7818609E-02  0.8443183E-01
       -3   -1    0    0    0  501  0.00000000000E+00  0.00000000000E+00  0.26502602730E+04  0.26502602749E+04  0.10100000352E+00 0. -1.
        3   -1    0    0  501    0  0.00000000000E+00  0.00000000000E+00 -0.53891299091E+03  0.53891300037E+03  0.10100000352E+00 0.  1.
    10030    2    1    2    0    0  0.00000000000E+00  0.00000000000E+00  0.21113472821E+04  0.31891732753E+04  0.23901964008E+04 0.  0.
        2    1    3    3  502    0 -0.83050591479E+03  0.82535139886E+03  0.13751050000E+04  0.18060616731E+04  0.25500000920E-02 0. -1.
       -2    1    3    3    0  502  0.83050591479E+03 -0.82535139886E+03  0.73624228208E+03  0.13831116022E+04  0.25500000920E-02 0.  1.
</event>
<event>
 5   0  0.6978115E-05  0.2403391E+04  0.7818609E-02  0.8438235E-01
       -2   -1    0    0    0  501  0.00000000000E+00  0.00000000000E+00  0.11031657134E+04  0.11031657134E+04  0.25500000920E-02 0. -1.
        2   -1    0    0  501    0  0.00000000000E+00  0.00000000000E+00 -0.13090249952E+04  0.13090249952E+04  0.25500000920E-02 0.  1.
    10030    2    1    2    0    0  0.00000000000E+00  0.00000000000E+00 -0.20585928186E+03  0.24121907086E+04  0.24033905157E+04 0.  0.
        4    1    3    3  502    0 -0.13975251623E+03 -0.40549702318E+02 -0.13001489119E+04  0.13082674995E+04  0.12699999809E+01 0.  1.
       -4    1    3    3    0  502  0.13975251623E+03  0.40549702318E+02  0.10942896301E+04  0.11039232091E+04  0.12699999809E+01 0. -1.
</event>
<event>
 5   0  0.2943123E-05  0.2385803E+04  0.7818609E-02  0.8444838E-01
       -1   -1    0    0    0  501  0.00000000000E+00  0.00000000000E+00  0.12908901623E+04  0.12908901623E+04  0.50400001928E-02 0.  1.
        1   -1    0    0  501    0  0.00000000000E+00  0.00000000000E+00 -0.11023507721E+04  0.11023507721E+04  0.50400001928E-02 0. -1.
    10030    2    1    2    0    0  0.00000000000E+00  0.00000000000E+00  0.18853939014E+03  0.23932409344E+04  0.23858028143E+04 0.  0.
        1    1    3    3  502    0 -0.53806802943E+03 -0.93264080933E+03 -0.42082676268E+03  0.11560411964E+04  0.50400001928E-02 0.  1.
       -1    1    3    3    0  502  0.53806802943E+03  0.93264080933E+03  0.60936615282E+03  0.12371997380E+04  0.50400001928E-02 0. -1.
</event>
<event>
 5   0  0.2915546E-05  0.2409075E+04  0.7818609E-02  0.8436114E-01
       -1   -1    0    0    0  501  0.00000000000E+00  0.00000000000E+00  0.69067876429E+03  0.69067876431E+03  0.50400001928E-02 0.  1.
        1   -1    0    0  501    0  0.00000000000E+00  0.00000000000E+00 -0.21007024921E+04  0.21007024921E+04  0.50400001928E-02 0. -1.
    10030    2    1    2    0    0  0.00000000000E+00  0.00000000000E+00 -0.14100237278E+04  0.27913812564E+04  0.24090750104E+04 0.  0.
        2    1    3    3  502    0  0.25198119690E+03  0.14410974030E+03 -0.20595687348E+04  0.20799244011E+04  0.25500000920E-02 0. -1.
       -2    1    3    3    0  502 -0.25198119690E+03 -0.14410974030E+03  0.64954500701E+03  0.71145685532E+03  0.25500000920E-02 0.  1.
</event>
<event>
 5   0  0.2901816E-05  0.2309967E+04  0.7818609E-02  0.8474002E-01
        1   -1    0    0  501    0  0.00000000000E+00  0.00000000000E+00  0.10922452812E+04  0.10922452813E+04  0.50400001928E-02 0.  1.
       -1   -1    0    0    0  501  0.00000000000E+00  0.00000000000E+00 -0.12213253432E+04  0.12213253433E+04  0.50400001928E-02 0. -1.
    10030    2    1    2    0    0  0.00000000000E+00  0.00000000000E+00 -0.12908006200E+03  0.23135706245E+04  0.23099669634E+04 0.  0.
        4    1    3    3  502    0 -0.37973626425E+03  0.52087275612E+03 -0.10244072850E+04  0.12103387778E+04  0.12699999809E+01 0. -1.
       -4    1    3    3    0  502  0.37973626425E+03 -0.52087275612E+03  0.89532722303E+03  0.11032318467E+04  0.12699999809E+01 0.  1.
</event>
<event>
 5   0  0.2901816E-05  0.2412445E+04  0.7818609E-02  0.8434859E-01
       -1   -1    0    0    0  501  0.00000000000E+00  0.00000000000E+00  0.13776614460E+04  0.13776614460E+04  0.50400001928E-02 0. -1.
        1   -1    0    0  501    0  0.00000000000E+00  0.00000000000E+00 -0.10561176970E+04  0.10561176970E+04  0.50400001928E-02 0.  1.
    10030    2    1    2    0    0  0.00000000000E+00  0.00000000000E+00  0.32154374902E+03  0.24337791430E+04  0.24124449288E+04 0.  0.
        4    1    3    3  502    0 -0.30061346387E+03  0.11149198597E+04 -0.19096058094E+03  0.11704197130E+04  0.12699999809E+01 0.  1.
       -4    1    3    3    0  502  0.30061346387E+03 -0.11149198597E+04  0.51250432997E+03  0.12633594300E+04  0.12699999809E+01 0. -1.
</event>
<event>
 5   0  0.2943123E-05  0.2386724E+04  0.7818609E-02  0.8444491E-01
        1   -1    0    0  501    0  0.00000000000E+00  0.00000000000E+00  0.11493342042E+04  0.11493342042E+04  0.50400001928E-02 0. -1.
       -1   -1    0    0    0  501  0.00000000000E+00  0.00000000000E+00 -0.12390767053E+04  0.12390767053E+04  0.50400001928E-02 0.  1.
    10030    2    1    2    0    0  0.00000000000E+00  0.00000000000E+00 -0.89742501121E+02  0.23884109095E+04  0.23867243151E+04 0.  0.
        1    1    3    3  502    0  0.95654089346E+03 -0.52169222992E+03  0.44227864492E+03  0.11759012133E+04  0.50400001928E-02 0. -1.
       -1    1    3    3    0  502 -0.95654089346E+03  0.52169222992E+03 -0.53202114604E+03  0.12125096962E+04  0.50400001928E-02 0.  1.
</event>
<event>
 5   0  0.2847158E-05  0.2375929E+04  0.7818609E-02  0.8448571E-01
        1   -1    0    0  501    0  0.00000000000E+00  0.00000000000E+00  0.14351188629E+04  0.14351188630E+04  0.50400001928E-02 0.  1.
       -1   -1    0    0    0  501  0.00000000000E+00  0.00000000000E+00 -0.98337485024E+03  0.98337485025E+03  0.50400001928E-02 0. -1.
    10030    2    1    2    0    0  0.00000000000E+00  0.00000000000E+00  0.45174401271E+03  0.24184937132E+04  0.23759291210E+04 0.  0.
        5    1    3    3  502    0  0.83636930516E+02  0.10085248193E+04  0.85920838203E+03  0.13275460749E+04  0.46999998093E+01 0. -1.
       -5    1    3    3    0  502 -0.83636930516E+02 -0.10085248193E+04 -0.40746436932E+03  0.10909476383E+04  0.46999998093E+01 0.  1.
</event>
<event>
 5   0  0.6978115E-05  0.2312086E+04  0.7818609E-02  0.8473171E-01
        2   -1    0    0  501    0  0.00000000000E+00  0.00000000000E+00  0.14076580385E+04  0.14076580385E+04  0.25500000920E-02 0. -1.
       -2   -1    0    0    0  501  0.00000000000E+00  0.00000000000E+00 -0.94940312165E+03  0.94940312165E+03  0.25500000920E-02 0.  1.
    10030    2    1    2    0    0  0.00000000000E+00  0.00000000000E+00  0.45825491683E+03  0.23570611601E+04  0.23120855831E+04 0.  0.
        4    1    3    3  502    0  0.13631506430E+03  0.10070106386E+04  0.79101230658E+03  0.12877710608E+04  0.12699999809E+01 0. -1.
       -4    1    3    3    0  502 -0.13631506430E+03 -0.10070106386E+04 -0.33275738975E+03  0.10692900993E+04  0.12699999809E+01 0.  1.
</event>
<event>
 5   0  0.2847158E-05  0.2365046E+04  0.7818609E-02  0.8452707E-01
        1   -1    0    0  501    0  0.00000000000E+00  0.00000000000E+00  0.12729086999E+04  0.12729086999E+04  0.50400001928E-02 0. -1.
       -1   -1    0    0    0  501  0.00000000000E+00  0.00000000000E+00 -0.10985553655E+04  0.10985553656E+04  0.50400001928E-02 0.  1.
    10030    2    1    2    0    0  0.00000000000E+00  0.00000000000E+00  0.17435333434E+03  0.23714640655E+04  0.23650460310E+04 0.  0.
        5    1    3    3  502    0 -0.58189825110E+03 -0.48077669831E+03  0.99991428775E+03  0.12528377713E+04  0.46999998093E+01 0. -1.
       -5    1    3    3    0  502  0.58189825110E+03  0.48077669831E+03 -0.82556095341E+03  0.11186262942E+04  0.46999998093E+01 0.  1.
</event>
<event>
 5   0  0.6978115E-05  0.2406754E+04  0.7818609E-02  0.8436979E-01
       -2   -1    0    0    0  501  0.00000000000E+00  0.00000000000E+00  0.93152290300E+03  0.93152290300E+03  0.25500000920E-02 0.  1.
        2   -1    0    0  501    0  0.00000000000E+00  0.00000000000E+00 -0.15545687259E+04  0.15545687259E+04  0.25500000920E-02 0. -1.
    10030    2    1    2    0    0  0.00000000000E+00  0.00000000000E+00 -0.62304582290E+03  0.24860916289E+04  0.24067541399E+04 0.  0.
        4    1    3    3  502    0 -0.43668956488E+03  0.78796793078E+03  0.51260122333E+03  0.10365099435E+04  0.12699999809E+01 0.  1.
       -4    1    3    3    0  502  0.43668956488E+03 -0.78796793078E+03 -0.11356470462E+04  0.14495816854E+04  0.12699999809E+01 0. -1.
</event>
<event>
 5   0  0.2943123E-05  0.2399976E+04  0.7818609E-02  0.8439513E-01
        1   -1    0    0  501    0  0.00000000000E+00  0.00000000000E+00  0.12299300905E+04  0.12299300906E+04  0.50400001928E-02 0.  1.
       -1   -1    0    0    0  501  0.00000000000E+00  0.00000000000E+00 -0.11707745992E+04  0.11707745992E+04  0.50400001928E-02 0. -1.
    10030    2    1    2    0    0  0.00000000000E+00  0.00000000000E+00  0.59155491389E+02  0.24007046897E+04  0.23999757572E+04 0.  0.
        1    1    3    3  502    0 -0.29655928494E+03 -0.65928755176E+03  0.98765955865E+03  0.12239603299E+04  0.50400001928E-02 0.  1.
       -1    1    3    3    0  502  0.29655928494E+03  0.65928755176E+03 -0.92850406726E+03  0.11767443598E+04  0.50400001928E-02 0. -1.
</event>
<event>
 5   0  0.6337926E-05  0.2325251E+04  0.7818609E-02  0.8468031E-01
        2   -1    0    0  501    0  0.00000000000E+00  0.00000000000E+00  0.19635228755E+04  0.19635228755E+04  0.25500000920E-02 0.  1.
       -2   -1    0    0    0  501  0.00000000000E+00  0.00000000000E+00 -0.68840432788E+03  0.68840432788E+03  0.25500000920E-02 0. -1.
    10030    2    1    2    0    0  0.00000000000E+00  0.00000000000E+00  0.12751185476E+04  0.26519272034E+04  0.23252506492E+04 0.  0.
        1    1    3    3  502    0 -0.49957814411E+03  0.19264291067E+03  0.18145370584E+04  0.18918864526E+04  0.50400001928E-02 0.  1.
       -1    1    3    3    0  502  0.49957814411E+03 -0.19264291067E+03 -0.53941851077E+03  0.76004075081E+03  0.50400001928E-02 0. -1.
</event>
<event>
 5   0  0.2943244E-05  0.2439529E+04  0.7818609E-02  0.8424851E-01
        1   -1    0    0  501    0  0.00000000000E+00  0.00000000000E+00  0.21682150195E+04  0.21682150195E+04  0.50400001928E-02 0.  1.
       -1   -1    0    0    0  501  0.00000000000E+00  0.00000000000E+00 -0.68619812859E+03  0.68619812861E+03  0.50400001928E-02 0. -1.
    10030    2    1    2    0    0  0.00000000000E+00  0.00000000000E+00  0.14820168909E+04  0.28544131481E+04  0.24395287158E+04 0.  0.
        3    1    3    3  502    0  0.18136890513E+03 -0.82482773821E+03 -0.28877695335E+03  0.89253998031E+03  0.10100000352E+00 0. -1.
       -3    1    3    3    0  502 -0.18136890513E+03  0.82482773821E+03  0.17707938443E+04  0.19618731678E+04  0.10100000352E+00 0.  1.
</event>
<event>
 5   0  0.6703961E-05  0.2359103E+04  0.7818609E-02  0.8454975E-01
       -2   -1    0    0    0  501  0.00000000000E+00  0.00000000000E+00  0.54949909341E+03  0.54949909342E+03  0.25500000920E-02 0. -1.
        2   -1    0    0  501    0  0.00000000000E+00  0.00000000000E+00 -0.25320188411E+04  0.25320188411E+04  0.25500000920E-02 0.  1.
    10030    2    1    2    0    0  0.00000000000E+00  0.00000000000E+00 -0.19825197477E+04  0.30815179345E+04  0.23591032684E+04 0.  0.
        2    1    3    3  502    0 -0.44044751682E+03  0.53098193579E+03  0.25849453769E+03  0.73671925265E+03  0.25500000920E-02 0. -1.
       -2    1    3    3    0  502  0.44044751682E+03 -0.53098193579E+03 -0.22410142854E+04  0.23447986819E+04  0.25500000920E-02 0.  1.
</event>
<event>
 5   0  0.2943123E-05  0.2376614E+04  0.7818609E-02  0.8448311E-01
        1   -1    0    0  501    0  0.00000000000E+00  0.00000000000E+00  0.21165049739E+04  0.21165049739E+04  0.50400001928E-02 0.  1.
       -1   -1    0    0    0  501  0.00000000000E+00  0.00000000000E+00 -0.66717208924E+03  0.66717208926E+03  0.50400001928E-02 0. -1.
    10030    2    1    2    0    0  0.00000000000E+00  0.00000000000E+00  0.14493328846E+04  0.27836770631E+04  0.23766135953E+04 0.  0.
        1    1    3    3  502    0  0.76666027232E+03  0.31174953433E+03 -0.27409671295E+03  0.87182839675E+03  0.50400001928E-02 0. -1.
       -1    1    3    3    0  502 -0.76666027232E+03 -0.31174953433E+03  0.17234295976E+04  0.19118486664E+04  0.50400001928E-02 0.  1.
</event>
<event>
 5   0  0.2943244E-05  0.2410468E+04  0.7818609E-02  0.8435595E-01
       -1   -1    0    0    0  501  0.00000000000E+00  0.00000000000E+00  0.74796513134E+03  0.74796513135E+03  0.50400001928E-02 0.  1.
        1   -1    0    0  501    0  0.00000000000E+00  0.00000000000E+00 -0.19420542009E+04  0.19420542009E+04  0.50400001928E-02 0. -1.
    10030    2    1    2    0    0  0.00000000000E+00  0.00000000000E+00 -0.11940890696E+04  0.26900193323E+04  0.24104678596E+04 0.  0.
        3    1    3    3  502    0 -0.28114577984E+03  0.57537664663E+03  0.54239032180E+03  0.83921898596E+03  0.10100000352E+00 0.  1.
       -3    1    3    3    0  502  0.28114577984E+03 -0.57537664663E+03 -0.17364793914E+04  0.18508003463E+04  0.10100000352E+00 0. -1.
</event>
<event>
 5   0  0.2943123E-05  0.1479118E+04  0.7818609E-02  0.8898459E-01
       -1   -1    0    0    0  501  0.00000000000E+00  0.00000000000E+00  0.97223525040E+03  0.97223525041E+03  0.50400001928E-02 0.  1.
        1   -1    0    0  501    0  0.00000000000E+00  0.00000000000E+00 -0.56256713478E+03  0.56256713481E+03  0.50400001928E-02 0. -1.
    10030    2    1    2    0    0  0.00000000000E+00  0.00000000000E+00  0.40966811561E+03  0.15348023852E+04  0.14791181145E+04 0.  0.
        1    1    3    3  502    0 -0.40013107284E+03  0.62187288384E+03  0.19361786512E+03  0.76440737623E+03  0.50400001928E-02 0.  1.
       -1    1    3    3    0  502  0.40013107284E+03 -0.62187288384E+03  0.21605025050E+03  0.77039500899E+03  0.50400001928E-02 0. -1.
</event>
<event>
 5   0  0.6600166E-05  0.2280802E+04  0.7818609E-02  0.8485529E-01
       -2   -1    0    0    0  501  0.00000000000E+00  0.00000000000E+00  0.97380763706E+03  0.97380763706E+03  0.25500000920E-02 0. -1.
        2   -1    0    0  501    0  0.00000000000E+00  0.00000000000E+00 -0.13354947535E+04  0.13354947535E+04  0.25500000920E-02 0.  1.
    10030    2    1    2    0    0  0.00000000000E+00  0.00000000000E+00 -0.36168711643E+03  0.23093023906E+04  0.22808024818E+04 0.  0.
        5    1    3    3  502    0 -0.58540965762E+03 -0.49657965008E+03 -0.10347063951E+04  0.12883847369E+04  0.46999998093E+01 0.  1.
       -5    1    3    3    0  502  0.58540965762E+03  0.49657965008E+03  0.67301927869E+03  0.10209176537E+04  0.46999998093E+01 0. -1.
</event>
<event>
 5   0  0.6714629E-05  0.2373373E+04  0.7818609E-02  0.8449540E-01
       -2   -1    0    0    0  501  0.00000000000E+00  0.00000000000E+00  0.20106528397E+04  0.20106528397E+04  0.25500000920E-02 0. -1.
        2   -1    0    0  501    0  0.00000000000E+00  0.00000000000E+00 -0.70038198790E+03  0.70038198790E+03  0.25500000920E-02 0.  1.
    10030    2    1    2    0    0  0.00000000000E+00  0.00000000000E+00  0.13102708518E+04  0.27110348277E+04  0.23733731547E+04 0.  0.
        3    1    3    3  502    0  0.14954471464E+03 -0.82576455232E+03 -0.30326605253E+03  0.89231217988E+03  0.10100000352E+00 0.  1.
       -3    1    3    3    0  502 -0.14954471464E+03  0.82576455232E+03  0.16135369044E+04  0.18187226478E+04  0.10100000352E+00 0. -1.
</event>
<event>
 5   0  0.6337926E-05  0.1538039E+04  0.7818609E-02  0.8859544E-01
        2   -1    0    0  501    0  0.00000000000E+00  0.00000000000E+00  0.17480955284E+04  0.17480955284E+04  0.25500000920E-02 0.  1.
       -2   -1    0    0    0  501  0.00000000000E+00  0.00000000000E+00 -0.33830604101E+03  0.33830604102E+03  0.25500000920E-02 0. -1.
    10030    2    1    2    0    0  0.00000000000E+00  0.00000000000E+00  0.14097894874E+04  0.20864015694E+04  0.15380393721E+04 0.  0.
        1    1    3    3  502    0 -0.28232140333E+03 -0.34032507872E+03 -0.14860591349E+03  0.46648713973E+03  0.50400001928E-02 0. -1.
       -1    1    3    3    0  502  0.28232140333E+03  0.34032507872E+03  0.15583954008E+04  0.16199144297E+04  0.50400001928E-02 0.  1.
</event>
<event>
 5   0  0.2915546E-05  0.2397926E+04  0.7818609E-02  0.8440280E-01
       -1   -1    0    0    0  501  0.00000000000E+00  0.00000000000E+00  0.21145741028E+04  0.21145741028E+04  0.50400001928E-02 0. -1.
        1   -1    0    0  501    0  0.00000000000E+00  0.00000000000E+00 -0.67981199861E+03  0.67981199863E+03  0.50400001928E-02 0.  1.
    10030    2    1    2    0    0  0.00000000000E+00  0.00000000000E+00  0.14347621041E+04  0.27943861014E+04  0.23979264768E+04 0.  0.
        2    1    3    3  502    0  0.72629483141E+03  0.86948079582E+03  0.11747088108E+04  0.16320054616E+04  0.25500000920E-02 0.  1.
       -2    1    3    3    0  502 -0.72629483141E+03 -0.86948079582E+03  0.26005329334E+03  0.11623806398E+04  0.25500000920E-02 0. -1.
</event>
<event>
 5   0  0.2943123E-05  0.2431655E+04  0.7818609E-02  0.8427747E-01
       -1   -1    0    0    0  501  0.00000000000E+00  0.00000000000E+00  0.14780126296E+04  0.14780126296E+04  0.50400001928E-02 0. -1.
        1   -1    0    0  501    0  0.00000000000E+00  0.00000000000E+00 -0.10001514859E+04  0.10001514859E+04  0.50400001928E-02 0.  1.
    10030    2    1    2    0    0  0.00000000000E+00  0.00000000000E+00  0.47786114367E+03  0.24781641155E+04  0.24316550147E+04 0.  0.
        1    1    3    3  502    0 -0.68577401750E+03 -0.29007300355E+02 -0.78381207043E+03  0.10418679323E+04  0.50400001928E-02 0.  1.
       -1    1    3    3    0  502  0.68577401750E+03  0.29007300355E+02  0.12616732141E+04  0.14362961832E+04  0.50400001928E-02 0. -1.
</event>
<event>
 5   0  0.6600166E-05  0.2409043E+04  0.7818609E-02  0.8436126E-01
        2   -1    0    0  501    0  0.00000000000E+00  0.00000000000E+00  0.24218243886E+04  0.24218243886E+04  0.25500000920E-02 0. -1.
       -2   -1    0    0    0  501  0.00000000000E+00  0.00000000000E+00 -0.59908227515E+03  0.59908227515E+03  0.25500000920E-02 0.  1.
    10030    2    1    2    0    0  0.00000000000E+00  0.00000000000E+00  0.18227421135E+04  0.30209066638E+04  0.24090430173E+04 0.  0.
        5    1    3    3  502    0  0.86771253998E+03 -0.82375815557E+03  0.10857942870E+04  0.16156960960E+04  0.46999998093E+01 0. -1.
       -5    1    3    3    0  502 -0.86771253998E+03  0.82375815557E+03  0.73694782651E+03  0.14052105678E+04  0.46999998093E+01 0.  1.
</event>
<event>
 5   0  0.2943244E-05  0.2457113E+04  0.7818609E-02  0.8418426E-01
       -1   -1    0    0    0  501  0.00000000000E+00  0.00000000000E+00  0.13482125476E+04  0.13482125476E+04  0.50400001928E-02 0.  1.
        1   -1    0    0  501    0  0.00000000000E+00  0.00000000000E+00 -0.11195197344E+04  0.11195197344E+04  0.50400001928E-02 0. -1.
    10030    2    1    2    0    0  0.00000000000E+00  0.00000000000E+00  0.22869281318E+03  0.24677322820E+04  0.24571125763E+04 0.  0.
        3    1    3    3  502    0 -0.43495688394E+03  0.74661582385E+03 -0.76277112912E+03  0.11525807932E+04  0.10100000352E+00 0. -1.
       -3    1    3    3    0  502  0.43495688394E+03 -0.74661582385E+03  0.99146394230E+03  0.13151514888E+04  0.10100000352E+00 0.  1.
</event>
<event>
 5   0  0.2901816E-05  0.2442349E+04  0.7818609E-02  0.8423817E-01
        1   -1    0    0  501    0  0.00000000000E+00  0.00000000000E+00  0.16435887668E+04  0.16435887668E+04  0.50400001928E-02 0.  1.
       -1   -1    0    0    0  501  0.00000000000E+00  0.00000000000E+00 -0.90732412714E+03  0.90732412715E+03  0.50400001928E-02 0. -1.
    10030    2    1    2    0    0  0.00000000000E+00  0.00000000000E+00  0.73626463963E+03  0.25509128939E+04  0.24423494780E+04 0.  0.
        4    1    3    3  502    0 -0.37920636480E+03 -0.18645795403E+03  0.15647926948E+04  0.16208460217E+04  0.12699999809E+01 0.  1.
       -4    1    3    3    0  502  0.37920636480E+03  0.18645795403E+03 -0.82852805512E+03  0.93006687219E+03  0.12699999809E+01 0. -1.
</event>
<event>
 5   0  0.6714629E-05  0.1585146E+04  0.7818609E-02  0.8829726E-01
       -2   -1    0    0    0  501  0.00000000000E+00  0.00000000000E+00  0.69670569014E+03  0.69670569014E+03  0.25500000920E-02 0.  1.
        2   -1    0    0  501    0  0.00000000000E+00  0.00000000000E+00 -0.90163200368E+03  0.90163200368E+03  0.25500000920E-02 0. -1.
    10030    2    1    2    0    0  0.00000000000E+00  0.00000000000E+00 -0.20492631354E+03  0.15983376938E+04  0.15851462360E+04 0.  0.
        3    1    3    3  502    0  0.76036176563E+03 -0.17476459445E+03 -0.24319346996E+03  0.81721218306E+03  0.10100000352E+00 0. -1.
       -3    1    3    3    0  502 -0.76036176563E+03  0.17476459445E+03  0.38267156421E+02  0.78112551077E+03  0.10100000352E+00 0.  1.
</event>
<event>
 5   0  0.2847158E-05  0.2386233E+04  0.7818609E-02  0.8444676E-01
        1   -1    0    0  501    0  0.00000000000E+00  0.00000000000E+00  0.15520105061E+04  0.15520105061E+04  0.50400001928E-02 0.  1.
       -1   -1    0    0    0  501  0.00000000000E+00  0.00000000000E+00 -0.91721473188E+03  0.91721473190E+03  0.50400001928E-02 0. -1.
    10030    2    1    2    0    0  0.00000000000E+00  0.00000000000E+00  0.63479577420E+03  0.24692252380E+04  0.23862329310E+04 0.  0.
        5    1    3    3  502    0  0.16956631912E+03 -0.91147226262E+03 -0.45970052786E+03  0.10348338453E+04  0.46999998093E+01 0. -1.
       -5    1    3    3    0  502 -0.16956631912E+03  0.91147226262E+03  0.10944963021E+04  0.14343913927E+04  0.46999998093E+01 0.  1.
</event>
<event>
 5   0  0.6600166E-05  0.1879066E+04  0.7818609E-02  0.8665347E-01
       -2   -1    0    0    0  501  0.00000000000E+00  0.00000000000E+00  0.56504622483E+03  0.56504622484E+03  0.25500000920E-02 0.  1.
        2   -1    0    0  501    0  0.00000000000E+00  0.00000000000E+00 -0.15622127544E+04  0.15622127544E+04  0.25500000920E-02 0. -1.
    10030    2    1    2    0    0  0.00000000000E+00  0.00000000000E+00 -0.99716652954E+03  0.21272589792E+04  0.18790661715E+04 0.  0.
        5    1    3    3  502    0 -0.75124569458E+03  0.53283288048E+03 -0.70861246006E+03  0.11620820456E+04  0.46999998093E+01 0. -1.
       -5    1    3    3    0  502  0.75124569458E+03 -0.53283288048E+03 -0.28855406947E+03  0.96517693360E+03  0.46999998093E+01 0.  1.
</event>
<event>
 5   0  0.6978115E-05  0.2160181E+04  0.7818609E-02  0.8535187E-01
        2   -1    0    0  501    0  0.00000000000E+00  0.00000000000E+00  0.15091087635E+04  0.15091087635E+04  0.25500000920E-02 0.  1.
       -2   -1    0    0    0  501  0.00000000000E+00  0.00000000000E+00 -0.77303594543E+03  0.77303594543E+03  0.25500000920E-02 0. -1.
    10030    2    1    2    0    0  0.00000000000E+00  0.00000000000E+00  0.73607281809E+03  0.22821447089E+04  0.21601808441E+04 0.  0.
        4    1    3    3  502    0  0.51408460940E+03  0.28885766464E+03  0.13240434077E+04  0.14494186056E+04  0.12699999809E+01 0.  1.
       -4    1    3    3    0  502 -0.51408460940E+03 -0.28885766464E+03 -0.58797058958E+03  0.83272610332E+03  0.12699999809E+01 0. -1.
</event>
<event>
 5   0  0.6337926E-05  0.2397906E+04  0.7818609E-02  0.8440288E-01
        2   -1    0    0  501    0  0.00000000000E+00  0.00000000000E+00  0.10963581550E+04  0.10963581550E+04  0.25500000920E-02 0.  1.
       -2   -1    0    0    0  501  0.00000000000E+00  0.00000000000E+00 -0.13111487395E+04  0.13111487395E+04  0.25500000920E-02 0. -1.
    10030    2    1    2    0    0  0.00000000000E+00  0.00000000000E+00 -0.21479058445E+03  0.24075068945E+04  0.23979062642E+04 0.  0.
        1    1    3    3  502    0 -0.10090284337E+04  0.42428190712E+03  0.38378228372E+03  0.11599320489E+04  0.50400001928E-02 0. -1.
       -1    1    3    3    0  502  0.10090284337E+04 -0.42428190712E+03 -0.59857286817E+03  0.12475748456E+04  0.50400001928E-02 0.  1.
</event>
<event>
 5   0  0.6337926E-05  0.2239988E+04  0.7818609E-02  0.8501966E-01
       -2   -1    0    0    0  501  0.00000000000E+00  0.00000000000E+00  0.52058636824E+03  0.52058636825E+03  0.25500000920E-02 0.  1.
        2   -1    0    0  501    0  0.00000000000E+00  0.00000000000E+00 -0.24095654722E+04  0.24095654722E+04  0.25500000920E-02 0. -1.
    10030    2    1    2    0    0  0.00000000000E+00  0.00000000000E+00 -0.18889791039E+04  0.29301518404E+04  0.22399883376E+04 0.  0.
        1    1    3    3  502    0  0.16557189371E+03 -0.88107656001E+03 -0.18226564393E+04  0.20312032031E+04  0.50400001928E-02 0. -1.
       -1    1    3    3    0  502 -0.16557189371E+03  0.88107656001E+03 -0.66322664596E+02  0.89894863727E+03  0.50400001928E-02 0.  1.
</event>
<event>
 5   0  0.2915546E-05  0.2352194E+04  0.7818609E-02  0.8457621E-01
        1   -1    0    0  501    0  0.00000000000E+00  0.00000000000E+00  0.13128115882E+04  0.13128115882E+04  0.50400001928E-02 0. -1.
       -1   -1    0    0    0  501  0.00000000000E+00  0.00000000000E+00 -0.10536200542E+04  0.10536200543E+04  0.50400001928E-02 0.  1.
    10030    2    1    2    0    0  0.00000000000E+00  0.00000000000E+00  0.25919153395E+03  0.23664316425E+04  0.23521943940E+04 0.  0.
        2    1    3    3  502    0 -0.18207298963E+02  0.62686375144E+03 -0.87137108220E+03  0.10735814974E+04  0.25500000920E-02 0.  1.
       -2    1    3    3    0  502  0.18207298963E+02 -0.62686375144E+03  0.11305626161E+04  0.12928501451E+04  0.25500000920E-02 0. -1.
</event>
<event>
 5   0  0.6337926E-05  0.2395735E+04  0.7818609E-02  0.8441102E-01
        2   -1    0    0  501    0  0.00000000000E+00  0.00000000000E+00  0.16370415736E+04  0.16370415736E+04  0.25500000920E-02 0.  1.
       -2   -1    0    0    0  501  0.00000000000E+00  0.00000000000E+00 -0.87651215196E+03  0.87651215197E+03  0.25500000920E-02 0. -1.
    10030    2    1    2    0    0  0.00000000000E+00  0.00000000000E+00  0.76052942160E+03  0.25135537255E+04  0.23957352379E+04 0.  0.
        1    1    3    3  502    0 -0.99591153878E+03  0.66057325819E+03  0.46607961742E+03  0.12827419976E+04  0.50400001928E-02 0.  1.
       -1    1    3    3    0  502  0.99591153878E+03 -0.66057325819E+03  0.29444980417E+03  0.12308117280E+04  0.50400001928E-02 0. -1.
</event>
<event>
 5   0  0.2847158E-05  0.2381492E+04  0.7818609E-02  0.8446465E-01
       -1   -1    0    0    0  501  0.00000000000E+00  0.00000000000E+00  0.13954065570E+04  0.13954065570E+04  0.50400001928E-02 0.  1.
        1   -1    0    0  501    0  0.00000000000E+00  0.00000000000E+00 -0.10161021151E+04  0.10161021151E+04  0.50400001928E-02 0. -1.
    10030    2    1    2    0    0  0.00000000000E+00  0.00000000000E+00  0.37930444191E+03  0.24115086721E+04  0.23814915947E+04 0.  0.
        5    1    3    3  502    0 -0.68950858936E+03  0.22890621624E+03 -0.76565466045E+03  0.10554948127E+04  0.46999998093E+01 0. -1.
       -5    1    3    3    0  502  0.68950858936E+03 -0.22890621624E+03  0.11449591024E+04  0.13560138593E+04  0.46999998093E+01 0.  1.
</event>
<event>
 5   0  0.2943244E-05  0.2422447E+04  0.7818609E-02  0.8431147E-01
       -1   -1    0    0    0  501  0.00000000000E+00  0.00000000000E+00  0.14001244267E+04  0.14001244267E+04  0.50400001928E-02 0. -1.
        1   -1    0    0  501    0  0.00000000000E+00  0.00000000000E+00 -0.10478084912E+04  0.10478084912E+04  0.50400001928E-02 0.  1.
    10030    2    1    2    0    0  0.00000000000E+00  0.00000000000E+00  0.35231593547E+03  0.24479329179E+04  0.24224469142E+04 0.  0.
        3    1    3    3  502    0 -0.46523832121E+03  0.68989117715E+03  0.10655687974E+04  0.13519738918E+04  0.10100000352E+00 0. -1.
       -3    1    3    3    0  502  0.46523832121E+03 -0.68989117715E+03 -0.71325286191E+03  0.10959590262E+04  0.10100000352E+00 0.  1.
</event>
<event>
 5   0  0.6978115E-05  0.2369024E+04  0.7818609E-02  0.8451192E-01
       -2   -1    0    0    0  501  0.00000000000E+00  0.00000000000E+00  0.12172905521E+04  0.12172905521E+04  0.25500000920E-02 0. -1.
        2   -1    0    0  501    0  0.00000000000E+00  0.00000000000E+00 -0.11526162383E+04  0.11526162383E+04  0.25500000920E-02 0.  1.
    10030    2    1    2    0    0  0.00000000000E+00  0.00000000000E+00  0.64674313783E+02  0.23699067904E+04  0.23690241511E+04 0.  0.
        4    1    3    3  502    0 -0.62400072283E+01  0.87775522488E+03 -0.76330442210E+03  0.11632404851E+04  0.12699999809E+01 0.  1.
       -4    1    3    3    0  502  0.62400072283E+01 -0.87775522488E+03  0.82797873588E+03  0.12066663053E+04  0.12699999809E+01 0. -1.
</event>
<event>
 5   0  0.2901816E-05  0.2361025E+04  0.7818609E-02  0.8454241E-01
        1   -1    0    0  501    0  0.00000000000E+00  0.00000000000E+00  0.10318914749E+04  0.10318914749E+04  0.50400001928E-02 0. -1.
       -1   -1    0    0    0  501  0.00000000000E+00  0.00000000000E+00 -0.13505392217E+04  0.13505392217E+04  0.50400001928E-02 0.  1.
    10030    2    1    2    0    0  0.00000000000E+00  0.00000000000E+00 -0.31864774681E+03  0.23824306966E+04  0.23610251243E+04 0.  0.
        4    1    3    3  502    0 -0.19999133844E+03 -0.80278028749E+03 -0.10090724134E+04  0.13048683742E+04  0.12699999809E+01 0.  1.
       -4    1    3    3    0  502  0.19999133844E+03  0.80278028749E+03  0.69042466663E+03  0.10775623224E+04  0.12699999809E+01 0. -1.
</event>
<event>
 5   0  0.6714629E-05  0.2443040E+04  0.7818609E-02  0.8423563E-01
       -2   -1    0    0    0  501  0.00000000000E+00  0.00000000000E+00  0.94149119959E+03  0.94149119959E+03  0.25500000920E-02 0.  1.
        2   -1    0    0  501    0  0.00000000000E+00  0.00000000000E+00 -0.15848386233E+04  0.15848386233E+04  0.25500000920E-02 0. -1.
    10030    2    1    2    0    0  0.00000000000E+00  0.00000000000E+00 -0.64334742375E+03  0.25263298229E+04  0.24430404144E+04 0.  0.
        3    1    3    3  502    0 -0.11694852815E+04  0.30149103016E+03 -0.51099722092E+03  0.13113774571E+04  0.10100000352E+00 0. -1.
       -3    1    3    3    0  502  0.11694852815E+04 -0.30149103016E+03 -0.13235020284E+03  0.12149523659E+04  0.10100000352E+00 0.  1.
</event>
<event>
 5   0  0.6714629E-05  0.2410722E+04  0.7818609E-02  0.8435500E-01
       -2   -1    0    0    0  501  0.00000000000E+00  0.00000000000E+00  0.51315006102E+03  0.51315006103E+03  0.25500000920E-02 0. -1.
        2   -1    0    0  501    0  0.00000000000E+00  0.00000000000E+00 -0.28313269886E+04  0.28313269886E+04  0.25500000920E-02 0.  1.
    10030    2    1    2    0    0  0.00000000000E+00  0.00000000000E+00 -0.23181769276E+04  0.33444770497E+04  0.24107223955E+04 0.  0.
        3    1    3    3  502    0 -0.63855438060E+03  0.52434776363E+03  0.58452871478E+02  0.82831698196E+03  0.10100000352E+00 0. -1.
       -3    1    3    3    0  502  0.63855438060E+03 -0.52434776363E+03 -0.23766297991E+04  0.25161600677E+04  0.10100000352E+00 0.  1.
</event>
<event>
 5   0  0.6714629E-05  0.2425677E+04  0.7818609E-02  0.8429953E-01
       -2   -1    0    0    0  501  0.00000000000E+00  0.00000000000E+00  0.42266714195E+03  0.42266714196E+03  0.25500000920E-02 0.  1.
        2   -1    0    0  501    0  0.00000000000E+00  0.00000000000E+00 -0.34802255616E+04  0.34802255616E+04  0.25500000920E-02 0. -1.
    10030    2    1    2    0    0  0.00000000000E+00  0.00000000000E+00 -0.30575584197E+04  0.39028927036E+04  0.24256768058E+04 0.  0.
        3    1    3    3  502    0 -0.30869213312E+03  0.67099412419E+03  0.19077906454E+02  0.73884228660E+03  0.10100000352E+00 0.  1.
       -3    1    3    3    0  502  0.30869213312E+03 -0.67099412419E+03 -0.30766363261E+04  0.31640504170E+04  0.10100000352E+00 0. -1.
</event>
<event>
 5   0  0.2915546E-05  0.2431161E+04  0.7818609E-02  0.8427929E-01
        1   -1    0    0  501    0  0.00000000000E+00  0.00000000000E+00  0.20618730426E+04  0.20618730426E+04  0.50400001928E-02 0.  1.
       -1   -1    0    0    0  501  0.00000000000E+00  0.00000000000E+00 -0.71664727921E+03  0.71664727923E+03  0.50400001928E-02 0. -1.
    10030    2    1    2    0    0  0.00000000000E+00  0.00000000000E+00  0.13452257633E+04  0.27785203218E+04  0.24311607977E+04 0.  0.
        2    1    3    3  502    0 -0.37622732427E+03  0.63066235815E+03  0.17797035190E+04  0.19252601448E+04  0.25500000920E-02 0.  1.
       -2    1    3    3    0  502  0.37622732427E+03 -0.63066235815E+03 -0.43447775565E+03  0.85326017701E+03  0.25500000920E-02 0. -1.
</event>
<event>
 5   0  0.6600166E-05  0.2378544E+04  0.7818609E-02  0.8447580E-01
       -2   -1    0    0    0  501  0.00000000000E+00  0.00000000000E+00  0.19755813484E+04  0.19755813484E+04  0.25500000920E-02 0. -1.
        2   -1    0    0  501    0  0.00000000000E+00  0.00000000000E+00 -0.71592490417E+03  0.71592490418E+03  0.25500000920E-02 0.  1.
    10030    2    1    2    0    0  0.00000000000E+00  0.00000000000E+00  0.12596564442E+04  0.26915062526E+04  0.23785439980E+04 0.  0.
        5    1    3    3  502    0  0.58473939364E+03  0.97303418199E+03  0.10309083000E+04  0.15334632995E+04  0.46999998093E+01 0. -1.
       -5    1    3    3    0  502 -0.58473939364E+03 -0.97303418199E+03  0.22874814423E+03  0.11580429531E+04  0.46999998093E+01 0.  1.
</event>
<event>
 5   0  0.6600166E-05  0.2426850E+04  0.7818609E-02  0.8429519E-01
        2   -1    0    0  501    0  0.00000000000E+00  0.00000000000E+00  0.10535059856E+04  0.10535059856E+04  0.25500000920E-02 0. -1.
       -2   -1    0    0    0  501  0.00000000000E+00  0.00000000000E+00 -0.13976189314E+04  0.13976189314E+04  0.25500000920E-02 0.  1.
    10030    2    1    2    0    0  0.00000000000E+00  0.00000000000E+00 -0.34411294576E+03  0.24511249170E+04  0.24268497356E+04 0.  0.
        5    1    3    3  502    0  0.71922297488E+03  0.93096654512E+03 -0.47234750527E+03  0.12677202576E+04  0.46999998093E+01 0.  1.
       -5    1    3    3    0  502 -0.71922297488E+03 -0.93096654512E+03  0.12823455951E+03  0.11834046594E+04  0.46999998093E+01 0. -1.
</event>
<event>
 5   0  0.6978115E-05  0.1909797E+04  0.7818609E-02  0.8649995E-01
       -2   -1    0    0    0  501  0.00000000000E+00  0.00000000000E+00  0.53935478980E+03  0.53935478981E+03  0.25500000920E-02 0. -1.
        2   -1    0    0  501    0  0.00000000000E+00  0.00000000000E+00 -0.16905958599E+04  0.16905958599E+04  0.25500000920E-02 0.  1.
    10030    2    1    2    0    0  0.00000000000E+00  0.00000000000E+00 -0.11512410701E+04  0.22299506497E+04  0.19097968213E+04 0.  0.
        4    1    3    3  502    0 -0.40150340757E+03 -0.49077537527E+03  0.25804649616E+03  0.68458386071E+03  0.12699999809E+01 0. -1.
       -4    1    3    3    0  502  0.40150340757E+03  0.49077537527E+03 -0.14092875663E+04  0.15453667890E+04  0.12699999809E+01 0.  1.
</event>
<event>
 5   0  0.6978115E-05  0.2310384E+04  0.7818609E-02  0.8473838E-01
       -2   -1    0    0    0  501  0.00000000000E+00  0.00000000000E+00  0.16197596721E+04  0.16197596721E+04  0.25500000920E-02 0.  1.
        2   -1    0    0  501    0  0.00000000000E+00  0.00000000000E+00 -0.82386825711E+03  0.82386825712E+03  0.25500000920E-02 0. -1.
    10030    2    1    2    0    0  0.00000000000E+00  0.00000000000E+00  0.79589141498E+03  0.24436279292E+04  0.23103840183E+04 0.  0.
        4    1    3    3  502    0 -0.98098729465E+03  0.39872364492E+03  0.88625381078E+03  0.13808562732E+04  0.12699999809E+01 0.  1.
       -4    1    3    3    0  502  0.98098729465E+03 -0.39872364492E+03 -0.90362395807E+02  0.10627716560E+04  0.12699999809E+01 0. -1.
</event>
<event>
 5   0  0.2915546E-05  0.2374371E+04  0.7818609E-02  0.8449161E-01
        1   -1    0    0  501    0  0.00000000000E+00  0.00000000000E+00  0.18880672030E+04  0.18880672030E+04  0.50400001928E-02 0.  1.
       -1   -1    0    0    0  501  0.00000000000E+00  0.00000000000E+00 -0.74648288091E+03  0.74648288093E+03  0.50400001928E-02 0. -1.
    10030    2    1    2    0    0  0.00000000000E+00  0.00000000000E+00  0.11415843221E+04  0.26345500840E+04  0.23743713653E+04 0.  0.
        2    1    3    3  502    0  0.67645504445E+03  0.83581766168E+03  0.11291505379E+04  0.15592188839E+04  0.25500000920E-02 0. -1.
       -2    1    3    3    0  502 -0.67645504445E+03 -0.83581766168E+03  0.12433784179E+02  0.10753312000E+04  0.25500000920E-02 0.  1.
</event>
<event>
 5   0  0.6714629E-05  0.2351159E+04  0.7818609E-02  0.8458019E-01
        2   -1    0    0  501    0  0.00000000000E+00  0.00000000000E+00  0.16615037404E+04  0.16615037404E+04  0.25500000920E-02 0. -1.
       -2   -1    0    0    0  501  0.00000000000E+00  0.00000000000E+00 -0.83176874636E+03  0.83176874636E+03  0.25500000920E-02 0.  1.
    10030    2    1    2    0    0  0.00000000000E+00  0.00000000000E+00  0.82973499404E+03  0.24932724868E+04  0.23511587639E+04 0.  0.
        3    1    3    3  502    0  0.40218801369E+03  0.55786422780E+02  0.15847827617E+04  0.16359718015E+04  0.10100000352E+00 0. -1.
       -3    1    3    3    0  502 -0.40218801369E+03 -0.55786422780E+02 -0.75504776765E+03  0.85730068527E+03  0.10100000352E+00 0.  1.
</event>
<event>
 5   0  0.2901816E-05  0.2395101E+04  0.7818609E-02  0.8441340E-01
        1   -1    0    0  501    0  0.00000000000E+00  0.00000000000E+00  0.21279037251E+04  0.21279037251E+04  0.50400001928E-02 0. -1.
       -1   -1    0    0    0  501  0.00000000000E+00  0.00000000000E+00 -0.67396222120E+03  0.67396222122E+03  0.50400001928E-02 0.  1.
    10030    2    1    2    0    0  0.00000000000E+00  0.00000000000E+00  0.14539415039E+04  0.28018659464E+04  0.23951006001E+04 0.  0.
        4    1    3    3  502    0  0.32342089724E+03  0.14993245773E+02 -0.62179015771E+03  0.70103529677E+03  0.12699999809E+01 0.  1.
       -4    1    3    3    0  502 -0.32342089724E+03 -0.14993245773E+02  0.20757316617E+04  0.21008306496E+04  0.12699999809E+01 0. -1.
</event>
<event>
 5   0  0.6337926E-05  0.2377354E+04  0.7818609E-02  0.8448031E-01
       -2   -1    0    0    0  501  0.00000000000E+00  0.00000000000E+00  0.10182684317E+04  0.10182684317E+04  0.25500000920E-02 0.  1.
        2   -1    0    0  501    0  0.00000000000E+00  0.00000000000E+00 -0.13876037065E+04  0.13876037065E+04  0.25500000920E-02 0. -1.
    10030    2    1    2    0    0  0.00000000000E+00  0.00000000000E+00 -0.36933527476E+03  0.24058721382E+04  0.23773540334E+04 0.  0.
        1    1    3    3  502    0 -0.70984379571E+03  0.58689105993E+03 -0.94510261805E+03  0.13196735540E+04  0.50400001928E-02 0. -1.
       -1    1    3    3    0  502  0.70984379571E+03 -0.58689105993E+03  0.57576734329E+03  0.10861985841E+04  0.50400001928E-02 0.  1.
</event>
<event>
 5   0  0.6703961E-05  0.2406416E+04  0.7818609E-02  0.8437105E-01
        2   -1    0    0  501    0  0.00000000000E+00  0.00000000000E+00  0.75661695874E+03  0.75661695874E+03  0.25500000920E-02 0.  1.
       -2   -1    0    0    0  501  0.00000000000E+00  0.00000000000E+00 -0.19133982084E+04  0.19133982084E+04  0.25500000920E-02 0. -1.
    10030    2    1    2    0    0  0.00000000000E+00  0.00000000000E+00 -0.11567812496E+04  0.26700151671E+04  0.24064160349E+04 0.  0.
        2    1    3    3  502    0 -0.11942855654E+04 -0.42570415266E+02 -0.42313712899E+03  0.12677441706E+04  0.25500000920E-02 0. -1.
       -2    1    3    3    0  502  0.11942855654E+04  0.42570415266E+02 -0.73364412064E+03  0.14022709966E+04  0.25500000920E-02 0.  1.
</event>
<event>
 5   0  0.2901816E-05  0.2466778E+04  0.7818609E-02  0.8414918E-01
        1   -1    0    0  501    0  0.00000000000E+00  0.00000000000E+00  0.15616735034E+04  0.15616735034E+04  0.50400001928E-02 0.  1.
       -1   -1    0    0    0  501  0.00000000000E+00  0.00000000000E+00 -0.97411419826E+03  0.97411419827E+03  0.50400001928E-02 0. -1.
    10030    2    1    2    0    0  0.00000000000E+00  0.00000000000E+00  0.58755930516E+03  0.25357877017E+04  0.24667779249E+04 0.  0.
        4    1    3    3  502    0 -0.60107731767E+03  0.88965624231E+03 -0.33021474782E+03  0.11233100925E+04  0.12699999809E+01 0. -1.
       -4    1    3    3    0  502  0.60107731767E+03 -0.88965624231E+03  0.91777405299E+03  0.14124776092E+04  0.12699999809E+01 0.  1.
</event>
<event>
 5   0  0.2915546E-05  0.2416078E+04  0.7818609E-02  0.8433508E-01
        1   -1    0    0  501    0  0.00000000000E+00  0.00000000000E+00  0.16522026454E+04  0.16522026454E+04  0.50400001928E-02 0. -1.
       -1   -1    0    0    0  501  0.00000000000E+00  0.00000000000E+00 -0.88328073527E+03  0.88328073529E+03  0.50400001928E-02 0.  1.
    10030    2    1    2    0    0  0.00000000000E+00  0.00000000000E+00  0.76892191017E+03  0.25354833807E+04  0.24160784487E+04 0.  0.
        2    1    3    3  502    0  0.46125438917E+03 -0.59838303524E+03  0.13736708417E+04  0.15677338581E+04  0.25500000920E-02 0. -1.
       -2    1    3    3    0  502 -0.46125438917E+03  0.59838303524E+03 -0.60474893155E+03  0.96774952265E+03  0.25500000920E-02 0.  1.
</event>
<event>
 5   0  0.6978115E-05  0.2390186E+04  0.7818609E-02  0.8443187E-01
        2   -1    0    0  501    0  0.00000000000E+00  0.00000000000E+00  0.17338066087E+04  0.17338066087E+04  0.25500000920E-02 0. -1.
       -2   -1    0    0    0  501  0.00000000000E+00  0.00000000000E+00 -0.82376363074E+03  0.82376363074E+03  0.25500000920E-02 0.  1.
    10030    2    1    2    0    0  0.00000000000E+00  0.00000000000E+00  0.91004297794E+03  0.25575702394E+04  0.23901856221E+04 0.  0.
        4    1    3    3  502    0 -0.26051183749E+03 -0.82809553994E+03 -0.42386114012E+03  0.96605823827E+03  0.12699999809E+01 0.  1.
       -4    1    3    3    0  502  0.26051183749E+03  0.82809553994E+03  0.13339041181E+04  0.15915120012E+04  0.12699999809E+01 0. -1.
</event>
<event>
 5   0  0.6978115E-05  0.2375541E+04  0.7818609E-02  0.8448718E-01
       -2   -1    0    0    0  501  0.00000000000E+00  0.00000000000E+00  0.60404368001E+03  0.60404368001E+03  0.25500000920E-02 0. -1.
        2   -1    0    0  501    0  0.00000000000E+00  0.00000000000E+00 -0.23355908675E+04  0.23355908675E+04  0.25500000920E-02 0.  1.
    10030    2    1    2    0    0  0.00000000000E+00  0.00000000000E+00 -0.17315471875E+04  0.29396345475E+04  0.23755411195E+04 0.  0.
        4    1    3    3  502    0 -0.23094127680E+03  0.10204042569E+04 -0.15616597685E+04  0.18797184806E+04  0.12699999809E+01 0.  1.
       -4    1    3    3    0  502  0.23094127680E+03 -0.10204042569E+04 -0.16988741899E+03  0.10599160669E+04  0.12699999809E+01 0. -1.
</event>
<event>
 5   0  0.2901816E-05  0.2422004E+04  0.7818609E-02  0.8431311E-01
        1   -1    0    0  501    0  0.00000000000E+00  0.00000000000E+00  0.11916544047E+04  0.11916544047E+04  0.50400001928E-02 0. -1.
       -1   -1    0    0    0  501  0.00000000000E+00  0.00000000000E+00 -0.12306640638E+04  0.12306640638E+04  0.50400001928E-02 0.  1.
    10030    2    1    2    0    0  0.00000000000E+00  0.00000000000E+00 -0.39009659031E+02  0.24223184685E+04  0.24220043372E+04 0.  0.
        4    1    3    3  502    0  0.33441002212E+03  0.26689688838E+03 -0.11525509786E+04  0.12294061099E+04  0.12699999809E+01 0.  1.
       -4    1    3    3    0  502 -0.33441002212E+03 -0.26689688838E+03  0.11135413196E+04  0.11929123586E+04  0.12699999809E+01 0. -1.
</event>
<event>
 5   0  0.2915546E-05  0.2340982E+04  0.7818609E-02  0.8461935E-01
        1   -1    0    0  501    0  0.00000000000E+00  0.00000000000E+00  0.14559234677E+04  0.14559234677E+04  0.50400001928E-02 0.  1.
       -1   -1    0    0    0  501  0.00000000000E+00  0.00000000000E+00 -0.94101748970E+03  0.94101748971E+03  0.50400001928E-02 0. -1.
    10030    2    1    2    0    0  0.00000000000E+00  0.00000000000E+00  0.51490597798E+03  0.23969409574E+04  0.23409822270E+04 0.  0.
        2    1    3    3  502    0  0.99233178149E+03 -0.88385486537E+02  0.88656268211E+03  0.13336145425E+04  0.25500000920E-02 0.  1.
       -2    1    3    3    0  502 -0.99233178149E+03  0.88385486537E+02 -0.37165670412E+03  0.10633264148E+04  0.25500000920E-02 0. -1.
</event>
<event>
 5   0  0.6600166E-05  0.2395006E+04  0.7818609E-02  0.8441376E-01
       -2   -1    0    0    0  501  0.00000000000E+00  0.00000000000E+00  0.12542067547E+04  0.12542067547E+04  0.25500000920E-02 0. -1.
        2   -1    0    0  501    0  0.00000000000E+00  0.00000000000E+00 -0.11433630555E+04  0.11433630555E+04  0.25500000920E-02 0.  1.
    10030    2    1    2    0    0  0.00000000000E+00  0.00000000000E+00  0.11084369928E+03  0.23975698102E+04  0.23950061940E+04 0.  0.
        5    1    3    3  502    0  0.43177696235E+03  0.39074574967E+02  0.11728753598E+04  0.12504466671E+04  0.46999998093E+01 0. -1.
       -5    1    3    3    0  502 -0.43177696235E+03 -0.39074574967E+02 -0.10620316605E+04  0.11471231431E+04  0.46999998093E+01 0.  1.
</event>
<event>
 5   0  0.6600166E-05  0.2385574E+04  0.7818609E-02  0.8444924E-01
        2   -1    0    0  501    0  0.00000000000E+00  0.00000000000E+00  0.12001615326E+04  0.12001615326E+04  0.25500000920E-02 0.  1.
       -2   -1    0    0    0  501  0.00000000000E+00  0.00000000000E+00 -0.11854573115E+04  0.11854573115E+04  0.25500000920E-02 0. -1.
    10030    2    1    2    0    0  0.00000000000E+00  0.00000000000E+00  0.14704221087E+02  0.23856188442E+04  0.23855735276E+04 0.  0.
        5    1    3    3  502    0 -0.94433143256E+03 -0.64615742116E+02  0.73316278765E+03  0.11972830959E+04  0.46999998093E+01 0.  1.
       -5    1    3    3    0  502  0.94433143256E+03  0.64615742116E+02 -0.71845856656E+03  0.11883357482E+04  0.46999998093E+01 0. -1.
</event>
<event>
 5   0  0.2847158E-05  0.1811263E+04  0.7818609E-02  0.8700333E-01
        1   -1    0    0  501    0  0.00000000000E+00  0.00000000000E+00  0.10571800876E+04  0.10571800876E+04  0.50400001928E-02 0. -1.
       -1   -1    0    0    0  501  0.00000000000E+00  0.00000000000E+00 -0.77580759765E+03  0.77580759766E+03  0.50400001928E-02 0.  1.
    10030    2    1    2    0    0  0.00000000000E+00  0.00000000000E+00  0.28137248996E+03  0.18329876853E+04  0.18112629230E+04 0.  0.
        5    1    3    3  502    0 -0.33749451880E+03  0.81294399099E+03  0.35623335283E+03  0.94958136796E+03  0.46999998093E+01 0. -1.
       -5    1    3    3    0  502  0.33749451880E+03 -0.81294399099E+03 -0.74860862869E+02  0.88340631733E+03  0.46999998093E+01 0.  1.
</event>
<event>
 5   0  0.6703961E-05  0.1858235E+04  0.7818609E-02  0.8675929E-01
       -2   -1    0    0    0  501  0.00000000000E+00  0.00000000000E+00  0.61761636622E+03  0.61761636623E+03  0.25500000920E-02 0.  1.
        2   -1    0    0  501    0  0.00000000000E+00  0.00000000000E+00 -0.13977278439E+04  0.13977278439E+04  0.25500000920E-02 0. -1.
    10030    2    1    2    0    0  0.00000000000E+00  0.00000000000E+00 -0.78011147772E+03  0.20153442102E+04  0.18582352832E+04 0.  0.
        2    1    3    3  502    0 -0.57060869152E+03  0.28021794104E+03 -0.11249462117E+04  0.12921379000E+04  0.25500000920E-02 0.  1.
       -2    1    3    3    0  502  0.57060869152E+03 -0.28021794104E+03  0.34483473399E+03  0.72320631019E+03  0.25500000920E-02 0. -1.
</event>
<event>
 5   0  0.2901816E-05  0.2422571E+04  0.7818609E-02  0.8431102E-01
        1   -1    0    0  501    0  0.00000000000E+00  0.00000000000E+00  0.16764897556E+04  0.16764897556E+04  0.50400001928E-02 0. -1.
       -1   -1    0    0    0  501  0.00000000000E+00  0.00000000000E+00 -0.87516907577E+03  0.87516907578E+03  0.50400001928E-02 0.  1.
    10030    2    1    2    0    0  0.00000000000E+00  0.00000000000E+00  0.80132067981E+03  0.25516588314E+04  0.24225705273E+04 0.  0.
        4    1    3    3  502    0  0.51901429513E+03  0.92337627908E+03  0.10195145582E+04  0.14701738464E+04  0.12699999809E+01 0.  1.
       -4    1    3    3    0  502 -0.51901429513E+03 -0.92337627908E+03 -0.21819387838E+03  0.10814849850E+04  0.12699999809E+01 0. -1.
</event>
<event>
 5   0  0.6714629E-05  0.2350525E+04  0.7818609E-02  0.8458262E-01
        2   -1    0    0  501    0  0.00000000000E+00  0.00000000000E+00  0.94758396824E+03  0.94758396824E+03  0.25500000920E-02 0.  1.
       -2   -1    0    0    0  501  0.00000000000E+00  0.00000000000E+00 -0.14576457399E+04  0.14576457399E+04  0.25500000920E-02 0. -1.
    10030    2    1    2    0    0  0.00000000000E+00  0.00000000000E+00 -0.51006177167E+03  0.24052297081E+04  0.23505248218E+04 0.  0.
        3    1    3    3  502    0 -0.15102107166E+03  0.45945363164E+03 -0.13510980423E+04  0.14350508471E+04  0.10100000352E+00 0. -1.
       -3    1    3    3    0  502  0.15102107166E+03 -0.45945363164E+03  0.84103627062E+03  0.97017886104E+03  0.10100000352E+00 0.  1.
</event>
<event>
 5   0  0.6600166E-05  0.2400441E+04  0.7818609E-02  0.8439339E-01
       -2   -1    0    0    0  501  0.00000000000E+00  0.00000000000E+00  0.13739700179E+04  0.13739700179E+04  0.25500000920E-02 0.  1.
        2   -1    0    0  501    0  0.00000000000E+00  0.00000000000E+00 -0.10484429392E+04  0.10484429392E+04  0.25500000920E-02 0. -1.
    10030    2    1    2    0    0  0.00000000000E+00  0.00000000000E+00  0.32552707871E+03  0.24224129572E+04  0.24004409295E+04 0.  0.
        5    1    3    3  502    0  0.61427384890E+03  0.10293282573E+04  0.10172810366E+03  0.12030044555E+04  0.46999998093E+01 0.  1.
       -5    1    3    3    0  502 -0.61427384890E+03 -0.10293282573E+04  0.22379897504E+03  0.12194085017E+04  0.46999998093E+01 0. -1.
</event>
<event>
 5   0  0.6703961E-05  0.2379912E+04  0.7818609E-02  0.8447063E-01
        2   -1    0    0  501    0  0.00000000000E+00  0.00000000000E+00  0.13230617291E+04  0.13230617291E+04  0.25500000920E-02 0. -1.
       -2   -1    0    0    0  501  0.00000000000E+00  0.00000000000E+00 -0.10702413130E+04  0.10702413130E+04  0.25500000920E-02 0.  1.
    10030    2    1    2    0    0  0.00000000000E+00  0.00000000000E+00  0.25282041617E+03  0.23933030421E+04  0.23799120338E+04 0.  0.
        2    1    3    3  502    0  0.92133143597E+03 -0.34637295379E+03  0.79888013481E+03  0.12676889634E+04  0.25500000920E-02 0. -1.
       -2    1    3    3    0  502 -0.92133143597E+03  0.34637295379E+03 -0.54605971864E+03  0.11256140788E+04  0.25500000920E-02 0.  1.
</event>
<event>
 5   0  0.2943244E-05  0.2323379E+04  0.7818609E-02  0.8468760E-01
        1   -1    0    0  501    0  0.00000000000E+00  0.00000000000E+00  0.12758079067E+04  0.12758079067E+04  0.50400001928E-02 0. -1.
       -1   -1    0    0    0  501  0.00000000000E+00  0.00000000000E+00 -0.10577783494E+04  0.10577783495E+04  0.50400001928E-02 0.  1.
    10030    2    1    2    0    0  0.00000000000E+00  0.00000000000E+00  0.21802955729E+03  0.23335862562E+04  0.23233785587E+04 0.  0.
        3    1    3    3  502    0 -0.11162179953E+04  0.14613944021E+03  0.39701945790E+03  0.11937017253E+04  0.10100000352E+00 0.  1.
       -3    1    3    3    0  502  0.11162179953E+04 -0.14613944021E+03 -0.17898990061E+03  0.11398845308E+04  0.10100000352E+00 0. -1.
</event>
<event>
 5   0  0.6703961E-05  0.2430192E+04  0.7818609E-02  0.8428286E-01
        2   -1    0    0  501    0  0.00000000000E+00  0.00000000000E+00  0.14186364962E+04  0.14186364962E+04  0.25500000920E-02 0. -1.
       -2   -1    0    0    0  501  0.00000000000E+00  0.00000000000E+00 -0.10407584577E+04  0.10407584577E+04  0.25500000920E-02 0.  1.
    10030    2    1    2    0    0  0.00000000000E+00  0.00000000000E+00  0.37787803853E+03  0.24593949539E+04  0.24301917058E+04 0.  0.
        2    1    3    3  502    0 -0.49407877010E+03 -0.67538488340E+02 -0.93242983603E+03  0.10574027982E+04  0.25500000920E-02 0.  1.
       -2    1    3    3    0  502  0.49407877010E+03  0.67538488340E+02  0.13103078746E+04  0.14019921557E+04  0.25500000920E-02 0. -1.
</event>
<event>
 5   0  0.2847158E-05  0.2332878E+04  0.7818609E-02  0.8465070E-01
        1   -1    0    0  501    0  0.00000000000E+00  0.00000000000E+00  0.78499837087E+03  0.78499837088E+03  0.50400001928E-02 0. -1.
       -1   -1    0    0    0  501  0.00000000000E+00  0.00000000000E+00 -0.17332260781E+04  0.17332260781E+04  0.50400001928E-02 0.  1.
    10030    2    1    2    0    0  0.00000000000E+00  0.00000000000E+00 -0.94822770727E+03  0.25182244490E+04  0.23328777488E+04 0.  0.
        5    1    3    3  502    0 -0.57498732647E+03 -0.93681983367E+03 -0.89539772757E+03  0.14177450430E+04  0.46999998093E+01 0.  1.
       -5    1    3    3    0  502  0.57498732647E+03  0.93681983367E+03 -0.52829979698E+02  0.11004794060E+04  0.46999998093E+01 0. -1.
</event>
<event>
 5   0  0.2901816E-05  0.2365664E+04  0.7818609E-02  0.8452471E-01
        1   -1    0    0  501    0  0.00000000000E+00  0.00000000000E+00  0.20489983909E+04  0.20489983909E+04  0.50400001928E-02 0.  1.
       -1   -1    0    0    0  501  0.00000000000E+00  0.00000000000E+00 -0.68281732684E+03  0.68281732686E+03  0.50400001928E-02 0. -1.
    10030    2    1    2    0    0  0.00000000000E+00  0.00000000000E+00  0.13661810640E+04  0.27318157178E+04  0.23656640539E+04 0.  0.
        4    1    3    3  502    0  0.10153717850E+04  0.15970012297E+03  0.13590113316E+04  0.17039358566E+04  0.12699999809E+01 0.  1.
       -4    1    3    3    0  502 -0.10153717850E+04 -0.15970012297E+03  0.71697324024E+01  0.10278798612E+04  0.12699999809E+01 0. -1.
</event>
<event>
 5   0  0.6714629E-05  0.2461666E+04  0.7818609E-02  0.8416771E-01
        2   -1    0    0  501    0  0.00000000000E+00  0.00000000000E+00  0.20964492231E+04  0.20964492231E+04  0.25500000920E-02 0. -1.
       -2   -1    0    0    0  501  0.00000000000E+00  0.00000000000E+00 -0.72262643636E+03  0.72262643636E+03  0.25500000920E-02 0.  1.
    10030    2    1    2    0    0  0.00000000000E+00  0.00000000000E+00  0.13738227867E+04  0.28190756594E+04  0.24616658027E+04 0.  0.
        3    1    3    3  502    0 -0.96495496074E+03 -0.48672343585E+03  0.12403243441E+02  0.10808291400E+04  0.10100000352E+00 0.  1.
       -3    1    3    3    0  502  0.96495496074E+03  0.48672343585E+03  0.13614195433E+04  0.17382465194E+04  0.10100000352E+00 0. -1.
</event>
<event>
 5   0  0.2943244E-05  0.2444049E+04  0.7818609E-02  0.8423194E-01
        1   -1    0    0  501    0  0.00000000000E+00  0.00000000000E+00  0.83665412805E+03  0.83665412806E+03  0.50400001928E-02 0.  1.
       -1   -1    0    0    0  501  0.00000000000E+00  0.00000000000E+00 -0.17849004481E+04  0.17849004481E+04  0.50400001928E-02 0. -1.
    10030    2    1    2    0    0  0.00000000000E+00  0.00000000000E+00 -0.94824632007E+03  0.26215545762E+04  0.24440493678E+04 0.  0.
        3    1    3    3  502    0  0.26130920469E+03  0.71960966649E+03 -0.14957825566E+04  0.16803231949E+04  0.10100000352E+00 0. -1.
       -3    1    3    3    0  502 -0.26130920469E+03 -0.71960966649E+03  0.54753623653E+03  0.94123138127E+03  0.10100000352E+00 0.  1.
</event>
<event>
 5   0  0.2915546E-05  0.2397233E+04  0.7818609E-02  0.8440540E-01
       -1   -1    0    0    0  501  0.00000000000E+00  0.00000000000E+00  0.13266744446E+04  0.13266744446E+04  0.50400001928E-02 0. -1.
        1   -1    0    0  501    0  0.00000000000E+00  0.00000000000E+00 -0.10829195838E+04  0.10829195838E+04  0.50400001928E-02 0.  1.
    10030    2    1    2    0    0  0.00000000000E+00  0.00000000000E+00  0.24375486075E+03  0.24095940284E+04  0.23972331863E+04 0.  0.
        2    1    3    3  502    0  0.25433797552E+03  0.10709555693E+04  0.59871588565E+03  0.12530340574E+04  0.25500000920E-02 0. -1.
       -2    1    3    3    0  502 -0.25433797552E+03 -0.10709555693E+04 -0.35496102490E+03  0.11565599710E+04  0.25500000920E-02 0.  1.
</event>
<event>
 5   0  0.2915546E-05  0.2334335E+04  0.7818609E-02  0.8464505E-01
        1   -1    0    0  501    0  0.00000000000E+00  0.00000000000E+00  0.16913427616E+04  0.16913427616E+04  0.50400001928E-02 0. -1.
       -1   -1    0    0    0  501  0.00000000000E+00  0.00000000000E+00 -0.80544282819E+03  0.80544282820E+03  0.50400001928E-02 0.  1.
    10030    2    1    2    0    0  0.00000000000E+00  0.00000000000E+00  0.88589993345E+03  0.24967855899E+04  0.23343349352E+04 0.  0.
        2    1    3    3  502    0  0.82547242131E+03 -0.14319276985E+03  0.13121346793E+04  0.15567935972E+04  0.25500000920E-02 0. -1.
       -2    1    3    3    0  502 -0.82547242131E+03  0.14319276985E+03 -0.42623474584E+03  0.93999199265E+03  0.25500000920E-02 0.  1.
</event>
<event>
 5   0  0.6978115E-05  0.2426106E+04  0.7818609E-02  0.8429794E-01
        2   -1    0    0  501    0  0.00000000000E+00  0.00000000000E+00  0.14332258693E+04  0.14332258693E+04  0.25500000920E-02 0.  1.
       -2   -1    0    0    0  501  0.00000000000E+00  0.00000000000E+00 -0.10267029278E+04  0.10267029278E+04  0.25500000920E-02 0. -1.
    10030    2    1    2    0    0  0.00000000000E+00  0.00000000000E+00  0.40652294156E+03  0.24599287971E+04  0.24261056829E+04 0.  0.
        4    1    3    3  502    0 -0.49607432732E+03  0.36335071314E+03 -0.85696538831E+03  0.10547534160E+04  0.12699999809E+01 0. -1.
       -4    1    3    3    0  502  0.49607432732E+03 -0.36335071314E+03  0.12634883299E+04  0.14051753811E+04  0.12699999809E+01 0.  1.
</event>
<event>
 5   0  0.2901816E-05  0.2424655E+04  0.7818609E-02  0.8430330E-01
        1   -1    0    0  501    0  0.00000000000E+00  0.00000000000E+00  0.19881268089E+04  0.19881268089E+04  0.50400001928E-02 0. -1.
       -1   -1    0    0    0  501  0.00000000000E+00  0.00000000000E+00 -0.73925762356E+03  0.73925762357E+03  0.50400001928E-02 0.  1.
    10030    2    1    2    0    0  0.00000000000E+00  0.00000000000E+00  0.12488691854E+04  0.27273844325E+04  0.24246549446E+04 0.  0.
        4    1    3    3  502    0  0.14024724316E+03 -0.89283033170E+03  0.15333568375E+04  0.17798876634E+04  0.12699999809E+01 0. -1.
       -4    1    3    3    0  502 -0.14024724316E+03  0.89283033170E+03 -0.28448765208E+03  0.94749676913E+03  0.12699999809E+01 0.  1.
</event>
<event>
 5   0  0.2943123E-05  0.2463594E+04  0.7818609E-02  0.8416071E-01
       -1   -1    0    0    0  501  0.00000000000E+00  0.00000000000E+00  0.45724423451E+03  0.45724423454E+03  0.50400001928E-02 0.  1.
        1   -1    0    0  501    0  0.00000000000E+00  0.00000000000E+00 -0.33184103319E+04  0.33184103319E+04  0.50400001928E-02 0. -1.
    10030    2    1    2    0    0  0.00000000000E+00  0.00000000000E+00 -0.28611660974E+04  0.37756545664E+04  0.24635941160E+04 0.  0.
        1    1    3    3  502    0 -0.32047120472E+03 -0.11446234713E+04 -0.19259153705E+04  0.22631868457E+04  0.50400001928E-02 0.  1.
       -1    1    3    3    0  502  0.32047120472E+03  0.11446234713E+04 -0.93525072692E+03  0.15124677208E+04  0.50400001928E-02 0. -1.
</event>
<event>
 5   0  0.6600166E-05  0.2318517E+04  0.7818609E-02  0.8470656E-01
       -2   -1    0    0    0  501  0.00000000000E+00  0.00000000000E+00  0.11071689233E+04  0.11071689233E+04  0.25500000920E-02 0.  1.
        2   -1    0    0  501    0  0.00000000000E+00  0.00000000000E+00 -0.12137987184E+04  0.12137987184E+04  0.25500000920E-02 0. -1.
    10030    2    1    2    0    0  0.00000000000E+00  0.00000000000E+00 -0.10662979503E+03  0.23209676417E+04  0.23185169571E+04 0.  0.
        5    1    3    3  502    0  0.90157011239E+03 -0.71620558553E+03 -0.18791527376E+03  0.11666676255E+04  0.46999998093E+01 0. -1.
       -5    1    3    3    0  502 -0.90157011239E+03  0.71620558553E+03  0.81285478725E+02  0.11543000162E+04  0.46999998093E+01 0.  1.
</event>
<event>
 5   0  0.6337926E-05  0.2412340E+04  0.7818609E-02  0.8434898E-01
        2   -1    0    0  501    0  0.00000000000E+00  0.00000000000E+00  0.16087670115E+04  0.16087670115E+04  0.25500000920E-02 0. -1.
       -2   -1    0    0    0  501  0.00000000000E+00  0.00000000000E+00 -0.90432335282E+03  0.90432335282E+03  0.25500000920E-02 0.  1.
    10030    2    1    2    0    0  0.00000000000E+00  0.00000000000E+00  0.70444365865E+03  0.25130903643E+04  0.24123395928E+04 0.  0.
        1    1    3    3  502    0  0.30550624652E+03 -0.94207775159E+02  0.15638244285E+04  0.15961691686E+04  0.50400001928E-02 0. -1.
       -1    1    3    3    0  502 -0.30550624652E+03  0.94207775159E+02 -0.85938076983E+03  0.91692119571E+03  0.50400001928E-02 0.  1.
</event>
<event>
 5   0  0.6337926E-05  0.2439173E+04  0.7818609E-02  0.8424982E-01
        2   -1    0    0  501    0  0.00000000000E+00  0.00000000000E+00  0.74997169135E+03  0.74997169136E+03  0.25500000920E-02 0. -1.
       -2   -1    0    0    0  501  0.00000000000E+00  0.00000000000E+00 -0.19832624669E+04  0.19832624669E+04  0.25500000920E-02 0.  1.
    10030    2    1    2    0    0  0.00000000000E+00  0.00000000000E+00 -0.12332907755E+04  0.27332341582E+04  0.24391725701E+04 0.  0.
        1    1    3    3  502    0  0.10299643500E+04 -0.61778033873E+03 -0.37917275674E+03  0.12594646039E+04  0.50400001928E-02 0. -1.
       -1    1    3    3    0  502 -0.10299643500E+04  0.61778033873E+03 -0.85411801879E+03  0.14737695543E+04  0.50400001928E-02 0.  1.
</event>
<event>
 5   0  0.2943244E-05  0.2435943E+04  0.7818609E-02  0.8426168E-01
        1   -1    0    0  501    0  0.00000000000E+00  0.00000000000E+00  0.11978796490E+04  0.11978796490E+04  0.50400001928E-02 0. -1.
       -1   -1    0    0    0  501  0.00000000000E+00  0.00000000000E+00 -0.12384008136E+04  0.12384008136E+04  0.50400001928E-02 0.  1.
    10030    2    1    2    0    0  0.00000000000E+00  0.00000000000E+00 -0.40521164584E+02  0.24362804626E+04  0.24359434574E+04 0.  0.
        3    1    3    3  502    0 -0.11070953153E+04  0.16229007357E+03 -0.50142693979E+03  0.12261431774E+04  0.10100000352E+00 0.  1.
       -3    1    3    3    0  502  0.11070953153E+04 -0.16229007357E+03  0.46090577521E+03  0.12101372852E+04  0.10100000352E+00 0. -1.
</event>
<event>
 5   0  0.6600166E-05  0.2106271E+04  0.7818609E-02  0.8558486E-01
        2   -1    0    0  501    0  0.00000000000E+00  0.00000000000E+00  0.18471007619E+04  0.18471007619E+04  0.25500000920E-02 0.  1.
       -2   -1    0    0    0  501  0.00000000000E+00  0.00000000000E+00 -0.60045151909E+03  0.60045151910E+03  0.25500000920E-02 0. -1.
    10030    2    1    2    0    0  0.00000000000E+00  0.00000000000E+00  0.12466492428E+04  0.24475522810E+04  0.21062710732E+04 0.  0.
        5    1    3    3  502    0 -0.45191741274E+03 -0.50886859288E+03  0.15572215263E+04  0.16994521366E+04  0.46999998093E+01 0.  1.
       -5    1    3    3    0  502  0.45191741274E+03  0.50886859288E+03 -0.31057228347E+03  0.74810014438E+03  0.46999998093E+01 0. -1.
</event>
<event>
 5   0  0.6703961E-05  0.2401391E+04  0.7818609E-02  0.8438983E-01
       -2   -1    0    0    0  501  0.00000000000E+00  0.00000000000E+00  0.12622447635E+04  0.12622447635E+04  0.25500000920E-02 0.  1.
        2   -1    0    0  501    0  0.00000000000E+00  0.00000000000E+00 -0.11421476481E+04  0.11421476481E+04  0.25500000920E-02 0. -1.
    10030    2    1    2    0    0  0.00000000000E+00  0.00000000000E+00  0.12009711541E+03  0.24043924116E+04  0.24013911701E+04 0.  0.
        2    1    3    3  502    0  0.65073986165E+02 -0.87036327929E+02  0.12573105310E+04  0.12619983033E+04  0.25500000920E-02 0.  1.
       -2    1    3    3    0  502 -0.65073986165E+02  0.87036327929E+02 -0.11372134156E+04  0.11423941083E+04  0.25500000920E-02 0. -1.
</event>
<event>
 5   0  0.2847158E-05  0.2411588E+04  0.7818609E-02  0.8435178E-01
        1   -1    0    0  501    0  0.00000000000E+00  0.00000000000E+00  0.17576515107E+04  0.17576515107E+04  0.50400001928E-02 0.  1.
       -1   -1    0    0    0  501  0.00000000000E+00  0.00000000000E+00 -0.82720531060E+03  0.82720531062E+03  0.50400001928E-02 0. -1.
    10030    2    1    2    0    0  0.00000000000E+00  0.00000000000E+00  0.93044620012E+03  0.25848568214E+04  0.24115875799E+04 0.  0.
        5    1    3    3  502    0 -0.46361944604E+03  0.66487121038E+03 -0.49162010597E+03  0.94800270871E+03  0.46999998093E+01 0. -1.
       -5    1    3    3    0  502  0.46361944604E+03 -0.66487121038E+03  0.14220663061E+04  0.16368541126E+04  0.46999998093E+01 0.  1.
</event>
<event>
 5   0  0.6337926E-05  0.2378465E+04  0.7818609E-02  0.8447610E-01
       -2   -1    0    0    0  501  0.00000000000E+00  0.00000000000E+00  0.13374900171E+04  0.13374900171E+04  0.25500000920E-02 0. -1.
        2   -1    0    0  501    0  0.00000000000E+00  0.00000000000E+00 -0.10574091372E+04  0.10574091372E+04  0.25500000920E-02 0.  1.
    10030    2    1    2    0    0  0.00000000000E+00  0.00000000000E+00  0.28008087993E+03  0.23948991543E+04  0.23784651899E+04 0.  0.
        1    1    3    3  502    0 -0.98185098270E+03  0.47929187067E+03 -0.33280206114E+03  0.11421511553E+04  0.50400001928E-02 0.  1.
       -1    1    3    3    0  502  0.98185098270E+03 -0.47929187067E+03  0.61288294107E+03  0.12527479990E+04  0.50400001928E-02 0. -1.
</event>
<event>
 5   0  0.6978115E-05  0.2422974E+04  0.7818609E-02  0.8430952E-01
       -2   -1    0    0    0  501  0.00000000000E+00  0.00000000000E+00  0.81513151519E+03  0.81513151519E+03  0.25500000920E-02 0. -1.
        2   -1    0    0  501    0  0.00000000000E+00  0.00000000000E+00 -0.18005696112E+04  0.18005696112E+04  0.25500000920E-02 0.  1.
    10030    2    1    2    0    0  0.00000000000E+00  0.00000000000E+00 -0.98543809603E+03  0.26157011264E+04  0.24229742346E+04 0.  0.
        4    1    3    3  502    0 -0.76469719787E+03 -0.92101809478E+03 -0.69370893041E+03  0.13835714034E+04  0.12699999809E+01 0.  1.
       -4    1    3    3    0  502  0.76469719787E+03  0.92101809478E+03 -0.29172916563E+03  0.12321297230E+04  0.12699999809E+01 0. -1.
</event>
<event>
 5   0  0.6337926E-05  0.2201990E+04  0.7818609E-02  0.8517600E-01
       -2   -1    0    0    0  501  0.00000000000E+00  0.00000000000E+00  0.16615679893E+04  0.16615679893E+04  0.25500000920E-02 0. -1.
        2   -1    0    0  501    0  0.00000000000E+00  0.00000000000E+00 -0.72954584198E+03  0.72954584198E+03  0.25500000920E-02 0.  1.
    10030    2    1    2    0    0  0.00000000000E+00  0.00000000000E+00  0.93202214728E+03  0.23911138312E+04  0.22019900252E+04 0.  0.
        1    1    3    3  502    0  0.84893161184E+03 -0.39810803261E+02  0.12260705768E+04  0.14918172948E+04  0.50400001928E-02 0. -1.
       -1    1    3    3    0  502 -0.84893161184E+03  0.39810803261E+02 -0.29404842951E+03  0.89929653649E+03  0.50400001928E-02 0.  1.
</event>
<event>
 5   0  0.6703961E-05  0.2625761E+04  0.7818609E-02  0.8359503E-01
       -2   -1    0    0    0  501  0.00000000000E+00  0.00000000000E+00  0.67225673436E+03  0.67225673437E+03  0.25500000920E-02 0.  1.
        2   -1    0    0  501    0  0.00000000000E+00  0.00000000000E+00 -0.25639836427E+04  0.25639836427E+04  0.25500000920E-02 0. -1.
    10030    2    1    2    0    0  0.00000000000E+00  0.00000000000E+00 -0.18917269083E+04  0.32362403771E+04  0.26257610482E+04 0.  0.
        2    1    3    3  502    0 -0.11805792456E+04 -0.19581328896E+03 -0.28037822197E+03  0.12291143749E+04  0.25500000920E-02 0.  1.
       -2    1    3    3    0  502  0.11805792456E+04  0.19581328896E+03 -0.16113486864E+04  0.20071260021E+04  0.25500000920E-02 0. -1.
</event>
<event>
 5   0  0.2915546E-05  0.2284310E+04  0.7818609E-02  0.8484133E-01
       -1   -1    0    0    0  501  0.00000000000E+00  0.00000000000E+00  0.10082129100E+04  0.10082129100E+04  0.50400001928E-02 0.  1.
        1   -1    0    0  501    0  0.00000000000E+00  0.00000000000E+00 -0.12938912468E+04  0.12938912468E+04  0.50400001928E-02 0. -1.
    10030    2    1    2    0    0  0.00000000000E+00  0.00000000000E+00 -0.28567833679E+03  0.23021041569E+04  0.22843098382E+04 0.  0.
        2    1    3    3  502    0 -0.37561092818E+03  0.34038095415E+03 -0.11743232771E+04  0.12790535260E+04  0.25500000920E-02 0.  1.
       -2    1    3    3    0  502  0.37561092818E+03 -0.34038095415E+03  0.88864494030E+03  0.10230506308E+04  0.25500000920E-02 0. -1.
</event>
<event>
 5   0  0.2915546E-05  0.2431260E+04  0.7818609E-02  0.8427892E-01
       -1   -1    0    0    0  501  0.00000000000E+00  0.00000000000E+00  0.87035457193E+03  0.87035457194E+03  0.50400001928E-02 0.  1.
        1   -1    0    0  501    0  0.00000000000E+00  0.00000000000E+00 -0.16978788573E+04  0.16978788574E+04  0.50400001928E-02 0. -1.
    10030    2    1    2    0    0  0.00000000000E+00  0.00000000000E+00 -0.82752428542E+03  0.25682334293E+04  0.24312602708E+04 0.  0.
        2    1    3    3  502    0  0.21008296405E+03  0.99465235152E+03 -0.11178641211E+04  0.15109891943E+04  0.25500000920E-02 0.  1.
       -2    1    3    3    0  502 -0.21008296405E+03 -0.99465235152E+03  0.29033983568E+03  0.10572442350E+04  0.25500000920E-02 0. -1.
</event>
<event>
 5   0  0.6337926E-05  0.2398903E+04  0.7818609E-02  0.8439915E-01
       -2   -1    0    0    0  501  0.00000000000E+00  0.00000000000E+00  0.12679764307E+04  0.12679764307E+04  0.25500000920E-02 0. -1.
        2   -1    0    0  501    0  0.00000000000E+00  0.00000000000E+00 -0.11346295188E+04  0.11346295188E+04  0.25500000920E-02 0.  1.
    10030    2    1    2    0    0  0.00000000000E+00  0.00000000000E+00  0.13334691188E+03  0.24026059495E+04  0.23989026554E+04 0.  0.
        1    1    3    3  502    0 -0.65273697792E+03  0.67680956778E+02 -0.93888704472E+03  0.11454934120E+04  0.50400001928E-02 0.  1.
       -1    1    3    3    0  502  0.65273697792E+03 -0.67680956778E+02  0.10722339566E+04  0.12571125375E+04  0.50400001928E-02 0. -1.
</event>
<event>
 5   0  0.2943123E-05  0.1472820E+04  0.7818609E-02  0.8902731E-01
        1   -1    0    0  501    0  0.00000000000E+00  0.00000000000E+00  0.74641312704E+03  0.74641312705E+03  0.50400001928E-02 0. -1.
       -1   -1    0    0    0  501  0.00000000000E+00  0.00000000000E+00 -0.72654054102E+03  0.72654054103E+03  0.50400001928E-02 0.  1.
    10030    2    1    2    0    0  0.00000000000E+00  0.00000000000E+00  0.19872586020E+02  0.14729536681E+04  0.14728196049E+04 0.  0.
        1    1    3    3  502    0  0.70034923644E+03  0.22590993346E+03 -0.17905891192E+02  0.73610119684E+03  0.50400001928E-02 0. -1.
       -1    1    3    3    0  502 -0.70034923644E+03 -0.22590993346E+03  0.37778477212E+02  0.73685247125E+03  0.50400001928E-02 0.  1.
</event>
<event>
 5   0  0.2847158E-05  0.2442606E+04  0.7818609E-02  0.8423723E-01
        1   -1    0    0  501    0  0.00000000000E+00  0.00000000000E+00  0.22994400826E+04  0.22994400826E+04  0.50400001928E-02 0. -1.
       -1   -1    0    0    0  501  0.00000000000E+00  0.00000000000E+00 -0.64867145146E+03  0.64867145148E+03  0.50400001928E-02 0.  1.
    10030    2    1    2    0    0  0.00000000000E+00  0.00000000000E+00  0.16507686312E+04  0.29481115341E+04  0.24426060968E+04 0.  0.
        5    1    3    3  502    0  0.69210912991E+03 -0.26187865794E+03 -0.34726482452E+03  0.81744139089E+03  0.46999998093E+01 0.  1.
       -5    1    3    3    0  502 -0.69210912991E+03  0.26187865794E+03  0.19980334557E+04  0.21306701432E+04  0.46999998093E+01 0. -1.
</event>
<event>
 5   0  0.6337926E-05  0.2397814E+04  0.7818609E-02  0.8440322E-01
       -2   -1    0    0    0  501  0.00000000000E+00  0.00000000000E+00  0.11177812893E+04  0.11177812893E+04  0.25500000920E-02 0. -1.
        2   -1    0    0  501    0  0.00000000000E+00  0.00000000000E+00 -0.12859210021E+04  0.12859210021E+04  0.25500000920E-02 0.  1.
    10030    2    1    2    0    0  0.00000000000E+00  0.00000000000E+00 -0.16813971289E+03  0.24037022914E+04  0.23978143678E+04 0.  0.
        1    1    3    3  502    0 -0.74588227127E+03 -0.11062060520E+02  0.85680593712E+03  0.11360365952E+04  0.50400001928E-02 0. -1.
       -1    1    3    3    0  502  0.74588227127E+03  0.11062060520E+02 -0.10249456500E+04  0.12676656962E+04  0.50400001928E-02 0.  1.
</event>
<event>
 5   0  0.2901816E-05  0.2437180E+04  0.7818609E-02  0.8425714E-01
       -1   -1    0    0    0  501  0.00000000000E+00  0.00000000000E+00  0.10826372409E+04  0.10826372409E+04  0.50400001928E-02 0.  1.
        1   -1    0    0  501    0  0.00000000000E+00  0.00000000000E+00 -0.13716145687E+04  0.13716145687E+04  0.50400001928E-02 0. -1.
    10030    2    1    2    0    0  0.00000000000E+00  0.00000000000E+00 -0.28897732786E+03  0.24542518096E+04  0.24371795274E+04 0.  0.
        4    1    3    3  502    0  0.68852790336E+03 -0.96135783809E+03 -0.44096540688E+03  0.12620347339E+04  0.12699999809E+01 0.  1.
       -4    1    3    3    0  502 -0.68852790336E+03  0.96135783809E+03  0.15198807902E+03  0.11922170757E+04  0.12699999809E+01 0. -1.
</event>
<event>
 5   0  0.6703961E-05  0.2198702E+04  0.7818609E-02  0.8518969E-01
        2   -1    0    0  501    0  0.00000000000E+00  0.00000000000E+00  0.20153604361E+04  0.20153604361E+04  0.25500000920E-02 0. -1.
       -2   -1    0    0    0  501  0.00000000000E+00  0.00000000000E+00 -0.59968044146E+03  0.59968044146E+03  0.25500000920E-02 0.  1.
    10030    2    1    2    0    0  0.00000000000E+00  0.00000000000E+00  0.14156799947E+04  0.26150408776E+04  0.21987016497E+04 0.  0.
        2    1    3    3  502    0  0.94830707592E+03 -0.22118558795E+03  0.13147184216E+04  0.16360604826E+04  0.25500000920E-02 0. -1.
       -2    1    3    3    0  502 -0.94830707592E+03  0.22118558795E+03  0.10096157305E+03  0.97898039500E+03  0.25500000920E-02 0.  1.
</event>
<event>
 5   0  0.2901816E-05  0.2430441E+04  0.7818609E-02  0.8428194E-01
       -1   -1    0    0    0  501  0.00000000000E+00  0.00000000000E+00  0.10571467532E+04  0.10571467532E+04  0.50400001928E-02 0.  1.
        1   -1    0    0  501    0  0.00000000000E+00  0.00000000000E+00 -0.13969303145E+04  0.13969303145E+04  0.50400001928E-02 0. -1.
    10030    2    1    2    0    0  0.00000000000E+00  0.00000000000E+00 -0.33978356131E+03  0.24540770676E+04  0.24304405743E+04 0.  0.
        4    1    3    3  502    0 -0.65894205591E+03 -0.32171691876E+03 -0.11483630688E+04  0.13625144988E+04  0.12699999809E+01 0. -1.
       -4    1    3    3    0  502  0.65894205591E+03  0.32171691876E+03  0.80857950746E+03  0.10915625688E+04  0.12699999809E+01 0.  1.
</event>
<event>
 5   0  0.2943123E-05  0.2075947E+04  0.7818609E-02  0.8571914E-01
       -1   -1    0    0    0  501  0.00000000000E+00  0.00000000000E+00  0.63282641735E+03  0.63282641737E+03  0.50400001928E-02 0. -1.
        1   -1    0    0  501    0  0.00000000000E+00  0.00000000000E+00 -0.17025025256E+04  0.17025025256E+04  0.50400001928E-02 0.  1.
    10030    2    1    2    0    0  0.00000000000E+00  0.00000000000E+00 -0.10696761082E+04  0.23353289429E+04  0.20759466022E+04 0.  0.
        1    1    3    3  502    0  0.83144271470E+03 -0.46008467075E+03 -0.10046479478E+04  0.13828566054E+04  0.50400001928E-02 0.  1.
       -1    1    3    3    0  502 -0.83144271470E+03  0.46008467075E+03 -0.65028160421E+02  0.95247233753E+03  0.50400001928E-02 0. -1.
</event>
<event>
 5   0  0.6600166E-05  0.2373235E+04  0.7818609E-02  0.8449592E-01
        2   -1    0    0  501    0  0.00000000000E+00  0.00000000000E+00  0.14429555627E+04  0.14429555627E+04  0.25500000920E-02 0. -1.
       -2   -1    0    0    0  501  0.00000000000E+00  0.00000000000E+00 -0.97581751903E+03  0.97581751903E+03  0.25500000920E-02 0.  1.
    10030    2    1    2    0    0  0.00000000000E+00  0.00000000000E+00  0.46713804368E+03  0.24187730817E+04  0.23732351904E+04 0.  0.
        5    1    3    3  502    0  0.10724662208E+04 -0.23645400207E+03  0.69157466850E+03  0.12978412469E+04  0.46999998093E+01 0. -1.
       -5    1    3    3    0  502 -0.10724662208E+04  0.23645400207E+03 -0.22443662482E+03  0.11209318349E+04  0.46999998093E+01 0.  1.
</event>
<event>
 5   0  0.2943244E-05  0.2393005E+04  0.7818609E-02  0.8442127E-01
       -1   -1    0    0    0  501  0.00000000000E+00  0.00000000000E+00  0.12457400901E+04  0.12457400901E+04  0.50400001928E-02 0. -1.
        1   -1    0    0  501    0  0.00000000000E+00  0.00000000000E+00 -0.11492112487E+04  0.11492112487E+04  0.50400001928E-02 0.  1.
    10030    2    1    2    0    0  0.00000000000E+00  0.00000000000E+00  0.96528841332E+02  0.23949513388E+04  0.23930052441E+04 0.  0.
        3    1    3    3  502    0 -0.91552258812E+03  0.55133191184E+03  0.58672615409E+03  0.12191784432E+04  0.10100000352E+00 0. -1.
       -3    1    3    3    0  502  0.91552258812E+03 -0.55133191184E+03 -0.49019731276E+03  0.11757728956E+04  0.10100000352E+00 0.  1.
</event>
<event>
 5   0  0.2943244E-05  0.2356716E+04  0.7818609E-02  0.8455889E-01
        1   -1    0    0  501    0  0.00000000000E+00  0.00000000000E+00  0.12128456890E+04  0.12128456890E+04  0.50400001928E-02 0.  1.
       -1   -1    0    0    0  501  0.00000000000E+00  0.00000000000E+00 -0.11448507221E+04  0.11448507221E+04  0.50400001928E-02 0. -1.
    10030    2    1    2    0    0  0.00000000000E+00  0.00000000000E+00  0.67994966844E+02  0.23576964111E+04  0.23567157341E+04 0.  0.
        3    1    3    3  502    0  0.45661427296E+03  0.73432682329E+03  0.83482716646E+03  0.12019437947E+04  0.10100000352E+00 0.  1.
       -3    1    3    3    0  502 -0.45661427296E+03 -0.73432682329E+03 -0.76683219961E+03  0.11557526164E+04  0.10100000352E+00 0. -1.
</event>
<event>
 5   0  0.6703961E-05  0.2478704E+04  0.7818609E-02  0.8410612E-01
        2   -1    0    0  501    0  0.00000000000E+00  0.00000000000E+00  0.12833261343E+04  0.12833261343E+04  0.25500000920E-02 0.  1.
       -2   -1    0    0    0  501  0.00000000000E+00  0.00000000000E+00 -0.11968844730E+04  0.11968844730E+04  0.25500000920E-02 0. -1.
    10030    2    1    2    0    0  0.00000000000E+00  0.00000000000E+00  0.86441661331E+02  0.24802106073E+04  0.24787037935E+04 0.  0.
        2    1    3    3  502    0 -0.11595082354E+04 -0.28803732765E+03 -0.28647647318E+03  0.12286145123E+04  0.25500000920E-02 0.  1.
       -2    1    3    3    0  502  0.11595082354E+04  0.28803732765E+03  0.37291813451E+03  0.12515960950E+04  0.25500000920E-02 0. -1.
</event>
<event>
 5   0  0.6978115E-05  0.2791411E+04  0.7818609E-02  0.8305940E-01
        2   -1    0    0  501    0  0.00000000000E+00  0.00000000000E+00  0.13908074592E+04  0.13908074592E+04  0.25500000920E-02 0. -1.
       -2   -1    0    0    0  501  0.00000000000E+00  0.00000000000E+00 -0.14006206067E+04  0.14006206067E+04  0.25500000920E-02 0.  1.
    10030    2    1    2    0    0  0.00000000000E+00  0.00000000000E+00 -0.98131475046E+01  0.27914280659E+04  0.27914108169E+04 0.  0.
        4    1    3    3  502    0  0.94303956170E+02  0.13620944951E+04 -0.29438603820E+03  0.13967316858E+04  0.12699999809E+01 0.  1.
       -4    1    3    3    0  502 -0.94303956170E+02 -0.13620944951E+04  0.28457289070E+03  0.13946963801E+04  0.12699999809E+01 0. -1.
</event>
<event>
 5   0  0.2943244E-05  0.2397893E+04  0.7818609E-02  0.8440293E-01
        1   -1    0    0  501    0  0.00000000000E+00  0.00000000000E+00  0.19096413014E+04  0.19096413014E+04  0.50400001928E-02 0. -1.
       -1   -1    0    0    0  501  0.00000000000E+00  0.00000000000E+00 -0.75274481297E+03  0.75274481299E+03  0.50400001928E-02 0.  1.
    10030    2    1    2    0    0  0.00000000000E+00  0.00000000000E+00  0.11568964884E+04  0.26623861144E+04  0.23978928953E+04 0.  0.
        3    1    3    3  502    0 -0.25206314295E+03  0.11720191868E+04  0.55896973580E+03  0.13227289889E+04  0.10100000352E+00 0. -1.
       -3    1    3    3    0  502  0.25206314295E+03 -0.11720191868E+04  0.59792675264E+03  0.13396571255E+04  0.10100000352E+00 0.  1.
</event>
<event>
 5   0  0.6703961E-05  0.2381137E+04  0.7818609E-02  0.8446600E-01
       -2   -1    0    0    0  501  0.00000000000E+00  0.00000000000E+00  0.81473675731E+03  0.81473675731E+03  0.25500000920E-02 0.  1.
        2   -1    0    0  501    0  0.00000000000E+00  0.00000000000E+00 -0.17397679216E+04  0.17397679216E+04  0.25500000920E-02 0. -1.
    10030    2    1    2    0    0  0.00000000000E+00  0.00000000000E+00 -0.92503116424E+03  0.25545046789E+04  0.23811365983E+04 0.  0.
        2    1    3    3  502    0 -0.86912902458E+03  0.52690494082E+03 -0.11276907026E+04  0.15181239735E+04  0.25500000920E-02 0. -1.
       -2    1    3    3    0  502  0.86912902458E+03 -0.52690494082E+03  0.20265953838E+03  0.10363807054E+04  0.25500000920E-02 0.  1.
</event>
<event>
 5   0  0.6978115E-05  0.2389507E+04  0.7818609E-02  0.8443443E-01
       -2   -1    0    0    0  501  0.00000000000E+00  0.00000000000E+00  0.18070501150E+04  0.18070501150E+04  0.25500000920E-02 0. -1.
        2   -1    0    0  501    0  0.00000000000E+00  0.00000000000E+00 -0.78992573389E+03  0.78992573390E+03  0.25500000920E-02 0.  1.
    10030    2    1    2    0    0  0.00000000000E+00  0.00000000000E+00  0.10171243811E+04  0.25969758489E+04  0.23895065501E+04 0.  0.
        4    1    3    3  502    0  0.40277202687E+02  0.10807093355E+04  0.10604712864E+04  0.15146471151E+04  0.12699999809E+01 0. -1.
       -4    1    3    3    0  502 -0.40277202687E+02 -0.10807093355E+04 -0.43346905306E+02  0.10823287338E+04  0.12699999809E+01 0.  1.
</event>
<event>
 5   0  0.6714629E-05  0.2394134E+04  0.7818609E-02  0.8441703E-01
       -2   -1    0    0    0  501  0.00000000000E+00  0.00000000000E+00  0.73970767119E+03  0.73970767119E+03  0.25500000920E-02 0.  1.
        2   -1    0    0  501    0  0.00000000000E+00  0.00000000000E+00 -0.19372096758E+04  0.19372096758E+04  0.25500000920E-02 0. -1.
    10030    2    1    2    0    0  0.00000000000E+00  0.00000000000E+00 -0.11975020046E+04  0.26769173470E+04  0.23941335451E+04 0.  0.
        3    1    3    3  502    0 -0.10011834140E+04  0.45168436188E+03 -0.66521241096E+02  0.11003690639E+04  0.10100000352E+00 0.  1.
       -3    1    3    3    0  502  0.10011834140E+04 -0.45168436188E+03 -0.11309807635E+04  0.15765482831E+04  0.10100000352E+00 0. -1.
</event>
<event>
 5   0  0.2943244E-05  0.2539684E+04  0.7818609E-02  0.8388983E-01
        1   -1    0    0  501    0  0.00000000000E+00  0.00000000000E+00  0.14124863053E+04  0.14124863054E+04  0.50400001928E-02 0.  1.
       -1   -1    0    0    0  501  0.00000000000E+00  0.00000000000E+00 -0.11416029371E+04  0.11416029372E+04  0.50400001928E-02 0. -1.
    10030    2    1    2    0    0  0.00000000000E+00  0.00000000000E+00  0.27088336821E+03  0.25540892425E+04  0.25396838503E+04 0.  0.
        3    1    3    3  502    0 -0.56043208619E+03  0.57779070511E+03  0.11231388318E+04  0.13817984903E+04  0.10100000352E+00 0.  1.
       -3    1    3    3    0  502  0.56043208619E+03 -0.57779070511E+03 -0.85225546362E+03  0.11722907522E+04  0.10100000352E+00 0. -1.
</event>
<event>
 5   0  0.6703961E-05  0.2407024E+04  0.7818609E-02  0.8436878E-01
       -2   -1    0    0    0  501  0.00000000000E+00  0.00000000000E+00  0.10935876480E+04  0.10935876481E+04  0.25500000920E-02 0. -1.
        2   -1    0    0  501    0  0.00000000000E+00  0.00000000000E+00 -0.13244860268E+04  0.13244860268E+04  0.25500000920E-02 0.  1.
    10030    2    1    2    0    0  0.00000000000E+00  0.00000000000E+00 -0.23089837872E+03  0.24180736748E+04  0.24070243529E+04 0.  0.
        2    1    3    3  502    0  0.99186751957E+03  0.50988880625E+03  0.33901423680E+03  0.11656407782E+04  0.25500000920E-02 0. -1.
       -2    1    3    3    0  502 -0.99186751957E+03 -0.50988880625E+03 -0.56991261551E+03  0.12524328966E+04  0.25500000920E-02 0.  1.
</event>
<event>
 5   0  0.2847158E-05  0.1850953E+04  0.7818609E-02  0.8679663E-01
        1   -1    0    0  501    0  0.00000000000E+00  0.00000000000E+00  0.14954330070E+04  0.14954330070E+04  0.50400001928E-02 0. -1.
       -1   -1    0    0    0  501  0.00000000000E+00  0.00000000000E+00 -0.57274845955E+03  0.57274845957E+03  0.50400001928E-02 0.  1.
    10030    2    1    2    0    0  0.00000000000E+00  0.00000000000E+00  0.92268454742E+03  0.20681814666E+04  0.18509532151E+04 0.  0.
        5    1    3    3  502    0 -0.80828342856E+02  0.39593986696E+03  0.13916298777E+04  0.14491229782E+04  0.46999998093E+01 0. -1.
       -5    1    3    3    0  502  0.80828342856E+02 -0.39593986696E+03 -0.46894533030E+03  0.61905848840E+03  0.46999998093E+01 0.  1.
</event>
<event>
 5   0  0.2901816E-05  0.2380834E+04  0.7818609E-02  0.8446714E-01
       -1   -1    0    0    0  501  0.00000000000E+00  0.00000000000E+00  0.14983341029E+04  0.14983341029E+04  0.50400001928E-02 0. -1.
        1   -1    0    0  501    0  0.00000000000E+00  0.00000000000E+00 -0.94577862280E+03  0.94577862281E+03  0.50400001928E-02 0.  1.
    10030    2    1    2    0    0  0.00000000000E+00  0.00000000000E+00  0.55255548008E+03  0.24441127257E+04  0.23808337736E+04 0.  0.
        4    1    3    3  502    0  0.31832679001E+03  0.34600452377E+03  0.13989809152E+04  0.14758727214E+04  0.12699999809E+01 0. -1.
       -4    1    3    3    0  502 -0.31832679001E+03 -0.34600452377E+03 -0.84642543516E+03  0.96824000428E+03  0.12699999809E+01 0.  1.
</event>
<event>
 5   0  0.6703961E-05  0.2401135E+04  0.7818609E-02  0.8439079E-01
        2   -1    0    0  501    0  0.00000000000E+00  0.00000000000E+00  0.14691092686E+04  0.14691092686E+04  0.25500000920E-02 0.  1.
       -2   -1    0    0    0  501  0.00000000000E+00  0.00000000000E+00 -0.98111283142E+03  0.98111283142E+03  0.25500000920E-02 0. -1.
    10030    2    1    2    0    0  0.00000000000E+00  0.00000000000E+00  0.48799643716E+03  0.24502221000E+04  0.24011346936E+04 0.  0.
        2    1    3    3  502    0 -0.47188825846E+03 -0.10991517795E+04  0.13919122070E+03  0.12042372518E+04  0.25500000920E-02 0. -1.
       -2    1    3    3    0  502  0.47188825846E+03  0.10991517795E+04  0.34880521647E+03  0.12459848482E+04  0.25500000920E-02 0.  1.
</event>
<event>
 5   0  0.2847158E-05  0.2199059E+04  0.7818609E-02  0.8518820E-01
        1   -1    0    0  501    0  0.00000000000E+00  0.00000000000E+00  0.13829736915E+04  0.13829736915E+04  0.50400001928E-02 0. -1.
       -1   -1    0    0    0  501  0.00000000000E+00  0.00000000000E+00 -0.87417775654E+03  0.87417775655E+03  0.50400001928E-02 0.  1.
    10030    2    1    2    0    0  0.00000000000E+00  0.00000000000E+00  0.50879593497E+03  0.22571514481E+04  0.21990587432E+04 0.  0.
        5    1    3    3  502    0  0.60587507860E+03  0.64952552534E+03 -0.41077631368E+03  0.97863542180E+03  0.46999998093E+01 0.  1.
       -5    1    3    3    0  502 -0.60587507860E+03 -0.64952552534E+03  0.91957224865E+03  0.12785160263E+04  0.46999998093E+01 0. -1.
</event>
<event>
 5   0  0.2943244E-05  0.2370699E+04  0.7818609E-02  0.8450555E-01
       -1   -1    0    0    0  501  0.00000000000E+00  0.00000000000E+00  0.12914246453E+04  0.12914246453E+04  0.50400001928E-02 0.  1.
        1   -1    0    0  501    0  0.00000000000E+00  0.00000000000E+00 -0.10879873709E+04  0.10879873709E+04  0.50400001928E-02 0. -1.
    10030    2    1    2    0    0  0.00000000000E+00  0.00000000000E+00  0.20343727437E+03  0.23794120162E+04  0.23706992256E+04 0.  0.
        3    1    3    3  502    0 -0.23785932991E+03  0.63800447200E+03 -0.87211887758E+03  0.11064439046E+04  0.10100000352E+00 0. -1.
       -3    1    3    3    0  502  0.23785932991E+03 -0.63800447200E+03  0.10755561519E+04  0.12729681117E+04  0.10100000352E+00 0.  1.
</event>
<event>
 5   0  0.2943244E-05  0.1505379E+04  0.7818609E-02  0.8880884E-01
        1   -1    0    0  501    0  0.00000000000E+00  0.00000000000E+00  0.15943528525E+04  0.15943528525E+04  0.50400001928E-02 0.  1.
       -1   -1    0    0    0  501  0.00000000000E+00  0.00000000000E+00 -0.35534275541E+03  0.35534275545E+03  0.50400001928E-02 0. -1.
    10030    2    1    2    0    0  0.00000000000E+00  0.00000000000E+00  0.12390100971E+04  0.19496956079E+04  0.15053793352E+04 0.  0.
        3    1    3    3  502    0  0.34836118526E+03 -0.52064626059E+01  0.14836338741E+04  0.15239921605E+04  0.10100000352E+00 0.  1.
       -3    1    3    3    0  502 -0.34836118526E+03  0.52064626059E+01 -0.24462377705E+03  0.42570344743E+03  0.10100000352E+00 0. -1.
</event>
<event>
 5   0  0.2915546E-05  0.2370114E+04  0.7818609E-02  0.8450778E-01
        1   -1    0    0  501    0  0.00000000000E+00  0.00000000000E+00  0.13590604967E+04  0.13590604967E+04  0.50400001928E-02 0.  1.
       -1   -1    0    0    0  501  0.00000000000E+00  0.00000000000E+00 -0.10333318613E+04  0.10333318613E+04  0.50400001928E-02 0. -1.
    10030    2    1    2    0    0  0.00000000000E+00  0.00000000000E+00  0.32572863532E+03  0.23923923580E+04  0.23701143539E+04 0.  0.
        2    1    3    3  502    0 -0.34235567808E+02  0.72493981309E+03 -0.78277159956E+03  0.10674461035E+04  0.25500000920E-02 0. -1.
       -2    1    3    3    0  502  0.34235567808E+02 -0.72493981309E+03  0.11085002349E+04  0.13249462545E+04  0.25500000920E-02 0.  1.
</event>
<event>
 5   0  0.6600166E-05  0.2366006E+04  0.7818609E-02  0.8452341E-01
        2   -1    0    0  501    0  0.00000000000E+00  0.00000000000E+00  0.23071067557E+04  0.23071067558E+04  0.25500000920E-02 0.  1.
       -2   -1    0    0    0  501  0.00000000000E+00  0.00000000000E+00 -0.60660207957E+03  0.60660207957E+03  0.25500000920E-02 0. -1.
    10030    2    1    2    0    0  0.00000000000E+00  0.00000000000E+00  0.17005046762E+04  0.29137088353E+04  0.23660057108E+04 0.  0.
        5    1    3    3  502    0  0.16381981316E+03 -0.99548180402E+03  0.89462787335E+02  0.10128408728E+04  0.46999998093E+01 0. -1.
       -5    1    3    3    0  502 -0.16381981316E+03  0.99548180402E+03  0.16110418888E+04  0.19008679625E+04  0.46999998093E+01 0.  1.
</event>
<event>
 5   0  0.2901816E-05  0.2376020E+04  0.7818609E-02  0.8448536E-01
       -1   -1    0    0    0  501  0.00000000000E+00  0.00000000000E+00  0.16384230616E+04  0.16384230616E+04  0.50400001928E-02 0.  1.
        1   -1    0    0  501    0  0.00000000000E+00  0.00000000000E+00 -0.86141823291E+03  0.86141823293E+03  0.50400001928E-02 0. -1.
    10030    2    1    2    0    0  0.00000000000E+00  0.00000000000E+00  0.77700482868E+03  0.24998412945E+04  0.23760197798E+04 0.  0.
        4    1    3    3  502    0  0.42392454089E+03  0.91758319735E+03  0.10452897535E+04  0.14540643803E+04  0.12699999809E+01 0.  1.
       -4    1    3    3    0  502 -0.42392454089E+03 -0.91758319735E+03 -0.26828492487E+03  0.10457769142E+04  0.12699999809E+01 0. -1.
</event>
<event>
 5   0  0.2943244E-05  0.2342365E+04  0.7818609E-02  0.8461402E-01
        1   -1    0    0  501    0  0.00000000000E+00  0.00000000000E+00  0.14851332768E+04  0.14851332768E+04  0.50400001928E-02 0.  1.
       -1   -1    0    0    0  501  0.00000000000E+00  0.00000000000E+00 -0.92359945165E+03  0.92359945167E+03  0.50400001928E-02 0. -1.
    10030    2    1    2    0    0  0.00000000000E+00  0.00000000000E+00  0.56153382511E+03  0.24087327284E+04  0.23423648564E+04 0.  0.
        3    1    3    3  502    0  0.28344614537E+03 -0.10163682827E+03 -0.88311265226E+03  0.93303790329E+03  0.10100000352E+00 0. -1.
       -3    1    3    3    0  502 -0.28344614537E+03  0.10163682827E+03  0.14446464774E+04  0.14756948251E+04  0.10100000352E+00 0.  1.
</event>
<event>
 5   0  0.6703961E-05  0.2661299E+04  0.7818609E-02  0.8347672E-01
       -2   -1    0    0    0  501  0.00000000000E+00  0.00000000000E+00  0.11054595508E+04  0.11054595508E+04  0.25500000920E-02 0.  1.
        2   -1    0    0  501    0  0.00000000000E+00  0.00000000000E+00 -0.16017125657E+04  0.16017125657E+04  0.25500000920E-02 0. -1.
    10030    2    1    2    0    0  0.00000000000E+00  0.00000000000E+00 -0.49625301484E+03  0.27071721165E+04  0.26612992717E+04 0.  0.
        2    1    3    3  502    0  0.11103029865E+04 -0.54829759307E+03 -0.74357991651E+03  0.14444078595E+04  0.25500000920E-02 0. -1.
       -2    1    3    3    0  502 -0.11103029865E+04  0.54829759307E+03  0.24732690167E+03  0.12627642570E+04  0.25500000920E-02 0.  1.
</event>
<event>
 5   0  0.2915546E-05  0.2383617E+04  0.7818609E-02  0.8445663E-01
       -1   -1    0    0    0  501  0.00000000000E+00  0.00000000000E+00  0.18040087153E+04  0.18040087153E+04  0.50400001928E-02 0.  1.
        1   -1    0    0  501    0  0.00000000000E+00  0.00000000000E+00 -0.78736181250E+03  0.78736181252E+03  0.50400001928E-02 0. -1.
    10030    2    1    2    0    0  0.00000000000E+00  0.00000000000E+00  0.10166469028E+04  0.25913705279E+04  0.23836170598E+04 0.  0.
        2    1    3    3  502    0 -0.79929470124E+03 -0.83446019196E+03  0.82567655376E+03  0.14201892842E+04  0.25500000920E-02 0.  1.
       -2    1    3    3    0  502  0.79929470124E+03  0.83446019196E+03  0.19097034908E+03  0.11711812437E+04  0.25500000920E-02 0. -1.
</event>
<event>
 5   0  0.6600166E-05  0.2499714E+04  0.7818609E-02  0.8403087E-01
       -2   -1    0    0    0  501  0.00000000000E+00  0.00000000000E+00  0.10960928764E+04  0.10960928764E+04  0.25500000920E-02 0.  1.
        2   -1    0    0  501    0  0.00000000000E+00  0.00000000000E+00 -0.14251918865E+04  0.14251918865E+04  0.25500000920E-02 0. -1.
    10030    2    1    2    0    0  0.00000000000E+00  0.00000000000E+00 -0.32909901005E+03  0.25212847629E+04  0.24997141231E+04 0.  0.
        5    1    3    3  502    0 -0.87027763945E+03 -0.33710993333E+03  0.67394498512E+03  0.11511951224E+04  0.46999998093E+01 0.  1.
       -5    1    3    3    0  502  0.87027763945E+03  0.33710993333E+03 -0.10030439952E+04  0.13700896405E+04  0.46999998093E+01 0. -1.
</event>
<event>
 5   0  0.2943123E-05  0.2031416E+04  0.7818609E-02  0.8592072E-01
        1   -1    0    0  501    0  0.00000000000E+00  0.00000000000E+00  0.16470679428E+04  0.16470679428E+04  0.50400001928E-02 0. -1.
       -1   -1    0    0    0  501  0.00000000000E+00  0.00000000000E+00 -0.62636306282E+03  0.62636306284E+03  0.50400001928E-02 0.  1.
    10030    2    1    2    0    0  0.00000000000E+00  0.00000000000E+00  0.10207048800E+04  0.22734310057E+04  0.20314157835E+04 0.  0.
        1    1    3    3  502    0 -0.60574328761E+03  0.36520674567E+03 -0.30543694303E+03  0.77044962442E+03  0.50400001928E-02 0.  1.
       -1    1    3    3    0  502  0.60574328761E+03 -0.36520674567E+03  0.13261418230E+04  0.15029813812E+04  0.50400001928E-02 0. -1.
</event>
<event>
 5   0  0.6714629E-05  0.2422340E+04  0.7818609E-02  0.8431187E-01
       -2   -1    0    0    0  501  0.00000000000E+00  0.00000000000E+00  0.11524679046E+04  0.11524679046E+04  0.25500000920E-02 0. -1.
        2   -1    0    0  501    0  0.00000000000E+00  0.00000000000E+00 -0.12728623700E+04  0.12728623700E+04  0.25500000920E-02 0.  1.
    10030    2    1    2    0    0  0.00000000000E+00  0.00000000000E+00 -0.12039446536E+03  0.24253302746E+04  0.24223402143E+04 0.  0.
        3    1    3    3  502    0 -0.12022699008E+04 -0.95447535379E+02 -0.17155444514E+03  0.12181929585E+04  0.10100000352E+00 0. -1.
       -3    1    3    3    0  502  0.12022699008E+04  0.95447535379E+02  0.51159979780E+02  0.12071373161E+04  0.10100000352E+00 0.  1.
</event>
<event>
 5   0  0.6600166E-05  0.2381989E+04  0.7818609E-02  0.8446277E-01
       -2   -1    0    0    0  501  0.00000000000E+00  0.00000000000E+00  0.12008993706E+04  0.12008993706E+04  0.25500000920E-02 0. -1.
        2   -1    0    0  501    0  0.00000000000E+00  0.00000000000E+00 -0.11811716368E+04  0.11811716368E+04  0.25500000920E-02 0.  1.
    10030    2    1    2    0    0  0.00000000000E+00  0.00000000000E+00  0.19727733744E+02  0.23820710074E+04  0.23819893158E+04 0.  0.
        5    1    3    3  502    0  0.61157021776E+02  0.62111817793E+03 -0.10045269793E+04  0.11826345650E+04  0.46999998093E+01 0.  1.
       -5    1    3    3    0  502 -0.61157021776E+02 -0.62111817793E+03  0.10242547130E+04  0.11994364424E+04  0.46999998093E+01 0. -1.
</event>
<event>
 5   0  0.2943123E-05  0.2404676E+04  0.7818609E-02  0.8437755E-01
        1   -1    0    0  501    0  0.00000000000E+00  0.00000000000E+00  0.11295980815E+04  0.11295980815E+04  0.50400001928E-02 0. -1.
       -1   -1    0    0    0  501  0.00000000000E+00  0.00000000000E+00 -0.12797618751E+04  0.12797618751E+04  0.50400001928E-02 0.  1.
    10030    2    1    2    0    0  0.00000000000E+00  0.00000000000E+00 -0.15016379361E+03  0.24093599566E+04  0.24046759107E+04 0.  0.
        1    1    3    3  502    0  0.70439634275E+03  0.88700362058E+03 -0.47918740316E+03  0.12298659268E+04  0.50400001928E-02 0.  1.
       -1    1    3    3    0  502 -0.70439634275E+03 -0.88700362058E+03  0.32902360954E+03  0.11794940298E+04  0.50400001928E-02 0. -1.
</event>
<event>
 5   0  0.6703961E-05  0.2395659E+04  0.7818609E-02  0.8441130E-01
       -2   -1    0    0    0  501  0.00000000000E+00  0.00000000000E+00  0.13890876972E+04  0.13890876972E+04  0.25500000920E-02 0. -1.
        2   -1    0    0  501    0  0.00000000000E+00  0.00000000000E+00 -0.10329052086E+04  0.10329052086E+04  0.25500000920E-02 0.  1.
    10030    2    1    2    0    0  0.00000000000E+00  0.00000000000E+00  0.35618248865E+03  0.24219929058E+04  0.23956593394E+04 0.  0.
        2    1    3    3  502    0 -0.71537776657E+03  0.67462032475E+03  0.86965571712E+03  0.13126991269E+04  0.25500000920E-02 0. -1.
       -2    1    3    3    0  502  0.71537776657E+03 -0.67462032475E+03 -0.51347322847E+03  0.11092937789E+04  0.25500000920E-02 0.  1.
</event>
<event>
 5   0  0.6600166E-05  0.2320081E+04  0.7818609E-02  0.8470045E-01
       -2   -1    0    0    0  501  0.00000000000E+00  0.00000000000E+00  0.93205827560E+03  0.93205827560E+03  0.25500000920E-02 0. -1.
        2   -1    0    0  501    0  0.00000000000E+00  0.00000000000E+00 -0.14437877323E+04  0.14437877323E+04  0.25500000920E-02 0.  1.
    10030    2    1    2    0    0  0.00000000000E+00  0.00000000000E+00 -0.51172945668E+03  0.23758460079E+04  0.23200812952E+04 0.  0.
        5    1    3    3  502    0  0.74824289923E+03 -0.88596252082E+03 -0.22557006398E+03  0.11813978874E+04  0.46999998093E+01 0. -1.
       -5    1    3    3    0  502 -0.74824289923E+03  0.88596252082E+03 -0.28615939271E+03  0.11944481205E+04  0.46999998093E+01 0.  1.
</event>
<event>
 5   0  0.2915546E-05  0.2372972E+04  0.7818609E-02  0.8449692E-01
        1   -1    0    0  501    0  0.00000000000E+00  0.00000000000E+00  0.11128504706E+04  0.11128504706E+04  0.50400001928E-02 0.  1.
       -1   -1    0    0    0  501  0.00000000000E+00  0.00000000000E+00 -0.12649940298E+04  0.12649940298E+04  0.50400001928E-02 0. -1.
    10030    2    1    2    0    0  0.00000000000E+00  0.00000000000E+00 -0.15214355925E+03  0.23778445004E+04  0.23729721460E+04 0.  0.
        2    1    3    3  502    0 -0.49706091199E+03 -0.22274633439E+03 -0.11323061453E+04  0.12565041530E+04  0.25500000920E-02 0. -1.
       -2    1    3    3    0  502  0.49706091199E+03  0.22274633439E+03  0.98016258606E+03  0.11213403475E+04  0.25500000920E-02 0.  1.
</event>
<event>
 5   0  0.6600166E-05  0.2300170E+04  0.7818609E-02  0.8477854E-01
       -2   -1    0    0    0  501  0.00000000000E+00  0.00000000000E+00  0.88435105844E+03  0.88435105845E+03  0.25500000920E-02 0.  1.
        2   -1    0    0  501    0  0.00000000000E+00  0.00000000000E+00 -0.14956675135E+04  0.14956675135E+04  0.25500000920E-02 0. -1.
    10030    2    1    2    0    0  0.00000000000E+00  0.00000000000E+00 -0.61131645509E+03  0.23800185720E+04  0.23001696882E+04 0.  0.
        5    1    3    3  502    0  0.94520435037E+03  0.25934794799E+03 -0.92820934523E+03  0.13499138123E+04  0.46999998093E+01 0. -1.
       -5    1    3    3    0  502 -0.94520435037E+03 -0.25934794799E+03  0.31689289014E+03  0.10301047597E+04  0.46999998093E+01 0.  1.
</event>
<event>
 5   0  0.2901816E-05  0.2223817E+04  0.7818609E-02  0.8508580E-01
       -1   -1    0    0    0  501  0.00000000000E+00  0.00000000000E+00  0.90414674349E+03  0.90414674350E+03  0.50400001928E-02 0. -1.
        1   -1    0    0  501    0  0.00000000000E+00  0.00000000000E+00 -0.13674107278E+04  0.13674107278E+04  0.50400001928E-02 0.  1.
    10030    2    1    2    0    0  0.00000000000E+00  0.00000000000E+00 -0.46326398430E+03  0.22715574713E+04  0.22238165001E+04 0.  0.
        4    1    3    3  502    0 -0.47731661581E+03 -0.23600996690E+03 -0.12287053998E+04  0.13391230073E+04  0.12699999809E+01 0.  1.
       -4    1    3    3    0  502  0.47731661581E+03  0.23600996690E+03  0.76544141551E+03  0.93243446401E+03  0.12699999809E+01 0. -1.
</event>
<event>
 5   0  0.2847158E-05  0.2370001E+04  0.7818609E-02  0.8450821E-01
        1   -1    0    0  501    0  0.00000000000E+00  0.00000000000E+00  0.27019620528E+04  0.27019620528E+04  0.50400001928E-02 0. -1.
       -1   -1    0    0    0  501  0.00000000000E+00  0.00000000000E+00 -0.51970591950E+03  0.51970591953E+03  0.50400001928E-02 0.  1.
    10030    2    1    2    0    0  0.00000000000E+00  0.00000000000E+00  0.21822561333E+04  0.32216679724E+04  0.23700005681E+04 0.  0.
        5    1    3    3  502    0  0.21378110664E+03 -0.51241974371E+03  0.25141879898E+04  0.25747698331E+04  0.46999998093E+01 0. -1.
       -5    1    3    3    0  502 -0.21378110664E+03  0.51241974371E+03 -0.33193185646E+03  0.64689813930E+03  0.46999998093E+01 0.  1.
</event>
<event>
 5   0  0.2847158E-05  0.2396350E+04  0.7818609E-02  0.8440871E-01
       -1   -1    0    0    0  501  0.00000000000E+00  0.00000000000E+00  0.13415128005E+04  0.13415128005E+04  0.50400001928E-02 0. -1.
        1   -1    0    0  501    0  0.00000000000E+00  0.00000000000E+00 -0.10701524370E+04  0.10701524370E+04  0.50400001928E-02 0.  1.
    10030    2    1    2    0    0  0.00000000000E+00  0.00000000000E+00  0.27136036347E+03  0.24116652376E+04  0.23963498850E+04 0.  0.
        5    1    3    3  502    0  0.19466365869E+03 -0.60146228503E+03  0.11600015943E+04  0.13210891753E+04  0.46999998093E+01 0. -1.
       -5    1    3    3    0  502 -0.19466365869E+03  0.60146228503E+03 -0.88864123086E+03  0.10905760622E+04  0.46999998093E+01 0.  1.
</event>
<event>
 5   0  0.2847158E-05  0.2416913E+04  0.7818609E-02  0.8433199E-01
       -1   -1    0    0    0  501  0.00000000000E+00  0.00000000000E+00  0.96753182736E+03  0.96753182738E+03  0.50400001928E-02 0.  1.
        1   -1    0    0  501    0  0.00000000000E+00  0.00000000000E+00 -0.15093741128E+04  0.15093741128E+04  0.50400001928E-02 0. -1.
    10030    2    1    2    0    0  0.00000000000E+00  0.00000000000E+00 -0.54184228542E+03  0.24769059402E+04  0.24169133154E+04 0.  0.
        5    1    3    3  502    0  0.63563984653E+02 -0.57358926065E+03  0.81717749782E+03  0.10004229970E+04  0.46999998093E+01 0.  1.
       -5    1    3    3    0  502 -0.63563984653E+02  0.57358926065E+03 -0.13590197832E+04  0.14764829431E+04  0.46999998093E+01 0. -1.
</event>
<event>
 5   0  0.6714629E-05  0.2398621E+04  0.7818609E-02  0.8440020E-01
       -2   -1    0    0    0  501  0.00000000000E+00  0.00000000000E+00  0.93460389904E+03  0.93460389905E+03  0.25500000920E-02 0. -1.
        2   -1    0    0  501    0  0.00000000000E+00  0.00000000000E+00 -0.15389895768E+04  0.15389895768E+04  0.25500000920E-02 0.  1.
    10030    2    1    2    0    0  0.00000000000E+00  0.00000000000E+00 -0.60438567780E+03  0.24735934759E+04  0.23986209864E+04 0.  0.
        3    1    3    3  502    0  0.10384049441E+04  0.35221150553E+03 -0.80318386441E+03  0.13592064239E+04  0.10100000352E+00 0.  1.
       -3    1    3    3    0  502 -0.10384049441E+04 -0.35221150553E+03  0.19879818661E+03  0.11143870520E+04  0.10100000352E+00 0. -1.
</event>
<event>
 5   0  0.2847158E-05  0.2488344E+04  0.7818609E-02  0.8407150E-01
        1   -1    0    0  501    0  0.00000000000E+00  0.00000000000E+00  0.17241887976E+04  0.17241887976E+04  0.50400001928E-02 0.  1.
       -1   -1    0    0    0  501  0.00000000000E+00  0.00000000000E+00 -0.89779235730E+03  0.89779235731E+03  0.50400001928E-02 0. -1.
    10030    2    1    2    0    0  0.00000000000E+00  0.00000000000E+00  0.82639644029E+03  0.26219811549E+04  0.24883436459E+04 0.  0.
        5    1    3    3  502    0 -0.10086079348E+04 -0.55269574242E+03 -0.86816789192E+02  0.11533957667E+04  0.46999998093E+01 0. -1.
       -5    1    3    3    0  502  0.10086079348E+04  0.55269574242E+03  0.91321322948E+03  0.14685853882E+04  0.46999998093E+01 0.  1.
</event>
<event>
 5   0  0.2847158E-05  0.2368900E+04  0.7818609E-02  0.8451239E-01
       -1   -1    0    0    0  501  0.00000000000E+00  0.00000000000E+00  0.10205387472E+04  0.10205387472E+04  0.50400001928E-02 0.  1.
        1   -1    0    0  501    0  0.00000000000E+00  0.00000000000E+00 -0.13746879610E+04  0.13746879610E+04  0.50400001928E-02 0. -1.
    10030    2    1    2    0    0  0.00000000000E+00  0.00000000000E+00 -0.35414921385E+03  0.23952267082E+04  0.23689004449E+04 0.  0.
        5    1    3    3  502    0 -0.80078953781E+02  0.75090312857E+03  0.74555288028E+03  0.10611971234E+04  0.46999998093E+01 0.  1.
       -5    1    3    3    0  502  0.80078953781E+02 -0.75090312857E+03 -0.10997020941E+04  0.13340295848E+04  0.46999998093E+01 0. -1.
</event>
<event>
 5   0  0.6714629E-05  0.1510946E+04  0.7818609E-02  0.8877206E-01
        2   -1    0    0  501    0  0.00000000000E+00  0.00000000000E+00  0.18038620731E+04  0.18038620731E+04  0.25500000920E-02 0.  1.
       -2   -1    0    0    0  501  0.00000000000E+00  0.00000000000E+00 -0.31639880326E+03  0.31639880327E+03  0.25500000920E-02 0. -1.
    10030    2    1    2    0    0  0.00000000000E+00  0.00000000000E+00  0.14874632698E+04  0.21202608764E+04  0.15109464599E+04 0.  0.
        3    1    3    3  502    0 -0.44557190311E+03  0.59705395029E+03  0.56772343904E+03  0.93665236552E+03  0.10100000352E+00 0.  1.
       -3    1    3    3    0  502  0.44557190311E+03 -0.59705395029E+03  0.91973983079E+03  0.11836085108E+04  0.10100000352E+00 0. -1.
</event>
<event>
 5   0  0.6337926E-05  0.2414074E+04  0.7818609E-02  0.8434253E-01
       -2   -1    0    0    0  501  0.00000000000E+00  0.00000000000E+00  0.64100529605E+03  0.64100529605E+03  0.25500000920E-02 0.  1.
        2   -1    0    0  501    0  0.00000000000E+00  0.00000000000E+00 -0.22728958006E+04  0.22728958006E+04  0.25500000920E-02 0. -1.
    10030    2    1    2    0    0  0.00000000000E+00  0.00000000000E+00 -0.16318905045E+04  0.29139010966E+04  0.24140739388E+04 0.  0.
        1    1    3    3  502    0  0.43678983304E+03 -0.11047907888E+04 -0.55821821001E+03  0.13126140389E+04  0.50400001928E-02 0.  1.
       -1    1    3    3    0  502 -0.43678983304E+03  0.11047907888E+04 -0.10736722945E+04  0.16012870577E+04  0.50400001928E-02 0. -1.
</event>
<event>
 5   0  0.6978115E-05  0.2284607E+04  0.7818609E-02  0.8484015E-01
       -2   -1    0    0    0  501  0.00000000000E+00  0.00000000000E+00  0.14578111950E+04  0.14578111950E+04  0.25500000920E-02 0. -1.
        2   -1    0    0  501    0  0.00000000000E+00  0.00000000000E+00 -0.89507946347E+03  0.89507946347E+03  0.25500000920E-02 0.  1.
    10030    2    1    2    0    0  0.00000000000E+00  0.00000000000E+00  0.56273173157E+03  0.23528906585E+04  0.22846066290E+04 0.  0.
        4    1    3    3  502    0 -0.42640749664E+03  0.71041770970E+03  0.10912138078E+04  0.13701335200E+04  0.12699999809E+01 0. -1.
       -4    1    3    3    0  502  0.42640749664E+03 -0.71041770970E+03 -0.52848207624E+03  0.98275713849E+03  0.12699999809E+01 0.  1.
</event>
<event>
 5   0  0.2915546E-05  0.1896996E+04  0.7818609E-02  0.8656353E-01
        1   -1    0    0  501    0  0.00000000000E+00  0.00000000000E+00  0.15192379878E+04  0.15192379878E+04  0.50400001928E-02 0.  1.
       -1   -1    0    0    0  501  0.00000000000E+00  0.00000000000E+00 -0.59217097150E+03  0.59217097152E+03  0.50400001928E-02 0. -1.
    10030    2    1    2    0    0  0.00000000000E+00  0.00000000000E+00  0.92706701631E+03  0.21114089593E+04  0.18969961889E+04 0.  0.
        2    1    3    3  502    0 -0.42360429231E+03 -0.79267391708E+03  0.80090406453E+03  0.12038354771E+04  0.25500000920E-02 0. -1.
       -2    1    3    3    0  502  0.42360429231E+03  0.79267391708E+03  0.12616295178E+03  0.90757348226E+03  0.25500000920E-02 0.  1.
</event>
<event>
 5   0  0.6600166E-05  0.2268697E+04  0.7818609E-02  0.8490367E-01
        2   -1    0    0  501    0  0.00000000000E+00  0.00000000000E+00  0.13069852132E+04  0.13069852132E+04  0.25500000920E-02 0. -1.
       -2   -1    0    0    0  501  0.00000000000E+00  0.00000000000E+00 -0.98451515953E+03  0.98451515953E+03  0.25500000920E-02 0.  1.
    10030    2    1    2    0    0  0.00000000000E+00  0.00000000000E+00  0.32247005368E+03  0.22915003727E+04  0.22686972083E+04 0.  0.
        5    1    3    3  502    0  0.41546587756E+02  0.67829402423E+03 -0.75614271123E+03  0.10166527391E+04  0.46999998093E+01 0.  1.
       -5    1    3    3    0  502 -0.41546587756E+02 -0.67829402423E+03  0.10786127649E+04  0.12748476336E+04  0.46999998093E+01 0. -1.
</event>
<event>
 5   0  0.2901816E-05  0.2406185E+04  0.7818609E-02  0.8437192E-01
       -1   -1    0    0    0  501  0.00000000000E+00  0.00000000000E+00  0.12025576360E+04  0.12025576360E+04  0.50400001928E-02 0. -1.
        1   -1    0    0  501    0  0.00000000000E+00  0.00000000000E+00 -0.12036273168E+04  0.12036273168E+04  0.50400001928E-02 0.  1.
    10030    2    1    2    0    0  0.00000000000E+00  0.00000000000E+00 -0.10696808770E+01  0.24061849528E+04  0.24061847150E+04 0.  0.
        4    1    3    3  502    0 -0.11425955802E+03  0.35510591911E+03 -0.11443330770E+04  0.12036009573E+04  0.12699999809E+01 0.  1.
       -4    1    3    3    0  502  0.11425955802E+03 -0.35510591911E+03  0.11432633961E+04  0.12025839955E+04  0.12699999809E+01 0. -1.
</event>
<event>
 5   0  0.6337926E-05  0.1669643E+04  0.7818609E-02  0.8778870E-01
        2   -1    0    0  501    0  0.00000000000E+00  0.00000000000E+00  0.75766682051E+03  0.75766682052E+03  0.25500000920E-02 0. -1.
       -2   -1    0    0    0  501  0.00000000000E+00  0.00000000000E+00 -0.91983303480E+03  0.91983303480E+03  0.25500000920E-02 0.  1.
    10030    2    1    2    0    0  0.00000000000E+00  0.00000000000E+00 -0.16216621429E+03  0.16774998553E+04  0.16696430408E+04 0.  0.
        1    1    3    3  502    0 -0.64318611909E+03 -0.51184198144E+03 -0.22756483089E+03  0.85291051702E+03  0.50400001928E-02 0. -1.
       -1    1    3    3    0  502  0.64318611909E+03  0.51184198144E+03  0.65398616599E+02  0.82458933830E+03  0.50400001928E-02 0.  1.
</event>
<event>
 5   0  0.6600166E-05  0.1567499E+04  0.7818609E-02  0.8840767E-01
       -2   -1    0    0    0  501  0.00000000000E+00  0.00000000000E+00  0.96230478806E+03  0.96230478806E+03  0.25500000920E-02 0.  1.
        2   -1    0    0  501    0  0.00000000000E+00  0.00000000000E+00 -0.63832476439E+03  0.63832476440E+03  0.25500000920E-02 0. -1.
    10030    2    1    2    0    0  0.00000000000E+00  0.00000000000E+00  0.32398002367E+03  0.16006295525E+04  0.15674986151E+04 0.  0.
        5    1    3    3  502    0  0.39830316442E+03  0.20988067559E+03  0.81706743983E+03  0.93290760528E+03  0.46999998093E+01 0.  1.
       -5    1    3    3    0  502 -0.39830316442E+03 -0.20988067559E+03 -0.49308741616E+03  0.66772194718E+03  0.46999998093E+01 0. -1.
</event>
<event>
 5   0  0.6703961E-05  0.2384453E+04  0.7818609E-02  0.8445347E-01
        2   -1    0    0  501    0  0.00000000000E+00  0.00000000000E+00  0.24343005402E+04  0.24343005402E+04  0.25500000920E-02 0.  1.
       -2   -1    0    0    0  501  0.00000000000E+00  0.00000000000E+00 -0.58390664951E+03  0.58390664951E+03  0.25500000920E-02 0. -1.
    10030    2    1    2    0    0  0.00000000000E+00  0.00000000000E+00  0.18503938907E+04  0.30182071898E+04  0.23844532055E+04 0.  0.
        2    1    3    3  502    0  0.32553841470E+03 -0.11389134244E+04  0.75394016393E+03  0.14041099738E+04  0.25500000920E-02 0.  1.
       -2    1    3    3    0  502 -0.32553841470E+03  0.11389134244E+04  0.10964537268E+04  0.16140972160E+04  0.25500000920E-02 0. -1.
</event>
<event>
 5   0  0.2943123E-05  0.2362503E+04  0.7818609E-02  0.8453677E-01
        1   -1    0    0  501    0  0.00000000000E+00  0.00000000000E+00  0.13831338149E+04  0.13831338149E+04  0.50400001928E-02 0. -1.
       -1   -1    0    0    0  501  0.00000000000E+00  0.00000000000E+00 -0.10088363005E+04  0.10088363005E+04  0.50400001928E-02 0.  1.
    10030    2    1    2    0    0  0.00000000000E+00  0.00000000000E+00  0.37429751440E+03  0.23919701154E+04  0.23625034188E+04 0.  0.
        1    1    3    3  502    0 -0.63339350461E+02 -0.84750662899E+03  0.10177937170E+04  0.13259650862E+04  0.50400001928E-02 0. -1.
       -1    1    3    3    0  502  0.63339350461E+02  0.84750662899E+03 -0.64349620260E+03  0.10660050292E+04  0.50400001928E-02 0.  1.
</event>
<event>
 5   0  0.2901816E-05  0.2427642E+04  0.7818609E-02  0.8429227E-01
        1   -1    0    0  501    0  0.00000000000E+00  0.00000000000E+00  0.82517908604E+03  0.82517908606E+03  0.50400001928E-02 0.  1.
       -1   -1    0    0    0  501  0.00000000000E+00  0.00000000000E+00 -0.17855057167E+04  0.17855057167E+04  0.50400001928E-02 0. -1.
    10030    2    1    2    0    0  0.00000000000E+00  0.00000000000E+00 -0.96032663069E+03  0.26106848028E+04  0.24276424576E+04 0.  0.
        4    1    3    3  502    0 -0.32941054070E+03 -0.66627964336E+03  0.55183927142E+03  0.92572569472E+03  0.12699999809E+01 0.  1.
       -4    1    3    3    0  502  0.32941054070E+03  0.66627964336E+03 -0.15121659021E+04  0.16849591081E+04  0.12699999809E+01 0. -1.
</event>
<event>
 5   0  0.6703961E-05  0.3274380E+04  0.7818609E-02  0.8169445E-01
       -2   -1    0    0    0  501  0.00000000000E+00  0.00000000000E+00  0.10677236715E+04  0.10677236715E+04  0.25500000920E-02 0.  1.
        2   -1    0    0  501    0  0.00000000000E+00  0.00000000000E+00 -0.25103784498E+04  0.25103784498E+04  0.25500000920E-02 0. -1.
    10030    2    1    2    0    0  0.00000000000E+00  0.00000000000E+00 -0.14426547783E+04  0.35781021214E+04  0.32743796331E+04 0.  0.
        2    1    3    3  502    0  0.38602647149E+03 -0.13933146058E+04  0.11806986606E+03  0.14506145320E+04  0.25500000920E-02 0.  1.
       -2    1    3    3    0  502 -0.38602647149E+03  0.13933146058E+04 -0.15607246444E+04  0.21274875893E+04  0.25500000920E-02 0. -1.
</event>
<event>
 5   0  0.6600166E-05  0.2286648E+04  0.7818609E-02  0.8483204E-01
       -2   -1    0    0    0  501  0.00000000000E+00  0.00000000000E+00  0.77181826763E+03  0.77181826764E+03  0.25500000920E-02 0.  1.
        2   -1    0    0  501    0  0.00000000000E+00  0.00000000000E+00 -0.16936494264E+04  0.16936494264E+04  0.25500000920E-02 0. -1.
    10030    2    1    2    0    0  0.00000000000E+00  0.00000000000E+00 -0.92183115876E+03  0.24654676940E+04  0.22866478227E+04 0.  0.
        5    1    3    3  502    0 -0.84179276099E+02 -0.28861473543E+03  0.72842592835E+03  0.78804253636E+03  0.46999998093E+01 0.  1.
       -5    1    3    3    0  502  0.84179276099E+02  0.28861473543E+03 -0.16502570871E+04  0.16774251577E+04  0.46999998093E+01 0. -1.
</event>
<event>
 5   0  0.2901816E-05  0.2515742E+04  0.7818609E-02  0.8397399E-01
        1   -1    0    0  501    0  0.00000000000E+00  0.00000000000E+00  0.12790913913E+04  0.12790913913E+04  0.50400001928E-02 0.  1.
       -1   -1    0    0    0  501  0.00000000000E+00  0.00000000000E+00 -0.12370029752E+04  0.12370029752E+04  0.50400001928E-02 0. -1.
    10030    2    1    2    0    0  0.00000000000E+00  0.00000000000E+00  0.42088416060E+02  0.25160943665E+04  0.25157423211E+04 0.  0.
        4    1    3    3  502    0 -0.33414822352E+03  0.66173108620E+03 -0.99531410609E+03  0.12410458688E+04  0.12699999809E+01 0. -1.
       -4    1    3    3    0  502  0.33414822352E+03 -0.66173108620E+03  0.10374025221E+04  0.12750484977E+04  0.12699999809E+01 0.  1.
</event>
<event>
 5   0  0.2915546E-05  0.2390105E+04  0.7818609E-02  0.8443218E-01
       -1   -1    0    0    0  501  0.00000000000E+00  0.00000000000E+00  0.17406533422E+04  0.17406533422E+04  0.50400001928E-02 0.  1.
        1   -1    0    0  501    0  0.00000000000E+00  0.00000000000E+00 -0.82046786149E+03  0.82046786150E+03  0.50400001928E-02 0. -1.
    10030    2    1    2    0    0  0.00000000000E+00  0.00000000000E+00  0.92018548070E+03  0.25611212037E+04  0.23901047051E+04 0.  0.
        2    1    3    3  502    0  0.36010581844E+03 -0.64587929646E+03 -0.54586214652E+03  0.91913097493E+03  0.25500000920E-02 0. -1.
       -2    1    3    3    0  502 -0.36010581844E+03  0.64587929646E+03  0.14660476272E+04  0.16419902288E+04  0.25500000920E-02 0.  1.
</event>
<event>
 5   0  0.6978115E-05  0.1821976E+04  0.7818609E-02  0.8694700E-01
       -2   -1    0    0    0  501  0.00000000000E+00  0.00000000000E+00  0.86826497028E+03  0.86826497029E+03  0.25500000920E-02 0. -1.
        2   -1    0    0  501    0  0.00000000000E+00  0.00000000000E+00 -0.95581299520E+03  0.95581299521E+03  0.25500000920E-02 0.  1.
    10030    2    1    2    0    0  0.00000000000E+00  0.00000000000E+00 -0.87548024921E+02  0.18240779655E+04  0.18219757868E+04 0.  0.
        4    1    3    3  502    0 -0.17583915468E+03 -0.55363834672E+02 -0.93694278684E+03  0.95490730504E+03  0.12699999809E+01 0.  1.
       -4    1    3    3    0  502  0.17583915468E+03  0.55363834672E+02  0.84939476192E+03  0.86917066045E+03  0.12699999809E+01 0. -1.
</event>
<event>
 5   0  0.2847158E-05  0.2378430E+04  0.7818609E-02  0.8447624E-01
       -1   -1    0    0    0  501  0.00000000000E+00  0.00000000000E+00  0.19036996770E+04  0.19036996770E+04  0.50400001928E-02 0. -1.
        1   -1    0    0  501    0  0.00000000000E+00  0.00000000000E+00 -0.74288600531E+03  0.74288600533E+03  0.50400001928E-02 0.  1.
    10030    2    1    2    0    0  0.00000000000E+00  0.00000000000E+00  0.11608136717E+04  0.26465856823E+04  0.23784296066E+04 0.  0.
        5    1    3    3  502    0 -0.14491571013E+03 -0.80875498338E+03 -0.37624624995E+03  0.90369713775E+03  0.46999998093E+01 0.  1.
       -5    1    3    3    0  502  0.14491571013E+03  0.80875498338E+03  0.15370599216E+04  0.17428885446E+04  0.46999998093E+01 0. -1.
</event>
<event>
 5   0  0.6978115E-05  0.2381989E+04  0.7818609E-02  0.8446277E-01
        2   -1    0    0  501    0  0.00000000000E+00  0.00000000000E+00  0.21751107769E+04  0.21751107769E+04  0.25500000920E-02 0.  1.
       -2   -1    0    0    0  501  0.00000000000E+00  0.00000000000E+00 -0.65213599846E+03  0.65213599847E+03  0.25500000920E-02 0. -1.
    10030    2    1    2    0    0  0.00000000000E+00  0.00000000000E+00  0.15229747785E+04  0.28272467754E+04  0.23819891169E+04 0.  0.
        4    1    3    3  502    0 -0.10422145198E+04  0.40618459717E+01  0.77340851727E+02  0.10450889073E+04  0.12699999809E+01 0. -1.
       -4    1    3    3    0  502  0.10422145198E+04 -0.40618459717E+01  0.14456339268E+04  0.17821578681E+04  0.12699999809E+01 0.  1.
</event>
<event>
 5   0  0.6978115E-05  0.2385255E+04  0.7818609E-02  0.8445045E-01
        2   -1    0    0  501    0  0.00000000000E+00  0.00000000000E+00  0.11970210839E+04  0.11970210839E+04  0.25500000920E-02 0. -1.
       -2   -1    0    0    0  501  0.00000000000E+00  0.00000000000E+00 -0.11882499139E+04  0.11882499140E+04  0.25500000920E-02 0.  1.
    10030    2    1    2    0    0  0.00000000000E+00  0.00000000000E+00  0.87711699119E+01  0.23852709978E+04  0.23852548710E+04 0.  0.
        4    1    3    3  502    0 -0.10028797800E+03  0.11315690202E+04  0.36750298192E+03  0.11939707620E+04  0.12699999809E+01 0. -1.
       -4    1    3    3    0  502  0.10028797800E+03 -0.11315690202E+04 -0.35873181201E+03  0.11913002358E+04  0.12699999809E+01 0.  1.
</event>
<event>
 5   0  0.6714629E-05  0.2385920E+04  0.7818609E-02  0.8444794E-01
       -2   -1    0    0    0  501  0.00000000000E+00  0.00000000000E+00  0.67899800885E+03  0.67899800886E+03  0.25500000920E-02 0. -1.
        2   -1    0    0  501    0  0.00000000000E+00  0.00000000000E+00 -0.20959615583E+04  0.20959615583E+04  0.25500000920E-02 0.  1.
    10030    2    1    2    0    0  0.00000000000E+00  0.00000000000E+00 -0.14169635495E+04  0.27749595672E+04  0.23859201368E+04 0.  0.
        3    1    3    3  502    0  0.11782364338E+04 -0.81913004995E+02 -0.90380212234E+03  0.14872152235E+04  0.10100000352E+00 0. -1.
       -3    1    3    3    0  502 -0.11782364338E+04  0.81913004995E+02 -0.51316142712E+03  0.12877443437E+04  0.10100000352E+00 0.  1.
</event>
<event>
 5   0  0.2915546E-05  0.2425096E+04  0.7818609E-02  0.8430167E-01
        1   -1    0    0  501    0  0.00000000000E+00  0.00000000000E+00  0.17846786954E+04  0.17846786954E+04  0.50400001928E-02 0. -1.
       -1   -1    0    0    0  501  0.00000000000E+00  0.00000000000E+00 -0.82383025688E+03  0.82383025690E+03  0.50400001928E-02 0.  1.
    10030    2    1    2    0    0  0.00000000000E+00  0.00000000000E+00  0.96084843853E+03  0.26085089523E+04  0.24250957162E+04 0.  0.
        2    1    3    3  502    0 -0.33048626826E+03 -0.18646115742E+03  0.17191683489E+04  0.17605478547E+04  0.25500000920E-02 0. -1.
       -2    1    3    3    0  502  0.33048626826E+03  0.18646115742E+03 -0.75831991034E+03  0.84796109767E+03  0.25500000920E-02 0.  1.
</event>
<event>
 5   0  0.2901816E-05  0.2262913E+04  0.7818609E-02  0.8492689E-01
       -1   -1    0    0    0  501  0.00000000000E+00  0.00000000000E+00  0.72162241023E+03  0.72162241025E+03  0.50400001928E-02 0.  1.
        1   -1    0    0  501    0  0.00000000000E+00  0.00000000000E+00 -0.17740498068E+04  0.17740498068E+04  0.50400001928E-02 0. -1.
    10030    2    1    2    0    0  0.00000000000E+00  0.00000000000E+00 -0.10524273966E+04  0.24956722171E+04  0.22629132529E+04 0.  0.
        4    1    3    3  502    0  0.28856373440E+03 -0.79797292926E+03 -0.13516369836E+04  0.15959179092E+04  0.12699999809E+01 0. -1.
       -4    1    3    3    0  502 -0.28856373440E+03  0.79797292926E+03  0.29920958701E+03  0.89975430785E+03  0.12699999809E+01 0.  1.
</event>
<event>
 5   0  0.2847158E-05  0.2334662E+04  0.7818609E-02  0.8464378E-01
       -1   -1    0    0    0  501  0.00000000000E+00  0.00000000000E+00  0.10801968054E+04  0.10801968055E+04  0.50400001928E-02 0.  1.
        1   -1    0    0  501    0  0.00000000000E+00  0.00000000000E+00 -0.12614941238E+04  0.12614941238E+04  0.50400001928E-02 0. -1.
    10030    2    1    2    0    0  0.00000000000E+00  0.00000000000E+00 -0.18129731836E+03  0.23416909293E+04  0.23346622220E+04 0.  0.
        5    1    3    3  502    0 -0.40850321109E+02  0.19961622444E+03 -0.12435108128E+04  0.12601018282E+04  0.46999998093E+01 0. -1.
       -5    1    3    3    0  502  0.40850321109E+02 -0.19961622444E+03  0.10622134945E+04  0.10815891011E+04  0.46999998093E+01 0.  1.
</event>
<event>
 5   0  0.6337926E-05  0.2355887E+04  0.7818609E-02  0.8456206E-01
       -2   -1    0    0    0  501  0.00000000000E+00  0.00000000000E+00  0.68117883328E+03  0.68117883328E+03  0.25500000920E-02 0.  1.
        2   -1    0    0  501    0  0.00000000000E+00  0.00000000000E+00 -0.20369838829E+04  0.20369838829E+04  0.25500000920E-02 0. -1.
    10030    2    1    2    0    0  0.00000000000E+00  0.00000000000E+00 -0.13558050496E+04  0.27181627162E+04  0.23558865038E+04 0.  0.
        1    1    3    3  502    0  0.11054088631E+04 -0.39747188255E+03 -0.57706990780E+03  0.13087865871E+04  0.50400001928E-02 0.  1.
       -1    1    3    3    0  502 -0.11054088631E+04  0.39747188255E+03 -0.77873514181E+03  0.14093761291E+04  0.50400001928E-02 0. -1.
</event>
<event>
 5   0  0.6600166E-05  0.2361340E+04  0.7818609E-02  0.8454121E-01
        2   -1    0    0  501    0  0.00000000000E+00  0.00000000000E+00  0.18599017314E+04  0.18599017314E+04  0.25500000920E-02 0. -1.
       -2   -1    0    0    0  501  0.00000000000E+00  0.00000000000E+00 -0.74949235693E+03  0.74949235693E+03  0.25500000920E-02 0.  1.
    10030    2    1    2    0    0  0.00000000000E+00  0.00000000000E+00  0.11104093745E+04  0.26093940884E+04  0.23613404095E+04 0.  0.
        5    1    3    3  502    0  0.40850013987E+03 -0.49562137941E+03 -0.53954424124E+03  0.83883430680E+03  0.46999998093E+01 0.  1.
       -5    1    3    3    0  502 -0.40850013987E+03  0.49562137941E+03  0.16499536157E+04  0.17705597816E+04  0.46999998093E+01 0. -1.
</event>
<event>
 5   0  0.6978115E-05  0.2421963E+04  0.7818609E-02  0.8431326E-01
       -2   -1    0    0    0  501  0.00000000000E+00  0.00000000000E+00  0.98262146140E+03  0.98262146140E+03  0.25500000920E-02 0.  1.
        2   -1    0    0  501    0  0.00000000000E+00  0.00000000000E+00 -0.14924121423E+04  0.14924121423E+04  0.25500000920E-02 0. -1.
    10030    2    1    2    0    0  0.00000000000E+00  0.00000000000E+00 -0.50979068092E+03  0.24750336037E+04  0.24219630058E+04 0.  0.
        4    1    3    3  502    0 -0.10807140178E+04 -0.46729045630E+03  0.34454605559E+02  0.11779184571E+04  0.12699999809E+01 0. -1.
       -4    1    3    3    0  502  0.10807140178E+04  0.46729045630E+03 -0.54424528648E+03  0.12971151466E+04  0.12699999809E+01 0.  1.
</event>
<event>
 5   0  0.2847158E-05  0.2372808E+04  0.7818609E-02  0.8449755E-01
       -1   -1    0    0    0  501  0.00000000000E+00  0.00000000000E+00  0.11905843847E+04  0.11905843847E+04  0.50400001928E-02 0.  1.
        1   -1    0    0  501    0  0.00000000000E+00  0.00000000000E+00 -0.11822380024E+04  0.11822380024E+04  0.50400001928E-02 0. -1.
    10030    2    1    2    0    0  0.00000000000E+00  0.00000000000E+00  0.83463822842E+01  0.23728223871E+04  0.23728077079E+04 0.  0.
        5    1    3    3  502    0  0.64431438745E+03 -0.52018246425E+03  0.85376728215E+03  0.11893996335E+04  0.46999998093E+01 0.  1.
       -5    1    3    3    0  502 -0.64431438745E+03  0.52018246425E+03 -0.84542089986E+03  0.11834227537E+04  0.46999998093E+01 0. -1.
</event>
<event>
 5   0  0.2943123E-05  0.2331359E+04  0.7818609E-02  0.8465658E-01
       -1   -1    0    0    0  501  0.00000000000E+00  0.00000000000E+00  0.10603108147E+04  0.10603108147E+04  0.50400001928E-02 0. -1.
        1   -1    0    0  501    0  0.00000000000E+00  0.00000000000E+00 -0.12815194886E+04  0.12815194886E+04  0.50400001928E-02 0.  1.
    10030    2    1    2    0    0  0.00000000000E+00  0.00000000000E+00 -0.22120867394E+03  0.23418303033E+04  0.23313592371E+04 0.  0.
        1    1    3    3  502    0 -0.79715079599E+03 -0.41030483670E+03  0.63773132151E+03  0.11002275624E+04  0.50400001928E-02 0. -1.
       -1    1    3    3    0  502  0.79715079599E+03  0.41030483670E+03 -0.85893999545E+03  0.12416027410E+04  0.50400001928E-02 0.  1.
</event>
<event>
 5   0  0.2915546E-05  0.2389685E+04  0.7818609E-02  0.8443375E-01
       -1   -1    0    0    0  501  0.00000000000E+00  0.00000000000E+00  0.81233156866E+03  0.81233156868E+03  0.50400001928E-02 0.  1.
        1   -1    0    0  501    0  0.00000000000E+00  0.00000000000E+00 -0.17574703289E+04  0.17574703289E+04  0.50400001928E-02 0. -1.
    10030    2    1    2    0    0  0.00000000000E+00  0.00000000000E+00 -0.94513876028E+03  0.25698018976E+04  0.23896850246E+04 0.  0.
        2    1    3    3  502    0 -0.93818002142E+02 -0.11765873484E+04 -0.67227920491E+03  0.13583515507E+04  0.25500000920E-02 0. -1.
       -2    1    3    3    0  502  0.93818002142E+02  0.11765873484E+04 -0.27285955537E+03  0.12114503469E+04  0.25500000920E-02 0.  1.
</event>
<event>
 5   0  0.2915546E-05  0.2304030E+04  0.7818609E-02  0.8476334E-01
       -1   -1    0    0    0  501  0.00000000000E+00  0.00000000000E+00  0.72670330017E+03  0.72670330019E+03  0.50400001928E-02 0. -1.
        1   -1    0    0  501    0  0.00000000000E+00  0.00000000000E+00 -0.18262457445E+04  0.18262457445E+04  0.50400001928E-02 0.  1.
    10030    2    1    2    0    0  0.00000000000E+00  0.00000000000E+00 -0.10995424443E+04  0.25529490447E+04  0.23040302163E+04 0.  0.
        2    1    3    3  502    0 -0.69563574034E+03 -0.42233975131E+03 -0.14532515625E+04  0.16655990071E+04  0.25500000920E-02 0.  1.
       -2    1    3    3    0  502  0.69563574034E+03  0.42233975131E+03  0.35370911818E+03  0.88735003751E+03  0.25500000920E-02 0. -1.
</event>
<event>
 5   0  0.2847158E-05  0.2416722E+04  0.7818609E-02  0.8433270E-01
        1   -1    0    0  501    0  0.00000000000E+00  0.00000000000E+00  0.83476673776E+03  0.83476673778E+03  0.50400001928E-02 0.  1.
       -1   -1    0    0    0  501  0.00000000000E+00  0.00000000000E+00 -0.17491547732E+04  0.17491547732E+04  0.50400001928E-02 0. -1.
    10030    2    1    2    0    0  0.00000000000E+00  0.00000000000E+00 -0.91438803544E+03  0.25839215110E+04  0.24167219318E+04 0.  0.
        5    1    3    3  502    0 -0.10659955134E+03  0.11328692310E+04 -0.22418374162E+02  0.11381040517E+04  0.46999998093E+01 0.  1.
       -5    1    3    3    0  502  0.10659955134E+03 -0.11328692310E+04 -0.89196966128E+03  0.14458174593E+04  0.46999998093E+01 0. -1.
</event>
<event>
 5   0  0.6337926E-05  0.2548766E+04  0.7818609E-02  0.8385815E-01
        2   -1    0    0  501    0  0.00000000000E+00  0.00000000000E+00  0.90482832458E+03  0.90482832458E+03  0.25500000920E-02 0.  1.
       -2   -1    0    0    0  501  0.00000000000E+00  0.00000000000E+00 -0.17948736374E+04  0.17948736374E+04  0.25500000920E-02 0. -1.
    10030    2    1    2    0    0  0.00000000000E+00  0.00000000000E+00 -0.89004531285E+03  0.26997019620E+04  0.25487663731E+04 0.  0.
        1    1    3    3  502    0 -0.73649106070E+03 -0.75429944948E+03  0.31338542413E+03  0.10998168784E+04  0.50400001928E-02 0.  1.
       -1    1    3    3    0  502  0.73649106070E+03  0.75429944948E+03 -0.12034307370E+04  0.15998850836E+04  0.50400001928E-02 0. -1.
</event>
<event>
 5   0  0.2915546E-05  0.2427793E+04  0.7818609E-02  0.8429171E-01
        1   -1    0    0  501    0  0.00000000000E+00  0.00000000000E+00  0.16111778216E+04  0.16111778216E+04  0.50400001928E-02 0.  1.
       -1   -1    0    0    0  501  0.00000000000E+00  0.00000000000E+00 -0.91457600896E+03  0.91457600897E+03  0.50400001928E-02 0. -1.
    10030    2    1    2    0    0  0.00000000000E+00  0.00000000000E+00  0.69660181266E+03  0.25257538306E+04  0.24277928922E+04 0.  0.
        2    1    3    3  502    0  0.77622587277E+03  0.44692844984E+03  0.12006724727E+04  0.14979606242E+04  0.25500000920E-02 0.  1.
       -2    1    3    3    0  502 -0.77622587277E+03 -0.44692844984E+03 -0.50407066005E+03  0.10277932064E+04  0.25500000920E-02 0. -1.
</event>
<event>
 5   0  0.2943123E-05  0.2529501E+04  0.7818609E-02  0.8392551E-01
       -1   -1    0    0    0  501  0.00000000000E+00  0.00000000000E+00  0.91421569015E+03  0.91421569017E+03  0.50400001928E-02 0. -1.
        1   -1    0    0  501    0  0.00000000000E+00  0.00000000000E+00 -0.17496891542E+04  0.17496891542E+04  0.50400001928E-02 0.  1.
    10030    2    1    2    0    0  0.00000000000E+00  0.00000000000E+00 -0.83547346408E+03  0.26639048444E+04  0.25295005655E+04 0.  0.
        1    1    3    3  502    0 -0.82440019029E+03  0.76710227738E+03  0.18862719513E+03  0.11417800999E+04  0.50400001928E-02 0. -1.
       -1    1    3    3    0  502  0.82440019029E+03 -0.76710227738E+03 -0.10241006592E+04  0.15221247445E+04  0.50400001928E-02 0.  1.
</event>
<event>
 5   0  0.6978115E-05  0.1867285E+04  0.7818609E-02  0.8671314E-01
        2   -1    0    0  501    0  0.00000000000E+00  0.00000000000E+00  0.12709313349E+04  0.12709313349E+04  0.25500000920E-02 0.  1.
       -2   -1    0    0    0  501  0.00000000000E+00  0.00000000000E+00 -0.68586560871E+03  0.68586560871E+03  0.25500000920E-02 0. -1.
    10030    2    1    2    0    0  0.00000000000E+00  0.00000000000E+00  0.58506572616E+03  0.19567969436E+04  0.18672847599E+04 0.  0.
        4    1    3    3  502    0 -0.14713823205E+03  0.29839958326E+03 -0.62163504345E+03  0.70507000416E+03  0.12699999809E+01 0. -1.
       -4    1    3    3    0  502  0.14713823205E+03 -0.29839958326E+03  0.12067007696E+04  0.12517269394E+04  0.12699999809E+01 0.  1.
</event>
<event>
 5   0  0.2847158E-05  0.2432515E+04  0.7818609E-02  0.8427430E-01
        1   -1    0    0  501    0  0.00000000000E+00  0.00000000000E+00  0.12046845931E+04  0.12046845931E+04  0.50400001928E-02 0.  1.
       -1   -1    0    0    0  501  0.00000000000E+00  0.00000000000E+00 -0.12279417653E+04  0.12279417654E+04  0.50400001928E-02 0. -1.
    10030    2    1    2    0    0  0.00000000000E+00  0.00000000000E+00 -0.23257172251E+02  0.24326263585E+04  0.24325151806E+04 0.  0.
        5    1    3    3  502    0  0.67258883096E+03 -0.96173859022E+03 -0.33092923344E+03  0.12193658594E+04  0.46999998093E+01 0. -1.
       -5    1    3    3    0  502 -0.67258883096E+03  0.96173859022E+03  0.30767206119E+03  0.12132604991E+04  0.46999998093E+01 0.  1.
</event>
<event>
 5   0  0.2847158E-05  0.2157279E+04  0.7818609E-02  0.8536423E-01
        1   -1    0    0  501    0  0.00000000000E+00  0.00000000000E+00  0.21179096166E+04  0.21179096166E+04  0.50400001928E-02 0. -1.
       -1   -1    0    0    0  501  0.00000000000E+00  0.00000000000E+00 -0.54934497492E+03  0.54934497495E+03  0.50400001928E-02 0.  1.
    10030    2    1    2    0    0  0.00000000000E+00  0.00000000000E+00  0.15685646416E+04  0.26672545915E+04  0.21572788464E+04 0.  0.
        5    1    3    3  502    0  0.28239805829E+02  0.37067515898E+03 -0.46762352698E+03  0.59740389445E+03  0.46999998093E+01 0.  1.
       -5    1    3    3    0  502 -0.28239805829E+02 -0.37067515898E+03  0.20361881686E+04  0.20698506971E+04  0.46999998093E+01 0. -1.
</event>
<event>
 5   0  0.2915546E-05  0.2424713E+04  0.7818609E-02  0.8430309E-01
        1   -1    0    0  501    0  0.00000000000E+00  0.00000000000E+00  0.17078335073E+04  0.17078335073E+04  0.50400001928E-02 0. -1.
       -1   -1    0    0    0  501  0.00000000000E+00  0.00000000000E+00 -0.86062703044E+03  0.86062703046E+03  0.50400001928E-02 0.  1.
    10030    2    1    2    0    0  0.00000000000E+00  0.00000000000E+00  0.84720647688E+03  0.25684605378E+04  0.24247125025E+04 0.  0.
        2    1    3    3  502    0 -0.52247903091E+03  0.10362666758E+04  0.79507051769E+03  0.14067587175E+04  0.25500000920E-02 0. -1.
       -2    1    3    3    0  502  0.52247903091E+03 -0.10362666758E+04  0.52135959193E+02  0.11617018203E+04  0.25500000920E-02 0.  1.
</event>
<event>
 5   0  0.6337926E-05  0.2372663E+04  0.7818609E-02  0.8449810E-01
        2   -1    0    0  501    0  0.00000000000E+00  0.00000000000E+00  0.94732364799E+03  0.94732364799E+03  0.25500000920E-02 0. -1.
       -2   -1    0    0    0  501  0.00000000000E+00  0.00000000000E+00 -0.14856400823E+04  0.14856400823E+04  0.25500000920E-02 0.  1.
    10030    2    1    2    0    0  0.00000000000E+00  0.00000000000E+00 -0.53831643427E+03  0.24329637303E+04  0.23726626244E+04 0.  0.
        1    1    3    3  502    0 -0.71966277553E+03  0.43668909267E+03 -0.11263279055E+04  0.14061388355E+04  0.50400001928E-02 0.  1.
       -1    1    3    3    0  502  0.71966277553E+03 -0.43668909267E+03  0.58801147119E+03  0.10268248947E+04  0.50400001928E-02 0. -1.
</event>
<event>
 5   0  0.2915546E-05  0.1865059E+04  0.7818609E-02  0.8672447E-01
       -1   -1    0    0    0  501  0.00000000000E+00  0.00000000000E+00  0.63785575142E+03  0.63785575144E+03  0.50400001928E-02 0.  1.
        1   -1    0    0  501    0  0.00000000000E+00  0.00000000000E+00 -0.13633352825E+04  0.13633352825E+04  0.50400001928E-02 0. -1.
    10030    2    1    2    0    0  0.00000000000E+00  0.00000000000E+00 -0.72547953110E+03  0.20011910340E+04  0.18650589815E+04 0.  0.
        2    1    3    3  502    0  0.25797442560E+03  0.24027603933E+03 -0.12890781470E+04  0.13364152979E+04  0.25500000920E-02 0. -1.
       -2    1    3    3    0  502 -0.25797442560E+03 -0.24027603933E+03  0.56359861594E+03  0.66477573605E+03  0.25500000920E-02 0.  1.
</event>
<event>
 5   0  0.6337926E-05  0.2024040E+04  0.7818609E-02  0.8595463E-01
        2   -1    0    0  501    0  0.00000000000E+00  0.00000000000E+00  0.13680248739E+04  0.13680248739E+04  0.25500000920E-02 0. -1.
       -2   -1    0    0    0  501  0.00000000000E+00  0.00000000000E+00 -0.74865890444E+03  0.74865890444E+03  0.25500000920E-02 0.  1.
    10030    2    1    2    0    0  0.00000000000E+00  0.00000000000E+00  0.61936596950E+03  0.21166837784E+04  0.20240395286E+04 0.  0.
        1    1    3    3  502    0 -0.69010362770E+03 -0.63175893596E+03  0.71311468897E+03  0.11763906366E+04  0.50400001928E-02 0. -1.
       -1    1    3    3    0  502  0.69010362770E+03  0.63175893596E+03 -0.93748719473E+02  0.94029314182E+03  0.50400001928E-02 0.  1.
</event>
<event>
 5   0  0.6714629E-05  0.2408842E+04  0.7818609E-02  0.8436201E-01
        2   -1    0    0  501    0  0.00000000000E+00  0.00000000000E+00  0.19863582702E+04  0.19863582702E+04  0.25500000920E-02 0. -1.
       -2   -1    0    0    0  501  0.00000000000E+00  0.00000000000E+00 -0.73029612315E+03  0.73029612316E+03  0.25500000920E-02 0.  1.
    10030    2    1    2    0    0  0.00000000000E+00  0.00000000000E+00  0.12560621471E+04  0.27166543934E+04  0.24088418329E+04 0.  0.
        3    1    3    3  502    0 -0.83773222461E+03  0.76219607715E+02 -0.34410672082E+03  0.90885320832E+03  0.10100000352E+00 0.  1.
       -3    1    3    3    0  502  0.83773222461E+03 -0.76219607715E+02  0.16001688679E+04  0.18078011851E+04  0.10100000352E+00 0. -1.
</event>
<event>
 5   0  0.6714629E-05  0.2203648E+04  0.7818609E-02  0.8516911E-01
       -2   -1    0    0    0  501  0.00000000000E+00  0.00000000000E+00  0.44564823490E+03  0.44564823491E+03  0.25500000920E-02 0. -1.
        2   -1    0    0  501    0  0.00000000000E+00  0.00000000000E+00 -0.27241573390E+04  0.27241573390E+04  0.25500000920E-02 0.  1.
    10030    2    1    2    0    0  0.00000000000E+00  0.00000000000E+00 -0.22785091041E+04  0.31698055739E+04  0.22036478028E+04 0.  0.
        3    1    3    3  502    0  0.39090715121E+03 -0.39347722231E+03  0.23019600619E+03  0.60051888964E+03  0.10100000352E+00 0. -1.
       -3    1    3    3    0  502 -0.39090715121E+03  0.39347722231E+03 -0.25087051103E+04  0.25692866843E+04  0.10100000352E+00 0.  1.
</event>
<event>
 5   0  0.2943123E-05  0.2406527E+04  0.7818609E-02  0.8437064E-01
       -1   -1    0    0    0  501  0.00000000000E+00  0.00000000000E+00  0.22133278525E+04  0.22133278525E+04  0.50400001928E-02 0. -1.
        1   -1    0    0  501    0  0.00000000000E+00  0.00000000000E+00 -0.65414777153E+03  0.65414777155E+03  0.50400001928E-02 0.  1.
    10030    2    1    2    0    0  0.00000000000E+00  0.00000000000E+00  0.15591800810E+04  0.28674756241E+04  0.24065273590E+04 0.  0.
        1    1    3    3  502    0 -0.92763107981E+03  0.36316664576E+03 -0.24549125696E+02  0.99648988576E+03  0.50400001928E-02 0.  1.
       -1    1    3    3    0  502  0.92763107981E+03 -0.36316664576E+03  0.15837292067E+04  0.18709857383E+04  0.50400001928E-02 0. -1.
</event>
<event>
 5   0  0.2847158E-05  0.2397047E+04  0.7818609E-02  0.8440610E-01
       -1   -1    0    0    0  501  0.00000000000E+00  0.00000000000E+00  0.10318865348E+04  0.10318865348E+04  0.50400001928E-02 0.  1.
        1   -1    0    0  501    0  0.00000000000E+00  0.00000000000E+00 -0.13920698678E+04  0.13920698678E+04  0.50400001928E-02 0. -1.
    10030    2    1    2    0    0  0.00000000000E+00  0.00000000000E+00 -0.36018333301E+03  0.24239564026E+04  0.23970466429E+04 0.  0.
        5    1    3    3  502    0  0.88008641546E+03 -0.55292085880E+03  0.42340157008E+03  0.11223032363E+04  0.46999998093E+01 0.  1.
       -5    1    3    3    0  502 -0.88008641546E+03  0.55292085880E+03 -0.78358490309E+03  0.13016531662E+04  0.46999998093E+01 0. -1.
</event>
<event>
 5   0  0.6714629E-05  0.2371323E+04  0.7818609E-02  0.8450319E-01
        2   -1    0    0  501    0  0.00000000000E+00  0.00000000000E+00  0.19773088407E+04  0.19773088407E+04  0.25500000920E-02 0. -1.
       -2   -1    0    0    0  501  0.00000000000E+00  0.00000000000E+00 -0.71096271461E+03  0.71096271462E+03  0.25500000920E-02 0.  1.
    10030    2    1    2    0    0  0.00000000000E+00  0.00000000000E+00  0.12663461261E+04  0.26882715553E+04  0.23713227204E+04 0.  0.
        3    1    3    3  502    0  0.19165144507E+03  0.93317885750E+03 -0.16703270985E+03  0.96718818895E+03  0.10100000352E+00 0.  1.
       -3    1    3    3    0  502 -0.19165144507E+03 -0.93317885750E+03  0.14333788360E+04  0.17210833664E+04  0.10100000352E+00 0. -1.
</event>
<event>
 5   0  0.2847158E-05  0.2430086E+04  0.7818609E-02  0.8428325E-01
       -1   -1    0    0    0  501  0.00000000000E+00  0.00000000000E+00  0.93129104010E+03  0.93129104012E+03  0.50400001928E-02 0. -1.
        1   -1    0    0  501    0  0.00000000000E+00  0.00000000000E+00 -0.15852506885E+04  0.15852506885E+04  0.50400001928E-02 0.  1.
    10030    2    1    2    0    0  0.00000000000E+00  0.00000000000E+00 -0.65395964840E+03  0.25165417286E+04  0.24300862228E+04 0.  0.
        5    1    3    3  502    0 -0.94783200184E+03  0.33519918415E+03  0.37961751406E+03  0.10746513592E+04  0.46999998093E+01 0. -1.
       -5    1    3    3    0  502  0.94783200184E+03 -0.33519918415E+03 -0.10335771625E+04  0.14418903695E+04  0.46999998093E+01 0.  1.
</event>
<event>
 5   0  0.6703961E-05  0.2391160E+04  0.7818609E-02  0.8442821E-01
        2   -1    0    0  501    0  0.00000000000E+00  0.00000000000E+00  0.99368170682E+03  0.99368170682E+03  0.25500000920E-02 0.  1.
       -2   -1    0    0    0  501  0.00000000000E+00  0.00000000000E+00 -0.14385004041E+04  0.14385004041E+04  0.25500000920E-02 0. -1.
    10030    2    1    2    0    0  0.00000000000E+00  0.00000000000E+00 -0.44481869729E+03  0.24321821109E+04  0.23911600004E+04 0.  0.
        2    1    3    3  502    0 -0.73824133106E+03  0.58911199625E+03  0.52321390770E+03  0.10797249651E+04  0.25500000920E-02 0.  1.
       -2    1    3    3    0  502  0.73824133106E+03 -0.58911199625E+03 -0.96803260499E+03  0.13524571458E+04  0.25500000920E-02 0. -1.
</event>
<event>
 5   0  0.2943123E-05  0.2409152E+04  0.7818609E-02  0.8436085E-01
       -1   -1    0    0    0  501  0.00000000000E+00  0.00000000000E+00  0.11912354684E+04  0.11912354684E+04  0.50400001928E-02 0.  1.
        1   -1    0    0  501    0  0.00000000000E+00  0.00000000000E+00 -0.12180664062E+04  0.12180664062E+04  0.50400001928E-02 0. -1.
    10030    2    1    2    0    0  0.00000000000E+00  0.00000000000E+00 -0.26830937804E+02  0.24093018746E+04  0.24091524700E+04 0.  0.
        1    1    3    3  502    0 -0.11560348465E+04  0.15091035252E+03  0.28961059128E+03  0.12012763193E+04  0.50400001928E-02 0.  1.
       -1    1    3    3    0  502  0.11560348465E+04 -0.15091035252E+03 -0.31644152908E+03  0.12080255553E+04  0.50400001928E-02 0. -1.
</event>
<event>
 5   0  0.2943123E-05  0.2244397E+04  0.7818609E-02  0.8500173E-01
       -1   -1    0    0    0  501  0.00000000000E+00  0.00000000000E+00  0.10854681089E+04  0.10854681089E+04  0.50400001928E-02 0. -1.
        1   -1    0    0  501    0  0.00000000000E+00  0.00000000000E+00 -0.11601714199E+04  0.11601714200E+04  0.50400001928E-02 0.  1.
    10030    2    1    2    0    0  0.00000000000E+00  0.00000000000E+00 -0.74703311058E+02  0.22456395289E+04  0.22443966470E+04 0.  0.
        1    1    3    3  502    0  0.15507152814E+03  0.69641827997E+03  0.82931706913E+03  0.10939892142E+04  0.50400001928E-02 0. -1.
       -1    1    3    3    0  502 -0.15507152814E+03 -0.69641827997E+03 -0.90402038019E+03  0.11516503147E+04  0.50400001928E-02 0.  1.
</event>
<event>
 5   0  0.2901816E-05  0.2501889E+04  0.7818609E-02  0.8402313E-01
        1   -1    0    0  501    0  0.00000000000E+00  0.00000000000E+00  0.13383571599E+04  0.13383571599E+04  0.50400001928E-02 0.  1.
       -1   -1    0    0    0  501  0.00000000000E+00  0.00000000000E+00 -0.11692410468E+04  0.11692410469E+04  0.50400001928E-02 0. -1.
    10030    2    1    2    0    0  0.00000000000E+00  0.00000000000E+00  0.16911611304E+03  0.25075982067E+04  0.25018889877E+04 0.  0.
        4    1    3    3  502    0 -0.11209724009E+04 -0.53948642516E+03  0.21614278215E+03  0.12626733709E+04  0.12699999809E+01 0. -1.
       -4    1    3    3    0  502  0.11209724009E+04  0.53948642516E+03 -0.47026669107E+02  0.12449248358E+04  0.12699999809E+01 0.  1.
</event>
<event>
 5   0  0.6978115E-05  0.2413807E+04  0.7818609E-02  0.8434353E-01
       -2   -1    0    0    0  501  0.00000000000E+00  0.00000000000E+00  0.84972864619E+03  0.84972864619E+03  0.25500000920E-02 0.  1.
        2   -1    0    0  501    0  0.00000000000E+00  0.00000000000E+00 -0.17142126513E+04  0.17142126513E+04  0.25500000920E-02 0. -1.
    10030    2    1    2    0    0  0.00000000000E+00  0.00000000000E+00 -0.86448400514E+03  0.25639412975E+04  0.24138066165E+04 0.  0.
        4    1    3    3  502    0 -0.64520732048E+03 -0.98545380969E+03 -0.15281664065E+03  0.11877568084E+04  0.12699999809E+01 0.  1.
       -4    1    3    3    0  502  0.64520732048E+03  0.98545380969E+03 -0.71166736449E+03  0.13761844891E+04  0.12699999809E+01 0. -1.
</event>
<event>
 5   0  0.2943244E-05  0.2516905E+04  0.7818609E-02  0.8396988E-01
        1   -1    0    0  501    0  0.00000000000E+00  0.00000000000E+00  0.16611412734E+04  0.16611412734E+04  0.50400001928E-02 0. -1.
       -1   -1    0    0    0  501  0.00000000000E+00  0.00000000000E+00 -0.95338259100E+03  0.95338259101E+03  0.50400001928E-02 0.  1.
    10030    2    1    2    0    0  0.00000000000E+00  0.00000000000E+00  0.70775868236E+03  0.26145238644E+04  0.25169053786E+04 0.  0.
        3    1    3    3  502    0 -0.41150704217E+03  0.43971267981E+03  0.15017335533E+04  0.16179891723E+04  0.10100000352E+00 0. -1.
       -3    1    3    3    0  502  0.41150704217E+03 -0.43971267981E+03 -0.79397487093E+03  0.99653469203E+03  0.10100000352E+00 0.  1.
</event>
<event>
 5   0  0.2847158E-05  0.2282087E+04  0.7818609E-02  0.8485018E-01
       -1   -1    0    0    0  501  0.00000000000E+00  0.00000000000E+00  0.87188081184E+03  0.87188081186E+03  0.50400001928E-02 0.  1.
        1   -1    0    0  501    0  0.00000000000E+00  0.00000000000E+00 -0.14933004565E+04  0.14933004565E+04  0.50400001928E-02 0. -1.
    10030    2    1    2    0    0  0.00000000000E+00  0.00000000000E+00 -0.62141964462E+03  0.23651812683E+04  0.22820867769E+04 0.  0.
        5    1    3    3  502    0  0.78295688066E+03  0.58884827420E+03  0.29556365749E+03  0.10233004117E+04  0.46999998093E+01 0.  1.
       -5    1    3    3    0  502 -0.78295688066E+03 -0.58884827420E+03 -0.91698330211E+03  0.13418808566E+04  0.46999998093E+01 0. -1.
</event>
<event>
 5   0  0.2901816E-05  0.2345272E+04  0.7818609E-02  0.8460282E-01
        1   -1    0    0  501    0  0.00000000000E+00  0.00000000000E+00  0.76379686663E+03  0.76379686664E+03  0.50400001928E-02 0.  1.
       -1   -1    0    0    0  501  0.00000000000E+00  0.00000000000E+00 -0.18003147359E+04  0.18003147359E+04  0.50400001928E-02 0. -1.
    10030    2    1    2    0    0  0.00000000000E+00  0.00000000000E+00 -0.10365178692E+04  0.25641116025E+04  0.23452716297E+04 0.  0.
        4    1    3    3  502    0  0.52083895701E+03  0.10372885823E+04 -0.33586160663E+03  0.12083234062E+04  0.12699999809E+01 0. -1.
       -4    1    3    3    0  502 -0.52083895701E+03 -0.10372885823E+04 -0.70065626260E+03  0.13557881964E+04  0.12699999809E+01 0.  1.
</event>
<event>
 5   0  0.6703961E-05  0.2351344E+04  0.7818609E-02  0.8457948E-01
        2   -1    0    0  501    0  0.00000000000E+00  0.00000000000E+00  0.13459390638E+04  0.13459390638E+04  0.25500000920E-02 0. -1.
       -2   -1    0    0    0  501  0.00000000000E+00  0.00000000000E+00 -0.10269442955E+04  0.10269442955E+04  0.25500000920E-02 0.  1.
    10030    2    1    2    0    0  0.00000000000E+00  0.00000000000E+00  0.31899476831E+03  0.23728833592E+04  0.23513438231E+04 0.  0.
        2    1    3    3  502    0 -0.78392465957E+03  0.76351195911E+03  0.59322051177E+03  0.12447485526E+04  0.25500000920E-02 0. -1.
       -2    1    3    3    0  502  0.78392465957E+03 -0.76351195911E+03 -0.27422574346E+03  0.11281348066E+04  0.25500000920E-02 0.  1.
</event>
<event>
 5   0  0.6978115E-05  0.2416903E+04  0.7818609E-02  0.8433202E-01
       -2   -1    0    0    0  501  0.00000000000E+00  0.00000000000E+00  0.18275632875E+04  0.18275632875E+04  0.25500000920E-02 0.  1.
        2   -1    0    0  501    0  0.00000000000E+00  0.00000000000E+00 -0.79907234145E+03  0.79907234146E+03  0.25500000920E-02 0. -1.
    10030    2    1    2    0    0  0.00000000000E+00  0.00000000000E+00  0.10284909460E+04  0.26266356289E+04  0.24169032047E+04 0.  0.
        4    1    3    3  502    0 -0.42287229367E+03  0.82186250440E+03 -0.33181938055E+03  0.98203088908E+03  0.12699999809E+01 0. -1.
       -4    1    3    3    0  502  0.42287229367E+03 -0.82186250440E+03  0.13603103266E+04  0.16446047398E+04  0.12699999809E+01 0.  1.
</event>
<event>
 5   0  0.6978115E-05  0.2410046E+04  0.7818609E-02  0.8435752E-01
       -2   -1    0    0    0  501  0.00000000000E+00  0.00000000000E+00  0.91510065593E+03  0.91510065593E+03  0.25500000920E-02 0. -1.
        2   -1    0    0  501    0  0.00000000000E+00  0.00000000000E+00 -0.15867983300E+04  0.15867983300E+04  0.25500000920E-02 0.  1.
    10030    2    1    2    0    0  0.00000000000E+00  0.00000000000E+00 -0.67169767405E+03  0.25018989859E+04  0.24100458026E+04 0.  0.
        4    1    3    3  502    0  0.10142126886E+04 -0.11536040704E+03  0.32898363168E+03  0.10724585046E+04  0.12699999809E+01 0. -1.
       -4    1    3    3    0  502 -0.10142126886E+04  0.11536040704E+03 -0.10006813057E+04  0.14294404814E+04  0.12699999809E+01 0.  1.
</event>
<event>
 5   0  0.2901816E-05  0.2229820E+04  0.7818609E-02  0.8506118E-01
        1   -1    0    0  501    0  0.00000000000E+00  0.00000000000E+00  0.46059793307E+03  0.46059793310E+03  0.50400001928E-02 0. -1.
       -1   -1    0    0    0  501  0.00000000000E+00  0.00000000000E+00 -0.26987185468E+04  0.26987185468E+04  0.50400001928E-02 0.  1.
    10030    2    1    2    0    0  0.00000000000E+00  0.00000000000E+00 -0.22381206137E+04  0.31593164799E+04  0.22298198893E+04 0.  0.
        4    1    3    3  502    0  0.53882400524E+03 -0.71099769592E+03 -0.17159918836E+03  0.90845854422E+03  0.12699999809E+01 0. -1.
       -4    1    3    3    0  502 -0.53882400524E+03  0.71099769592E+03 -0.20665214254E+04  0.22508579357E+04  0.12699999809E+01 0.  1.
</event>
<event>
 5   0  0.6703961E-05  0.2421189E+04  0.7818609E-02  0.8431613E-01
       -2   -1    0    0    0  501  0.00000000000E+00  0.00000000000E+00  0.15643765969E+04  0.15643765969E+04  0.25500000920E-02 0. -1.
        2   -1    0    0  501    0  0.00000000000E+00  0.00000000000E+00 -0.93682015921E+03  0.93682015922E+03  0.25500000920E-02 0.  1.
    10030    2    1    2    0    0  0.00000000000E+00  0.00000000000E+00  0.62755643769E+03  0.25011967561E+04  0.24211894041E+04 0.  0.
        2    1    3    3  502    0  0.10358085409E+04 -0.51068732418E+03 -0.61316090973E+02  0.11564862902E+04  0.25500000920E-02 0.  1.
       -2    1    3    3    0  502 -0.10358085409E+04  0.51068732418E+03  0.68887252866E+03  0.13447104659E+04  0.25500000920E-02 0. -1.
</event>
<event>
 5   0  0.6978115E-05  0.2582933E+04  0.7818609E-02  0.8374022E-01
       -2   -1    0    0    0  501  0.00000000000E+00  0.00000000000E+00  0.95929940373E+03  0.95929940373E+03  0.25500000920E-02 0.  1.
        2   -1    0    0  501    0  0.00000000000E+00  0.00000000000E+00 -0.17386498027E+04  0.17386498027E+04  0.25500000920E-02 0. -1.
    10030    2    1    2    0    0  0.00000000000E+00  0.00000000000E+00 -0.77935039894E+03  0.26979492064E+04  0.25829329987E+04 0.  0.
        4    1    3    3  502    0 -0.63635488198E+03  0.72857700676E+03  0.50406115753E+03  0.10908030317E+04  0.12699999809E+01 0.  1.
       -4    1    3    3    0  502  0.63635488198E+03 -0.72857700676E+03 -0.12834115565E+04  0.16071461747E+04  0.12699999809E+01 0. -1.
</event>
<event>
 5   0  0.6600166E-05  0.2304324E+04  0.7818609E-02  0.8476218E-01
        2   -1    0    0  501    0  0.00000000000E+00  0.00000000000E+00  0.20735653783E+04  0.20735653783E+04  0.25500000920E-02 0. -1.
       -2   -1    0    0    0  501  0.00000000000E+00  0.00000000000E+00 -0.64019084690E+03  0.64019084690E+03  0.25500000920E-02 0.  1.
    10030    2    1    2    0    0  0.00000000000E+00  0.00000000000E+00  0.14333745314E+04  0.27137562252E+04  0.23043242616E+04 0.  0.
        5    1    3    3  502    0  0.10719241108E+04 -0.22616964442E+03  0.29653196622E+03  0.11349569614E+04  0.46999998093E+01 0.  1.
       -5    1    3    3    0  502 -0.10719241108E+04  0.22616964442E+03  0.11368425652E+04  0.15787992638E+04  0.46999998093E+01 0. -1.
</event>
<event>
 5   0  0.2339125E-05  0.2368413E+04  0.7818609E-02  0.8451425E-01
       -4   -1    0    0    0  501  0.00000000000E+00  0.00000000000E+00  0.14070885073E+04  0.14070890804E+04  0.12699999809E+01 0. -1.
        4   -1    0    0  501    0  0.00000000000E+00  0.00000000000E+00 -0.99662738015E+03  0.99662818933E+03  0.12699999809E+01 0.  1.
    10030    2    1    2    0    0  0.00000000000E+00  0.00000000000E+00  0.41046112712E+03  0.24037172697E+04  0.23684126279E+04 0.  0.
        4    1    3    3  502    0  0.37475705732E+03 -0.18019370120E+03 -0.92009447572E+03  0.10096970234E+04  0.12699999809E+01 0.  1.
       -4    1    3    3    0  502 -0.37475705732E+03  0.18019370120E+03  0.13305556028E+04  0.13940202463E+04  0.12699999809E+01 0. -1.
</event>
<event>
 5   0  0.6714629E-05  0.1800665E+04  0.7818609E-02  0.8705946E-01
       -2   -1    0    0    0  501  0.00000000000E+00  0.00000000000E+00  0.13420665753E+04  0.13420665753E+04  0.25500000920E-02 0.  1.
        2   -1    0    0  501    0  0.00000000000E+00  0.00000000000E+00 -0.60399253804E+03  0.60399253805E+03  0.25500000920E-02 0. -1.
    10030    2    1    2    0    0  0.00000000000E+00  0.00000000000E+00  0.73807403725E+03  0.19460591133E+04  0.18006645407E+04 0.  0.
        3    1    3    3  502    0  0.75270033668E+03 -0.39612283172E+03  0.50030302958E+02  0.85204115867E+03  0.10100000352E+00 0. -1.
       -3    1    3    3    0  502 -0.75270033668E+03  0.39612283172E+03  0.68804373429E+03  0.10940179547E+04  0.10100000352E+00 0.  1.
</event>
<event>
 5   0  0.2847158E-05  0.2420166E+04  0.7818609E-02  0.8431992E-01
       -1   -1    0    0    0  501  0.00000000000E+00  0.00000000000E+00  0.20158353698E+04  0.20158353698E+04  0.50400001928E-02 0. -1.
        1   -1    0    0  501    0  0.00000000000E+00  0.00000000000E+00 -0.72639909083E+03  0.72639909085E+03  0.50400001928E-02 0.  1.
    10030    2    1    2    0    0  0.00000000000E+00  0.00000000000E+00  0.12894362790E+04  0.27422344607E+04  0.24201660934E+04 0.  0.
        5    1    3    3  502    0  0.67455440853E+03  0.52766333029E+03 -0.32393122929E+03  0.91564500299E+03  0.46999998093E+01 0.  1.
       -5    1    3    3    0  502 -0.67455440853E+03 -0.52766333029E+03  0.16133675083E+04  0.18265894577E+04  0.46999998093E+01 0. -1.
</event>
<event>
 5   0  0.2915546E-05  0.2294851E+04  0.7818609E-02  0.8479954E-01
        1   -1    0    0  501    0  0.00000000000E+00  0.00000000000E+00  0.22140602996E+04  0.22140602996E+04  0.50400001928E-02 0. -1.
       -1   -1    0    0    0  501  0.00000000000E+00  0.00000000000E+00 -0.59464720438E+03  0.59464720440E+03  0.50400001928E-02 0.  1.
    10030    2    1    2    0    0  0.00000000000E+00  0.00000000000E+00  0.16194130953E+04  0.28087075040E+04  0.22948505551E+04 0.  0.
        2    1    3    3  502    0 -0.10310033313E+04 -0.50360154999E+03  0.80781950577E+03  0.14032657426E+04  0.25500000920E-02 0.  1.
       -2    1    3    3    0  502  0.10310033313E+04  0.50360154999E+03  0.81159358948E+03  0.14054417615E+04  0.25500000920E-02 0. -1.
</event>
<event>
 5   0  0.6337926E-05  0.2364692E+04  0.7818609E-02  0.8452842E-01
        2   -1    0    0  501    0  0.00000000000E+00  0.00000000000E+00  0.19070004743E+04  0.19070004743E+04  0.25500000920E-02 0.  1.
       -2   -1    0    0    0  501  0.00000000000E+00  0.00000000000E+00 -0.73305828709E+03  0.73305828710E+03  0.25500000920E-02 0. -1.
    10030    2    1    2    0    0  0.00000000000E+00  0.00000000000E+00  0.11739421872E+04  0.26400587614E+04  0.23646923700E+04 0.  0.
        1    1    3    3  502    0  0.49589919275E+03  0.22917156554E+03  0.17576503416E+04  0.18405896716E+04  0.50400001928E-02 0.  1.
       -1    1    3    3    0  502 -0.49589919275E+03 -0.22917156554E+03 -0.58370815447E+03  0.79946908973E+03  0.50400001928E-02 0. -1.
</event>
<event>
 5   0  0.2901816E-05  0.2406491E+04  0.7818609E-02  0.8437077E-01
       -1   -1    0    0    0  501  0.00000000000E+00  0.00000000000E+00  0.68529393086E+03  0.68529393088E+03  0.50400001928E-02 0.  1.
        1   -1    0    0  501    0  0.00000000000E+00  0.00000000000E+00 -0.21126694594E+04  0.21126694594E+04  0.50400001928E-02 0. -1.
    10030    2    1    2    0    0  0.00000000000E+00  0.00000000000E+00 -0.14273755285E+04  0.27979633903E+04  0.24064908547E+04 0.  0.
        4    1    3    3  502    0  0.27691860260E+03  0.11703926102E+04 -0.67184490319E+03  0.13776356417E+04  0.12699999809E+01 0. -1.
       -4    1    3    3    0  502 -0.27691860260E+03 -0.11703926102E+04 -0.75553062535E+03  0.14203277485E+04  0.12699999809E+01 0.  1.
</event>
<event>
 5   0  0.6714629E-05  0.2436005E+04  0.7818609E-02  0.8426146E-01
       -2   -1    0    0    0  501  0.00000000000E+00  0.00000000000E+00  0.11261150506E+04  0.11261150506E+04  0.25500000920E-02 0.  1.
        2   -1    0    0  501    0  0.00000000000E+00  0.00000000000E+00 -0.13173872178E+04  0.13173872178E+04  0.25500000920E-02 0. -1.
    10030    2    1    2    0    0  0.00000000000E+00  0.00000000000E+00 -0.19127216722E+03  0.24435022684E+04  0.24360045758E+04 0.  0.
        3    1    3    3  502    0  0.40087797923E+03 -0.64982225863E+03  0.85626178921E+03  0.11472385907E+04  0.10100000352E+00 0.  1.
       -3    1    3    3    0  502 -0.40087797923E+03  0.64982225863E+03 -0.10475339564E+04  0.12962636777E+04  0.10100000352E+00 0. -1.
</event>
<event>
 5   0  0.2847158E-05  0.2322575E+04  0.7818609E-02  0.8469073E-01
       -1   -1    0    0    0  501  0.00000000000E+00  0.00000000000E+00  0.12610370364E+04  0.12610370364E+04  0.50400001928E-02 0. -1.
        1   -1    0    0  501    0  0.00000000000E+00  0.00000000000E+00 -0.10694286294E+04  0.10694286294E+04  0.50400001928E-02 0.  1.
    10030    2    1    2    0    0  0.00000000000E+00  0.00000000000E+00  0.19160840699E+03  0.23304656659E+04  0.23225753891E+04 0.  0.
        5    1    3    3  502    0 -0.72545593739E+03 -0.59585507260E+03 -0.59006563463E+03  0.11088413447E+04  0.46999998093E+01 0.  1.
       -5    1    3    3    0  502  0.72545593739E+03  0.59585507260E+03  0.78167404162E+03  0.12216243211E+04  0.46999998093E+01 0. -1.
</event>
<event>
 5   0  0.2943244E-05  0.2387501E+04  0.7818609E-02  0.8444198E-01
       -1   -1    0    0    0  501  0.00000000000E+00  0.00000000000E+00  0.14400104665E+04  0.14400104665E+04  0.50400001928E-02 0. -1.
        1   -1    0    0  501    0  0.00000000000E+00  0.00000000000E+00 -0.98960374136E+03  0.98960374137E+03  0.50400001928E-02 0.  1.
    10030    2    1    2    0    0  0.00000000000E+00  0.00000000000E+00  0.45040672519E+03  0.24296142079E+04  0.23875005720E+04 0.  0.
        3    1    3    3  502    0  0.84242461056E+03  0.59588413179E+03  0.83602650888E+03  0.13280427165E+04  0.10100000352E+00 0. -1.
       -3    1    3    3    0  502 -0.84242461056E+03 -0.59588413179E+03 -0.38561978369E+03  0.11015714915E+04  0.10100000352E+00 0.  1.
</event>
<event>
 5   0  0.2339125E-05  0.2293075E+04  0.7818609E-02  0.8480657E-01
       -3   -1    0    0    0  501  0.00000000000E+00  0.00000000000E+00  0.22979602022E+04  0.22979602044E+04  0.10100000352E+00 0.  1.
        3   -1    0    0  501    0  0.00000000000E+00  0.00000000000E+00 -0.57204981167E+03  0.57204982058E+03  0.10100000352E+00 0. -1.
    10030    2    1    2    0    0  0.00000000000E+00  0.00000000000E+00  0.17259103905E+04  0.28700100250E+04  0.22930745447E+04 0.  0.
        2    1    3    3  502    0  0.27143654961E+03  0.93608058329E+03  0.10718927396E+03  0.98051731210E+03  0.25500000920E-02 0. -1.
       -2    1    3    3    0  502 -0.27143654961E+03 -0.93608058329E+03  0.16187211166E+04  0.18894927129E+04  0.25500000920E-02 0.  1.
</event>
<event>
 5   0  0.6703961E-05  0.2416471E+04  0.7818609E-02  0.8433363E-01
        2   -1    0    0  501    0  0.00000000000E+00  0.00000000000E+00  0.21278409948E+04  0.21278409948E+04  0.25500000920E-02 0. -1.
       -2   -1    0    0    0  501  0.00000000000E+00  0.00000000000E+00 -0.68606318203E+03  0.68606318204E+03  0.25500000920E-02 0.  1.
    10030    2    1    2    0    0  0.00000000000E+00  0.00000000000E+00  0.14417778128E+04  0.28139041768E+04  0.24164712817E+04 0.  0.
        2    1    3    3  502    0  0.91202185615E+03 -0.71984223136E+03  0.11068827606E+04  0.16047261916E+04  0.25500000920E-02 0. -1.
       -2    1    3    3    0  502 -0.91202185615E+03  0.71984223136E+03  0.33489505218E+03  0.12091779853E+04  0.25500000920E-02 0.  1.
</event>
<event>
 5   0  0.6600166E-05  0.2524860E+04  0.7818609E-02  0.8394182E-01
       -2   -1    0    0    0  501  0.00000000000E+00  0.00000000000E+00  0.11395477182E+04  0.11395477182E+04  0.25500000920E-02 0.  1.
        2   -1    0    0  501    0  0.00000000000E+00  0.00000000000E+00 -0.13985634942E+04  0.13985634942E+04  0.25500000920E-02 0. -1.
    10030    2    1    2    0    0  0.00000000000E+00  0.00000000000E+00 -0.25901577593E+03  0.25381112124E+04  0.25248602643E+04 0.  0.
        5    1    3    3  502    0  0.12290306250E+04 -0.17711236720E+03 -0.35834857210E+03  0.12924089357E+04  0.46999998093E+01 0.  1.
       -5    1    3    3    0  502 -0.12290306250E+04  0.17711236720E+03  0.99332796169E+02  0.12457022767E+04  0.46999998093E+01 0. -1.
</event>
<event>
 5   0  0.2901816E-05  0.2447647E+04  0.7818609E-02  0.8421877E-01
        1   -1    0    0  501    0  0.00000000000E+00  0.00000000000E+00  0.18050610071E+04  0.18050610071E+04  0.50400001928E-02 0. -1.
       -1   -1    0    0    0  501  0.00000000000E+00  0.00000000000E+00 -0.82974732356E+03  0.82974732358E+03  0.50400001928E-02 0.  1.
    10030    2    1    2    0    0  0.00000000000E+00  0.00000000000E+00  0.97531368350E+03  0.26348083306E+04  0.24476474742E+04 0.  0.
        4    1    3    3  502    0  0.34075885852E+03  0.36925675972E+03 -0.71359185398E+03  0.87274400670E+03  0.12699999809E+01 0.  1.
       -4    1    3    3    0  502 -0.34075885852E+03 -0.36925675972E+03  0.16889055375E+04  0.17620643239E+04  0.12699999809E+01 0. -1.
</event>
<event>
 5   0  0.6978115E-05  0.2419253E+04  0.7818609E-02  0.8432330E-01
       -2   -1    0    0    0  501  0.00000000000E+00  0.00000000000E+00  0.61547069338E+03  0.61547069338E+03  0.25500000920E-02 0.  1.
        2   -1    0    0  501    0  0.00000000000E+00  0.00000000000E+00 -0.23773618817E+04  0.23773618817E+04  0.25500000920E-02 0. -1.
    10030    2    1    2    0    0  0.00000000000E+00  0.00000000000E+00 -0.17618911883E+04  0.29928325750E+04  0.24192532449E+04 0.  0.
        4    1    3    3  502    0  0.21355316377E+03  0.39248026957E+03 -0.22715294239E+04  0.23150579371E+04  0.12699999809E+01 0. -1.
       -4    1    3    3    0  502 -0.21355316377E+03 -0.39248026957E+03  0.50963823559E+03  0.67777463793E+03  0.12699999809E+01 0.  1.
</event>
<event>
 5   0  0.2847158E-05  0.2411916E+04  0.7818609E-02  0.8435056E-01
        1   -1    0    0  501    0  0.00000000000E+00  0.00000000000E+00  0.14042257109E+04  0.14042257109E+04  0.50400001928E-02 0.  1.
       -1   -1    0    0    0  501  0.00000000000E+00  0.00000000000E+00 -0.10356846010E+04  0.10356846010E+04  0.50400001928E-02 0. -1.
    10030    2    1    2    0    0  0.00000000000E+00  0.00000000000E+00  0.36854110988E+03  0.24399103119E+04  0.24119162051E+04 0.  0.
        5    1    3    3  502    0 -0.11686204228E+04  0.89559475720E+02 -0.10295849706E+03  0.11765700720E+04  0.46999998093E+01 0. -1.
       -5    1    3    3    0  502  0.11686204228E+04 -0.89559475720E+02  0.47149960694E+03  0.12633402399E+04  0.46999998093E+01 0.  1.
</event>
<event>
 5   0  0.6703961E-05  0.2423380E+04  0.7818609E-02  0.8430802E-01
        2   -1    0    0  501    0  0.00000000000E+00  0.00000000000E+00  0.10612205635E+04  0.10612205635E+04  0.25500000920E-02 0. -1.
       -2   -1    0    0    0  501  0.00000000000E+00  0.00000000000E+00 -0.13834939474E+04  0.13834939474E+04  0.25500000920E-02 0.  1.
    10030    2    1    2    0    0  0.00000000000E+00  0.00000000000E+00 -0.32227338389E+03  0.24447145108E+04  0.24233796454E+04 0.  0.
        2    1    3    3  502    0 -0.11247783392E+04 -0.26326145194E+03  0.20781433524E+03  0.11737204533E+04  0.25500000920E-02 0.  1.
       -2    1    3    3    0  502  0.11247783392E+04  0.26326145194E+03 -0.53008771914E+03  0.12709940576E+04  0.25500000920E-02 0. -1.
</event>
<event>
 5   0  0.6714629E-05  0.2399736E+04  0.7818609E-02  0.8439602E-01
        2   -1    0    0  501    0  0.00000000000E+00  0.00000000000E+00  0.12918742061E+04  0.12918742061E+04  0.25500000920E-02 0. -1.
       -2   -1    0    0    0  501  0.00000000000E+00  0.00000000000E+00 -0.11144142695E+04  0.11144142695E+04  0.25500000920E-02 0.  1.
    10030    2    1    2    0    0  0.00000000000E+00  0.00000000000E+00  0.17745993660E+03  0.24062884755E+04  0.23997358601E+04 0.  0.
        3    1    3    3  502    0  0.11559859771E+04 -0.10098719459E+03  0.39481919340E+03  0.12257178299E+04  0.10100000352E+00 0. -1.
       -3    1    3    3    0  502 -0.11559859771E+04  0.10098719459E+03 -0.21735925680E+03  0.11805706457E+04  0.10100000352E+00 0.  1.
</event>
<event>
 5   0  0.2915546E-05  0.2411928E+04  0.7818609E-02  0.8435051E-01
       -1   -1    0    0    0  501  0.00000000000E+00  0.00000000000E+00  0.11288043111E+04  0.11288043111E+04  0.50400001928E-02 0.  1.
        1   -1    0    0  501    0  0.00000000000E+00  0.00000000000E+00 -0.12883981635E+04  0.12883981635E+04  0.50400001928E-02 0. -1.
    10030    2    1    2    0    0  0.00000000000E+00  0.00000000000E+00 -0.15959385246E+03  0.24172024746E+04  0.24119281924E+04 0.  0.
        2    1    3    3  502    0 -0.76844839765E+03  0.92126055303E+03  0.43416849880E+02  0.12004661467E+04  0.25500000920E-02 0.  1.
       -2    1    3    3    0  502  0.76844839765E+03 -0.92126055303E+03 -0.20301070234E+03  0.12167363279E+04  0.25500000920E-02 0. -1.
</event>
<event>
 5   0  0.2847158E-05  0.2118381E+04  0.7818609E-02  0.8553189E-01
       -1   -1    0    0    0  501  0.00000000000E+00  0.00000000000E+00  0.25498448855E+04  0.25498448855E+04  0.50400001928E-02 0. -1.
        1   -1    0    0  501    0  0.00000000000E+00  0.00000000000E+00 -0.43998137360E+03  0.43998137363E+03  0.50400001928E-02 0.  1.
    10030    2    1    2    0    0  0.00000000000E+00  0.00000000000E+00  0.21098635119E+04  0.29898262592E+04  0.21183807545E+04 0.  0.
        5    1    3    3  502    0 -0.98757297114E+03  0.10753472232E+03  0.53636375043E+03  0.11289695534E+04  0.46999998093E+01 0.  1.
       -5    1    3    3    0  502  0.98757297114E+03 -0.10753472232E+03  0.15734997615E+04  0.18608567057E+04  0.46999998093E+01 0. -1.
</event>
<event>
 5   0  0.6714629E-05  0.2375489E+04  0.7818609E-02  0.8448738E-01
        2   -1    0    0  501    0  0.00000000000E+00  0.00000000000E+00  0.10110998789E+04  0.10110998789E+04  0.25500000920E-02 0. -1.
       -2   -1    0    0    0  501  0.00000000000E+00  0.00000000000E+00 -0.13952498546E+04  0.13952498546E+04  0.25500000920E-02 0.  1.
    10030    2    1    2    0    0  0.00000000000E+00  0.00000000000E+00 -0.38414997572E+03  0.24063497335E+04  0.23754889678E+04 0.  0.
        3    1    3    3  502    0  0.79743820794E+03 -0.69127956525E+03  0.35994656493E+03  0.11150500763E+04  0.10100000352E+00 0. -1.
       -3    1    3    3    0  502 -0.79743820794E+03  0.69127956525E+03 -0.74409654065E+03  0.12912996573E+04  0.10100000352E+00 0.  1.
</event>
<event>
 5   0  0.6714629E-05  0.2417023E+04  0.7818609E-02  0.8433158E-01
       -2   -1    0    0    0  501  0.00000000000E+00  0.00000000000E+00  0.84113969465E+03  0.84113969466E+03  0.25500000920E-02 0. -1.
        2   -1    0    0  501    0  0.00000000000E+00  0.00000000000E+00 -0.17363349349E+04  0.17363349349E+04  0.25500000920E-02 0.  1.
    10030    2    1    2    0    0  0.00000000000E+00  0.00000000000E+00 -0.89519524026E+03  0.25774746296E+04  0.24170231583E+04 0.  0.
        3    1    3    3  502    0  0.72023307095E+03  0.61058583767E+03  0.35676233640E+03  0.10093711490E+04  0.10100000352E+00 0. -1.
       -3    1    3    3    0  502 -0.72023307095E+03 -0.61058583767E+03 -0.12519575767E+04  0.15681034805E+04  0.10100000352E+00 0.  1.
</event>
<event>
 5   0  0.6703961E-05  0.2315944E+04  0.7818609E-02  0.8471661E-01
        2   -1    0    0  501    0  0.00000000000E+00  0.00000000000E+00  0.11109111673E+04  0.11109111673E+04  0.25500000920E-02 0.  1.
       -2   -1    0    0    0  501  0.00000000000E+00  0.00000000000E+00 -0.12070264573E+04  0.12070264573E+04  0.25500000920E-02 0. -1.
    10030    2    1    2    0    0  0.00000000000E+00  0.00000000000E+00 -0.96115289998E+02  0.23179376246E+04  0.23159440154E+04 0.  0.
        2    1    3    3  502    0  0.10669375420E+04  0.44121136635E+03  0.40765481018E+02  0.11552856845E+04  0.25500000920E-02 0.  1.
       -2    1    3    3    0  502 -0.10669375420E+04 -0.44121136635E+03 -0.13688077102E+03  0.11626519401E+04  0.25500000920E-02 0. -1.
</event>
<event>
 5   0  0.2943123E-05  0.2376914E+04  0.7818609E-02  0.8448197E-01
        1   -1    0    0  501    0  0.00000000000E+00  0.00000000000E+00  0.13295049495E+04  0.13295049495E+04  0.50400001928E-02 0.  1.
       -1   -1    0    0    0  501  0.00000000000E+00  0.00000000000E+00 -0.10623732011E+04  0.10623732011E+04  0.50400001928E-02 0. -1.
    10030    2    1    2    0    0  0.00000000000E+00  0.00000000000E+00  0.26713174841E+03  0.23918781506E+04  0.23769143266E+04 0.  0.
        1    1    3    3  502    0  0.31370339796E+03  0.10805621584E+04 -0.25147337678E+03  0.11529367976E+04  0.50400001928E-02 0. -1.
       -1    1    3    3    0  502 -0.31370339796E+03 -0.10805621584E+04  0.51860512519E+03  0.12389413529E+04  0.50400001928E-02 0.  1.
</event>
<event>
 5   0  0.6978115E-05  0.2313740E+04  0.7818609E-02  0.8472523E-01
        2   -1    0    0  501    0  0.00000000000E+00  0.00000000000E+00  0.12850875944E+04  0.12850875944E+04  0.25500000920E-02 0.  1.
       -2   -1    0    0    0  501  0.00000000000E+00  0.00000000000E+00 -0.10414447814E+04  0.10414447814E+04  0.25500000920E-02 0. -1.
    10030    2    1    2    0    0  0.00000000000E+00  0.00000000000E+00  0.24364281291E+03  0.23265323758E+04  0.23137396300E+04 0.  0.
        4    1    3    3  502    0 -0.16906682020E+03  0.10960645949E+04 -0.20924812358E+03  0.11285953996E+04  0.12699999809E+01 0. -1.
       -4    1    3    3    0  502  0.16906682020E+03 -0.10960645949E+04  0.45289093649E+03  0.11979369762E+04  0.12699999809E+01 0.  1.
</event>
<event>
 5   0  0.6714629E-05  0.2383506E+04  0.7818609E-02  0.8445705E-01
        2   -1    0    0  501    0  0.00000000000E+00  0.00000000000E+00  0.13271101514E+04  0.13271101514E+04  0.25500000920E-02 0. -1.
       -2   -1    0    0    0  501  0.00000000000E+00  0.00000000000E+00 -0.10702010694E+04  0.10702010694E+04  0.25500000920E-02 0.  1.
    10030    2    1    2    0    0  0.00000000000E+00  0.00000000000E+00  0.25690908199E+03  0.23973112208E+04  0.23835055723E+04 0.  0.
        3    1    3    3  502    0  0.22461175301E+03 -0.69838760894E+03  0.10730850940E+04  0.12998874263E+04  0.10100000352E+00 0. -1.
       -3    1    3    3    0  502 -0.22461175301E+03  0.69838760894E+03 -0.81617601203E+03  0.10974237945E+04  0.10100000352E+00 0.  1.
</event>
<event>
 5   0  0.2915546E-05  0.2380306E+04  0.7818609E-02  0.8446914E-01
        1   -1    0    0  501    0  0.00000000000E+00  0.00000000000E+00  0.18016875864E+04  0.18016875864E+04  0.50400001928E-02 0. -1.
       -1   -1    0    0    0  501  0.00000000000E+00  0.00000000000E+00 -0.78618773240E+03  0.78618773241E+03  0.50400001928E-02 0.  1.
    10030    2    1    2    0    0  0.00000000000E+00  0.00000000000E+00  0.10154998540E+04  0.25878753188E+04  0.23803064324E+04 0.  0.
        2    1    3    3  502    0  0.44387559132E+03 -0.47517474325E+03 -0.57599426201E+03  0.86866907799E+03  0.25500000920E-02 0.  1.
       -2    1    3    3    0  502 -0.44387559132E+03  0.47517474325E+03  0.15914941160E+04  0.17192062408E+04  0.25500000920E-02 0. -1.
</event>
<event>
 5   0  0.2943123E-05  0.2373470E+04  0.7818609E-02  0.8449503E-01
       -1   -1    0    0    0  501  0.00000000000E+00  0.00000000000E+00  0.20938312071E+04  0.20938312071E+04  0.50400001928E-02 0.  1.
        1   -1    0    0  501    0  0.00000000000E+00  0.00000000000E+00 -0.67261411968E+03  0.67261411970E+03  0.50400001928E-02 0. -1.
    10030    2    1    2    0    0  0.00000000000E+00  0.00000000000E+00  0.14212170874E+04  0.27664453268E+04  0.23734703994E+04 0.  0.
        1    1    3    3  502    0  0.30265336332E+03 -0.85460848194E+03  0.16031532203E+04  0.18417532309E+04  0.50400001928E-02 0.  1.
       -1    1    3    3    0  502 -0.30265336332E+03  0.85460848194E+03 -0.18193613290E+03  0.92469209589E+03  0.50400001928E-02 0. -1.
</event>
<event>
 5   0  0.6337926E-05  0.2472849E+04  0.7818609E-02  0.8412723E-01
        2   -1    0    0  501    0  0.00000000000E+00  0.00000000000E+00  0.20799081764E+04  0.20799081764E+04  0.25500000920E-02 0.  1.
       -2   -1    0    0    0  501  0.00000000000E+00  0.00000000000E+00 -0.73500620932E+03  0.73500620932E+03  0.25500000920E-02 0. -1.
    10030    2    1    2    0    0  0.00000000000E+00  0.00000000000E+00  0.13449019670E+04  0.28149143857E+04  0.24728489031E+04 0.  0.
        1    1    3    3  502    0 -0.10712353486E+04 -0.12442521969E+03 -0.15949464265E+02  0.10785551413E+04  0.50400001928E-02 0.  1.
       -1    1    3    3    0  502  0.10712353486E+04  0.12442521969E+03  0.13608514313E+04  0.17363592444E+04  0.50400001928E-02 0. -1.
</event>
<event>
 5   0  0.2847158E-05  0.2495061E+04  0.7818609E-02  0.8404747E-01
       -1   -1    0    0    0  501  0.00000000000E+00  0.00000000000E+00  0.10691660418E+04  0.10691660419E+04  0.50400001928E-02 0.  1.
        1   -1    0    0  501    0  0.00000000000E+00  0.00000000000E+00 -0.14556512354E+04  0.14556512354E+04  0.50400001928E-02 0. -1.
    10030    2    1    2    0    0  0.00000000000E+00  0.00000000000E+00 -0.38648519353E+03  0.25248172772E+04  0.24950614178E+04 0.  0.
        5    1    3    3  502    0 -0.10213207217E+04 -0.67699469063E+03 -0.43032919548E+03  0.12987005560E+04  0.46999998093E+01 0.  1.
       -5    1    3    3    0  502  0.10213207217E+04  0.67699469063E+03  0.43844001948E+02  0.12261167213E+04  0.46999998093E+01 0. -1.
</event>
<event>
 5   0  0.2901816E-05  0.2403217E+04  0.7818609E-02  0.8438300E-01
       -1   -1    0    0    0  501  0.00000000000E+00  0.00000000000E+00  0.97376617870E+03  0.97376617871E+03  0.50400001928E-02 0. -1.
        1   -1    0    0  501    0  0.00000000000E+00  0.00000000000E+00 -0.14827617393E+04  0.14827617393E+04  0.50400001928E-02 0.  1.
    10030    2    1    2    0    0  0.00000000000E+00  0.00000000000E+00 -0.50899556057E+03  0.24565279180E+04  0.24032172043E+04 0.  0.
        4    1    3    3  502    0  0.47605515849E+03 -0.39087300223E+03 -0.13091070855E+04  0.14467802846E+04  0.12699999809E+01 0.  1.
       -4    1    3    3    0  502 -0.47605515849E+03  0.39087300223E+03  0.80011152494E+03  0.10097476333E+04  0.12699999809E+01 0. -1.
</event>
<event>
 5   0  0.6714629E-05  0.2363094E+04  0.7818609E-02  0.8453451E-01
       -2   -1    0    0    0  501  0.00000000000E+00  0.00000000000E+00  0.69760978947E+03  0.69760978947E+03  0.25500000920E-02 0.  1.
        2   -1    0    0  501    0  0.00000000000E+00  0.00000000000E+00 -0.20011948074E+04  0.20011948074E+04  0.25500000920E-02 0. -1.
    10030    2    1    2    0    0  0.00000000000E+00  0.00000000000E+00 -0.13035850179E+04  0.26988045969E+04  0.23630938096E+04 0.  0.
        3    1    3    3  502    0  0.43659793422E+03  0.10976135143E+04 -0.68157159851E+03  0.13637862872E+04  0.10100000352E+00 0. -1.
       -3    1    3    3    0  502 -0.43659793422E+03 -0.10976135143E+04 -0.62201341943E+03  0.13350183097E+04  0.10100000352E+00 0.  1.
</event>
<event>
 5   0  0.2901816E-05  0.2402786E+04  0.7818609E-02  0.8438461E-01
       -1   -1    0    0    0  501  0.00000000000E+00  0.00000000000E+00  0.15507215783E+04  0.15507215783E+04  0.50400001928E-02 0. -1.
        1   -1    0    0  501    0  0.00000000000E+00  0.00000000000E+00 -0.93075703265E+03  0.93075703267E+03  0.50400001928E-02 0.  1.
    10030    2    1    2    0    0  0.00000000000E+00  0.00000000000E+00  0.61996454566E+03  0.24814786110E+04  0.24027858954E+04 0.  0.
        4    1    3    3  502    0  0.30017034235E+03  0.79179212518E+02 -0.88861895202E+03  0.94128467369E+03  0.12699999809E+01 0.  1.
       -4    1    3    3    0  502 -0.30017034235E+03 -0.79179212518E+02  0.15085834977E+04  0.15401939373E+04  0.12699999809E+01 0. -1.
</event>
<event>
 5   0  0.2943123E-05  0.2606819E+04  0.7818609E-02  0.8365889E-01
        1   -1    0    0  501    0  0.00000000000E+00  0.00000000000E+00  0.12694449547E+04  0.12694449547E+04  0.50400001928E-02 0.  1.
       -1   -1    0    0    0  501  0.00000000000E+00  0.00000000000E+00 -0.13382829710E+04  0.13382829710E+04  0.50400001928E-02 0. -1.
    10030    2    1    2    0    0  0.00000000000E+00  0.00000000000E+00 -0.68838016275E+02  0.26077279257E+04  0.26068191848E+04 0.  0.
        1    1    3    3  502    0 -0.10460677015E+04  0.76493577500E+03  0.10524409365E+03  0.13001771784E+04  0.50400001928E-02 0. -1.
       -1    1    3    3    0  502  0.10460677015E+04 -0.76493577500E+03 -0.17408210992E+03  0.13075507474E+04  0.50400001928E-02 0.  1.
</event>
<event>
 5   0  0.2915546E-05  0.2382037E+04  0.7818609E-02  0.8446259E-01
        1   -1    0    0  501    0  0.00000000000E+00  0.00000000000E+00  0.12398008149E+04  0.12398008149E+04  0.50400001928E-02 0.  1.
       -1   -1    0    0    0  501  0.00000000000E+00  0.00000000000E+00 -0.11441557375E+04  0.11441557375E+04  0.50400001928E-02 0. -1.
    10030    2    1    2    0    0  0.00000000000E+00  0.00000000000E+00  0.95645077466E+02  0.23839565524E+04  0.23820371246E+04 0.  0.
        2    1    3    3  502    0  0.16907455886E+03  0.11636506453E+04  0.23733241581E+03  0.11995814713E+04  0.25500000920E-02 0.  1.
       -2    1    3    3    0  502 -0.16907455886E+03 -0.11636506453E+04 -0.14168733834E+03  0.11843750811E+04  0.25500000920E-02 0. -1.
</event>
<event>
 5   0  0.6337926E-05  0.2374714E+04  0.7818609E-02  0.8449031E-01
        2   -1    0    0  501    0  0.00000000000E+00  0.00000000000E+00  0.14969207835E+04  0.14969207835E+04  0.25500000920E-02 0. -1.
       -2   -1    0    0    0  501  0.00000000000E+00  0.00000000000E+00 -0.94181130542E+03  0.94181130542E+03  0.25500000920E-02 0.  1.
    10030    2    1    2    0    0  0.00000000000E+00  0.00000000000E+00  0.55510947807E+03  0.24387320889E+04  0.23747142289E+04 0.  0.
        1    1    3    3  502    0 -0.73971538106E+03  0.39469851959E+03 -0.58585456249E+03  0.10228349499E+04  0.50400001928E-02 0.  1.
       -1    1    3    3    0  502  0.73971538106E+03 -0.39469851959E+03  0.11409640406E+04  0.14158971390E+04  0.50400001928E-02 0. -1.
</event>
<event>
 5   0  0.2847158E-05  0.2354049E+04  0.7818609E-02  0.8456910E-01
       -1   -1    0    0    0  501  0.00000000000E+00  0.00000000000E+00  0.10829933715E+04  0.10829933715E+04  0.50400001928E-02 0. -1.
        1   -1    0    0  501    0  0.00000000000E+00  0.00000000000E+00 -0.12792193839E+04  0.12792193839E+04  0.50400001928E-02 0.  1.
    10030    2    1    2    0    0  0.00000000000E+00  0.00000000000E+00 -0.19622601241E+03  0.23622127554E+04  0.23540485241E+04 0.  0.
        5    1    3    3  502    0  0.22550868503E+03  0.19738287899E+03 -0.12402827847E+04  0.12759849701E+04  0.46999998093E+01 0.  1.
       -5    1    3    3    0  502 -0.22550868503E+03 -0.19738287899E+03  0.10440567723E+04  0.10862277853E+04  0.46999998093E+01 0. -1.
</event>
<event>
 5   0  0.6714629E-05  0.2350327E+04  0.7818609E-02  0.8458338E-01
        2   -1    0    0  501    0  0.00000000000E+00  0.00000000000E+00  0.13626957499E+04  0.13626957499E+04  0.25500000920E-02 0.  1.
       -2   -1    0    0    0  501  0.00000000000E+00  0.00000000000E+00 -0.10134393241E+04  0.10134393241E+04  0.25500000920E-02 0. -1.
    10030    2    1    2    0    0  0.00000000000E+00  0.00000000000E+00  0.34925642575E+03  0.23761350740E+04  0.23503271770E+04 0.  0.
        3    1    3    3  502    0  0.38268125280E+03 -0.16987968038E+03  0.12847315444E+04  0.13512361742E+04  0.10100000352E+00 0.  1.
       -3    1    3    3    0  502 -0.38268125280E+03  0.16987968038E+03 -0.93547511866E+03  0.10248988998E+04  0.10100000352E+00 0. -1.
</event>
<event>
 5   0  0.6703961E-05  0.2404124E+04  0.7818609E-02  0.8437961E-01
       -2   -1    0    0    0  501  0.00000000000E+00  0.00000000000E+00  0.11735674954E+04  0.11735674954E+04  0.25500000920E-02 0.  1.
        2   -1    0    0  501    0  0.00000000000E+00  0.00000000000E+00 -0.12312481931E+04  0.12312481931E+04  0.25500000920E-02 0. -1.
    10030    2    1    2    0    0  0.00000000000E+00  0.00000000000E+00 -0.57680697721E+02  0.24048156885E+04  0.24041238389E+04 0.  0.
        2    1    3    3  502    0 -0.10206448868E+04 -0.44236056955E+03  0.42687170395E+03  0.11914773645E+04  0.25500000920E-02 0.  1.
       -2    1    3    3    0  502  0.10206448868E+04  0.44236056955E+03 -0.48455240167E+03  0.12133383240E+04  0.25500000920E-02 0. -1.
</event>
<event>
 5   0  0.6337926E-05  0.2421376E+04  0.7818609E-02  0.8431544E-01
        2   -1    0    0  501    0  0.00000000000E+00  0.00000000000E+00  0.11801778944E+04  0.11801778944E+04  0.25500000920E-02 0.  1.
       -2   -1    0    0    0  501  0.00000000000E+00  0.00000000000E+00 -0.12419868771E+04  0.12419868771E+04  0.25500000920E-02 0. -1.
    10030    2    1    2    0    0  0.00000000000E+00  0.00000000000E+00 -0.61808982751E+02  0.24221647715E+04  0.24213760199E+04 0.  0.
        1    1    3    3  502    0  0.59229570332E+03  0.11732660418E+03  0.10188113054E+04  0.11842956591E+04  0.50400001928E-02 0.  1.
       -1    1    3    3    0  502 -0.59229570332E+03 -0.11732660418E+03 -0.10806202881E+04  0.12378691124E+04  0.50400001928E-02 0. -1.
</event>
<event>
 5   0  0.6714629E-05  0.2391711E+04  0.7818609E-02  0.8442613E-01
        2   -1    0    0  501    0  0.00000000000E+00  0.00000000000E+00  0.14006593151E+04  0.14006593151E+04  0.25500000920E-02 0.  1.
       -2   -1    0    0    0  501  0.00000000000E+00  0.00000000000E+00 -0.10209978468E+04  0.10209978468E+04  0.25500000920E-02 0. -1.
    10030    2    1    2    0    0  0.00000000000E+00  0.00000000000E+00  0.37966146835E+03  0.24216571619E+04  0.23917108060E+04 0.  0.
        3    1    3    3  502    0  0.74914739100E+03 -0.81937478303E+03  0.63977442896E+03  0.12813696495E+04  0.10100000352E+00 0.  1.
       -3    1    3    3    0  502 -0.74914739100E+03  0.81937478303E+03 -0.26011296061E+03  0.11402875124E+04  0.10100000352E+00 0. -1.
</event>
<event>
 5   0  0.2943123E-05  0.2413872E+04  0.7818609E-02  0.8434328E-01
       -1   -1    0    0    0  501  0.00000000000E+00  0.00000000000E+00  0.70683276320E+03  0.70683276322E+03  0.50400001928E-02 0.  1.
        1   -1    0    0  501    0  0.00000000000E+00  0.00000000000E+00 -0.20608761069E+04  0.20608761069E+04  0.50400001928E-02 0. -1.
    10030    2    1    2    0    0  0.00000000000E+00  0.00000000000E+00 -0.13540433437E+04  0.27677088701E+04  0.24138722031E+04 0.  0.
        1    1    3    3  502    0 -0.12916953717E+03 -0.40445813034E+03  0.61837729223E+03  0.75010774166E+03  0.50400001928E-02 0.  1.
       -1    1    3    3    0  502  0.12916953717E+03  0.40445813034E+03 -0.19724206359E+04  0.20176011284E+04  0.50400001928E-02 0. -1.
</event>
<event>
 5   0  0.2847158E-05  0.2365008E+04  0.7818609E-02  0.8452722E-01
       -1   -1    0    0    0  501  0.00000000000E+00  0.00000000000E+00  0.99220437854E+03  0.99220437855E+03  0.50400001928E-02 0. -1.
        1   -1    0    0  501    0  0.00000000000E+00  0.00000000000E+00 -0.14093017698E+04  0.14093017698E+04  0.50400001928E-02 0.  1.
    10030    2    1    2    0    0  0.00000000000E+00  0.00000000000E+00 -0.41709739130E+03  0.24015061484E+04  0.23650077266E+04 0.  0.
        5    1    3    3  502    0 -0.10521144781E+04  0.10670379695E+03 -0.74582939805E+03  0.12940688375E+04  0.46999998093E+01 0.  1.
       -5    1    3    3    0  502  0.10521144781E+04 -0.10670379695E+03  0.32873200675E+03  0.11074373109E+04  0.46999998093E+01 0. -1.
</event>
<event>
 5   0  0.2339125E-05  0.2378533E+04  0.7818609E-02  0.8447585E-01
        3   -1    0    0  501    0  0.00000000000E+00  0.00000000000E+00  0.11395852354E+04  0.11395852399E+04  0.10100000352E+00 0. -1.
       -3   -1    0    0    0  501  0.00000000000E+00  0.00000000000E+00 -0.12411131830E+04  0.12411131872E+04  0.10100000352E+00 0.  1.
    10030    2    1    2    0    0  0.00000000000E+00  0.00000000000E+00 -0.10152794767E+03  0.23806984270E+04  0.23785325468E+04 0.  0.
        1    1    3    3  502    0  0.90771236060E+03 -0.74687833970E+03 -0.23144229615E+03  0.11980544730E+04  0.50400001928E-02 0.  1.
       -1    1    3    3    0  502 -0.90771236060E+03  0.74687833970E+03  0.12991434848E+03  0.11826439540E+04  0.50400001928E-02 0. -1.
</event>
<event>
 5   0  0.6978115E-05  0.2447934E+04  0.7818609E-02  0.8421773E-01
       -2   -1    0    0    0  501  0.00000000000E+00  0.00000000000E+00  0.10714381619E+04  0.10714381619E+04  0.25500000920E-02 0.  1.
        2   -1    0    0  501    0  0.00000000000E+00  0.00000000000E+00 -0.13982096114E+04  0.13982096114E+04  0.25500000920E-02 0. -1.
    10030    2    1    2    0    0  0.00000000000E+00  0.00000000000E+00 -0.32677144949E+03  0.24696477733E+04  0.24479339337E+04 0.  0.
        4    1    3    3  502    0  0.78133101228E+03 -0.85580804186E+03  0.23407327134E+03  0.11822340989E+04  0.12699999809E+01 0.  1.
       -4    1    3    3    0  502 -0.78133101228E+03  0.85580804186E+03 -0.56084472083E+03  0.12874136744E+04  0.12699999809E+01 0. -1.
</event>
<event>
 5   0  0.6703961E-05  0.2380726E+04  0.7818609E-02  0.8446755E-01
       -2   -1    0    0    0  501  0.00000000000E+00  0.00000000000E+00  0.21449196446E+04  0.21449196446E+04  0.25500000920E-02 0. -1.
        2   -1    0    0  501    0  0.00000000000E+00  0.00000000000E+00 -0.66061379098E+03  0.66061379099E+03  0.25500000920E-02 0.  1.
    10030    2    1    2    0    0  0.00000000000E+00  0.00000000000E+00  0.14843058536E+04  0.28055334356E+04  0.23807255178E+04 0.  0.
        2    1    3    3  502    0  0.30713756179E+03 -0.63185972010E+03 -0.39023995873E+03  0.80365876660E+03  0.25500000920E-02 0.  1.
       -2    1    3    3    0  502 -0.30713756179E+03  0.63185972010E+03  0.18745458123E+04  0.20018746690E+04  0.25500000920E-02 0. -1.
</event>
<event>
 5   0  0.2915546E-05  0.2355549E+04  0.7818609E-02  0.8456335E-01
       -1   -1    0    0    0  501  0.00000000000E+00  0.00000000000E+00  0.16904496936E+04  0.16904496936E+04  0.50400001928E-02 0. -1.
        1   -1    0    0  501    0  0.00000000000E+00  0.00000000000E+00 -0.82058240703E+03  0.82058240705E+03  0.50400001928E-02 0.  1.
    10030    2    1    2    0    0  0.00000000000E+00  0.00000000000E+00  0.86986728655E+03  0.25110321006E+04  0.23555494294E+04 0.  0.
        2    1    3    3  502    0  0.44324478533E+03 -0.76264678078E+03 -0.39700077681E+03  0.96731880409E+03  0.25500000920E-02 0.  1.
       -2    1    3    3    0  502 -0.44324478533E+03  0.76264678078E+03  0.12668680634E+04  0.15437132965E+04  0.25500000920E-02 0. -1.
</event>
<event>
 5   0  0.2339125E-05  0.2416149E+04  0.7818609E-02  0.8433482E-01
        4   -1    0    0  501    0  0.00000000000E+00  0.00000000000E+00  0.70061610845E+03  0.70061725951E+03  0.12699999809E+01 0. -1.
       -4   -1    0    0    0  501  0.00000000000E+00  0.00000000000E+00 -0.20830829886E+04  0.20830833758E+04  0.12699999809E+01 0.  1.
    10030    2    1    2    0    0  0.00000000000E+00  0.00000000000E+00 -0.13824668802E+04  0.27837006353E+04  0.24161487024E+04 0.  0.
        1    1    3    3  502    0 -0.63447449859E+03 -0.18872174150E+03  0.47307789376E+03  0.81361936965E+03  0.50400001928E-02 0. -1.
       -1    1    3    3    0  502  0.63447449859E+03  0.18872174150E+03 -0.18555447739E+04  0.19700812656E+04  0.50400001928E-02 0.  1.
</event>
<event>
 5   0  0.6337926E-05  0.2413785E+04  0.7818609E-02  0.8434361E-01
       -2   -1    0    0    0  501  0.00000000000E+00  0.00000000000E+00  0.88999380910E+03  0.88999380911E+03  0.25500000920E-02 0.  1.
        2   -1    0    0  501    0  0.00000000000E+00  0.00000000000E+00 -0.16366290239E+04  0.16366290239E+04  0.25500000920E-02 0. -1.
    10030    2    1    2    0    0  0.00000000000E+00  0.00000000000E+00 -0.74663521483E+03  0.25266228330E+04  0.24137851595E+04 0.  0.
        1    1    3    3  502    0 -0.11139948900E+04 -0.40678282792E+02  0.11085288264E+03  0.11202355553E+04  0.50400001928E-02 0.  1.
       -1    1    3    3    0  502  0.11139948900E+04  0.40678282792E+02 -0.85748809747E+03  0.14063872778E+04  0.50400001928E-02 0. -1.
</event>
<event>
 5   0  0.2901816E-05  0.2385068E+04  0.7818609E-02  0.8445115E-01
       -1   -1    0    0    0  501  0.00000000000E+00  0.00000000000E+00  0.19007618315E+04  0.19007618315E+04  0.50400001928E-02 0.  1.
        1   -1    0    0  501    0  0.00000000000E+00  0.00000000000E+00 -0.74819310397E+03  0.74819310398E+03  0.50400001928E-02 0. -1.
    10030    2    1    2    0    0  0.00000000000E+00  0.00000000000E+00  0.11525687276E+04  0.26489549355E+04  0.23850676256E+04 0.  0.
        4    1    3    3  502    0  0.57362967230E+03  0.64516680163E+03 -0.33744627907E+03  0.92691035544E+03  0.12699999809E+01 0. -1.
       -4    1    3    3    0  502 -0.57362967230E+03 -0.64516680163E+03  0.14900150066E+04  0.17220445801E+04  0.12699999809E+01 0.  1.
</event>
<event>
 5   0  0.2847158E-05  0.2439103E+04  0.7818609E-02  0.8425007E-01
        1   -1    0    0  501    0  0.00000000000E+00  0.00000000000E+00  0.20819982203E+04  0.20819982203E+04  0.50400001928E-02 0.  1.
       -1   -1    0    0    0  501  0.00000000000E+00  0.00000000000E+00 -0.71436489917E+03  0.71436489919E+03  0.50400001928E-02 0. -1.
    10030    2    1    2    0    0  0.00000000000E+00  0.00000000000E+00  0.13676333212E+04  0.27963631195E+04  0.24391034818E+04 0.  0.
        5    1    3    3  502    0  0.80652504089E+03 -0.91474163542E+03  0.67575397079E+03  0.13942382939E+04  0.46999998093E+01 0. -1.
       -5    1    3    3    0  502 -0.80652504089E+03  0.91474163542E+03  0.69187935038E+03  0.14021248256E+04  0.46999998093E+01 0.  1.
</event>
<event>
 5   0  0.2943123E-05  0.2330155E+04  0.7818609E-02  0.8466126E-01
        1   -1    0    0  501    0  0.00000000000E+00  0.00000000000E+00  0.19594630782E+04  0.19594630782E+04  0.50400001928E-02 0. -1.
       -1   -1    0    0    0  501  0.00000000000E+00  0.00000000000E+00 -0.69274350958E+03  0.69274350960E+03  0.50400001928E-02 0.  1.
    10030    2    1    2    0    0  0.00000000000E+00  0.00000000000E+00  0.12667195686E+04  0.26522065878E+04  0.23301547843E+04 0.  0.
        1    1    3    3  502    0 -0.37750403741E+03  0.35614578800E+03  0.18206263682E+04  0.18931533201E+04  0.50400001928E-02 0. -1.
       -1    1    3    3    0  502  0.37750403741E+03 -0.35614578800E+03 -0.55390679961E+03  0.75905326773E+03  0.50400001928E-02 0.  1.
</event>
<event>
 5   0  0.2943244E-05  0.2376076E+04  0.7818609E-02  0.8448515E-01
       -1   -1    0    0    0  501  0.00000000000E+00  0.00000000000E+00  0.58335959017E+03  0.58335959019E+03  0.50400001928E-02 0.  1.
        1   -1    0    0  501    0  0.00000000000E+00  0.00000000000E+00 -0.24194920395E+04  0.24194920395E+04  0.50400001928E-02 0. -1.
    10030    2    1    2    0    0  0.00000000000E+00  0.00000000000E+00 -0.18361324493E+04  0.30028516297E+04  0.23760756592E+04 0.  0.
        3    1    3    3  502    0  0.68999857606E+03 -0.93067155030E+03 -0.58564887916E+03  0.12981649315E+04  0.10100000352E+00 0.  1.
       -3    1    3    3    0  502 -0.68999857606E+03  0.93067155030E+03 -0.12504835701E+04  0.17046866982E+04  0.10100000352E+00 0. -1.
</event>
<event>
 5   0  0.6337926E-05  0.2354773E+04  0.7818609E-02  0.8456633E-01
        2   -1    0    0  501    0  0.00000000000E+00  0.00000000000E+00  0.11272195848E+04  0.11272195848E+04  0.25500000920E-02 0.  1.
       -2   -1    0    0    0  501  0.00000000000E+00  0.00000000000E+00 -0.12297863805E+04  0.12297863805E+04  0.25500000920E-02 0. -1.
    10030    2    1    2    0    0  0.00000000000E+00  0.00000000000E+00 -0.10256679562E+03  0.23570059653E+04  0.23547732742E+04 0.  0.
        1    1    3    3  502    0  0.62418640554E+03 -0.42575104693E+03 -0.95511612133E+03  0.12178339082E+04  0.50400001928E-02 0. -1.
       -1    1    3    3    0  502 -0.62418640554E+03  0.42575104693E+03  0.85254932571E+03  0.11391720571E+04  0.50400001928E-02 0.  1.
</event>
<event>
 5   0  0.6337926E-05  0.2421230E+04  0.7818609E-02  0.8431598E-01
        2   -1    0    0  501    0  0.00000000000E+00  0.00000000000E+00  0.18107546778E+04  0.18107546778E+04  0.25500000920E-02 0. -1.
       -2   -1    0    0    0  501  0.00000000000E+00  0.00000000000E+00 -0.80938019971E+03  0.80938019971E+03  0.25500000920E-02 0.  1.
    10030    2    1    2    0    0  0.00000000000E+00  0.00000000000E+00  0.10013744781E+04  0.26201348775E+04  0.24212302516E+04 0.  0.
        1    1    3    3  502    0  0.10084914415E+04  0.32365675097E+03 -0.13380753807E+03  0.10675734810E+04  0.50400001928E-02 0.  1.
       -1    1    3    3    0  502 -0.10084914415E+04 -0.32365675097E+03  0.11351820162E+04  0.15525613965E+04  0.50400001928E-02 0. -1.
</event>
<event>
 5   0  0.2339125E-05  0.2462657E+04  0.7818609E-02  0.8416411E-01
       -3   -1    0    0    0  501  0.00000000000E+00  0.00000000000E+00  0.20059911715E+04  0.20059911740E+04  0.10100000352E+00 0.  1.
        3   -1    0    0  501    0  0.00000000000E+00  0.00000000000E+00 -0.75582057276E+03  0.75582057951E+03  0.10100000352E+00 0. -1.
    10030    2    1    2    0    0  0.00000000000E+00  0.00000000000E+00  0.12501705987E+04  0.27618117535E+04  0.24626566216E+04 0.  0.
        2    1    3    3  502    0  0.18118005792E+03 -0.72834447899E+03  0.17198081787E+04  0.18764466593E+04  0.25500000920E-02 0.  1.
       -2    1    3    3    0  502 -0.18118005792E+03  0.72834447899E+03 -0.46963758004E+03  0.88536509422E+03  0.25500000920E-02 0. -1.
</event>
<event>
 5   0  0.6978115E-05  0.2478446E+04  0.7818609E-02  0.8410705E-01
       -2   -1    0    0    0  501  0.00000000000E+00  0.00000000000E+00  0.70017649216E+03  0.70017649217E+03  0.25500000920E-02 0. -1.
        2   -1    0    0  501    0  0.00000000000E+00  0.00000000000E+00 -0.21932673560E+04  0.21932673560E+04  0.25500000920E-02 0.  1.
    10030    2    1    2    0    0  0.00000000000E+00  0.00000000000E+00 -0.14930908638E+04  0.28934438481E+04  0.24784464841E+04 0.  0.
        4    1    3    3  502    0 -0.10734266040E+04  0.97428954741E+01 -0.23736292605E+02  0.10737339627E+04  0.12699999809E+01 0.  1.
       -4    1    3    3    0  502  0.10734266040E+04 -0.97428954741E+01 -0.14693545712E+04  0.18197098854E+04  0.12699999809E+01 0. -1.
</event>
<event>
 5   0  0.2915546E-05  0.2451061E+04  0.7818609E-02  0.8420631E-01
       -1   -1    0    0    0  501  0.00000000000E+00  0.00000000000E+00  0.15316407634E+04  0.15316407634E+04  0.50400001928E-02 0.  1.
        1   -1    0    0  501    0  0.00000000000E+00  0.00000000000E+00 -0.98059855458E+03  0.98059855459E+03  0.50400001928E-02 0. -1.
    10030    2    1    2    0    0  0.00000000000E+00  0.00000000000E+00  0.55104220878E+03  0.25122393180E+04  0.24510607652E+04 0.  0.
        2    1    3    3  502    0 -0.12053278860E+03 -0.11601180596E+04  0.66110590964E+03  0.13406950023E+04  0.25500000920E-02 0. -1.
       -2    1    3    3    0  502  0.12053278860E+03  0.11601180596E+04 -0.11006370085E+03  0.11715443157E+04  0.25500000920E-02 0.  1.
</event>
<event>
 5   0  0.6600166E-05  0.2384386E+04  0.7818609E-02  0.8445373E-01
       -2   -1    0    0    0  501  0.00000000000E+00  0.00000000000E+00  0.84264569858E+03  0.84264569859E+03  0.25500000920E-02 0.  1.
        2   -1    0    0  501    0  0.00000000000E+00  0.00000000000E+00 -0.16867393713E+04  0.16867393713E+04  0.25500000920E-02 0. -1.
    10030    2    1    2    0    0  0.00000000000E+00  0.00000000000E+00 -0.84409367273E+03  0.25293850699E+04  0.23843856029E+04 0.  0.
        5    1    3    3  502    0 -0.17272674220E+03 -0.11782583154E+04 -0.36227875288E+03  0.12447470305E+04  0.46999998093E+01 0. -1.
       -5    1    3    3    0  502  0.17272674220E+03  0.11782583154E+04 -0.48181491984E+03  0.12846380394E+04  0.46999998093E+01 0.  1.
</event>
<event>
 5   0  0.6600166E-05  0.2369846E+04  0.7818609E-02  0.8450880E-01
        2   -1    0    0  501    0  0.00000000000E+00  0.00000000000E+00  0.16383685418E+04  0.16383685418E+04  0.25500000920E-02 0. -1.
       -2   -1    0    0    0  501  0.00000000000E+00  0.00000000000E+00 -0.85697606287E+03  0.85697606287E+03  0.25500000920E-02 0.  1.
    10030    2    1    2    0    0  0.00000000000E+00  0.00000000000E+00  0.78139247892E+03  0.24953446047E+04  0.23698460899E+04 0.  0.
        5    1    3    3  502    0 -0.72622891345E+02  0.33180566946E+03  0.15859995459E+04  0.16219697088E+04  0.46999998093E+01 0. -1.
       -5    1    3    3    0  502  0.72622891345E+02 -0.33180566946E+03 -0.80460706694E+03  0.87337489591E+03  0.46999998093E+01 0.  1.
</event>
<event>
 5   0  0.6714629E-05  0.2553134E+04  0.7818609E-02  0.8384297E-01
       -2   -1    0    0    0  501  0.00000000000E+00  0.00000000000E+00  0.21901807443E+04  0.21901807443E+04  0.25500000920E-02 0. -1.
        2   -1    0    0  501    0  0.00000000000E+00  0.00000000000E+00 -0.74405868190E+03  0.74405868190E+03  0.25500000920E-02 0.  1.
    10030    2    1    2    0    0  0.00000000000E+00  0.00000000000E+00  0.14461220624E+04  0.29342394262E+04  0.25531337589E+04 0.  0.
        3    1    3    3  502    0 -0.12315826267E+04 -0.54760161875E+02  0.11039335138E+04  0.16548304006E+04  0.10100000352E+00 0. -1.
       -3    1    3    3    0  502  0.12315826267E+04  0.54760161875E+02  0.34218854863E+03  0.12794090256E+04  0.10100000352E+00 0.  1.
</event>
<event>
 5   0  0.6600166E-05  0.2372940E+04  0.7818609E-02  0.8449704E-01
       -2   -1    0    0    0  501  0.00000000000E+00  0.00000000000E+00  0.14710641199E+04  0.14710641199E+04  0.25500000920E-02 0. -1.
        2   -1    0    0  501    0  0.00000000000E+00  0.00000000000E+00 -0.95693389973E+03  0.95693389974E+03  0.25500000920E-02 0.  1.
    10030    2    1    2    0    0  0.00000000000E+00  0.00000000000E+00  0.51413022020E+03  0.24279980197E+04  0.23729400541E+04 0.  0.
        5    1    3    3  502    0  0.46013632913E+03  0.10450577666E+04  0.58674889963E+03  0.12838097749E+04  0.46999998093E+01 0. -1.
       -5    1    3    3    0  502 -0.46013632913E+03 -0.10450577666E+04 -0.72618679423E+02  0.11441882448E+04  0.46999998093E+01 0.  1.
</event>
<event>
 5   0  0.6703961E-05  0.2391215E+04  0.7818609E-02  0.8442800E-01
        2   -1    0    0  501    0  0.00000000000E+00  0.00000000000E+00  0.19574488836E+04  0.19574488836E+04  0.25500000920E-02 0.  1.
       -2   -1    0    0    0  501  0.00000000000E+00  0.00000000000E+00 -0.73027554511E+03  0.73027554511E+03  0.25500000920E-02 0. -1.
    10030    2    1    2    0    0  0.00000000000E+00  0.00000000000E+00  0.12271733384E+04  0.26877244287E+04  0.23912147963E+04 0.  0.
        2    1    3    3  502    0 -0.87626925303E+02 -0.91599130943E+03  0.14716324403E+04  0.17356326214E+04  0.25500000920E-02 0.  1.
       -2    1    3    3    0  502  0.87626925303E+02  0.91599130943E+03 -0.24445910188E+03  0.95209180728E+03  0.25500000920E-02 0. -1.
</event>
<event>
 5   0  0.6600166E-05  0.2419843E+04  0.7818609E-02  0.8432112E-01
       -2   -1    0    0    0  501  0.00000000000E+00  0.00000000000E+00  0.14596608563E+04  0.14596608563E+04  0.25500000920E-02 0. -1.
        2   -1    0    0  501    0  0.00000000000E+00  0.00000000000E+00 -0.10029114051E+04  0.10029114051E+04  0.25500000920E-02 0.  1.
    10030    2    1    2    0    0  0.00000000000E+00  0.00000000000E+00  0.45674945115E+03  0.24625722614E+04  0.24198434002E+04 0.  0.
        5    1    3    3  502    0  0.30256972346E+03 -0.24641852483E+03  0.13938562402E+04  0.14474556419E+04  0.46999998093E+01 0. -1.
       -5    1    3    3    0  502 -0.30256972346E+03  0.24641852483E+03 -0.93710678910E+03  0.10151166195E+04  0.46999998093E+01 0.  1.
</event>
<event>
 5   0  0.6703961E-05  0.2381510E+04  0.7818609E-02  0.8446459E-01
       -2   -1    0    0    0  501  0.00000000000E+00  0.00000000000E+00  0.11407327029E+04  0.11407327029E+04  0.25500000920E-02 0. -1.
        2   -1    0    0  501    0  0.00000000000E+00  0.00000000000E+00 -0.12429705298E+04  0.12429705299E+04  0.25500000920E-02 0.  1.
    10030    2    1    2    0    0  0.00000000000E+00  0.00000000000E+00 -0.10223782698E+03  0.23837032327E+04  0.23815097162E+04 0.  0.
        2    1    3    3  502    0 -0.11117773574E+04 -0.35262530548E+03 -0.29113893563E+03  0.12021461552E+04  0.25500000920E-02 0. -1.
       -2    1    3    3    0  502  0.11117773574E+04  0.35262530548E+03  0.18890110865E+03  0.11815570775E+04  0.25500000920E-02 0.  1.
</event>
<event>
 5   0  0.6978115E-05  0.1521684E+04  0.7818609E-02  0.8870160E-01
       -2   -1    0    0    0  501  0.00000000000E+00  0.00000000000E+00  0.77668599764E+03  0.77668599765E+03  0.25500000920E-02 0.  1.
        2   -1    0    0  501    0  0.00000000000E+00  0.00000000000E+00 -0.74532116310E+03  0.74532116310E+03  0.25500000920E-02 0. -1.
    10030    2    1    2    0    0  0.00000000000E+00  0.00000000000E+00  0.31364834548E+02  0.15220071607E+04  0.15216839503E+04 0.  0.
        4    1    3    3  502    0  0.31711380532E+03 -0.27444601320E+03  0.65063779559E+03  0.77408845336E+03  0.12699999809E+01 0.  1.
       -4    1    3    3    0  502 -0.31711380532E+03  0.27444601320E+03 -0.61927296104E+03  0.74791870739E+03  0.12699999809E+01 0. -1.
</event>
<event>
 5   0  0.6337926E-05  0.2437544E+04  0.7818609E-02  0.8425580E-01
        2   -1    0    0  501    0  0.00000000000E+00  0.00000000000E+00  0.87152594184E+03  0.87152594184E+03  0.25500000920E-02 0. -1.
       -2   -1    0    0    0  501  0.00000000000E+00  0.00000000000E+00 -0.17043731886E+04  0.17043731886E+04  0.25500000920E-02 0.  1.
    10030    2    1    2    0    0  0.00000000000E+00  0.00000000000E+00 -0.83284724675E+03  0.25758991304E+04  0.24375442137E+04 0.  0.
        1    1    3    3  502    0  0.12039168438E+04 -0.16463219812E+03 -0.51603927306E+03  0.13201575887E+04  0.50400001928E-02 0.  1.
       -1    1    3    3    0  502 -0.12039168438E+04  0.16463219812E+03 -0.31680797370E+03  0.12557415418E+04  0.50400001928E-02 0. -1.
</event>
<event>
 5   0  0.2943123E-05  0.2376279E+04  0.7818609E-02  0.8448438E-01
       -1   -1    0    0    0  501  0.00000000000E+00  0.00000000000E+00  0.55732816986E+03  0.55732816988E+03  0.50400001928E-02 0. -1.
        1   -1    0    0  501    0  0.00000000000E+00  0.00000000000E+00 -0.25329341014E+04  0.25329341014E+04  0.50400001928E-02 0.  1.
    10030    2    1    2    0    0  0.00000000000E+00  0.00000000000E+00 -0.19756059315E+04  0.30902622713E+04  0.23762790469E+04 0.  0.
        1    1    3    3  502    0  0.70781161418E+03 -0.98796831051E+02  0.24655293138E+03  0.75600690671E+03  0.50400001928E-02 0. -1.
       -1    1    3    3    0  502 -0.70781161418E+03  0.98796831051E+02 -0.22221588629E+04  0.23342553646E+04  0.50400001928E-02 0.  1.
</event>
<event>
 5   0  0.2847158E-05  0.2410623E+04  0.7818609E-02  0.8435537E-01
        1   -1    0    0  501    0  0.00000000000E+00  0.00000000000E+00  0.97839538445E+03  0.97839538446E+03  0.50400001928E-02 0.  1.
       -1   -1    0    0    0  501  0.00000000000E+00  0.00000000000E+00 -0.14848551891E+04  0.14848551891E+04  0.50400001928E-02 0. -1.
    10030    2    1    2    0    0  0.00000000000E+00  0.00000000000E+00 -0.50645980463E+03  0.24632505735E+04  0.24106227109E+04 0.  0.
        5    1    3    3  502    0  0.91295009691E+03 -0.48537725696E+03  0.37971575838E+03  0.11014876795E+04  0.46999998093E+01 0.  1.
       -5    1    3    3    0  502 -0.91295009691E+03  0.48537725696E+03 -0.88617556301E+03  0.13617628940E+04  0.46999998093E+01 0. -1.
</event>
<event>
 5   0  0.2915546E-05  0.2388147E+04  0.7818609E-02  0.8443954E-01
       -1   -1    0    0    0  501  0.00000000000E+00  0.00000000000E+00  0.12039077773E+04  0.12039077774E+04  0.50400001928E-02 0.  1.
        1   -1    0    0  501    0  0.00000000000E+00  0.00000000000E+00 -0.11843195572E+04  0.11843195572E+04  0.50400001928E-02 0. -1.
    10030    2    1    2    0    0  0.00000000000E+00  0.00000000000E+00  0.19588220195E+02  0.23882273345E+04  0.23881470020E+04 0.  0.
        2    1    3    3  502    0 -0.87933589202E+02 -0.97121047014E+03  0.69889597304E+03  0.11997656749E+04  0.25500000920E-02 0.  1.
       -2    1    3    3    0  502  0.87933589202E+02  0.97121047014E+03 -0.67930775284E+03  0.11884616597E+04  0.25500000920E-02 0. -1.
</event>
<event>
 5   0  0.2847158E-05  0.2333064E+04  0.7818609E-02  0.8464997E-01
       -1   -1    0    0    0  501  0.00000000000E+00  0.00000000000E+00  0.12577620815E+04  0.12577620815E+04  0.50400001928E-02 0. -1.
        1   -1    0    0  501    0  0.00000000000E+00  0.00000000000E+00 -0.10819192198E+04  0.10819192198E+04  0.50400001928E-02 0.  1.
    10030    2    1    2    0    0  0.00000000000E+00  0.00000000000E+00  0.17584286171E+03  0.23396813013E+04  0.23330640539E+04 0.  0.
        5    1    3    3  502    0 -0.11675828640E+02  0.80275802713E+03 -0.76077561267E+03  0.11060553322E+04  0.46999998093E+01 0.  1.
       -5    1    3    3    0  502  0.11675828640E+02 -0.80275802713E+03  0.93661847439E+03  0.12336259691E+04  0.46999998093E+01 0. -1.
</event>
<event>
 5   0  0.6337926E-05  0.2291745E+04  0.7818609E-02  0.8481183E-01
        2   -1    0    0  501    0  0.00000000000E+00  0.00000000000E+00  0.11432643678E+04  0.11432643678E+04  0.25500000920E-02 0. -1.
       -2   -1    0    0    0  501  0.00000000000E+00  0.00000000000E+00 -0.11484861606E+04  0.11484861606E+04  0.25500000920E-02 0.  1.
    10030    2    1    2    0    0  0.00000000000E+00  0.00000000000E+00 -0.52217927905E+01  0.22917505285E+04  0.22917445795E+04 0.  0.
        1    1    3    3  502    0 -0.39601595955E+03 -0.10883825648E+03 -0.10723561180E+04  0.11483126970E+04  0.50400001928E-02 0.  1.
       -1    1    3    3    0  502  0.39601595955E+03  0.10883825648E+03  0.10671343252E+04  0.11434378315E+04  0.50400001928E-02 0. -1.
</event>
<event>
 5   0  0.6978115E-05  0.2388717E+04  0.7818609E-02  0.8443740E-01
        2   -1    0    0  501    0  0.00000000000E+00  0.00000000000E+00  0.19842682900E+04  0.19842682900E+04  0.25500000920E-02 0. -1.
       -2   -1    0    0    0  501  0.00000000000E+00  0.00000000000E+00 -0.71890109673E+03  0.71890109673E+03  0.25500000920E-02 0.  1.
    10030    2    1    2    0    0  0.00000000000E+00  0.00000000000E+00  0.12653671932E+04  0.27031693867E+04  0.23887173545E+04 0.  0.
        4    1    3    3  502    0 -0.16649976101E+03  0.11141563208E+04  0.18368525304E+03  0.11414063092E+04  0.12699999809E+01 0.  1.
       -4    1    3    3    0  502  0.16649976101E+03 -0.11141563208E+04  0.10816819402E+04  0.15617630775E+04  0.12699999809E+01 0. -1.
</event>
<event>
 5   0  0.2901816E-05  0.2348653E+04  0.7818609E-02  0.8458981E-01
       -1   -1    0    0    0  501  0.00000000000E+00  0.00000000000E+00  0.90311978240E+03  0.90311978241E+03  0.50400001928E-02 0. -1.
        1   -1    0    0  501    0  0.00000000000E+00  0.00000000000E+00 -0.15269764993E+04  0.15269764993E+04  0.50400001928E-02 0.  1.
    10030    2    1    2    0    0  0.00000000000E+00  0.00000000000E+00 -0.62385671693E+03  0.24300962817E+04  0.23486529619E+04 0.  0.
        4    1    3    3  502    0 -0.59928882276E+02 -0.20925432403E+03 -0.15059210587E+04  0.15215711258E+04  0.12699999809E+01 0.  1.
       -4    1    3    3    0  502  0.59928882276E+02  0.20925432403E+03  0.88206434175E+03  0.90852515592E+03  0.12699999809E+01 0. -1.
</event>
<event>
 5   0  0.2915546E-05  0.2407395E+04  0.7818609E-02  0.8436740E-01
        1   -1    0    0  501    0  0.00000000000E+00  0.00000000000E+00  0.21449895526E+04  0.21449895527E+04  0.50400001928E-02 0.  1.
       -1   -1    0    0    0  501  0.00000000000E+00  0.00000000000E+00 -0.67547540293E+03  0.67547540295E+03  0.50400001928E-02 0. -1.
    10030    2    1    2    0    0  0.00000000000E+00  0.00000000000E+00  0.14695141497E+04  0.28204649556E+04  0.24073950090E+04 0.  0.
        2    1    3    3  502    0 -0.77685878373E+03  0.33511321009E+03  0.17378662963E+04  0.19328708434E+04  0.25500000920E-02 0.  1.
       -2    1    3    3    0  502  0.77685878373E+03 -0.33511321009E+03 -0.26835214659E+03  0.88759411220E+03  0.25500000920E-02 0. -1.
</event>
<event>
 5   0  0.2915546E-05  0.2280414E+04  0.7818609E-02  0.8485684E-01
        1   -1    0    0  501    0  0.00000000000E+00  0.00000000000E+00  0.22416173465E+04  0.22416173465E+04  0.50400001928E-02 0.  1.
       -1   -1    0    0    0  501  0.00000000000E+00  0.00000000000E+00 -0.57997043622E+03  0.57997043624E+03  0.50400001928E-02 0. -1.
    10030    2    1    2    0    0  0.00000000000E+00  0.00000000000E+00  0.16616469103E+04  0.28215877827E+04  0.22804138136E+04 0.  0.
        2    1    3    3  502    0  0.60284847740E+03 -0.48290462072E+03 -0.20693456272E+03  0.79965309520E+03  0.25500000920E-02 0. -1.
       -2    1    3    3    0  502 -0.60284847740E+03  0.48290462072E+03  0.18685814730E+04  0.20219346875E+04  0.25500000920E-02 0.  1.
</event>
<event>
 5   0  0.6703961E-05  0.2317217E+04  0.7818609E-02  0.8471163E-01
        2   -1    0    0  501    0  0.00000000000E+00  0.00000000000E+00  0.15579294428E+04  0.15579294428E+04  0.25500000920E-02 0.  1.
       -2   -1    0    0    0  501  0.00000000000E+00  0.00000000000E+00 -0.86163974911E+03  0.86163974911E+03  0.25500000920E-02 0. -1.
    10030    2    1    2    0    0  0.00000000000E+00  0.00000000000E+00  0.69628969372E+03  0.24195691919E+04  0.23172172399E+04 0.  0.
        2    1    3    3  502    0  0.11880370100E+03 -0.10949155660E+04 -0.27494593158E+02  0.11016852403E+04  0.25500000920E-02 0. -1.
       -2    1    3    3    0  502 -0.11880370100E+03  0.10949155660E+04  0.72378428687E+03  0.13178839516E+04  0.25500000920E-02 0.  1.
</event>
<event>
 5   0  0.2943123E-05  0.2525634E+04  0.7818609E-02  0.8393910E-01
        1   -1    0    0  501    0  0.00000000000E+00  0.00000000000E+00  0.23817688548E+04  0.23817688548E+04  0.50400001928E-02 0.  1.
       -1   -1    0    0    0  501  0.00000000000E+00  0.00000000000E+00 -0.66954710389E+03  0.66954710390E+03  0.50400001928E-02 0. -1.
    10030    2    1    2    0    0  0.00000000000E+00  0.00000000000E+00  0.17122217509E+04  0.30513159587E+04  0.25256337334E+04 0.  0.
        1    1    3    3  502    0 -0.26130247504E+03 -0.46982452581E+03  0.22366135237E+04  0.23003160919E+04  0.50400001928E-02 0.  1.
       -1    1    3    3    0  502  0.26130247504E+03  0.46982452581E+03 -0.52439177277E+03  0.75099986677E+03  0.50400001928E-02 0. -1.
</event>
<event>
 5   0  0.2915546E-05  0.2423817E+04  0.7818609E-02  0.8430640E-01
       -1   -1    0    0    0  501  0.00000000000E+00  0.00000000000E+00  0.10254655347E+04  0.10254655347E+04  0.50400001928E-02 0.  1.
        1   -1    0    0  501    0  0.00000000000E+00  0.00000000000E+00 -0.14322489124E+04  0.14322489124E+04  0.50400001928E-02 0. -1.
    10030    2    1    2    0    0  0.00000000000E+00  0.00000000000E+00 -0.40678337770E+03  0.24577144471E+04  0.24238167396E+04 0.  0.
        2    1    3    3  502    0  0.51495814283E+03  0.10658107580E+04 -0.46700335608E+03  0.12724883478E+04  0.25500000920E-02 0.  1.
       -2    1    3    3    0  502 -0.51495814283E+03 -0.10658107580E+04  0.60219978386E+02  0.11852260993E+04  0.25500000920E-02 0. -1.
</event>
<event>
 5   0  0.2943244E-05  0.2441313E+04  0.7818609E-02  0.8424197E-01
       -1   -1    0    0    0  501  0.00000000000E+00  0.00000000000E+00  0.17894127926E+04  0.17894127926E+04  0.50400001928E-02 0. -1.
        1   -1    0    0  501    0  0.00000000000E+00  0.00000000000E+00 -0.83267635193E+03  0.83267635194E+03  0.50400001928E-02 0.  1.
    10030    2    1    2    0    0  0.00000000000E+00  0.00000000000E+00  0.95673644064E+03  0.26220891445E+04  0.24413125291E+04 0.  0.
        3    1    3    3  502    0 -0.35316659585E+03  0.10425210798E+04  0.10451006667E+04  0.15178314333E+04  0.10100000352E+00 0. -1.
       -3    1    3    3    0  502  0.35316659585E+03 -0.10425210798E+04 -0.88364226061E+02  0.11042577112E+04  0.10100000352E+00 0.  1.
</event>
<event>
 5   0  0.2901816E-05  0.2150602E+04  0.7818609E-02  0.8539274E-01
        1   -1    0    0  501    0  0.00000000000E+00  0.00000000000E+00  0.12672929472E+04  0.12672929472E+04  0.50400001928E-02 0. -1.
       -1   -1    0    0    0  501  0.00000000000E+00  0.00000000000E+00 -0.91239572713E+03  0.91239572715E+03  0.50400001928E-02 0.  1.
    10030    2    1    2    0    0  0.00000000000E+00  0.00000000000E+00  0.35489722010E+03  0.21796886744E+04  0.21506023994E+04 0.  0.
        4    1    3    3  502    0  0.25797418561E+03  0.78622475377E+03  0.87344645126E+03  0.12031668047E+04  0.12699999809E+01 0. -1.
       -4    1    3    3    0  502 -0.25797418561E+03 -0.78622475377E+03 -0.51854923116E+03  0.97652186966E+03  0.12699999809E+01 0.  1.
</event>
<event>
 5   0  0.6978115E-05  0.1802185E+04  0.7818609E-02  0.8705138E-01
        2   -1    0    0  501    0  0.00000000000E+00  0.00000000000E+00  0.50889025280E+03  0.50889025281E+03  0.25500000920E-02 0.  1.
       -2   -1    0    0    0  501  0.00000000000E+00  0.00000000000E+00 -0.15955660463E+04  0.15955660463E+04  0.25500000920E-02 0. -1.
    10030    2    1    2    0    0  0.00000000000E+00  0.00000000000E+00 -0.10866757935E+04  0.21044562991E+04  0.18021853497E+04 0.  0.
        4    1    3    3  502    0 -0.74719950041E+03  0.23644245737E+03 -0.10626200393E+04  0.13203693006E+04  0.12699999809E+01 0. -1.
       -4    1    3    3    0  502  0.74719950041E+03 -0.23644245737E+03 -0.24055754194E+02  0.78408699854E+03  0.12699999809E+01 0.  1.
</event>
<event>
 5   0  0.6703961E-05  0.2403272E+04  0.7818609E-02  0.8438279E-01
       -2   -1    0    0    0  501  0.00000000000E+00  0.00000000000E+00  0.11927616424E+04  0.11927616424E+04  0.25500000920E-02 0. -1.
        2   -1    0    0  501    0  0.00000000000E+00  0.00000000000E+00 -0.12105768135E+04  0.12105768135E+04  0.25500000920E-02 0.  1.
    10030    2    1    2    0    0  0.00000000000E+00  0.00000000000E+00 -0.17815171074E+02  0.24033384559E+04  0.24032724259E+04 0.  0.
        2    1    3    3  502    0  0.61728983207E+03 -0.46446512130E+03  0.91152793879E+03  0.11948463369E+04  0.25500000920E-02 0. -1.
       -2    1    3    3    0  502 -0.61728983207E+03  0.46446512130E+03 -0.92934310986E+03  0.12084921189E+04  0.25500000920E-02 0.  1.
</event>
<event>
 5   0  0.6600166E-05  0.2346987E+04  0.7818609E-02  0.8459622E-01
        2   -1    0    0  501    0  0.00000000000E+00  0.00000000000E+00  0.14309331397E+04  0.14309331397E+04  0.25500000920E-02 0. -1.
       -2   -1    0    0    0  501  0.00000000000E+00  0.00000000000E+00 -0.96236983941E+03  0.96236983942E+03  0.25500000920E-02 0.  1.
    10030    2    1    2    0    0  0.00000000000E+00  0.00000000000E+00  0.46856330024E+03  0.23933029791E+04  0.23469869159E+04 0.  0.
        5    1    3    3  502    0  0.11450662376E+04  0.97944520883E+02 -0.76662619482E+01  0.11492826803E+04  0.46999998093E+01 0.  1.
       -5    1    3    3    0  502 -0.11450662376E+04 -0.97944520883E+02  0.47622956219E+03  0.12440202987E+04  0.46999998093E+01 0. -1.
</event>
<event>
 5   0  0.6714629E-05  0.2405933E+04  0.7818609E-02  0.8437286E-01
       -2   -1    0    0    0  501  0.00000000000E+00  0.00000000000E+00  0.54684483135E+03  0.54684483135E+03  0.25500000920E-02 0. -1.
        2   -1    0    0  501    0  0.00000000000E+00  0.00000000000E+00 -0.26463239405E+04  0.26463239405E+04  0.25500000920E-02 0.  1.
    10030    2    1    2    0    0  0.00000000000E+00  0.00000000000E+00 -0.20994791092E+04  0.31931687719E+04  0.24059331403E+04 0.  0.
        3    1    3    3  502    0 -0.44644000574E+03 -0.86436250283E+03 -0.11060901691E+03  0.97911469188E+03  0.10100000352E+00 0. -1.
       -3    1    3    3    0  502  0.44644000574E+03  0.86436250283E+03 -0.19888700923E+04  0.22140540800E+04  0.10100000352E+00 0.  1.
</event>
<event>
 5   0  0.6337926E-05  0.2428706E+04  0.7818609E-02  0.8428834E-01
       -2   -1    0    0    0  501  0.00000000000E+00  0.00000000000E+00  0.14680328128E+04  0.14680328128E+04  0.25500000920E-02 0. -1.
        2   -1    0    0  501    0  0.00000000000E+00  0.00000000000E+00 -0.10045093896E+04  0.10045093896E+04  0.25500000920E-02 0.  1.
    10030    2    1    2    0    0  0.00000000000E+00  0.00000000000E+00  0.46352342321E+03  0.24725422024E+04  0.24287056179E+04 0.  0.
        1    1    3    3  502    0 -0.29590156953E+03 -0.67618045489E+03  0.12134669787E+04  0.14203097742E+04  0.50400001928E-02 0. -1.
       -1    1    3    3    0  502  0.29590156953E+03  0.67618045489E+03 -0.74994355545E+03  0.10522324281E+04  0.50400001928E-02 0.  1.
</event>
<event>
 5   0  0.2943244E-05  0.2422448E+04  0.7818609E-02  0.8431147E-01
       -1   -1    0    0    0  501  0.00000000000E+00  0.00000000000E+00  0.74328675591E+03  0.74328675593E+03  0.50400001928E-02 0. -1.
        1   -1    0    0  501    0  0.00000000000E+00  0.00000000000E+00 -0.19737522594E+04  0.19737522594E+04  0.50400001928E-02 0.  1.
    10030    2    1    2    0    0  0.00000000000E+00  0.00000000000E+00 -0.12304655035E+04  0.27170390154E+04  0.24224482772E+04 0.  0.
        3    1    3    3  502    0  0.85528700020E+02  0.95466076088E+03 -0.14458077040E+04  0.17346619999E+04  0.10100000352E+00 0.  1.
       -3    1    3    3    0  502 -0.85528700020E+02 -0.95466076088E+03  0.21534220049E+03  0.98237701541E+03  0.10100000352E+00 0. -1.
</event>
<event>
 5   0  0.2943244E-05  0.2449730E+04  0.7818609E-02  0.8421117E-01
       -1   -1    0    0    0  501  0.00000000000E+00  0.00000000000E+00  0.92013502685E+03  0.92013502687E+03  0.50400001928E-02 0.  1.
        1   -1    0    0  501    0  0.00000000000E+00  0.00000000000E+00 -0.16305153933E+04  0.16305153933E+04  0.50400001928E-02 0. -1.
    10030    2    1    2    0    0  0.00000000000E+00  0.00000000000E+00 -0.71038036642E+03  0.25506504202E+04  0.24497300465E+04 0.  0.
        3    1    3    3  502    0 -0.58416497313E+03 -0.10437612226E+04 -0.62989269487E+03  0.13518324685E+04  0.10100000352E+00 0. -1.
       -3    1    3    3    0  502  0.58416497313E+03  0.10437612226E+04 -0.80487671553E+02  0.11988179516E+04  0.10100000352E+00 0.  1.
</event>
<event>
 5   0  0.6714629E-05  0.2382359E+04  0.7818609E-02  0.8446138E-01
       -2   -1    0    0    0  501  0.00000000000E+00  0.00000000000E+00  0.15214496070E+04  0.15214496070E+04  0.25500000920E-02 0. -1.
        2   -1    0    0  501    0  0.00000000000E+00  0.00000000000E+00 -0.93260329583E+03  0.93260329584E+03  0.25500000920E-02 0.  1.
    10030    2    1    2    0    0  0.00000000000E+00  0.00000000000E+00  0.58884631120E+03  0.24540529029E+04  0.23823592659E+04 0.  0.
        3    1    3    3  502    0  0.82960153352E+02  0.33649170740E+03  0.14683682384E+04  0.15087128123E+04  0.10100000352E+00 0. -1.
       -3    1    3    3    0  502 -0.82960153352E+02 -0.33649170740E+03 -0.87952192722E+03  0.94534009057E+03  0.10100000352E+00 0.  1.
</event>
<event>
 5   0  0.2901816E-05  0.2460308E+04  0.7818609E-02  0.8417264E-01
        1   -1    0    0  501    0  0.00000000000E+00  0.00000000000E+00  0.11254570510E+04  0.11254570510E+04  0.50400001928E-02 0. -1.
       -1   -1    0    0    0  501  0.00000000000E+00  0.00000000000E+00 -0.13445902471E+04  0.13445902471E+04  0.50400001928E-02 0.  1.
    10030    2    1    2    0    0  0.00000000000E+00  0.00000000000E+00 -0.21913319611E+03  0.24700472981E+04  0.24603077648E+04 0.  0.
        4    1    3    3  502    0  0.10881942320E+04  0.57366323849E+03 -0.11414136048E+03  0.12354295046E+04  0.12699999809E+01 0.  1.
       -4    1    3    3    0  502 -0.10881942320E+04 -0.57366323849E+03 -0.10499183563E+03  0.12346177936E+04  0.12699999809E+01 0. -1.
</event>
<event>
 5   0  0.6337926E-05  0.2424332E+04  0.7818609E-02  0.8430450E-01
        2   -1    0    0  501    0  0.00000000000E+00  0.00000000000E+00  0.12860121370E+04  0.12860121370E+04  0.25500000920E-02 0. -1.
       -2   -1    0    0    0  501  0.00000000000E+00  0.00000000000E+00 -0.11425602199E+04  0.11425602199E+04  0.25500000920E-02 0.  1.
    10030    2    1    2    0    0  0.00000000000E+00  0.00000000000E+00  0.14345191706E+03  0.24285723569E+04  0.24243319163E+04 0.  0.
        1    1    3    3  502    0 -0.33212816328E+03  0.50769202111E+03 -0.97953135095E+03  0.11521900766E+04  0.50400001928E-02 0.  1.
       -1    1    3    3    0  502  0.33212816328E+03 -0.50769202111E+03  0.11229832680E+04  0.12763822803E+04  0.50400001928E-02 0. -1.
</event>
<event>
 5   0  0.6714629E-05  0.2316424E+04  0.7818609E-02  0.8471473E-01
       -2   -1    0    0    0  501  0.00000000000E+00  0.00000000000E+00  0.15179617259E+04  0.15179617259E+04  0.25500000920E-02 0. -1.
        2   -1    0    0  501    0  0.00000000000E+00  0.00000000000E+00 -0.88372120323E+03  0.88372120324E+03  0.25500000920E-02 0.  1.
    10030    2    1    2    0    0  0.00000000000E+00  0.00000000000E+00  0.63424052262E+03  0.24016829291E+04  0.23164239360E+04 0.  0.
        3    1    3    3  502    0  0.72861290699E+03 -0.24189153566E+03  0.12162571135E+04  0.14382870574E+04  0.10100000352E+00 0. -1.
       -3    1    3    3    0  502 -0.72861290699E+03  0.24189153566E+03 -0.58201659088E+03  0.96339587165E+03  0.10100000352E+00 0.  1.
</event>
<event>
 5   0  0.2943123E-05  0.2398074E+04  0.7818609E-02  0.8440225E-01
        1   -1    0    0  501    0  0.00000000000E+00  0.00000000000E+00  0.13339241699E+04  0.13339241699E+04  0.50400001928E-02 0. -1.
       -1   -1    0    0    0  501  0.00000000000E+00  0.00000000000E+00 -0.10777897902E+04  0.10777897903E+04  0.50400001928E-02 0.  1.
    10030    2    1    2    0    0  0.00000000000E+00  0.00000000000E+00  0.25613437968E+03  0.24117139602E+04  0.23980741034E+04 0.  0.
        1    1    3    3  502    0  0.72491946664E+03 -0.73881748389E+03  0.73676206435E+03  0.12705029898E+04  0.50400001928E-02 0. -1.
       -1    1    3    3    0  502 -0.72491946664E+03  0.73881748389E+03 -0.48062768468E+03  0.11412109704E+04  0.50400001928E-02 0.  1.
</event>
<event>
 5   0  0.6714629E-05  0.2346838E+04  0.7818609E-02  0.8459679E-01
        2   -1    0    0  501    0  0.00000000000E+00  0.00000000000E+00  0.18643892858E+04  0.18643892858E+04  0.25500000920E-02 0. -1.
       -2   -1    0    0    0  501  0.00000000000E+00  0.00000000000E+00 -0.73853257218E+03  0.73853257219E+03  0.25500000920E-02 0.  1.
    10030    2    1    2    0    0  0.00000000000E+00  0.00000000000E+00  0.11258567136E+04  0.26029218580E+04  0.23468380556E+04 0.  0.
        3    1    3    3  502    0 -0.13844078276E+03  0.11577478552E+04  0.41676748243E+03  0.12382411281E+04  0.10100000352E+00 0. -1.
       -3    1    3    3    0  502  0.13844078276E+03 -0.11577478552E+04  0.70908923116E+03  0.13646807299E+04  0.10100000352E+00 0.  1.
</event>
<event>
 5   0  0.6337926E-05  0.2339329E+04  0.7818609E-02  0.8462574E-01
       -2   -1    0    0    0  501  0.00000000000E+00  0.00000000000E+00  0.10219947933E+04  0.10219947933E+04  0.25500000920E-02 0. -1.
        2   -1    0    0  501    0  0.00000000000E+00  0.00000000000E+00 -0.13386716242E+04  0.13386716242E+04  0.25500000920E-02 0.  1.
    10030    2    1    2    0    0  0.00000000000E+00  0.00000000000E+00 -0.31667683094E+03  0.23606664175E+04  0.23393293312E+04 0.  0.
        1    1    3    3  502    0  0.44941668502E+02  0.11679595894E+04 -0.20308327769E+03  0.11863356075E+04  0.50400001928E-02 0. -1.
       -1    1    3    3    0  502 -0.44941668502E+02 -0.11679595894E+04 -0.11359355326E+03  0.11743308100E+04  0.50400001928E-02 0.  1.
</event>
<event>
 5   0  0.2915546E-05  0.2398163E+04  0.7818609E-02  0.8440192E-01
       -1   -1    0    0    0  501  0.00000000000E+00  0.00000000000E+00  0.10887155882E+04  0.10887155883E+04  0.50400001928E-02 0. -1.
        1   -1    0    0  501    0  0.00000000000E+00  0.00000000000E+00 -0.13206357230E+04  0.13206357230E+04  0.50400001928E-02 0.  1.
    10030    2    1    2    0    0  0.00000000000E+00  0.00000000000E+00 -0.23192013475E+03  0.24093513113E+04  0.23981632122E+04 0.  0.
        2    1    3    3  502    0 -0.13389204713E+03 -0.84494280419E+03 -0.96008296440E+03  0.12859295164E+04  0.25500000920E-02 0.  1.
       -2    1    3    3    0  502  0.13389204713E+03  0.84494280419E+03  0.72816282966E+03  0.11234217948E+04  0.25500000920E-02 0. -1.
</event>
<event>
 5   0  0.6978115E-05  0.2330974E+04  0.7818609E-02  0.8465808E-01
        2   -1    0    0  501    0  0.00000000000E+00  0.00000000000E+00  0.12869689776E+04  0.12869689776E+04  0.25500000920E-02 0.  1.
       -2   -1    0    0    0  501  0.00000000000E+00  0.00000000000E+00 -0.10554721255E+04  0.10554721255E+04  0.25500000920E-02 0. -1.
    10030    2    1    2    0    0  0.00000000000E+00  0.00000000000E+00  0.23149685216E+03  0.23424411031E+04  0.23309739443E+04 0.  0.
        4    1    3    3  502    0 -0.33814486231E+03  0.67110247561E+02 -0.10030625614E+04  0.10606516150E+04  0.12699999809E+01 0. -1.
       -4    1    3    3    0  502  0.33814486231E+03 -0.67110247561E+02  0.12345594136E+04  0.12817894881E+04  0.12699999809E+01 0.  1.
</event>
<event>
 5   0  0.6703961E-05  0.1743681E+04  0.7818609E-02  0.8736836E-01
        2   -1    0    0  501    0  0.00000000000E+00  0.00000000000E+00  0.21792512460E+04  0.21792512460E+04  0.25500000920E-02 0. -1.
       -2   -1    0    0    0  501  0.00000000000E+00  0.00000000000E+00 -0.34879204469E+03  0.34879204470E+03  0.25500000920E-02 0.  1.
    10030    2    1    2    0    0  0.00000000000E+00  0.00000000000E+00  0.18304592013E+04  0.25280432907E+04  0.17436805877E+04 0.  0.
        2    1    3    3  502    0  0.25822055654E+03  0.53598067232E+03  0.18392085248E+04  0.19330393516E+04  0.25500000920E-02 0. -1.
       -2    1    3    3    0  502 -0.25822055654E+03 -0.53598067232E+03 -0.87493235137E+01  0.59500393914E+03  0.25500000920E-02 0.  1.
</event>
<event>
 5   0  0.2943244E-05  0.2443501E+04  0.7818609E-02  0.8423395E-01
       -1   -1    0    0    0  501  0.00000000000E+00  0.00000000000E+00  0.15050081525E+04  0.15050081525E+04  0.50400001928E-02 0. -1.
        1   -1    0    0  501    0  0.00000000000E+00  0.00000000000E+00 -0.99180495799E+03  0.99180495800E+03  0.50400001928E-02 0.  1.
    10030    2    1    2    0    0  0.00000000000E+00  0.00000000000E+00  0.51320319447E+03  0.24968131105E+04  0.24435012154E+04 0.  0.
        3    1    3    3  502    0  0.52528680540E+03  0.10707788293E+03  0.13784080317E+04  0.14789863465E+04  0.10100000352E+00 0. -1.
       -3    1    3    3    0  502 -0.52528680540E+03 -0.10707788293E+03 -0.86520483724E+03  0.10178267640E+04  0.10100000352E+00 0.  1.
</event>
<event>
 5   0  0.2901816E-05  0.2360448E+04  0.7818609E-02  0.8454461E-01
       -1   -1    0    0    0  501  0.00000000000E+00  0.00000000000E+00  0.78929854559E+03  0.78929854561E+03  0.50400001928E-02 0.  1.
        1   -1    0    0  501    0  0.00000000000E+00  0.00000000000E+00 -0.17647676472E+04  0.17647676472E+04  0.50400001928E-02 0. -1.
    10030    2    1    2    0    0  0.00000000000E+00  0.00000000000E+00 -0.97546910160E+03  0.25540661928E+04  0.23604478704E+04 0.  0.
        4    1    3    3  502    0 -0.49165918346E+03  0.71363985264E+03  0.37918130797E+03  0.94593375517E+03  0.12699999809E+01 0.  1.
       -4    1    3    3    0  502  0.49165918346E+03 -0.71363985264E+03 -0.13546504096E+04  0.16081324376E+04  0.12699999809E+01 0. -1.
</event>
<event>
 5   0  0.2847158E-05  0.2427007E+04  0.7818609E-02  0.8429461E-01
       -1   -1    0    0    0  501  0.00000000000E+00  0.00000000000E+00  0.86166100665E+03  0.86166100667E+03  0.50400001928E-02 0.  1.
        1   -1    0    0  501    0  0.00000000000E+00  0.00000000000E+00 -0.17090136937E+04  0.17090136937E+04  0.50400001928E-02 0. -1.
    10030    2    1    2    0    0  0.00000000000E+00  0.00000000000E+00 -0.84735268704E+03  0.25706747004E+04  0.24270067653E+04 0.  0.
        5    1    3    3  502    0  0.55434781295E+03 -0.20895671672E+03  0.69807320638E+03  0.91558325599E+03  0.46999998093E+01 0.  1.
       -5    1    3    3    0  502 -0.55434781295E+03  0.20895671672E+03 -0.15454258934E+04  0.16550914444E+04  0.46999998093E+01 0. -1.
</event>
<event>
 5   0  0.2901816E-05  0.2379120E+04  0.7818609E-02  0.8447362E-01
       -1   -1    0    0    0  501  0.00000000000E+00  0.00000000000E+00  0.20587578837E+04  0.20587578837E+04  0.50400001928E-02 0. -1.
        1   -1    0    0  501    0  0.00000000000E+00  0.00000000000E+00 -0.68733360036E+03  0.68733360038E+03  0.50400001928E-02 0.  1.
    10030    2    1    2    0    0  0.00000000000E+00  0.00000000000E+00  0.13714242834E+04  0.27460914841E+04  0.23791203993E+04 0.  0.
        4    1    3    3  502    0 -0.82125719235E+03 -0.40758600914E+02  0.16779125741E+04  0.18685601030E+04  0.12699999809E+01 0. -1.
       -4    1    3    3    0  502  0.82125719235E+03  0.40758600914E+02 -0.30648829070E+03  0.87753138108E+03  0.12699999809E+01 0.  1.
</event>
<event>
 5   0  0.2943123E-05  0.2407676E+04  0.7818609E-02  0.8436635E-01
       -1   -1    0    0    0  501  0.00000000000E+00  0.00000000000E+00  0.64827062892E+03  0.64827062894E+03  0.50400001928E-02 0. -1.
        1   -1    0    0  501    0  0.00000000000E+00  0.00000000000E+00 -0.22355263748E+04  0.22355263748E+04  0.50400001928E-02 0.  1.
    10030    2    1    2    0    0  0.00000000000E+00  0.00000000000E+00 -0.15872557458E+04  0.28837970037E+04  0.24076761318E+04 0.  0.
        1    1    3    3  502    0  0.36607441118E+03  0.28425902895E+03  0.53712300070E+03  0.70944681828E+03  0.50400001928E-02 0. -1.
       -1    1    3    3    0  502 -0.36607441118E+03 -0.28425902895E+03 -0.21243787465E+04  0.21743501854E+04  0.50400001928E-02 0.  1.
</event>
<event>
 5   0  0.6600166E-05  0.2391739E+04  0.7818609E-02  0.8442603E-01
       -2   -1    0    0    0  501  0.00000000000E+00  0.00000000000E+00  0.68314609810E+03  0.68314609810E+03  0.25500000920E-02 0.  1.
        2   -1    0    0  501    0  0.00000000000E+00  0.00000000000E+00 -0.20934084673E+04  0.20934084673E+04  0.25500000920E-02 0. -1.
    10030    2    1    2    0    0  0.00000000000E+00  0.00000000000E+00 -0.14102623692E+04  0.27765545654E+04  0.23917389708E+04 0.  0.
        5    1    3    3  502    0  0.10877025999E+04  0.24757977975E+03 -0.12053794275E+04  0.16423624287E+04  0.46999998093E+01 0. -1.
       -5    1    3    3    0  502 -0.10877025999E+04 -0.24757977975E+03 -0.20488294168E+03  0.11341921367E+04  0.46999998093E+01 0.  1.
</event>
<event>
 5   0  0.2901816E-05  0.2404632E+04  0.7818609E-02  0.8437772E-01
        1   -1    0    0  501    0  0.00000000000E+00  0.00000000000E+00  0.57566855609E+03  0.57566855612E+03  0.50400001928E-02 0.  1.
       -1   -1    0    0    0  501  0.00000000000E+00  0.00000000000E+00 -0.25111037001E+04  0.25111037001E+04  0.50400001928E-02 0. -1.
    10030    2    1    2    0    0  0.00000000000E+00  0.00000000000E+00 -0.19354351440E+04  0.30867722562E+04  0.24046317317E+04 0.  0.
        4    1    3    3  502    0 -0.52945886726E+03  0.10021593287E+04 -0.45278545199E+03  0.12205188612E+04  0.12699999809E+01 0.  1.
       -4    1    3    3    0  502  0.52945886726E+03 -0.10021593287E+04 -0.14826496920E+04  0.18662533950E+04  0.12699999809E+01 0. -1.
</event>
<event>
 5   0  0.6600166E-05  0.2398370E+04  0.7818609E-02  0.8440114E-01
        2   -1    0    0  501    0  0.00000000000E+00  0.00000000000E+00  0.13759922037E+04  0.13759922037E+04  0.25500000920E-02 0. -1.
       -2   -1    0    0    0  501  0.00000000000E+00  0.00000000000E+00 -0.10450964828E+04  0.10450964828E+04  0.25500000920E-02 0.  1.
    10030    2    1    2    0    0  0.00000000000E+00  0.00000000000E+00  0.33089572085E+03  0.24210886865E+04  0.23983699568E+04 0.  0.
        5    1    3    3  502    0  0.46644705774E+03 -0.50604205655E+03 -0.82587841374E+03  0.10750575170E+04  0.46999998093E+01 0.  1.
       -5    1    3    3    0  502 -0.46644705774E+03  0.50604205655E+03  0.11567741346E+04  0.13460311694E+04  0.46999998093E+01 0. -1.
</event>
<event>
 5   0  0.6714629E-05  0.2410671E+04  0.7818609E-02  0.8435519E-01
        2   -1    0    0  501    0  0.00000000000E+00  0.00000000000E+00  0.15345086592E+04  0.15345086592E+04  0.25500000920E-02 0. -1.
       -2   -1    0    0    0  501  0.00000000000E+00  0.00000000000E+00 -0.94677418763E+03  0.94677418763E+03  0.25500000920E-02 0.  1.
    10030    2    1    2    0    0  0.00000000000E+00  0.00000000000E+00  0.58773447153E+03  0.24812828468E+04  0.24106706031E+04 0.  0.
        3    1    3    3  502    0  0.93038161003E+03  0.17482926806E+03 -0.47408218194E+03  0.10587394102E+04  0.10100000352E+00 0.  1.
       -3    1    3    3    0  502 -0.93038161003E+03 -0.17482926806E+03  0.10618166535E+04  0.14225434366E+04  0.10100000352E+00 0. -1.
</event>
<event>
 5   0  0.6714629E-05  0.2207050E+04  0.7818609E-02  0.8515500E-01
        2   -1    0    0  501    0  0.00000000000E+00  0.00000000000E+00  0.88730393723E+03  0.88730393723E+03  0.25500000920E-02 0.  1.
       -2   -1    0    0    0  501  0.00000000000E+00  0.00000000000E+00 -0.13724350414E+04  0.13724350414E+04  0.25500000920E-02 0. -1.
    10030    2    1    2    0    0  0.00000000000E+00  0.00000000000E+00 -0.48513110412E+03  0.22597389786E+04  0.22070496286E+04 0.  0.
        3    1    3    3  502    0  0.91345152871E+03 -0.46164943021E+03  0.17990234196E+03  0.10391721487E+04  0.10100000352E+00 0.  1.
       -3    1    3    3    0  502 -0.91345152871E+03  0.46164943021E+03 -0.66503344608E+03  0.12205668299E+04  0.10100000352E+00 0. -1.
</event>
<event>
 5   0  0.2847158E-05  0.2417981E+04  0.7818609E-02  0.8432802E-01
        1   -1    0    0  501    0  0.00000000000E+00  0.00000000000E+00  0.90822716107E+03  0.90822716108E+03  0.50400001928E-02 0. -1.
       -1   -1    0    0    0  501  0.00000000000E+00  0.00000000000E+00 -0.16093531229E+04  0.16093531229E+04  0.50400001928E-02 0.  1.
    10030    2    1    2    0    0  0.00000000000E+00  0.00000000000E+00 -0.70112596181E+03  0.25175802840E+04  0.24179811562E+04 0.  0.
        5    1    3    3  502    0  0.24239174912E+03 -0.67340680266E+03  0.66394699490E+03  0.97625723247E+03  0.46999998093E+01 0. -1.
       -5    1    3    3    0  502 -0.24239174912E+03  0.67340680266E+03 -0.13650729567E+04  0.15413230515E+04  0.46999998093E+01 0.  1.
</event>
<event>
 5   0  0.6600166E-05  0.2421172E+04  0.7818609E-02  0.8431619E-01
       -2   -1    0    0    0  501  0.00000000000E+00  0.00000000000E+00  0.12050971955E+04  0.12050971955E+04  0.25500000920E-02 0. -1.
        2   -1    0    0  501    0  0.00000000000E+00  0.00000000000E+00 -0.12160996598E+04  0.12160996598E+04  0.25500000920E-02 0.  1.
    10030    2    1    2    0    0  0.00000000000E+00  0.00000000000E+00 -0.11002464294E+02  0.24211968552E+04  0.24211718563E+04 0.  0.
        5    1    3    3  502    0  0.93860013616E+03 -0.36624375423E+03  0.66561783111E+03  0.12075487113E+04  0.46999998093E+01 0. -1.
       -5    1    3    3    0  502 -0.93860013616E+03  0.36624375423E+03 -0.67662029540E+03  0.12136481439E+04  0.46999998093E+01 0.  1.
</event>
<event>
 5   0  0.6714629E-05  0.2373446E+04  0.7818609E-02  0.8449512E-01
       -2   -1    0    0    0  501  0.00000000000E+00  0.00000000000E+00  0.12876534968E+04  0.12876534968E+04  0.25500000920E-02 0.  1.
        2   -1    0    0  501    0  0.00000000000E+00  0.00000000000E+00 -0.10937038741E+04  0.10937038741E+04  0.25500000920E-02 0. -1.
    10030    2    1    2    0    0  0.00000000000E+00  0.00000000000E+00  0.19394962271E+03  0.23813573708E+04  0.23734461172E+04 0.  0.
        3    1    3    3  502    0 -0.68080977504E+03 -0.62951718195E+03 -0.64611370762E+03  0.11301578498E+04  0.10100000352E+00 0. -1.
       -3    1    3    3    0  502  0.68080977504E+03  0.62951718195E+03  0.84006333033E+03  0.12511995210E+04  0.10100000352E+00 0.  1.
</event>
<event>
 5   0  0.2943244E-05  0.2362810E+04  0.7818609E-02  0.8453560E-01
        1   -1    0    0  501    0  0.00000000000E+00  0.00000000000E+00  0.10782606437E+04  0.10782606437E+04  0.50400001928E-02 0.  1.
       -1   -1    0    0    0  501  0.00000000000E+00  0.00000000000E+00 -0.12944160441E+04  0.12944160441E+04  0.50400001928E-02 0. -1.
    10030    2    1    2    0    0  0.00000000000E+00  0.00000000000E+00 -0.21615540044E+03  0.23726766878E+04  0.23628100871E+04 0.  0.
        3    1    3    3  502    0  0.19933278632E+03 -0.11508848601E+04 -0.28615503638E+03  0.12025615310E+04  0.10100000352E+00 0.  1.
       -3    1    3    3    0  502 -0.19933278632E+03  0.11508848601E+04  0.69999635939E+02  0.11701151568E+04  0.10100000352E+00 0. -1.
</event>
<event>
 5   0  0.2943244E-05  0.2612827E+04  0.7818609E-02  0.8363857E-01
        1   -1    0    0  501    0  0.00000000000E+00  0.00000000000E+00  0.20185420681E+04  0.20185420681E+04  0.50400001928E-02 0. -1.
       -1   -1    0    0    0  501  0.00000000000E+00  0.00000000000E+00 -0.84551920762E+03  0.84551920763E+03  0.50400001928E-02 0.  1.
    10030    2    1    2    0    0  0.00000000000E+00  0.00000000000E+00  0.11730228605E+04  0.28640612758E+04  0.26128268906E+04 0.  0.
        3    1    3    3  502    0 -0.54636441139E+03  0.57838902240E+03  0.17223240848E+04  0.18972211771E+04  0.10100000352E+00 0. -1.
       -3    1    3    3    0  502  0.54636441139E+03 -0.57838902240E+03 -0.54930122431E+03  0.96684009872E+03  0.10100000352E+00 0.  1.
</event>
<event>
 5   0  0.2901816E-05  0.2375655E+04  0.7818609E-02  0.8448675E-01
        1   -1    0    0  501    0  0.00000000000E+00  0.00000000000E+00  0.13382482828E+04  0.13382482828E+04  0.50400001928E-02 0. -1.
       -1   -1    0    0    0  501  0.00000000000E+00  0.00000000000E+00 -0.10543141206E+04  0.10543141206E+04  0.50400001928E-02 0.  1.
    10030    2    1    2    0    0  0.00000000000E+00  0.00000000000E+00  0.28393416223E+03  0.23925624035E+04  0.23756549089E+04 0.  0.
        4    1    3    3  502    0  0.74301030122E+03 -0.92507010474E+03  0.85771738605E+02  0.11896122942E+04  0.12699999809E+01 0.  1.
       -4    1    3    3    0  502 -0.74301030122E+03  0.92507010474E+03  0.19816242363E+03  0.12029501093E+04  0.12699999809E+01 0. -1.
</event>
<event>
 5   0  0.6337926E-05  0.2399058E+04  0.7818609E-02  0.8439856E-01
       -2   -1    0    0    0  501  0.00000000000E+00  0.00000000000E+00  0.88211313038E+03  0.88211313038E+03  0.25500000920E-02 0. -1.
        2   -1    0    0  501    0  0.00000000000E+00  0.00000000000E+00 -0.16311622403E+04  0.16311622403E+04  0.25500000920E-02 0.  1.
    10030    2    1    2    0    0  0.00000000000E+00  0.00000000000E+00 -0.74904910995E+03  0.25132753707E+04  0.23990578401E+04 0.  0.
        1    1    3    3  502    0 -0.55168818560E+03 -0.86788499073E+03 -0.10214056440E+04  0.14494321995E+04  0.50400001928E-02 0.  1.
       -1    1    3    3    0  502  0.55168818560E+03  0.86788499073E+03  0.27235653408E+03  0.10638431712E+04  0.50400001928E-02 0. -1.
</event>
<event>
 5   0  0.6600166E-05  0.2405004E+04  0.7818609E-02  0.8437633E-01
        2   -1    0    0  501    0  0.00000000000E+00  0.00000000000E+00  0.10805608415E+04  0.10805608415E+04  0.25500000920E-02 0.  1.
       -2   -1    0    0    0  501  0.00000000000E+00  0.00000000000E+00 -0.13382039849E+04  0.13382039849E+04  0.25500000920E-02 0. -1.
    10030    2    1    2    0    0  0.00000000000E+00  0.00000000000E+00 -0.25764314339E+03  0.24187648264E+04  0.24050038038E+04 0.  0.
        5    1    3    3  502    0  0.99605880379E+03  0.60861171583E+03  0.16170389736E+03  0.11784360830E+04  0.46999998093E+01 0.  1.
       -5    1    3    3    0  502 -0.99605880379E+03 -0.60861171583E+03 -0.41934704075E+03  0.12403287434E+04  0.46999998093E+01 0. -1.
</event>
<event>
 5   0  0.6703961E-05  0.2395692E+04  0.7818609E-02  0.8441118E-01
       -2   -1    0    0    0  501  0.00000000000E+00  0.00000000000E+00  0.42055956993E+03  0.42055956994E+03  0.25500000920E-02 0. -1.
        2   -1    0    0  501    0  0.00000000000E+00  0.00000000000E+00 -0.34117287129E+04  0.34117287129E+04  0.25500000920E-02 0.  1.
    10030    2    1    2    0    0  0.00000000000E+00  0.00000000000E+00 -0.29911691429E+04  0.38322882828E+04  0.23956921006E+04 0.  0.
        2    1    3    3  502    0 -0.42161326428E+03 -0.50622346154E+03 -0.30958945811E+04  0.31652145575E+04  0.25500000920E-02 0.  1.
       -2    1    3    3    0  502  0.42161326428E+03  0.50622346154E+03  0.10472543815E+03  0.66707372534E+03  0.25500000920E-02 0. -1.
</event>
<event>
 5   0  0.6714629E-05  0.2054227E+04  0.7818609E-02  0.8581679E-01
        2   -1    0    0  501    0  0.00000000000E+00  0.00000000000E+00  0.83202472072E+03  0.83202472072E+03  0.25500000920E-02 0.  1.
       -2   -1    0    0    0  501  0.00000000000E+00  0.00000000000E+00 -0.12679458233E+04  0.12679458233E+04  0.25500000920E-02 0. -1.
    10030    2    1    2    0    0  0.00000000000E+00  0.00000000000E+00 -0.43592110261E+03  0.20999705441E+04  0.20542271243E+04 0.  0.
        3    1    3    3  502    0  0.11787901609E+03  0.46573143059E+03 -0.11460092832E+04  0.12426337011E+04  0.10100000352E+00 0. -1.
       -3    1    3    3    0  502 -0.11787901609E+03 -0.46573143059E+03  0.71008818056E+03  0.85733684293E+03  0.10100000352E+00 0.  1.
</event>
<event>
 5   0  0.2915546E-05  0.2311430E+04  0.7818609E-02  0.8473428E-01
       -1   -1    0    0    0  501  0.00000000000E+00  0.00000000000E+00  0.95292619169E+03  0.95292619171E+03  0.50400001928E-02 0.  1.
        1   -1    0    0  501    0  0.00000000000E+00  0.00000000000E+00 -0.14016582260E+04  0.14016582260E+04  0.50400001928E-02 0. -1.
    10030    2    1    2    0    0  0.00000000000E+00  0.00000000000E+00 -0.44873203426E+03  0.23545844177E+04  0.23114297180E+04 0.  0.
        2    1    3    3  502    0  0.21033822717E+03 -0.10320592845E+04 -0.70894505310E+03  0.12696423216E+04  0.25500000920E-02 0. -1.
       -2    1    3    3    0  502 -0.21033822717E+03  0.10320592845E+04  0.26021301884E+03  0.10849420960E+04  0.25500000920E-02 0.  1.
</event>
<event>
 5   0  0.2943123E-05  0.1679291E+04  0.7818609E-02  0.8773264E-01
        1   -1    0    0  501    0  0.00000000000E+00  0.00000000000E+00  0.20095955121E+04  0.20095955122E+04  0.50400001928E-02 0.  1.
       -1   -1    0    0    0  501  0.00000000000E+00  0.00000000000E+00 -0.35081932891E+03  0.35081932894E+03  0.50400001928E-02 0. -1.
    10030    2    1    2    0    0  0.00000000000E+00  0.00000000000E+00  0.16587761832E+04  0.23604148411E+04  0.16792914565E+04 0.  0.
        1    1    3    3  502    0 -0.57182919738E+03  0.54634147833E+02 -0.31399682081E+02  0.57529076226E+03  0.50400001928E-02 0. -1.
       -1    1    3    3    0  502  0.57182919738E+03 -0.54634147833E+02  0.16901758653E+04  0.17851240788E+04  0.50400001928E-02 0.  1.
</event>
<event>
 5   0  0.6714629E-05  0.2423906E+04  0.7818609E-02  0.8430607E-01
        2   -1    0    0  501    0  0.00000000000E+00  0.00000000000E+00  0.17745257486E+04  0.17745257486E+04  0.25500000920E-02 0. -1.
       -2   -1    0    0    0  501  0.00000000000E+00  0.00000000000E+00 -0.82773119773E+03  0.82773119773E+03  0.25500000920E-02 0.  1.
    10030    2    1    2    0    0  0.00000000000E+00  0.00000000000E+00  0.94679455083E+03  0.26022569463E+04  0.24239062055E+04 0.  0.
        3    1    3    3  502    0 -0.82429175806E+02  0.40821665081E+03 -0.74850214577E+03  0.85655757276E+03  0.10100000352E+00 0.  1.
       -3    1    3    3    0  502  0.82429175806E+02 -0.40821665081E+03  0.16952966966E+04  0.17456993735E+04  0.10100000352E+00 0. -1.
</event>
<event>
 5   0  0.6600166E-05  0.2463328E+04  0.7818609E-02  0.8416168E-01
       -2   -1    0    0    0  501  0.00000000000E+00  0.00000000000E+00  0.17491119704E+04  0.17491119704E+04  0.25500000920E-02 0.  1.
        2   -1    0    0  501    0  0.00000000000E+00  0.00000000000E+00 -0.86729519182E+03  0.86729519183E+03  0.25500000920E-02 0. -1.
    10030    2    1    2    0    0  0.00000000000E+00  0.00000000000E+00  0.88181677859E+03  0.26164071622E+04  0.24633281567E+04 0.  0.
        5    1    3    3  502    0  0.93506068020E+03 -0.77616374659E+03  0.22793431670E+03  0.12364241909E+04  0.46999998093E+01 0.  1.
       -5    1    3    3    0  502 -0.93506068020E+03  0.77616374659E+03  0.65388246188E+03  0.13799829713E+04  0.46999998093E+01 0. -1.
</event>
<event>
 5   0  0.2943244E-05  0.2368879E+04  0.7818609E-02  0.8451247E-01
        1   -1    0    0  501    0  0.00000000000E+00  0.00000000000E+00  0.90959110358E+03  0.90959110359E+03  0.50400001928E-02 0.  1.
       -1   -1    0    0    0  501  0.00000000000E+00  0.00000000000E+00 -0.15423383149E+04  0.15423383149E+04  0.50400001928E-02 0. -1.
    10030    2    1    2    0    0  0.00000000000E+00  0.00000000000E+00 -0.63274721130E+03  0.24519294185E+04  0.23688792371E+04 0.  0.
        3    1    3    3  502    0 -0.36081273456E+03 -0.11262924987E+04 -0.38326578184E+03  0.12432269671E+04  0.10100000352E+00 0. -1.
       -3    1    3    3    0  502  0.36081273456E+03  0.11262924987E+04 -0.24948142946E+03  0.12087024513E+04  0.10100000352E+00 0.  1.
</event>
<event>
 5   0  0.2915546E-05  0.1856085E+04  0.7818609E-02  0.8677030E-01
        1   -1    0    0  501    0  0.00000000000E+00  0.00000000000E+00  0.13141765270E+04  0.13141765270E+04  0.50400001928E-02 0. -1.
       -1   -1    0    0    0  501  0.00000000000E+00  0.00000000000E+00 -0.65536341598E+03  0.65536341600E+03  0.50400001928E-02 0.  1.
    10030    2    1    2    0    0  0.00000000000E+00  0.00000000000E+00  0.65881311105E+03  0.19695399430E+04  0.18560853622E+04 0.  0.
        2    1    3    3  502    0  0.72137265743E+03 -0.57019671031E+03  0.19619229390E+03  0.94020966573E+03  0.25500000920E-02 0.  1.
       -2    1    3    3    0  502 -0.72137265743E+03  0.57019671031E+03  0.46262081715E+03  0.10293302773E+04  0.25500000920E-02 0. -1.
</event>
<event>
 5   0  0.2915546E-05  0.2335390E+04  0.7818609E-02  0.8464097E-01
        1   -1    0    0  501    0  0.00000000000E+00  0.00000000000E+00  0.15227094542E+04  0.15227094542E+04  0.50400001928E-02 0. -1.
       -1   -1    0    0    0  501  0.00000000000E+00  0.00000000000E+00 -0.89545073419E+03  0.89545073420E+03  0.50400001928E-02 0.  1.
    10030    2    1    2    0    0  0.00000000000E+00  0.00000000000E+00  0.62725872002E+03  0.24181601884E+04  0.23353897309E+04 0.  0.
        2    1    3    3  502    0 -0.61217078814E+03  0.57677219482E+02 -0.71424240144E+03  0.94245527402E+03  0.25500000920E-02 0.  1.
       -2    1    3    3    0  502  0.61217078814E+03 -0.57677219482E+02  0.13415011215E+04  0.14757049144E+04  0.25500000920E-02 0. -1.
</event>
<event>
 5   0  0.6978115E-05  0.2042972E+04  0.7818609E-02  0.8586789E-01
        2   -1    0    0  501    0  0.00000000000E+00  0.00000000000E+00  0.12015846503E+04  0.12015846503E+04  0.25500000920E-02 0.  1.
       -2   -1    0    0    0  501  0.00000000000E+00  0.00000000000E+00 -0.86838160445E+03  0.86838160445E+03  0.25500000920E-02 0. -1.
    10030    2    1    2    0    0  0.00000000000E+00  0.00000000000E+00  0.33320304589E+03  0.20699662548E+04  0.20429723508E+04 0.  0.
        4    1    3    3  502    0  0.53450244087E+03 -0.34837576876E+02 -0.71467595325E+03  0.89312364604E+03  0.12699999809E+01 0. -1.
       -4    1    3    3    0  502 -0.53450244087E+03  0.34837576876E+02  0.10478789991E+04  0.11768426088E+04  0.12699999809E+01 0.  1.
</event>
<event>
 5   0  0.2847158E-05  0.2345455E+04  0.7818609E-02  0.8460211E-01
        1   -1    0    0  501    0  0.00000000000E+00  0.00000000000E+00  0.14871964838E+04  0.14871964839E+04  0.50400001928E-02 0.  1.
       -1   -1    0    0    0  501  0.00000000000E+00  0.00000000000E+00 -0.92475333648E+03  0.92475333649E+03  0.50400001928E-02 0. -1.
    10030    2    1    2    0    0  0.00000000000E+00  0.00000000000E+00  0.56244314737E+03  0.24119498203E+04  0.23454551033E+04 0.  0.
        5    1    3    3  502    0 -0.62345370033E+02 -0.52244887290E+03  0.13589937100E+04  0.14573008488E+04  0.46999998093E+01 0.  1.
       -5    1    3    3    0  502  0.62345370033E+02  0.52244887290E+03 -0.79655056268E+03  0.95464897154E+03  0.46999998093E+01 0. -1.
</event>
<event>
 5   0  0.6600166E-05  0.2430639E+04  0.7818609E-02  0.8428121E-01
        2   -1    0    0  501    0  0.00000000000E+00  0.00000000000E+00  0.19369946045E+04  0.19369946045E+04  0.25500000920E-02 0.  1.
       -2   -1    0    0    0  501  0.00000000000E+00  0.00000000000E+00 -0.76252216657E+03  0.76252216658E+03  0.25500000920E-02 0. -1.
    10030    2    1    2    0    0  0.00000000000E+00  0.00000000000E+00  0.11744724379E+04  0.26995167711E+04  0.24306388646E+04 0.  0.
        5    1    3    3  502    0  0.37461757954E+03  0.94084674219E+03  0.13334608976E+04  0.16744166084E+04  0.46999998093E+01 0.  1.
       -5    1    3    3    0  502 -0.37461757954E+03 -0.94084674219E+03 -0.15898845965E+03  0.10251001627E+04  0.46999998093E+01 0. -1.
</event>
<event>
 5   0  0.2915546E-05  0.2357032E+04  0.7818609E-02  0.8455768E-01
       -1   -1    0    0    0  501  0.00000000000E+00  0.00000000000E+00  0.13387603703E+04  0.13387603703E+04  0.50400001928E-02 0. -1.
        1   -1    0    0  501    0  0.00000000000E+00  0.00000000000E+00 -0.10374522091E+04  0.10374522091E+04  0.50400001928E-02 0.  1.
    10030    2    1    2    0    0  0.00000000000E+00  0.00000000000E+00  0.30130816119E+03  0.23762125795E+04  0.23570319503E+04 0.  0.
        2    1    3    3  502    0 -0.20990170573E+03  0.21488048255E+03 -0.99821043690E+03  0.10424281386E+04  0.25500000920E-02 0.  1.
       -2    1    3    3    0  502  0.20990170573E+03 -0.21488048255E+03  0.12995185981E+04  0.13337844409E+04  0.25500000920E-02 0. -1.
</event>
<event>
 5   0  0.6337926E-05  0.2377864E+04  0.7818609E-02  0.8447838E-01
       -2   -1    0    0    0  501  0.00000000000E+00  0.00000000000E+00  0.14105662030E+04  0.14105662030E+04  0.25500000920E-02 0. -1.
        2   -1    0    0  501    0  0.00000000000E+00  0.00000000000E+00 -0.10021222113E+04  0.10021222113E+04  0.25500000920E-02 0.  1.
    10030    2    1    2    0    0  0.00000000000E+00  0.00000000000E+00  0.40844399173E+03  0.24126884142E+04  0.23778643548E+04 0.  0.
        1    1    3    3  502    0  0.10475533231E+04  0.56204214394E+03  0.22180746817E+03  0.12093212515E+04  0.50400001928E-02 0. -1.
       -1    1    3    3    0  502 -0.10475533231E+04 -0.56204214394E+03  0.18663652355E+03  0.12033671627E+04  0.50400001928E-02 0.  1.
</event>
<event>
 5   0  0.2847158E-05  0.2465280E+04  0.7818609E-02  0.8415460E-01
       -1   -1    0    0    0  501  0.00000000000E+00  0.00000000000E+00  0.16725857096E+04  0.16725857097E+04  0.50400001928E-02 0. -1.
        1   -1    0    0  501    0  0.00000000000E+00  0.00000000000E+00 -0.90841466223E+03  0.90841466224E+03  0.50400001928E-02 0.  1.
    10030    2    1    2    0    0  0.00000000000E+00  0.00000000000E+00  0.76417104742E+03  0.25810003719E+04  0.24652800105E+04 0.  0.
        5    1    3    3  502    0 -0.12187778345E+04  0.11027886462E+03  0.22751215719E+03  0.12447347949E+04  0.46999998093E+01 0.  1.
       -5    1    3    3    0  502  0.12187778345E+04 -0.11027886462E+03  0.53665889023E+03  0.13362655770E+04  0.46999998093E+01 0. -1.
</event>
<event>
 5   0  0.2339125E-05  0.2483118E+04  0.7818609E-02  0.8409024E-01
       -4   -1    0    0    0  501  0.00000000000E+00  0.00000000000E+00  0.10101850897E+04  0.10101858880E+04  0.12699999809E+01 0.  1.
        4   -1    0    0  501    0  0.00000000000E+00  0.00000000000E+00 -0.15259257926E+04  0.15259263211E+04  0.12699999809E+01 0. -1.
    10030    2    1    2    0    0  0.00000000000E+00  0.00000000000E+00 -0.51574070293E+03  0.25361122092E+04  0.24831183348E+04 0.  0.
        5    1    3    3  502    0  0.35233831145E+03 -0.11463876961E+04  0.70074235102E+02  0.12013656912E+04  0.46999998093E+01 0.  1.
       -5    1    3    3    0  502 -0.35233831145E+03  0.11463876961E+04 -0.58581493803E+03  0.13347465180E+04  0.46999998093E+01 0. -1.
</event>
<event>
 5   0  0.6703961E-05  0.2390896E+04  0.7818609E-02  0.8442920E-01
       -2   -1    0    0    0  501  0.00000000000E+00  0.00000000000E+00  0.79828690352E+03  0.79828690353E+03  0.25500000920E-02 0.  1.
        2   -1    0    0  501    0  0.00000000000E+00  0.00000000000E+00 -0.17902039831E+04  0.17902039831E+04  0.25500000920E-02 0. -1.
    10030    2    1    2    0    0  0.00000000000E+00  0.00000000000E+00 -0.99191707961E+03  0.25884908867E+04  0.23908963962E+04 0.  0.
        2    1    3    3  502    0  0.46721304553E+03  0.97503642217E+03 -0.10481203438E+04  0.15058354191E+04  0.25500000920E-02 0. -1.
       -2    1    3    3    0  502 -0.46721304553E+03 -0.97503642217E+03  0.56203264166E+02  0.10826554675E+04  0.25500000920E-02 0.  1.
</event>
<event>
 5   0  0.6703961E-05  0.2578869E+04  0.7818609E-02  0.8375415E-01
        2   -1    0    0  501    0  0.00000000000E+00  0.00000000000E+00  0.21570867093E+04  0.21570867093E+04  0.25500000920E-02 0.  1.
       -2   -1    0    0    0  501  0.00000000000E+00  0.00000000000E+00 -0.77078084497E+03  0.77078084498E+03  0.25500000920E-02 0. -1.
    10030    2    1    2    0    0  0.00000000000E+00  0.00000000000E+00  0.13863058643E+04  0.29278675543E+04  0.25788688346E+04 0.  0.
        2    1    3    3  502    0  0.62661131306E+03 -0.13065192060E+02  0.19725187381E+04  0.20696962601E+04  0.25500000920E-02 0.  1.
       -2    1    3    3    0  502 -0.62661131306E+03  0.13065192060E+02 -0.58621287373E+03  0.85817129423E+03  0.25500000920E-02 0. -1.
</event>
<event>
 5   0  0.6978115E-05  0.2577225E+04  0.7818609E-02  0.8375979E-01
       -2   -1    0    0    0  501  0.00000000000E+00  0.00000000000E+00  0.94135623447E+03  0.94135623447E+03  0.25500000920E-02 0.  1.
        2   -1    0    0  501    0  0.00000000000E+00  0.00000000000E+00 -0.17639680474E+04  0.17639680474E+04  0.25500000920E-02 0. -1.
    10030    2    1    2    0    0  0.00000000000E+00  0.00000000000E+00 -0.82261181296E+03  0.27053242819E+04  0.25772251115E+04 0.  0.
        4    1    3    3  502    0 -0.66594230969E+03 -0.60411932253E+03  0.55765781342E+03  0.10580279606E+04  0.12699999809E+01 0.  1.
       -4    1    3    3    0  502  0.66594230969E+03  0.60411932253E+03 -0.13802696264E+04  0.16472963213E+04  0.12699999809E+01 0. -1.
</event>
<event>
 5   0  0.6703961E-05  0.2243542E+04  0.7818609E-02  0.8500521E-01
       -2   -1    0    0    0  501  0.00000000000E+00  0.00000000000E+00  0.14783003335E+04  0.14783003335E+04  0.25500000920E-02 0.  1.
        2   -1    0    0  501    0  0.00000000000E+00  0.00000000000E+00 -0.85122755479E+03  0.85122755479E+03  0.25500000920E-02 0. -1.
    10030    2    1    2    0    0  0.00000000000E+00  0.00000000000E+00  0.62707277874E+03  0.23295278883E+04  0.22435418232E+04 0.  0.
        2    1    3    3  502    0 -0.56197818950E+03  0.93327702699E+03  0.59126576685E+03  0.12395243853E+04  0.25500000920E-02 0.  1.
       -2    1    3    3    0  502  0.56197818950E+03 -0.93327702699E+03  0.35807011888E+02  0.10900035031E+04  0.25500000920E-02 0. -1.
</event>
<event>
 5   0  0.6703961E-05  0.2377926E+04  0.7818609E-02  0.8447814E-01
        2   -1    0    0  501    0  0.00000000000E+00  0.00000000000E+00  0.80561228568E+03  0.80561228569E+03  0.25500000920E-02 0.  1.
       -2   -1    0    0    0  501  0.00000000000E+00  0.00000000000E+00 -0.17547309233E+04  0.17547309233E+04  0.25500000920E-02 0. -1.
    10030    2    1    2    0    0  0.00000000000E+00  0.00000000000E+00 -0.94911863766E+03  0.25603432090E+04  0.23779258104E+04 0.  0.
        2    1    3    3  502    0 -0.82962544684E+03 -0.52169305492E+03  0.25027777441E+03  0.10114746611E+04  0.25500000920E-02 0.  1.
       -2    1    3    3    0  502  0.82962544684E+03  0.52169305492E+03 -0.11993964121E+04  0.15488685480E+04  0.25500000920E-02 0. -1.
</event>
<event>
 5   0  0.6714629E-05  0.2407856E+04  0.7818609E-02  0.8436568E-01
        2   -1    0    0  501    0  0.00000000000E+00  0.00000000000E+00  0.10766673765E+04  0.10766673765E+04  0.25500000920E-02 0.  1.
       -2   -1    0    0    0  501  0.00000000000E+00  0.00000000000E+00 -0.13462310244E+04  0.13462310244E+04  0.25500000920E-02 0. -1.
    10030    2    1    2    0    0  0.00000000000E+00  0.00000000000E+00 -0.26956364790E+03  0.24228984008E+04  0.24078563289E+04 0.  0.
        3    1    3    3  502    0 -0.48876734035E+03  0.67804415712E+03 -0.10066852647E+04  0.13084542882E+04  0.10100000352E+00 0. -1.
       -3    1    3    3    0  502  0.48876734035E+03 -0.67804415712E+03  0.73712161678E+03  0.11144441126E+04  0.10100000352E+00 0.  1.
</event>
<event>
 5   0  0.2901816E-05  0.2368737E+04  0.7818609E-02  0.8451302E-01
       -1   -1    0    0    0  501  0.00000000000E+00  0.00000000000E+00  0.77969877813E+03  0.77969877815E+03  0.50400001928E-02 0.  1.
        1   -1    0    0  501    0  0.00000000000E+00  0.00000000000E+00 -0.17990645467E+04  0.17990645467E+04  0.50400001928E-02 0. -1.
    10030    2    1    2    0    0  0.00000000000E+00  0.00000000000E+00 -0.10193657685E+04  0.25787633248E+04  0.23687367341E+04 0.  0.
        4    1    3    3  502    0  0.21418274099E+03 -0.69097280889E+03  0.51123351290E+03  0.88582108056E+03  0.12699999809E+01 0.  1.
       -4    1    3    3    0  502 -0.21418274099E+03  0.69097280889E+03 -0.15305992814E+04  0.16929422443E+04  0.12699999809E+01 0. -1.
</event>
<event>
 5   0  0.2943123E-05  0.2163764E+04  0.7818609E-02  0.8533663E-01
        1   -1    0    0  501    0  0.00000000000E+00  0.00000000000E+00  0.10991419263E+04  0.10991419263E+04  0.50400001928E-02 0.  1.
       -1   -1    0    0    0  501  0.00000000000E+00  0.00000000000E+00 -0.10648933913E+04  0.10648933913E+04  0.50400001928E-02 0. -1.
    10030    2    1    2    0    0  0.00000000000E+00  0.00000000000E+00  0.34248535039E+02  0.21640353176E+04  0.21637642879E+04 0.  0.
        1    1    3    3  502    0  0.70713990835E+03 -0.57479008520E+03  0.60032549526E+03  0.10912475394E+04  0.50400001928E-02 0.  1.
       -1    1    3    3    0  502 -0.70713990835E+03  0.57479008520E+03 -0.56607696022E+03  0.10727877782E+04  0.50400001928E-02 0. -1.
</event>
<event>
 5   0  0.2943244E-05  0.2487979E+04  0.7818609E-02  0.8407281E-01
       -1   -1    0    0    0  501  0.00000000000E+00  0.00000000000E+00  0.88964837225E+03  0.88964837226E+03  0.50400001928E-02 0. -1.
        1   -1    0    0  501    0  0.00000000000E+00  0.00000000000E+00 -0.17394622864E+04  0.17394622864E+04  0.50400001928E-02 0.  1.
    10030    2    1    2    0    0  0.00000000000E+00  0.00000000000E+00 -0.84981391419E+03  0.26291106587E+04  0.24879789322E+04 0.  0.
        3    1    3    3  502    0 -0.83816351353E+03 -0.91854785423E+03 -0.38737392526E+03  0.13024234350E+04  0.10100000352E+00 0.  1.
       -3    1    3    3    0  502  0.83816351353E+03  0.91854785423E+03 -0.46243998893E+03  0.13266872237E+04  0.10100000352E+00 0. -1.
</event>
<event>
 5   0  0.2915546E-05  0.2618592E+04  0.7818609E-02  0.8361913E-01
        1   -1    0    0  501    0  0.00000000000E+00  0.00000000000E+00  0.13491048722E+04  0.13491048722E+04  0.50400001928E-02 0. -1.
       -1   -1    0    0    0  501  0.00000000000E+00  0.00000000000E+00 -0.12706614799E+04  0.12706614799E+04  0.50400001928E-02 0.  1.
    10030    2    1    2    0    0  0.00000000000E+00  0.00000000000E+00  0.78443392230E+02  0.26197663521E+04  0.26185916776E+04 0.  0.
        2    1    3    3  502    0 -0.75868085224E+03  0.11656529333E+03 -0.10219479928E+04  0.12781086821E+04  0.25500000920E-02 0.  1.
       -2    1    3    3    0  502  0.75868085224E+03 -0.11656529333E+03  0.11003913851E+04  0.13416576700E+04  0.25500000920E-02 0. -1.
</event>
<event>
 5   0  0.2943123E-05  0.2403287E+04  0.7818609E-02  0.8438274E-01
       -1   -1    0    0    0  501  0.00000000000E+00  0.00000000000E+00  0.12792065602E+04  0.12792065602E+04  0.50400001928E-02 0.  1.
        1   -1    0    0  501    0  0.00000000000E+00  0.00000000000E+00 -0.11287834771E+04  0.11287834771E+04  0.50400001928E-02 0. -1.
    10030    2    1    2    0    0  0.00000000000E+00  0.00000000000E+00  0.15042308308E+03  0.24079900373E+04  0.24032871064E+04 0.  0.
        1    1    3    3  502    0 -0.47347958367E+03 -0.10494286093E+04 -0.26964784756E+03  0.11824522333E+04  0.50400001928E-02 0. -1.
       -1    1    3    3    0  502  0.47347958367E+03  0.10494286093E+04  0.42007093064E+03  0.12255378040E+04  0.50400001928E-02 0.  1.
</event>
<event>
 5   0  0.6978115E-05  0.2381555E+04  0.7818609E-02  0.8446442E-01
        2   -1    0    0  501    0  0.00000000000E+00  0.00000000000E+00  0.13698428531E+04  0.13698428531E+04  0.25500000920E-02 0.  1.
       -2   -1    0    0    0  501  0.00000000000E+00  0.00000000000E+00 -0.10351190993E+04  0.10351190993E+04  0.25500000920E-02 0. -1.
    10030    2    1    2    0    0  0.00000000000E+00  0.00000000000E+00  0.33472375377E+03  0.24049619524E+04  0.23815545346E+04 0.  0.
        4    1    3    3  502    0  0.10624329157E+03  0.80793197875E+03 -0.70945038691E+03  0.10804458263E+04  0.12699999809E+01 0. -1.
       -4    1    3    3    0  502 -0.10624329157E+03 -0.80793197875E+03  0.10441741407E+04  0.13245161261E+04  0.12699999809E+01 0.  1.
</event>
<event>
 5   0  0.6978115E-05  0.2434136E+04  0.7818609E-02  0.8426833E-01
        2   -1    0    0  501    0  0.00000000000E+00  0.00000000000E+00  0.14938178171E+04  0.14938178171E+04  0.25500000920E-02 0.  1.
       -2   -1    0    0    0  501  0.00000000000E+00  0.00000000000E+00 -0.99158960194E+03  0.99158960195E+03  0.25500000920E-02 0. -1.
    10030    2    1    2    0    0  0.00000000000E+00  0.00000000000E+00  0.50222821514E+03  0.24854074190E+04  0.24341357519E+04 0.  0.
        4    1    3    3  502    0 -0.11418639595E+04 -0.61097903799E+02  0.67662494751E+03  0.13286870167E+04  0.12699999809E+01 0. -1.
       -4    1    3    3    0  502  0.11418639595E+04  0.61097903799E+02 -0.17439673237E+03  0.11567204023E+04  0.12699999809E+01 0.  1.
</event>
<event>
 5   0  0.6703961E-05  0.2400050E+04  0.7818609E-02  0.8439485E-01
       -2   -1    0    0    0  501  0.00000000000E+00  0.00000000000E+00  0.12943658656E+04  0.12943658656E+04  0.25500000920E-02 0. -1.
        2   -1    0    0  501    0  0.00000000000E+00  0.00000000000E+00 -0.11125598696E+04  0.11125598696E+04  0.25500000920E-02 0.  1.
    10030    2    1    2    0    0  0.00000000000E+00  0.00000000000E+00  0.18180599596E+03  0.24069257352E+04  0.24000495983E+04 0.  0.
        2    1    3    3  502    0 -0.76740976732E+03  0.23351979067E+03 -0.80418436487E+03  0.11358528674E+04  0.25500000920E-02 0.  1.
       -2    1    3    3    0  502  0.76740976732E+03 -0.23351979067E+03  0.98599036083E+03  0.12710728678E+04  0.25500000920E-02 0. -1.
</event>
<event>
 5   0  0.2847158E-05  0.2301819E+04  0.7818609E-02  0.8477204E-01
       -1   -1    0    0    0  501  0.00000000000E+00  0.00000000000E+00  0.11104608757E+04  0.11104608757E+04  0.50400001928E-02 0.  1.
        1   -1    0    0  501    0  0.00000000000E+00  0.00000000000E+00 -0.11928319584E+04  0.11928319584E+04  0.50400001928E-02 0. -1.
    10030    2    1    2    0    0  0.00000000000E+00  0.00000000000E+00 -0.82371082713E+02  0.23032928341E+04  0.23018194725E+04 0.  0.
        5    1    3    3  502    0  0.22236870859E+03 -0.29414235872E+03 -0.11321143495E+04  0.11906605562E+04  0.46999998093E+01 0. -1.
       -5    1    3    3    0  502 -0.22236870859E+03  0.29414235872E+03  0.10497432667E+04  0.11126322779E+04  0.46999998093E+01 0.  1.
</event>
<event>
 5   0  0.2901816E-05  0.2375703E+04  0.7818609E-02  0.8448656E-01
       -1   -1    0    0    0  501  0.00000000000E+00  0.00000000000E+00  0.96072742823E+03  0.96072742825E+03  0.50400001928E-02 0. -1.
        1   -1    0    0  501    0  0.00000000000E+00  0.00000000000E+00 -0.14686700016E+04  0.14686700016E+04  0.50400001928E-02 0.  1.
    10030    2    1    2    0    0  0.00000000000E+00  0.00000000000E+00 -0.50794257333E+03  0.24293974298E+04  0.23757033094E+04 0.  0.
        4    1    3    3  502    0  0.10356228476E+04  0.57589180688E+03 -0.16949745163E+03  0.11970367809E+04  0.12699999809E+01 0. -1.
       -4    1    3    3    0  502 -0.10356228476E+04 -0.57589180688E+03 -0.33844512170E+03  0.12323606489E+04  0.12699999809E+01 0.  1.
</event>
<event>
 5   0  0.2943244E-05  0.2402816E+04  0.7818609E-02  0.8438450E-01
        1   -1    0    0  501    0  0.00000000000E+00  0.00000000000E+00  0.10450985798E+04  0.10450985799E+04  0.50400001928E-02 0.  1.
       -1   -1    0    0    0  501  0.00000000000E+00  0.00000000000E+00 -0.13810962779E+04  0.13810962779E+04  0.50400001928E-02 0. -1.
    10030    2    1    2    0    0  0.00000000000E+00  0.00000000000E+00 -0.33599769801E+03  0.24261948577E+04  0.24028164796E+04 0.  0.
        3    1    3    3  502    0  0.79822072589E+03  0.87797412443E+03  0.21945369011E+02  0.11867925260E+04  0.10100000352E+00 0.  1.
       -3    1    3    3    0  502 -0.79822072589E+03 -0.87797412443E+03 -0.35794306702E+03  0.12394023317E+04  0.10100000352E+00 0. -1.
</event>
<event>
 5   0  0.2901816E-05  0.2436977E+04  0.7818609E-02  0.8425788E-01
        1   -1    0    0  501    0  0.00000000000E+00  0.00000000000E+00  0.13728990682E+04  0.13728990682E+04  0.50400001928E-02 0. -1.
       -1   -1    0    0    0  501  0.00000000000E+00  0.00000000000E+00 -0.10814441235E+04  0.10814441235E+04  0.50400001928E-02 0.  1.
    10030    2    1    2    0    0  0.00000000000E+00  0.00000000000E+00  0.29145494468E+03  0.24543431917E+04  0.24369765116E+04 0.  0.
        4    1    3    3  502    0 -0.47400523703E+03 -0.91439859510E+03  0.80144812498E+03  0.13050388750E+04  0.12699999809E+01 0. -1.
       -4    1    3    3    0  502  0.47400523703E+03  0.91439859510E+03 -0.50999318030E+03  0.11493043167E+04  0.12699999809E+01 0.  1.
</event>
<event>
 5   0  0.2901816E-05  0.2412304E+04  0.7818609E-02  0.8434911E-01
       -1   -1    0    0    0  501  0.00000000000E+00  0.00000000000E+00  0.26332722929E+04  0.26332722929E+04  0.50400001928E-02 0.  1.
        1   -1    0    0  501    0  0.00000000000E+00  0.00000000000E+00 -0.55246950091E+03  0.55246950094E+03  0.50400001928E-02 0. -1.
    10030    2    1    2    0    0  0.00000000000E+00  0.00000000000E+00  0.20808027920E+04  0.31857417938E+04  0.24123039854E+04 0.  0.
        4    1    3    3  502    0 -0.28657812198E+03 -0.54588887237E+03  0.24094472293E+04  0.24870784557E+04  0.12699999809E+01 0.  1.
       -4    1    3    3    0  502  0.28657812198E+03  0.54588887237E+03 -0.32864443734E+03  0.69866333814E+03  0.12699999809E+01 0. -1.
</event>
<event>
 5   0  0.6337926E-05  0.2402384E+04  0.7818609E-02  0.8438611E-01
       -2   -1    0    0    0  501  0.00000000000E+00  0.00000000000E+00  0.15262219799E+04  0.15262219799E+04  0.25500000920E-02 0.  1.
        2   -1    0    0  501    0  0.00000000000E+00  0.00000000000E+00 -0.94538193605E+03  0.94538193605E+03  0.25500000920E-02 0. -1.
    10030    2    1    2    0    0  0.00000000000E+00  0.00000000000E+00  0.58084004383E+03  0.24716039159E+04  0.24023843907E+04 0.  0.
        1    1    3    3  502    0  0.25330217254E+03  0.76053369848E+03 -0.62994446645E+03  0.10195114163E+04  0.50400001928E-02 0. -1.
       -1    1    3    3    0  502 -0.25330217254E+03 -0.76053369848E+03  0.12107845103E+04  0.14520924996E+04  0.50400001928E-02 0.  1.
</event>
<event>
 5   0  0.6703961E-05  0.2650587E+04  0.7818609E-02  0.8351218E-01
       -2   -1    0    0    0  501  0.00000000000E+00  0.00000000000E+00  0.11317302865E+04  0.11317302865E+04  0.25500000920E-02 0. -1.
        2   -1    0    0  501    0  0.00000000000E+00  0.00000000000E+00 -0.15519623880E+04  0.15519623880E+04  0.25500000920E-02 0.  1.
    10030    2    1    2    0    0  0.00000000000E+00  0.00000000000E+00 -0.42023210158E+03  0.26836926745E+04  0.26505869825E+04 0.  0.
        2    1    3    3  502    0  0.14284041860E+03  0.10914736767E+04 -0.95736152694E+03  0.14588554642E+04  0.25500000920E-02 0.  1.
       -2    1    3    3    0  502 -0.14284041860E+03 -0.10914736767E+04  0.53712942536E+03  0.12248372103E+04  0.25500000920E-02 0. -1.
</event>
<event>
 5   0  0.6714629E-05  0.2310165E+04  0.7818609E-02  0.8473924E-01
       -2   -1    0    0    0  501  0.00000000000E+00  0.00000000000E+00  0.51368064346E+03  0.51368064347E+03  0.25500000920E-02 0.  1.
        2   -1    0    0  501    0  0.00000000000E+00  0.00000000000E+00 -0.25973636542E+04  0.25973636542E+04  0.25500000920E-02 0. -1.
    10030    2    1    2    0    0  0.00000000000E+00  0.00000000000E+00 -0.20836830107E+04  0.31110442976E+04  0.23101648713E+04 0.  0.
        3    1    3    3  502    0 -0.48480618362E+03 -0.10206029440E+04 -0.13648979467E+04  0.17718955444E+04  0.10100000352E+00 0. -1.
       -3    1    3    3    0  502  0.48480618362E+03  0.10206029440E+04 -0.71878506397E+03  0.13391487533E+04  0.10100000352E+00 0.  1.
</event>
<event>
 5   0  0.6600166E-05  0.2130567E+04  0.7818609E-02  0.8547897E-01
       -2   -1    0    0    0  501  0.00000000000E+00  0.00000000000E+00  0.55269870184E+03  0.55269870185E+03  0.25500000920E-02 0.  1.
        2   -1    0    0  501    0  0.00000000000E+00  0.00000000000E+00 -0.20532509636E+04  0.20532509636E+04  0.25500000920E-02 0. -1.
    10030    2    1    2    0    0  0.00000000000E+00  0.00000000000E+00 -0.15005522617E+04  0.26059496654E+04  0.21305671941E+04 0.  0.
        5    1    3    3  502    0  0.62237226679E+03 -0.37835545305E+03 -0.17010989308E+04  0.18504755469E+04  0.46999998093E+01 0. -1.
       -5    1    3    3    0  502 -0.62237226679E+03  0.37835545305E+03  0.20054666905E+03  0.75547411854E+03  0.46999998093E+01 0.  1.
</event>
<event>
 5   0  0.2847158E-05  0.2370377E+04  0.7818609E-02  0.8450678E-01
       -1   -1    0    0    0  501  0.00000000000E+00  0.00000000000E+00  0.11033878424E+04  0.11033878424E+04  0.50400001928E-02 0.  1.
        1   -1    0    0  501    0  0.00000000000E+00  0.00000000000E+00 -0.12730531162E+04  0.12730531162E+04  0.50400001928E-02 0. -1.
    10030    2    1    2    0    0  0.00000000000E+00  0.00000000000E+00 -0.16966527382E+03  0.23764409586E+04  0.23703766208E+04 0.  0.
        5    1    3    3  502    0  0.27024374031E+03 -0.53556186456E+03 -0.11095979011E+04  0.12613832812E+04  0.46999998093E+01 0. -1.
       -5    1    3    3    0  502 -0.27024374031E+03  0.53556186456E+03  0.93993262733E+03  0.11150576774E+04  0.46999998093E+01 0.  1.
</event>
<event>
 5   0  0.2915546E-05  0.2372889E+04  0.7818609E-02  0.8449724E-01
       -1   -1    0    0    0  501  0.00000000000E+00  0.00000000000E+00  0.17412174366E+04  0.17412174366E+04  0.50400001928E-02 0.  1.
        1   -1    0    0  501    0  0.00000000000E+00  0.00000000000E+00 -0.80842916179E+03  0.80842916180E+03  0.50400001928E-02 0. -1.
    10030    2    1    2    0    0  0.00000000000E+00  0.00000000000E+00  0.93278827482E+03  0.25496465984E+04  0.23728893382E+04 0.  0.
        2    1    3    3  502    0  0.38863509665E+03  0.82651123657E+03  0.12800982707E+04  0.15725169777E+04  0.25500000920E-02 0.  1.
       -2    1    3    3    0  502 -0.38863509665E+03 -0.82651123657E+03 -0.34730999583E+03  0.97712962075E+03  0.25500000920E-02 0. -1.
</event>
<event>
 5   0  0.2847158E-05  0.2374181E+04  0.7818609E-02  0.8449233E-01
        1   -1    0    0  501    0  0.00000000000E+00  0.00000000000E+00  0.91282272871E+03  0.91282272873E+03  0.50400001928E-02 0.  1.
       -1   -1    0    0    0  501  0.00000000000E+00  0.00000000000E+00 -0.15437653969E+04  0.15437653969E+04  0.50400001928E-02 0. -1.
    10030    2    1    2    0    0  0.00000000000E+00  0.00000000000E+00 -0.63094266816E+03  0.24565881256E+04  0.23741812417E+04 0.  0.
        5    1    3    3  502    0 -0.38386136859E+03  0.10852345031E+04 -0.61549889426E+03  0.13053522344E+04  0.46999998093E+01 0. -1.
       -5    1    3    3    0  502  0.38386136859E+03 -0.10852345031E+04 -0.15443773899E+02  0.11512358912E+04  0.46999998093E+01 0.  1.
</event>
<event>
 5   0  0.6703961E-05  0.2272551E+04  0.7818609E-02  0.8488823E-01
       -2   -1    0    0    0  501  0.00000000000E+00  0.00000000000E+00  0.66581492747E+03  0.66581492747E+03  0.25500000920E-02 0. -1.
        2   -1    0    0  501    0  0.00000000000E+00  0.00000000000E+00 -0.19391607225E+04  0.19391607225E+04  0.25500000920E-02 0.  1.
    10030    2    1    2    0    0  0.00000000000E+00  0.00000000000E+00 -0.12733457950E+04  0.26049756500E+04  0.22725511267E+04 0.  0.
        2    1    3    3  502    0 -0.61354482462E+03 -0.47443517594E+03  0.31521855094E+03  0.83719097155E+03  0.25500000920E-02 0. -1.
       -2    1    3    3    0  502  0.61354482462E+03  0.47443517594E+03 -0.15885643460E+04  0.17677846784E+04  0.25500000920E-02 0.  1.
</event>
<event>
 5   0  0.6337926E-05  0.2407859E+04  0.7818609E-02  0.8436567E-01
        2   -1    0    0  501    0  0.00000000000E+00  0.00000000000E+00  0.18376246750E+04  0.18376246750E+04  0.25500000920E-02 0.  1.
       -2   -1    0    0    0  501  0.00000000000E+00  0.00000000000E+00 -0.78876107950E+03  0.78876107950E+03  0.25500000920E-02 0. -1.
    10030    2    1    2    0    0  0.00000000000E+00  0.00000000000E+00  0.10488635955E+04  0.26263857545E+04  0.24078594829E+04 0.  0.
        1    1    3    3  502    0 -0.26218065170E+03 -0.11266317660E+04  0.88850398088E+03  0.14585873831E+04  0.50400001928E-02 0.  1.
       -1    1    3    3    0  502  0.26218065170E+03  0.11266317660E+04  0.16035961464E+03  0.11677983714E+04  0.50400001928E-02 0. -1.
</event>
<event>
 5   0  0.6337926E-05  0.2320107E+04  0.7818609E-02  0.8470035E-01
       -2   -1    0    0    0  501  0.00000000000E+00  0.00000000000E+00  0.54754419167E+03  0.54754419168E+03  0.25500000920E-02 0. -1.
        2   -1    0    0  501    0  0.00000000000E+00  0.00000000000E+00 -0.24577461906E+04  0.24577461907E+04  0.25500000920E-02 0.  1.
    10030    2    1    2    0    0  0.00000000000E+00  0.00000000000E+00 -0.19102019990E+04  0.30052903823E+04  0.23201074555E+04 0.  0.
        1    1    3    3  502    0 -0.97003672194E+03  0.41426210881E+03 -0.32965901525E+03  0.11051060596E+04  0.50400001928E-02 0. -1.
       -1    1    3    3    0  502  0.97003672194E+03 -0.41426210881E+03 -0.15805429837E+04  0.19001843227E+04  0.50400001928E-02 0.  1.
</event>
<event>
 5   0  0.6714629E-05  0.2529445E+04  0.7818609E-02  0.8392570E-01
       -2   -1    0    0    0  501  0.00000000000E+00  0.00000000000E+00  0.15407868710E+04  0.15407868710E+04  0.25500000920E-02 0. -1.
        2   -1    0    0  501    0  0.00000000000E+00  0.00000000000E+00 -0.10381208171E+04  0.10381208171E+04  0.25500000920E-02 0.  1.
    10030    2    1    2    0    0  0.00000000000E+00  0.00000000000E+00  0.50266605386E+03  0.25789076881E+04  0.25294449395E+04 0.  0.
        3    1    3    3  502    0  0.51597448878E+03  0.92841529303E+02  0.14247841972E+04  0.15181762880E+04  0.10100000352E+00 0. -1.
       -3    1    3    3    0  502 -0.51597448878E+03 -0.92841529303E+02 -0.92211814333E+03  0.10607314001E+04  0.10100000352E+00 0.  1.
</event>
<event>
 5   0  0.2901816E-05  0.2284013E+04  0.7818609E-02  0.8484251E-01
        1   -1    0    0  501    0  0.00000000000E+00  0.00000000000E+00  0.89237110978E+03  0.89237110979E+03  0.50400001928E-02 0.  1.
       -1   -1    0    0    0  501  0.00000000000E+00  0.00000000000E+00 -0.14614763697E+04  0.14614763697E+04  0.50400001928E-02 0. -1.
    10030    2    1    2    0    0  0.00000000000E+00  0.00000000000E+00 -0.56910525990E+03  0.23538474795E+04  0.22840133887E+04 0.  0.
        4    1    3    3  502    0  0.57491558848E+03  0.97763614280E+03 -0.42234679423E+03  0.12102391454E+04  0.12699999809E+01 0. -1.
       -4    1    3    3    0  502 -0.57491558848E+03 -0.97763614280E+03 -0.14675846566E+03  0.11436083341E+04  0.12699999809E+01 0.  1.
</event>
<event>
 5   0  0.6714629E-05  0.2420967E+04  0.7818609E-02  0.8431695E-01
        2   -1    0    0  501    0  0.00000000000E+00  0.00000000000E+00  0.17488907885E+04  0.17488907885E+04  0.25500000920E-02 0. -1.
       -2   -1    0    0    0  501  0.00000000000E+00  0.00000000000E+00 -0.83782822681E+03  0.83782822681E+03  0.25500000920E-02 0.  1.
    10030    2    1    2    0    0  0.00000000000E+00  0.00000000000E+00  0.91106256167E+03  0.25867190153E+04  0.24209668054E+04 0.  0.
        3    1    3    3  502    0 -0.85925858188E+03 -0.84634817841E+03  0.56574133129E+03  0.13321763448E+04  0.10100000352E+00 0. -1.
       -3    1    3    3    0  502  0.85925858188E+03  0.84634817841E+03  0.34532123037E+03  0.12545426704E+04  0.10100000352E+00 0.  1.
</event>
<event>
 5   0  0.2915546E-05  0.2297514E+04  0.7818609E-02  0.8478902E-01
       -1   -1    0    0    0  501  0.00000000000E+00  0.00000000000E+00  0.69767773645E+03  0.69767773647E+03  0.50400001928E-02 0. -1.
        1   -1    0    0  501    0  0.00000000000E+00  0.00000000000E+00 -0.18914792570E+04  0.18914792570E+04  0.50400001928E-02 0.  1.
    10030    2    1    2    0    0  0.00000000000E+00  0.00000000000E+00 -0.11938015205E+04  0.25891569935E+04  0.22975142799E+04 0.  0.
        2    1    3    3  502    0 -0.75006998658E+03 -0.68822283616E+03 -0.11968166490E+04  0.15711860960E+04  0.25500000920E-02 0.  1.
       -2    1    3    3    0  502  0.75006998658E+03  0.68822283616E+03  0.30151285028E+01  0.10179708974E+04  0.25500000920E-02 0. -1.
</event>
<event>
 5   0  0.6600166E-05  0.2406118E+04  0.7818609E-02  0.8437217E-01
       -2   -1    0    0    0  501  0.00000000000E+00  0.00000000000E+00  0.77454415581E+03  0.77454415582E+03  0.25500000920E-02 0.  1.
        2   -1    0    0  501    0  0.00000000000E+00  0.00000000000E+00 -0.18686492581E+04  0.18686492581E+04  0.25500000920E-02 0. -1.
    10030    2    1    2    0    0  0.00000000000E+00  0.00000000000E+00 -0.10941051023E+04  0.26431934139E+04  0.24061183364E+04 0.  0.
        5    1    3    3  502    0 -0.14128707482E+03 -0.11840804822E+04 -0.37224936074E+03  0.12492398898E+04  0.46999998093E+01 0.  1.
       -5    1    3    3    0  502  0.14128707482E+03  0.11840804822E+04 -0.72185574155E+03  0.13939535241E+04  0.46999998093E+01 0. -1.
</event>
<event>
 5   0  0.6714629E-05  0.2421667E+04  0.7818609E-02  0.8431436E-01
        2   -1    0    0  501    0  0.00000000000E+00  0.00000000000E+00  0.15004373735E+04  0.15004373735E+04  0.25500000920E-02 0.  1.
       -2   -1    0    0    0  501  0.00000000000E+00  0.00000000000E+00 -0.97712709358E+03  0.97712709358E+03  0.25500000920E-02 0. -1.
    10030    2    1    2    0    0  0.00000000000E+00  0.00000000000E+00  0.52331027988E+03  0.24775644670E+04  0.24216672024E+04 0.  0.
        3    1    3    3  502    0 -0.82591216955E+02  0.11503347436E+04  0.63898618125E+03  0.13184819610E+04  0.10100000352E+00 0. -1.
       -3    1    3    3    0  502  0.82591216955E+02 -0.11503347436E+04 -0.11567590137E+03  0.11590825060E+04  0.10100000352E+00 0.  1.
</event>
<event>
 5   0  0.2915546E-05  0.2133549E+04  0.7818609E-02  0.8546607E-01
       -1   -1    0    0    0  501  0.00000000000E+00  0.00000000000E+00  0.83587007160E+03  0.83587007162E+03  0.50400001928E-02 0.  1.
        1   -1    0    0  501    0  0.00000000000E+00  0.00000000000E+00 -0.13614650365E+04  0.13614650365E+04  0.50400001928E-02 0. -1.
    10030    2    1    2    0    0  0.00000000000E+00  0.00000000000E+00 -0.52559496489E+03  0.21973351081E+04  0.21335490410E+04 0.  0.
        2    1    3    3  502    0 -0.73987578760E+03 -0.62802827268E+03  0.19335745473E+03  0.98955686935E+03  0.25500000920E-02 0.  1.
       -2    1    3    3    0  502  0.73987578760E+03  0.62802827268E+03 -0.71895241961E+03  0.12077782388E+04  0.25500000920E-02 0. -1.
</event>
<event>
 5   0  0.2915546E-05  0.2419845E+04  0.7818609E-02  0.8432111E-01
        1   -1    0    0  501    0  0.00000000000E+00  0.00000000000E+00  0.11413206056E+04  0.11413206056E+04  0.50400001928E-02 0. -1.
       -1   -1    0    0    0  501  0.00000000000E+00  0.00000000000E+00 -0.12826481237E+04  0.12826481237E+04  0.50400001928E-02 0.  1.
    10030    2    1    2    0    0  0.00000000000E+00  0.00000000000E+00 -0.14132751813E+03  0.24239687293E+04  0.24198452292E+04 0.  0.
        2    1    3    3  502    0 -0.91803329489E+03  0.56565100328E+03  0.47905782155E+03  0.11799332966E+04  0.25500000920E-02 0. -1.
       -2    1    3    3    0  502  0.91803329489E+03 -0.56565100328E+03 -0.62038533968E+03  0.12440354327E+04  0.25500000920E-02 0.  1.
</event>
<event>
 5   0  0.2847158E-05  0.2383605E+04  0.7818609E-02  0.8445667E-01
        1   -1    0    0  501    0  0.00000000000E+00  0.00000000000E+00  0.17762246243E+04  0.17762246243E+04  0.50400001928E-02 0.  1.
       -1   -1    0    0    0  501  0.00000000000E+00  0.00000000000E+00 -0.79966997117E+03  0.79966997119E+03  0.50400001928E-02 0. -1.
    10030    2    1    2    0    0  0.00000000000E+00  0.00000000000E+00  0.97655465311E+03  0.25758945955E+04  0.23836052476E+04 0.  0.
        5    1    3    3  502    0 -0.11748052904E+04 -0.19825292942E+03  0.52069224853E+03  0.13002362101E+04  0.46999998093E+01 0. -1.
       -5    1    3    3    0  502  0.11748052904E+04  0.19825292942E+03  0.45586240458E+03  0.12756583854E+04  0.46999998093E+01 0.  1.
</event>
<event>
 5   0  0.6703961E-05  0.2427666E+04  0.7818609E-02  0.8429218E-01
       -2   -1    0    0    0  501  0.00000000000E+00  0.00000000000E+00  0.85478742453E+03  0.85478742453E+03  0.25500000920E-02 0. -1.
        2   -1    0    0  501    0  0.00000000000E+00  0.00000000000E+00 -0.17236930649E+04  0.17236930649E+04  0.25500000920E-02 0.  1.
    10030    2    1    2    0    0  0.00000000000E+00  0.00000000000E+00 -0.86890564039E+03  0.25784804894E+04  0.24276664974E+04 0.  0.
        2    1    3    3  502    0 -0.37395900772E+02 -0.11311909080E+04 -0.90033614785E+03  0.14462352861E+04  0.25500000920E-02 0.  1.
       -2    1    3    3    0  502  0.37395900772E+02  0.11311909080E+04  0.31430507460E+02  0.11322452033E+04  0.25500000920E-02 0. -1.
</event>
<event>
 5   0  0.6703961E-05  0.2164206E+04  0.7818609E-02  0.8533476E-01
        2   -1    0    0  501    0  0.00000000000E+00  0.00000000000E+00  0.14261594572E+04  0.14261594572E+04  0.25500000920E-02 0.  1.
       -2   -1    0    0    0  501  0.00000000000E+00  0.00000000000E+00 -0.82104887346E+03  0.82104887346E+03  0.25500000920E-02 0. -1.
    10030    2    1    2    0    0  0.00000000000E+00  0.00000000000E+00  0.60511058376E+03  0.22472083307E+04  0.21642057349E+04 0.  0.
        2    1    3    3  502    0  0.94879878050E+03  0.30402435036E+03 -0.13589102483E+03  0.10055427898E+04  0.25500000920E-02 0. -1.
       -2    1    3    3    0  502 -0.94879878050E+03 -0.30402435036E+03  0.74100160859E+03  0.12416655409E+04  0.25500000920E-02 0.  1.
</event>
<event>
 5   0  0.2943244E-05  0.2425357E+04  0.7818609E-02  0.8430071E-01
        1   -1    0    0  501    0  0.00000000000E+00  0.00000000000E+00  0.88051573598E+03  0.88051573599E+03  0.50400001928E-02 0.  1.
       -1   -1    0    0    0  501  0.00000000000E+00  0.00000000000E+00 -0.16701458793E+04  0.16701458793E+04  0.50400001928E-02 0. -1.
    10030    2    1    2    0    0  0.00000000000E+00  0.00000000000E+00 -0.78963014333E+03  0.25506616153E+04  0.24253574814E+04 0.  0.
        3    1    3    3  502    0  0.12106774569E+04 -0.61762745855E+02 -0.36097866160E+03  0.12648557806E+04  0.10100000352E+00 0. -1.
       -3    1    3    3    0  502 -0.12106774569E+04  0.61762745855E+02 -0.42865148172E+03  0.12858058347E+04  0.10100000352E+00 0.  1.
</event>
<event>
 5   0  0.6978115E-05  0.2421912E+04  0.7818609E-02  0.8431345E-01
       -2   -1    0    0    0  501  0.00000000000E+00  0.00000000000E+00  0.19134949415E+04  0.19134949415E+04  0.25500000920E-02 0.  1.
        2   -1    0    0  501    0  0.00000000000E+00  0.00000000000E+00 -0.76635420110E+03  0.76635420110E+03  0.25500000920E-02 0. -1.
    10030    2    1    2    0    0  0.00000000000E+00  0.00000000000E+00  0.11471407404E+04  0.26798491426E+04  0.24219123743E+04 0.  0.
        4    1    3    3  502    0  0.10129823541E+04  0.38348648227E+03 -0.25595876270E+02  0.10834444580E+04  0.12699999809E+01 0. -1.
       -4    1    3    3    0  502 -0.10129823541E+04 -0.38348648227E+03  0.11727366167E+04  0.15964046846E+04  0.12699999809E+01 0.  1.
</event>
<event>
 5   0  0.2943123E-05  0.2406850E+04  0.7818609E-02  0.8436943E-01
       -1   -1    0    0    0  501  0.00000000000E+00  0.00000000000E+00  0.65674882451E+03  0.65674882453E+03  0.50400001928E-02 0.  1.
        1   -1    0    0  501    0  0.00000000000E+00  0.00000000000E+00 -0.22051535809E+04  0.22051535809E+04  0.50400001928E-02 0. -1.
    10030    2    1    2    0    0  0.00000000000E+00  0.00000000000E+00 -0.15484047563E+04  0.28619024054E+04  0.24068502422E+04 0.  0.
        1    1    3    3  502    0  0.11602304148E+03 -0.90084500467E+03  0.16451861417E+03  0.92306524310E+03  0.50400001928E-02 0.  1.
       -1    1    3    3    0  502 -0.11602304148E+03  0.90084500467E+03 -0.17129233705E+04  0.19388371623E+04  0.50400001928E-02 0. -1.
</event>
<event>
 5   0  0.6703961E-05  0.2444149E+04  0.7818609E-02  0.8423157E-01
       -2   -1    0    0    0  501  0.00000000000E+00  0.00000000000E+00  0.72125712054E+03  0.72125712055E+03  0.25500000920E-02 0. -1.
        2   -1    0    0  501    0  0.00000000000E+00  0.00000000000E+00 -0.20706429638E+04  0.20706429638E+04  0.25500000920E-02 0.  1.
    10030    2    1    2    0    0  0.00000000000E+00  0.00000000000E+00 -0.13493858432E+04  0.27919000843E+04  0.24441489167E+04 0.  0.
        2    1    3    3  502    0  0.62997385174E+03  0.34222040168E+03 -0.18051938140E+04  0.19423456344E+04  0.25500000920E-02 0.  1.
       -2    1    3    3    0  502 -0.62997385174E+03 -0.34222040168E+03  0.45580797078E+03  0.84955444995E+03  0.25500000920E-02 0. -1.
</event>
<event>
 5   0  0.2943244E-05  0.2207941E+04  0.7818609E-02  0.8515130E-01
       -1   -1    0    0    0  501  0.00000000000E+00  0.00000000000E+00  0.41821795062E+03  0.41821795065E+03  0.50400001928E-02 0. -1.
        1   -1    0    0  501    0  0.00000000000E+00  0.00000000000E+00 -0.29141533182E+04  0.29141533182E+04  0.50400001928E-02 0.  1.
    10030    2    1    2    0    0  0.00000000000E+00  0.00000000000E+00 -0.24959353676E+04  0.33323712688E+04  0.22079413294E+04 0.  0.
        3    1    3    3  502    0 -0.46140514874E+03 -0.42436288565E+03 -0.26194685916E+04  0.26934354054E+04  0.10100000352E+00 0.  1.
       -3    1    3    3    0  502  0.46140514874E+03  0.42436288565E+03  0.12353322407E+03  0.63893586349E+03  0.10100000352E+00 0. -1.
</event>
<event>
 5   0  0.6337926E-05  0.2378471E+04  0.7818609E-02  0.8447608E-01
       -2   -1    0    0    0  501  0.00000000000E+00  0.00000000000E+00  0.13067774660E+04  0.13067774660E+04  0.25500000920E-02 0. -1.
        2   -1    0    0  501    0  0.00000000000E+00  0.00000000000E+00 -0.10822666421E+04  0.10822666421E+04  0.25500000920E-02 0.  1.
    10030    2    1    2    0    0  0.00000000000E+00  0.00000000000E+00  0.22451082390E+03  0.23890441081E+04  0.23784714924E+04 0.  0.
        1    1    3    3  502    0  0.22852237218E+03 -0.63860905741E+03  0.10934485293E+04  0.12867298431E+04  0.50400001928E-02 0. -1.
       -1    1    3    3    0  502 -0.22852237218E+03  0.63860905741E+03 -0.86893770545E+03  0.11023142650E+04  0.50400001928E-02 0.  1.
</event>
<event>
 5   0  0.6600166E-05  0.2461050E+04  0.7818609E-02  0.8416995E-01
        2   -1    0    0  501    0  0.00000000000E+00  0.00000000000E+00  0.26979637596E+04  0.26979637596E+04  0.25500000920E-02 0. -1.
       -2   -1    0    0    0  501  0.00000000000E+00  0.00000000000E+00 -0.56123481202E+03  0.56123481203E+03  0.25500000920E-02 0.  1.
    10030    2    1    2    0    0  0.00000000000E+00  0.00000000000E+00  0.21367289476E+04  0.32591985717E+04  0.24610495188E+04 0.  0.
        5    1    3    3  502    0 -0.16124116846E+03 -0.11978139497E+04  0.13744271570E+04  0.18302538273E+04  0.46999998093E+01 0. -1.
       -5    1    3    3    0  502  0.16124116846E+03  0.11978139497E+04  0.76230179065E+03  0.14289447444E+04  0.46999998093E+01 0.  1.
</event>
<event>
 5   0  0.2943123E-05  0.2412235E+04  0.7818609E-02  0.8434937E-01
       -1   -1    0    0    0  501  0.00000000000E+00  0.00000000000E+00  0.12576023650E+04  0.12576023650E+04  0.50400001928E-02 0.  1.
        1   -1    0    0  501    0  0.00000000000E+00  0.00000000000E+00 -0.11567408258E+04  0.11567408258E+04  0.50400001928E-02 0. -1.
    10030    2    1    2    0    0  0.00000000000E+00  0.00000000000E+00  0.10086153918E+03  0.24143431908E+04  0.24122354762E+04 0.  0.
        1    1    3    3  502    0 -0.75634339571E+03  0.45290708831E+02  0.98966076234E+03  0.12464088435E+04  0.50400001928E-02 0.  1.
       -1    1    3    3    0  502  0.75634339571E+03 -0.45290708831E+02 -0.88879922316E+03  0.11679343473E+04  0.50400001928E-02 0. -1.
</event>
<event>
 5   0  0.2901816E-05  0.2440353E+04  0.7818609E-02  0.8424548E-01
       -1   -1    0    0    0  501  0.00000000000E+00  0.00000000000E+00  0.87045022655E+03  0.87045022656E+03  0.50400001928E-02 0.  1.
        1   -1    0    0  501    0  0.00000000000E+00  0.00000000000E+00 -0.17104151570E+04  0.17104151570E+04  0.50400001928E-02 0. -1.
    10030    2    1    2    0    0  0.00000000000E+00  0.00000000000E+00 -0.83996493042E+03  0.25808653835E+04  0.24403534669E+04 0.  0.
        4    1    3    3  502    0  0.70330051311E+03  0.84465302891E+03 -0.98035867637E+03  0.14728119697E+04  0.12699999809E+01 0. -1.
       -4    1    3    3    0  502 -0.70330051311E+03 -0.84465302891E+03  0.14039374595E+03  0.11080534138E+04  0.12699999809E+01 0.  1.
</event>
<event>
 5   0  0.2901816E-05  0.2714621E+04  0.7818609E-02  0.8330276E-01
        1   -1    0    0  501    0  0.00000000000E+00  0.00000000000E+00  0.11297436763E+04  0.11297436763E+04  0.50400001928E-02 0.  1.
       -1   -1    0    0    0  501  0.00000000000E+00  0.00000000000E+00 -0.16307171920E+04  0.16307171920E+04  0.50400001928E-02 0. -1.
    10030    2    1    2    0    0  0.00000000000E+00  0.00000000000E+00 -0.50097351569E+03  0.27604608683E+04  0.27146214730E+04 0.  0.
        4    1    3    3  502    0  0.42224302059E+03 -0.12377087048E+04  0.11907659503E+03  0.13131613971E+04  0.12699999809E+01 0.  1.
       -4    1    3    3    0  502 -0.42224302059E+03  0.12377087048E+04 -0.62005011072E+03  0.14472994711E+04  0.12699999809E+01 0. -1.
</event>
<event>
 5   0  0.6703961E-05  0.2393493E+04  0.7818609E-02  0.8441944E-01
        2   -1    0    0  501    0  0.00000000000E+00  0.00000000000E+00  0.84257189673E+03  0.84257189673E+03  0.25500000920E-02 0. -1.
       -2   -1    0    0    0  501  0.00000000000E+00  0.00000000000E+00 -0.16997978744E+04  0.16997978744E+04  0.25500000920E-02 0.  1.
    10030    2    1    2    0    0  0.00000000000E+00  0.00000000000E+00 -0.85722597771E+03  0.25423697712E+04  0.23934927776E+04 0.  0.
        2    1    3    3  502    0  0.98002451520E+03 -0.29832357006E+03  0.22854246764E+03  0.10496078612E+04  0.25500000920E-02 0. -1.
       -2    1    3    3    0  502 -0.98002451520E+03  0.29832357006E+03 -0.10857684453E+04  0.14927619099E+04  0.25500000920E-02 0.  1.
</event>
<event>
 5   0  0.6703961E-05  0.2375103E+04  0.7818609E-02  0.8448884E-01
        2   -1    0    0  501    0  0.00000000000E+00  0.00000000000E+00  0.10797804918E+04  0.10797804918E+04  0.25500000920E-02 0.  1.
       -2   -1    0    0    0  501  0.00000000000E+00  0.00000000000E+00 -0.13060790398E+04  0.13060790398E+04  0.25500000920E-02 0. -1.
    10030    2    1    2    0    0  0.00000000000E+00  0.00000000000E+00 -0.22629854795E+03  0.23858595316E+04  0.23751030865E+04 0.  0.
        2    1    3    3  502    0 -0.10969736820E+04 -0.21801113197E+03  0.28790633750E+03  0.11548896795E+04  0.25500000920E-02 0.  1.
       -2    1    3    3    0  502  0.10969736820E+04  0.21801113197E+03 -0.51420488545E+03  0.12309698521E+04  0.25500000920E-02 0. -1.
</event>
<event>
 5   0  0.6978115E-05  0.2299415E+04  0.7818609E-02  0.8478152E-01
       -2   -1    0    0    0  501  0.00000000000E+00  0.00000000000E+00  0.15115154538E+04  0.15115154538E+04  0.25500000920E-02 0.  1.
        2   -1    0    0  501    0  0.00000000000E+00  0.00000000000E+00 -0.87450449049E+03  0.87450449049E+03  0.25500000920E-02 0. -1.
    10030    2    1    2    0    0  0.00000000000E+00  0.00000000000E+00  0.63701096332E+03  0.23860199443E+04  0.22994147532E+04 0.  0.
        4    1    3    3  502    0 -0.46895549747E+03  0.48525417541E+02 -0.76958381097E+03  0.90251583352E+03  0.12699999809E+01 0. -1.
       -4    1    3    3    0  502  0.46895549747E+03 -0.48525417541E+02  0.14065947743E+04  0.14835041108E+04  0.12699999809E+01 0.  1.
</event>
<event>
 5   0  0.6600166E-05  0.2396943E+04  0.7818609E-02  0.8440649E-01
       -2   -1    0    0    0  501  0.00000000000E+00  0.00000000000E+00  0.68701713608E+03  0.68701713609E+03  0.25500000920E-02 0. -1.
        2   -1    0    0  501    0  0.00000000000E+00  0.00000000000E+00 -0.20906807134E+04  0.20906807134E+04  0.25500000920E-02 0.  1.
    10030    2    1    2    0    0  0.00000000000E+00  0.00000000000E+00 -0.14036635773E+04  0.27776978495E+04  0.23969426161E+04 0.  0.
        5    1    3    3  502    0  0.47884143558E+03 -0.10234778479E+04 -0.11646693756E+04  0.16227362294E+04  0.46999998093E+01 0. -1.
       -5    1    3    3    0  502 -0.47884143558E+03  0.10234778479E+04 -0.23899420172E+03  0.11549616202E+04  0.46999998093E+01 0.  1.
</event>
<event>
 5   0  0.6703961E-05  0.2190386E+04  0.7818609E-02  0.8522440E-01
       -2   -1    0    0    0  501  0.00000000000E+00  0.00000000000E+00  0.80249692394E+03  0.80249692395E+03  0.25500000920E-02 0. -1.
        2   -1    0    0  501    0  0.00000000000E+00  0.00000000000E+00 -0.14946446718E+04  0.14946446718E+04  0.25500000920E-02 0.  1.
    10030    2    1    2    0    0  0.00000000000E+00  0.00000000000E+00 -0.69214774788E+03  0.22971415958E+04  0.21903860404E+04 0.  0.
        2    1    3    3  502    0 -0.16001619094E+02  0.11147813567E+03 -0.14885558156E+04  0.14928100491E+04  0.25500000920E-02 0.  1.
       -2    1    3    3    0  502  0.16001619094E+02 -0.11147813567E+03  0.79640806775E+03  0.80433154664E+03  0.25500000920E-02 0. -1.
</event>
<event>
 5   0  0.6337926E-05  0.2353156E+04  0.7818609E-02  0.8457252E-01
       -2   -1    0    0    0  501  0.00000000000E+00  0.00000000000E+00  0.44752153467E+03  0.44752153468E+03  0.25500000920E-02 0. -1.
        2   -1    0    0  501    0  0.00000000000E+00  0.00000000000E+00 -0.30933392144E+04  0.30933392144E+04  0.25500000920E-02 0.  1.
    10030    2    1    2    0    0  0.00000000000E+00  0.00000000000E+00 -0.26458176797E+04  0.35408607491E+04  0.23531561040E+04 0.  0.
        1    1    3    3  502    0 -0.14326949078E+02 -0.25551311650E+03  0.40513506890E+03  0.47919373770E+03  0.50400001928E-02 0. -1.
       -1    1    3    3    0  502  0.14326949078E+02  0.25551311650E+03 -0.30509527486E+04  0.30616670114E+04  0.50400001928E-02 0.  1.
</event>
<event>
 5   0  0.6978115E-05  0.2147795E+04  0.7818609E-02  0.8540477E-01
       -2   -1    0    0    0  501  0.00000000000E+00  0.00000000000E+00  0.11721737145E+04  0.11721737145E+04  0.25500000920E-02 0. -1.
        2   -1    0    0  501    0  0.00000000000E+00  0.00000000000E+00 -0.98386054602E+03  0.98386054603E+03  0.25500000920E-02 0.  1.
    10030    2    1    2    0    0  0.00000000000E+00  0.00000000000E+00  0.18831316847E+03  0.21560342605E+04  0.21477946557E+04 0.  0.
        4    1    3    3  502    0  0.70285316371E+01  0.81206856024E+03 -0.61121191976E+03  0.10164085648E+04  0.12699999809E+01 0.  1.
       -4    1    3    3    0  502 -0.70285316371E+01 -0.81206856024E+03  0.79952508823E+03  0.11396256957E+04  0.12699999809E+01 0. -1.
</event>
<event>
 5   0  0.6978115E-05  0.2386728E+04  0.7818609E-02  0.8444489E-01
       -2   -1    0    0    0  501  0.00000000000E+00  0.00000000000E+00  0.12502217904E+04  0.12502217904E+04  0.25500000920E-02 0. -1.
        2   -1    0    0  501    0  0.00000000000E+00  0.00000000000E+00 -0.11390920495E+04  0.11390920495E+04  0.25500000920E-02 0.  1.
    10030    2    1    2    0    0  0.00000000000E+00  0.00000000000E+00  0.11112974090E+03  0.23893138400E+04  0.23867280546E+04 0.  0.
        4    1    3    3  502    0 -0.59472328947E+03 -0.47652355663E+03  0.97489829843E+03  0.12374161775E+04  0.12699999809E+01 0. -1.
       -4    1    3    3    0  502  0.59472328947E+03  0.47652355663E+03 -0.86376855753E+03  0.11518976625E+04  0.12699999809E+01 0.  1.
</event>
<event>
 5   0  0.6600166E-05  0.2416332E+04  0.7818609E-02  0.8433414E-01
       -2   -1    0    0    0  501  0.00000000000E+00  0.00000000000E+00  0.74334294640E+03  0.74334294641E+03  0.25500000920E-02 0. -1.
        2   -1    0    0  501    0  0.00000000000E+00  0.00000000000E+00 -0.19636493626E+04  0.19636493626E+04  0.25500000920E-02 0.  1.
    10030    2    1    2    0    0  0.00000000000E+00  0.00000000000E+00 -0.12203064162E+04  0.27069923090E+04  0.24163318505E+04 0.  0.
        5    1    3    3  502    0 -0.86461295644E+03 -0.84298487864E+03 -0.56729215453E+03  0.13341744821E+04  0.46999998093E+01 0. -1.
       -5    1    3    3    0  502  0.86461295644E+03  0.84298487864E+03 -0.65301426170E+03  0.13728178270E+04  0.46999998093E+01 0.  1.
</event>
<event>
 5   0  0.2901816E-05  0.2312609E+04  0.7818609E-02  0.8472966E-01
       -1   -1    0    0    0  501  0.00000000000E+00  0.00000000000E+00  0.83722987160E+03  0.83722987161E+03  0.50400001928E-02 0. -1.
        1   -1    0    0  501    0  0.00000000000E+00  0.00000000000E+00 -0.15969810435E+04  0.15969810435E+04  0.50400001928E-02 0.  1.
    10030    2    1    2    0    0  0.00000000000E+00  0.00000000000E+00 -0.75975117192E+03  0.24342109151E+04  0.23126091188E+04 0.  0.
        4    1    3    3  502    0 -0.95861458535E+03  0.16379511830E+03 -0.10382804910E+04  0.14226028099E+04  0.12699999809E+01 0.  1.
       -4    1    3    3    0  502  0.95861458535E+03 -0.16379511830E+03  0.27852931905E+03  0.10116081052E+04  0.12699999809E+01 0. -1.
</event>
<event>
 5   0  0.6600166E-05  0.1656279E+04  0.7818609E-02  0.8786701E-01
       -2   -1    0    0    0  501  0.00000000000E+00  0.00000000000E+00  0.86242253718E+03  0.86242253718E+03  0.25500000920E-02 0. -1.
        2   -1    0    0  501    0  0.00000000000E+00  0.00000000000E+00 -0.79521885016E+03  0.79521885016E+03  0.25500000920E-02 0.  1.
    10030    2    1    2    0    0  0.00000000000E+00  0.00000000000E+00  0.67203687016E+02  0.16576413873E+04  0.16562785495E+04 0.  0.
        5    1    3    3  502    0  0.82543710466E+03 -0.42691127057E+02 -0.17661609973E+02  0.82674238342E+03  0.46999998093E+01 0.  1.
       -5    1    3    3    0  502 -0.82543710466E+03  0.42691127057E+02  0.84865296989E+02  0.83089900392E+03  0.46999998093E+01 0. -1.
</event>
<event>
 5   0  0.6714629E-05  0.2466814E+04  0.7818609E-02  0.8414904E-01
       -2   -1    0    0    0  501  0.00000000000E+00  0.00000000000E+00  0.16024587001E+04  0.16024587001E+04  0.25500000920E-02 0. -1.
        2   -1    0    0  501    0  0.00000000000E+00  0.00000000000E+00 -0.94934936520E+03  0.94934936520E+03  0.25500000920E-02 0.  1.
    10030    2    1    2    0    0  0.00000000000E+00  0.00000000000E+00  0.65310933487E+03  0.25518080653E+04  0.24668142611E+04 0.  0.
        3    1    3    3  502    0  0.45539770250E+03  0.67530007876E+03  0.12846832208E+04  0.15211272964E+04  0.10100000352E+00 0. -1.
       -3    1    3    3    0  502 -0.45539770250E+03 -0.67530007876E+03 -0.63157388591E+03  0.10306807689E+04  0.10100000352E+00 0.  1.
</event>
<event>
 5   0  0.6600166E-05  0.1902248E+04  0.7818609E-02  0.8653738E-01
        2   -1    0    0  501    0  0.00000000000E+00  0.00000000000E+00  0.13337823443E+04  0.13337823443E+04  0.25500000920E-02 0. -1.
       -2   -1    0    0    0  501  0.00000000000E+00  0.00000000000E+00 -0.67824907850E+03  0.67824907850E+03  0.25500000920E-02 0.  1.
    10030    2    1    2    0    0  0.00000000000E+00  0.00000000000E+00  0.65553326580E+03  0.20120314228E+04  0.19022477714E+04 0.  0.
        5    1    3    3  502    0  0.71314532586E+02  0.33151307616E+03  0.12676607045E+04  0.13122394727E+04  0.46999998093E+01 0. -1.
       -5    1    3    3    0  502 -0.71314532586E+02 -0.33151307616E+03 -0.61212743865E+03  0.69979195006E+03  0.46999998093E+01 0.  1.
</event>
<event>
 5   0  0.2943123E-05  0.2391988E+04  0.7818609E-02  0.8442509E-01
        1   -1    0    0  501    0  0.00000000000E+00  0.00000000000E+00  0.11848115457E+04  0.11848115458E+04  0.50400001928E-02 0.  1.
       -1   -1    0    0    0  501  0.00000000000E+00  0.00000000000E+00 -0.12072818464E+04  0.12072818464E+04  0.50400001928E-02 0. -1.
    10030    2    1    2    0    0  0.00000000000E+00  0.00000000000E+00 -0.22470300622E+02  0.23920933921E+04  0.23919878516E+04 0.  0.
        1    1    3    3  502    0 -0.30023947738E+03 -0.66490880412E+03 -0.95898684160E+03  0.12049494695E+04  0.50400001928E-02 0. -1.
       -1    1    3    3    0  502  0.30023947738E+03  0.66490880412E+03  0.93651654098E+03  0.11871439227E+04  0.50400001928E-02 0.  1.
</event>
<event>
 5   0  0.2847158E-05  0.2264734E+04  0.7818609E-02  0.8491957E-01
        1   -1    0    0  501    0  0.00000000000E+00  0.00000000000E+00  0.80505669006E+03  0.80505669008E+03  0.50400001928E-02 0. -1.
       -1   -1    0    0    0  501  0.00000000000E+00  0.00000000000E+00 -0.15927511206E+04  0.15927511206E+04  0.50400001928E-02 0.  1.
    10030    2    1    2    0    0  0.00000000000E+00  0.00000000000E+00 -0.78769443052E+03  0.23978078107E+04  0.22647339316E+04 0.  0.
        5    1    3    3  502    0 -0.64766226204E+03  0.85793884785E+03 -0.16971508429E+02  0.10750979464E+04  0.46999998093E+01 0. -1.
       -5    1    3    3    0  502  0.64766226204E+03 -0.85793884785E+03 -0.77072292210E+03  0.13227098642E+04  0.46999998093E+01 0.  1.
</event>
<event>
 5   0  0.2847158E-05  0.2322791E+04  0.7818609E-02  0.8468989E-01
        1   -1    0    0  501    0  0.00000000000E+00  0.00000000000E+00  0.97638707851E+03  0.97638707852E+03  0.50400001928E-02 0. -1.
       -1   -1    0    0    0  501  0.00000000000E+00  0.00000000000E+00 -0.13814592325E+04  0.13814592325E+04  0.50400001928E-02 0.  1.
    10030    2    1    2    0    0  0.00000000000E+00  0.00000000000E+00 -0.40507215399E+03  0.23578463110E+04  0.23227905150E+04 0.  0.
        5    1    3    3  502    0 -0.26974389214E+02  0.32755722779E+03  0.92818517354E+03  0.98466804636E+03  0.46999998093E+01 0. -1.
       -5    1    3    3    0  502  0.26974389214E+02 -0.32755722779E+03 -0.13332573275E+04  0.13731782647E+04  0.46999998093E+01 0.  1.
</event>
<event>
 5   0  0.6337926E-05  0.1886374E+04  0.7818609E-02  0.8661669E-01
       -2   -1    0    0    0  501  0.00000000000E+00  0.00000000000E+00  0.43035205206E+03  0.43035205206E+03  0.25500000920E-02 0.  1.
        2   -1    0    0  501    0  0.00000000000E+00  0.00000000000E+00 -0.20671495033E+04  0.20671495033E+04  0.25500000920E-02 0. -1.
    10030    2    1    2    0    0  0.00000000000E+00  0.00000000000E+00 -0.16367974513E+04  0.24975015554E+04  0.18863743326E+04 0.  0.
        1    1    3    3  502    0  0.69422937144E+03 -0.43103335984E+03 -0.14420119152E+04  0.16574506149E+04  0.50400001928E-02 0. -1.
       -1    1    3    3    0  502 -0.69422937144E+03  0.43103335984E+03 -0.19478553612E+03  0.84005094047E+03  0.50400001928E-02 0.  1.
</event>
<event>
 5   0  0.6337926E-05  0.2428641E+04  0.7818609E-02  0.8428858E-01
        2   -1    0    0  501    0  0.00000000000E+00  0.00000000000E+00  0.12123572275E+04  0.12123572275E+04  0.25500000920E-02 0. -1.
       -2   -1    0    0    0  501  0.00000000000E+00  0.00000000000E+00 -0.12162869706E+04  0.12162869706E+04  0.25500000920E-02 0.  1.
    10030    2    1    2    0    0  0.00000000000E+00  0.00000000000E+00 -0.39297431752E+01  0.24286441981E+04  0.24286410188E+04 0.  0.
        1    1    3    3  502    0  0.33568990124E+03 -0.17611428369E+03 -0.11555999236E+04  0.12161887741E+04  0.50400001928E-02 0.  1.
       -1    1    3    3    0  502 -0.33568990124E+03  0.17611428369E+03  0.11516701804E+04  0.12124554240E+04  0.50400001928E-02 0. -1.
</event>
<event>
 5   0  0.2901816E-05  0.2499634E+04  0.7818609E-02  0.8403116E-01
        1   -1    0    0  501    0  0.00000000000E+00  0.00000000000E+00  0.14766693700E+04  0.14766693700E+04  0.50400001928E-02 0.  1.
       -1   -1    0    0    0  501  0.00000000000E+00  0.00000000000E+00 -0.10578144058E+04  0.10578144059E+04  0.50400001928E-02 0. -1.
    10030    2    1    2    0    0  0.00000000000E+00  0.00000000000E+00  0.41885496414E+03  0.25344837758E+04  0.24996336790E+04 0.  0.
        4    1    3    3  502    0  0.36074081956E+03 -0.77161237743E+03 -0.71793933301E+03  0.11139829885E+04  0.12699999809E+01 0. -1.
       -4    1    3    3    0  502 -0.36074081956E+03  0.77161237743E+03  0.11367942971E+04  0.14205007873E+04  0.12699999809E+01 0.  1.
</event>
<event>
 5   0  0.6703961E-05  0.2381101E+04  0.7818609E-02  0.8446613E-01
       -2   -1    0    0    0  501  0.00000000000E+00  0.00000000000E+00  0.68160302767E+03  0.68160302767E+03  0.25500000920E-02 0.  1.
        2   -1    0    0  501    0  0.00000000000E+00  0.00000000000E+00 -0.20795252819E+04  0.20795252819E+04  0.25500000920E-02 0. -1.
    10030    2    1    2    0    0  0.00000000000E+00  0.00000000000E+00 -0.13979222543E+04  0.27611283096E+04  0.23811011976E+04 0.  0.
        2    1    3    3  502    0  0.15613161447E+03 -0.54244050335E+02  0.66823363868E+03  0.68837177012E+03  0.25500000920E-02 0.  1.
       -2    1    3    3    0  502 -0.15613161447E+03  0.54244050335E+02 -0.20661558929E+04  0.20727565395E+04  0.25500000920E-02 0. -1.
</event>
<event>
 5   0  0.2339125E-05  0.2391209E+04  0.7818609E-02  0.8442802E-01
       -3   -1    0    0    0  501  0.00000000000E+00  0.00000000000E+00  0.14304966733E+04  0.14304966769E+04  0.10100000352E+00 0. -1.
        3   -1    0    0  501    0  0.00000000000E+00  0.00000000000E+00 -0.99928251922E+03  0.99928252432E+03  0.10100000352E+00 0.  1.
    10030    2    1    2    0    0  0.00000000000E+00  0.00000000000E+00  0.43121415409E+03  0.24297792012E+04  0.23912091753E+04 0.  0.
        4    1    3    3  502    0  0.56708782915E+03 -0.91800347847E+03  0.73883972171E+03  0.13077479649E+04  0.12699999809E+01 0. -1.
       -4    1    3    3    0  502 -0.56708782915E+03  0.91800347847E+03 -0.30762556762E+03  0.11220312363E+04  0.12699999809E+01 0.  1.
</event>
<event>
 5   0  0.6600166E-05  0.2392005E+04  0.7818609E-02  0.8442503E-01
        2   -1    0    0  501    0  0.00000000000E+00  0.00000000000E+00  0.17552724740E+04  0.17552724740E+04  0.25500000920E-02 0.  1.
       -2   -1    0    0    0  501  0.00000000000E+00  0.00000000000E+00 -0.81492840167E+03  0.81492840167E+03  0.25500000920E-02 0. -1.
    10030    2    1    2    0    0  0.00000000000E+00  0.00000000000E+00  0.94034407234E+03  0.25702008757E+04  0.23920045081E+04 0.  0.
        5    1    3    3  502    0 -0.52461287630E+03 -0.27645188367E+03  0.15861779135E+04  0.16934068552E+04  0.46999998093E+01 0.  1.
       -5    1    3    3    0  502  0.52461287630E+03  0.27645188367E+03 -0.64583384117E+03  0.87679402048E+03  0.46999998093E+01 0. -1.
</event>
<event>
 5   0  0.6600166E-05  0.2425799E+04  0.7818609E-02  0.8429907E-01
        2   -1    0    0  501    0  0.00000000000E+00  0.00000000000E+00  0.20765965697E+04  0.20765965697E+04  0.25500000920E-02 0. -1.
       -2   -1    0    0    0  501  0.00000000000E+00  0.00000000000E+00 -0.70843111139E+03  0.70843111139E+03  0.25500000920E-02 0.  1.
    10030    2    1    2    0    0  0.00000000000E+00  0.00000000000E+00  0.13681654583E+04  0.27850276811E+04  0.24257993452E+04 0.  0.
        5    1    3    3  502    0 -0.42789968457E+02  0.23294251278E+03 -0.68161455826E+03  0.72160494157E+03  0.46999998093E+01 0.  1.
       -5    1    3    3    0  502  0.42789968457E+02 -0.23294251278E+03  0.20497800166E+04  0.20634227395E+04  0.46999998093E+01 0. -1.
</event>
<event>
 5   0  0.2943123E-05  0.2406846E+04  0.7818609E-02  0.8436945E-01
        1   -1    0    0  501    0  0.00000000000E+00  0.00000000000E+00  0.18571637443E+04  0.18571637443E+04  0.50400001928E-02 0.  1.
       -1   -1    0    0    0  501  0.00000000000E+00  0.00000000000E+00 -0.77980571279E+03  0.77980571281E+03  0.50400001928E-02 0. -1.
    10030    2    1    2    0    0  0.00000000000E+00  0.00000000000E+00  0.10773580315E+04  0.26369694571E+04  0.24068459838E+04 0.  0.
        1    1    3    3  502    0 -0.70930907235E+03 -0.32098529164E+03 -0.46670607115E+03  0.90772544001E+03  0.50400001928E-02 0. -1.
       -1    1    3    3    0  502  0.70930907235E+03  0.32098529164E+03  0.15440641027E+04  0.17292440171E+04  0.50400001928E-02 0.  1.
</event>
<event>
 5   0  0.2901816E-05  0.2415087E+04  0.7818609E-02  0.8433877E-01
        1   -1    0    0  501    0  0.00000000000E+00  0.00000000000E+00  0.18223776438E+04  0.18223776438E+04  0.50400001928E-02 0. -1.
       -1   -1    0    0    0  501  0.00000000000E+00  0.00000000000E+00 -0.80014241428E+03  0.80014241430E+03  0.50400001928E-02 0.  1.
    10030    2    1    2    0    0  0.00000000000E+00  0.00000000000E+00  0.10222352296E+04  0.26225200581E+04  0.24150872843E+04 0.  0.
        4    1    3    3  502    0  0.90913042779E+03 -0.45161239240E+03  0.12212668022E+04  0.15880699301E+04  0.12699999809E+01 0. -1.
       -4    1    3    3    0  502 -0.90913042779E+03  0.45161239240E+03 -0.19903157264E+03  0.10344501281E+04  0.12699999809E+01 0.  1.
</event>
<event>
 5   0  0.6714629E-05  0.2427609E+04  0.7818609E-02  0.8429239E-01
       -2   -1    0    0    0  501  0.00000000000E+00  0.00000000000E+00  0.15861060266E+04  0.15861060266E+04  0.25500000920E-02 0.  1.
        2   -1    0    0  501    0  0.00000000000E+00  0.00000000000E+00 -0.92889242137E+03  0.92889242137E+03  0.25500000920E-02 0. -1.
    10030    2    1    2    0    0  0.00000000000E+00  0.00000000000E+00  0.65721360528E+03  0.25149984480E+04  0.24276094148E+04 0.  0.
        3    1    3    3  502    0  0.62016717434E+03 -0.33254385279E+03  0.13532130566E+04  0.15252469718E+04  0.10100000352E+00 0.  1.
       -3    1    3    3    0  502 -0.62016717434E+03  0.33254385279E+03 -0.69599945136E+03  0.98975147621E+03  0.10100000352E+00 0. -1.
</event>
<event>
 5   0  0.6337926E-05  0.2386689E+04  0.7818609E-02  0.8444504E-01
        2   -1    0    0  501    0  0.00000000000E+00  0.00000000000E+00  0.21521080664E+04  0.21521080664E+04  0.25500000920E-02 0.  1.
       -2   -1    0    0    0  501  0.00000000000E+00  0.00000000000E+00 -0.66170999813E+03  0.66170999814E+03  0.25500000920E-02 0. -1.
    10030    2    1    2    0    0  0.00000000000E+00  0.00000000000E+00  0.14903980683E+04  0.28138180645E+04  0.23866892756E+04 0.  0.
        1    1    3    3  502    0  0.96310636621E+03  0.23927037131E+03  0.15265652923E+04  0.18207761463E+04  0.50400001928E-02 0. -1.
       -1    1    3    3    0  502 -0.96310636621E+03 -0.23927037131E+03 -0.36167224063E+02  0.99304191822E+03  0.50400001928E-02 0.  1.
</event>
<event>
 5   0  0.6600166E-05  0.2808239E+04  0.7818609E-02  0.8300715E-01
       -2   -1    0    0    0  501  0.00000000000E+00  0.00000000000E+00  0.83917966544E+03  0.83917966545E+03  0.25500000920E-02 0.  1.
        2   -1    0    0  501    0  0.00000000000E+00  0.00000000000E+00 -0.23493803516E+04  0.23493803516E+04  0.25500000920E-02 0. -1.
    10030    2    1    2    0    0  0.00000000000E+00  0.00000000000E+00 -0.15102006861E+04  0.31885600170E+04  0.28082394609E+04 0.  0.
        5    1    3    3  502    0 -0.93223876502E+03 -0.95411957683E+03 -0.12527723140E+04  0.18299928532E+04  0.46999998093E+01 0. -1.
       -5    1    3    3    0  502  0.93223876502E+03  0.95411957683E+03 -0.25742837209E+03  0.13585671638E+04  0.46999998093E+01 0.  1.
</event>
<event>
 5   0  0.2339125E-05  0.2222677E+04  0.7818609E-02  0.8509048E-01
       -4   -1    0    0    0  501  0.00000000000E+00  0.00000000000E+00  0.98202939591E+03  0.98203021712E+03  0.12699999809E+01 0. -1.
        4   -1    0    0  501    0  0.00000000000E+00  0.00000000000E+00 -0.12576728122E+04  0.12576734534E+04  0.12699999809E+01 0.  1.
    10030    2    1    2    0    0  0.00000000000E+00  0.00000000000E+00 -0.27564341630E+03  0.22397036705E+04  0.22226770433E+04 0.  0.
        2    1    3    3  502    0  0.39325029890E+03  0.39344462700E+03  0.83164441105E+03  0.10005383044E+04  0.25500000920E-02 0. -1.
       -2    1    3    3    0  502 -0.39325029890E+03 -0.39344462700E+03 -0.11072878273E+04  0.12391653662E+04  0.25500000920E-02 0.  1.
</event>
<event>
 5   0  0.6714629E-05  0.2360851E+04  0.7818609E-02  0.8454308E-01
        2   -1    0    0  501    0  0.00000000000E+00  0.00000000000E+00  0.20996169762E+04  0.20996169762E+04  0.25500000920E-02 0. -1.
       -2   -1    0    0    0  501  0.00000000000E+00  0.00000000000E+00 -0.66364684165E+03  0.66364684166E+03  0.25500000920E-02 0.  1.
    10030    2    1    2    0    0  0.00000000000E+00  0.00000000000E+00  0.14359701345E+04  0.27632638179E+04  0.23608508423E+04 0.  0.
        3    1    3    3  502    0  0.78509625640E+03  0.64885993921E+03  0.19617318463E+02  0.10187149758E+04  0.10100000352E+00 0.  1.
       -3    1    3    3    0  502 -0.78509625640E+03 -0.64885993921E+03  0.14163528161E+04  0.17445488421E+04  0.10100000352E+00 0. -1.
</event>
<event>
 5   0  0.6978115E-05  0.2352001E+04  0.7818609E-02  0.8457695E-01
       -2   -1    0    0    0  501  0.00000000000E+00  0.00000000000E+00  0.10620910867E+04  0.10620910867E+04  0.25500000920E-02 0. -1.
        2   -1    0    0  501    0  0.00000000000E+00  0.00000000000E+00 -0.13021270355E+04  0.13021270355E+04  0.25500000920E-02 0.  1.
    10030    2    1    2    0    0  0.00000000000E+00  0.00000000000E+00 -0.24003594878E+03  0.23642181222E+04  0.23520012909E+04 0.  0.
        4    1    3    3  502    0 -0.56886354926E+03 -0.28398535289E+03  0.87442473816E+03  0.10811446036E+04  0.12699999809E+01 0. -1.
       -4    1    3    3    0  502  0.56886354926E+03  0.28398535289E+03 -0.11144606869E+04  0.12830735185E+04  0.12699999809E+01 0.  1.
</event>
<event>
 5   0  0.2847158E-05  0.2462980E+04  0.7818609E-02  0.8416294E-01
       -1   -1    0    0    0  501  0.00000000000E+00  0.00000000000E+00  0.75741475892E+03  0.75741475893E+03  0.50400001928E-02 0.  1.
        1   -1    0    0  501    0  0.00000000000E+00  0.00000000000E+00 -0.20022946593E+04  0.20022946594E+04  0.50400001928E-02 0. -1.
    10030    2    1    2    0    0  0.00000000000E+00  0.00000000000E+00 -0.12448799004E+04  0.27597094183E+04  0.24629799242E+04 0.  0.
        5    1    3    3  502    0 -0.98129964028E+03 -0.55811286278E+03 -0.11737624227E+04  0.16285512785E+04  0.46999998093E+01 0. -1.
       -5    1    3    3    0  502  0.98129964028E+03  0.55811286278E+03 -0.71117477682E+02  0.11311581398E+04  0.46999998093E+01 0.  1.
</event>
<event>
 5   0  0.6714629E-05  0.2404076E+04  0.7818609E-02  0.8437979E-01
       -2   -1    0    0    0  501  0.00000000000E+00  0.00000000000E+00  0.65748859626E+03  0.65748859627E+03  0.25500000920E-02 0.  1.
        2   -1    0    0  501    0  0.00000000000E+00  0.00000000000E+00 -0.21975974233E+04  0.21975974233E+04  0.25500000920E-02 0. -1.
    10030    2    1    2    0    0  0.00000000000E+00  0.00000000000E+00 -0.15401088270E+04  0.28550860196E+04  0.24040759098E+04 0.  0.
        3    1    3    3  502    0 -0.10910005612E+04 -0.44743577046E+03 -0.10470847384E+04  0.15769804858E+04  0.10100000352E+00 0. -1.
       -3    1    3    3    0  502  0.10910005612E+04  0.44743577046E+03 -0.49302408863E+03  0.12781055337E+04  0.10100000352E+00 0.  1.
</event>
<event>
 5   0  0.6978115E-05  0.2406411E+04  0.7818609E-02  0.8437107E-01
        2   -1    0    0  501    0  0.00000000000E+00  0.00000000000E+00  0.30375777044E+04  0.30375777044E+04  0.25500000920E-02 0.  1.
       -2   -1    0    0    0  501  0.00000000000E+00  0.00000000000E+00 -0.47659799751E+03  0.47659799752E+03  0.25500000920E-02 0. -1.
    10030    2    1    2    0    0  0.00000000000E+00  0.00000000000E+00  0.25609797069E+04  0.35141757019E+04  0.24064109801E+04 0.  0.
        4    1    3    3  502    0 -0.34100452362E+03  0.10892050038E+04  0.72431306968E+03  0.13517701954E+04  0.12699999809E+01 0. -1.
       -4    1    3    3    0  502  0.34100452362E+03 -0.10892050038E+04  0.18366666372E+04  0.21624055065E+04  0.12699999809E+01 0.  1.
</event>
<event>
 5   0  0.6337926E-05  0.2374247E+04  0.7818609E-02  0.8449208E-01
       -2   -1    0    0    0  501  0.00000000000E+00  0.00000000000E+00  0.74506145816E+03  0.74506145816E+03  0.25500000920E-02 0. -1.
        2   -1    0    0  501    0  0.00000000000E+00  0.00000000000E+00 -0.18914714099E+04  0.18914714099E+04  0.25500000920E-02 0.  1.
    10030    2    1    2    0    0  0.00000000000E+00  0.00000000000E+00 -0.11464099518E+04  0.26365328681E+04  0.23742472043E+04 0.  0.
        1    1    3    3  502    0  0.80501918282E+03  0.13602009166E+03 -0.15302127299E+04  0.17343899068E+04  0.50400001928E-02 0.  1.
       -1    1    3    3    0  502 -0.80501918282E+03 -0.13602009166E+03  0.38380277815E+03  0.90214296128E+03  0.50400001928E-02 0. -1.
</event>
<event>
 5   0  0.2901816E-05  0.2433027E+04  0.7818609E-02  0.8427241E-01
        1   -1    0    0  501    0  0.00000000000E+00  0.00000000000E+00  0.17402093530E+04  0.17402093530E+04  0.50400001928E-02 0.  1.
       -1   -1    0    0    0  501  0.00000000000E+00  0.00000000000E+00 -0.85041752766E+03  0.85041752767E+03  0.50400001928E-02 0. -1.
    10030    2    1    2    0    0  0.00000000000E+00  0.00000000000E+00  0.88979182536E+03  0.25906268807E+04  0.24330265396E+04 0.  0.
        4    1    3    3  502    0  0.59446875568E+02 -0.11945750185E+04  0.68145708909E+03  0.13765641224E+04  0.12699999809E+01 0. -1.
       -4    1    3    3    0  502 -0.59446875568E+02  0.11945750185E+04  0.20833473627E+03  0.12140627583E+04  0.12699999809E+01 0.  1.
</event>
<event>
 5   0  0.6714629E-05  0.2446878E+04  0.7818609E-02  0.8422159E-01
        2   -1    0    0  501    0  0.00000000000E+00  0.00000000000E+00  0.10683360215E+04  0.10683360215E+04  0.25500000920E-02 0.  1.
       -2   -1    0    0    0  501  0.00000000000E+00  0.00000000000E+00 -0.14010605554E+04  0.14010605554E+04  0.25500000920E-02 0. -1.
    10030    2    1    2    0    0  0.00000000000E+00  0.00000000000E+00 -0.33272453394E+03  0.24693965769E+04  0.24468783865E+04 0.  0.
        3    1    3    3  502    0 -0.52831418906E+03 -0.11014804375E+04 -0.23352100176E+03  0.12437472030E+04  0.10100000352E+00 0. -1.
       -3    1    3    3    0  502  0.52831418906E+03  0.11014804375E+04 -0.99203532176E+02  0.12256493738E+04  0.10100000352E+00 0.  1.
</event>
<event>
 5   0  0.6600166E-05  0.2397107E+04  0.7818609E-02  0.8440588E-01
        2   -1    0    0  501    0  0.00000000000E+00  0.00000000000E+00  0.11765774334E+04  0.11765774334E+04  0.25500000920E-02 0. -1.
       -2   -1    0    0    0  501  0.00000000000E+00  0.00000000000E+00 -0.12209398135E+04  0.12209398135E+04  0.25500000920E-02 0.  1.
    10030    2    1    2    0    0  0.00000000000E+00  0.00000000000E+00 -0.44362380017E+02  0.23975172469E+04  0.23971067828E+04 0.  0.
        5    1    3    3  502    0  0.23161932853E+03 -0.11383828097E+04  0.27273402785E+03  0.11933016696E+04  0.46999998093E+01 0. -1.
       -5    1    3    3    0  502 -0.23161932853E+03  0.11383828097E+04 -0.31709640787E+03  0.12042155773E+04  0.46999998093E+01 0.  1.
</event>
<event>
 5   0  0.2943244E-05  0.2320313E+04  0.7818609E-02  0.8469955E-01
        1   -1    0    0  501    0  0.00000000000E+00  0.00000000000E+00  0.14930487608E+04  0.14930487608E+04  0.50400001928E-02 0. -1.
       -1   -1    0    0    0  501  0.00000000000E+00  0.00000000000E+00 -0.90148648351E+03  0.90148648352E+03  0.50400001928E-02 0.  1.
    10030    2    1    2    0    0  0.00000000000E+00  0.00000000000E+00  0.59156227729E+03  0.23945352443E+04  0.23203131488E+04 0.  0.
        3    1    3    3  502    0  0.12773920218E+03 -0.90086795806E+03 -0.44702289841E+03  0.10137602594E+04  0.10100000352E+00 0. -1.
       -3    1    3    3    0  502 -0.12773920218E+03  0.90086795806E+03  0.10385851757E+04  0.13807749849E+04  0.10100000352E+00 0.  1.
</event>
<event>
 5   0  0.2901816E-05  0.2445058E+04  0.7818609E-02  0.8422825E-01
        1   -1    0    0  501    0  0.00000000000E+00  0.00000000000E+00  0.15167302700E+04  0.15167302700E+04  0.50400001928E-02 0. -1.
       -1   -1    0    0    0  501  0.00000000000E+00  0.00000000000E+00 -0.98539424253E+03  0.98539424254E+03  0.50400001928E-02 0.  1.
    10030    2    1    2    0    0  0.00000000000E+00  0.00000000000E+00  0.53133602749E+03  0.25021245126E+04  0.24450580979E+04 0.  0.
        4    1    3    3  502    0  0.77869953565E+03  0.75317512236E+03 -0.31406074610E+03  0.11279545633E+04  0.12699999809E+01 0.  1.
       -4    1    3    3    0  502 -0.77869953565E+03 -0.75317512236E+03  0.84539677359E+03  0.13741699493E+04  0.12699999809E+01 0. -1.
</event>
<event>
 5   0  0.6978115E-05  0.2492567E+04  0.7818609E-02  0.8405638E-01
       -2   -1    0    0    0  501  0.00000000000E+00  0.00000000000E+00  0.63399995359E+03  0.63399995360E+03  0.25500000920E-02 0. -1.
        2   -1    0    0  501    0  0.00000000000E+00  0.00000000000E+00 -0.24498786099E+04  0.24498786099E+04  0.25500000920E-02 0.  1.
    10030    2    1    2    0    0  0.00000000000E+00  0.00000000000E+00 -0.18158786563E+04  0.30838785635E+04  0.24925672910E+04 0.  0.
        4    1    3    3  502    0 -0.97354140892E+01 -0.10714614678E+04 -0.16954017049E+04  0.20056203552E+04  0.12699999809E+01 0.  1.
       -4    1    3    3    0  502  0.97354140892E+01  0.10714614678E+04 -0.12047695145E+03  0.10782582084E+04  0.12699999809E+01 0. -1.
</event>
<event>
 5   0  0.2943244E-05  0.2349236E+04  0.7818609E-02  0.8458757E-01
       -1   -1    0    0    0  501  0.00000000000E+00  0.00000000000E+00  0.12166679710E+04  0.12166679710E+04  0.50400001928E-02 0. -1.
        1   -1    0    0  501    0  0.00000000000E+00  0.00000000000E+00 -0.11340217350E+04  0.11340217350E+04  0.50400001928E-02 0.  1.
    10030    2    1    2    0    0  0.00000000000E+00  0.00000000000E+00  0.82646236026E+02  0.23506897061E+04  0.23492364066E+04 0.  0.
        3    1    3    3  502    0  0.52819178641E+03  0.12544478602E+03 -0.10009569769E+04  0.11387000647E+04  0.10100000352E+00 0.  1.
       -3    1    3    3    0  502 -0.52819178641E+03 -0.12544478602E+03  0.10836032129E+04  0.12119896414E+04  0.10100000352E+00 0. -1.
</event>
<event>
 5   0  0.6600166E-05  0.2141868E+04  0.7818609E-02  0.8543021E-01
       -2   -1    0    0    0  501  0.00000000000E+00  0.00000000000E+00  0.89821832061E+03  0.89821832062E+03  0.25500000920E-02 0. -1.
        2   -1    0    0  501    0  0.00000000000E+00  0.00000000000E+00 -0.12768603894E+04  0.12768603894E+04  0.25500000920E-02 0.  1.
    10030    2    1    2    0    0  0.00000000000E+00  0.00000000000E+00 -0.37864206875E+03  0.21750787100E+04  0.21418677780E+04 0.  0.
        5    1    3    3  502    0 -0.19791503611E+03 -0.10521523277E+04 -0.21584930590E+03  0.10921574498E+04  0.46999998093E+01 0.  1.
       -5    1    3    3    0  502  0.19791503611E+03  0.10521523277E+04 -0.16279276285E+03  0.10829212602E+04  0.46999998093E+01 0. -1.
</event>
<event>
 5   0  0.6703961E-05  0.2378593E+04  0.7818609E-02  0.8447562E-01
        2   -1    0    0  501    0  0.00000000000E+00  0.00000000000E+00  0.17874781814E+04  0.17874781814E+04  0.25500000920E-02 0. -1.
       -2   -1    0    0    0  501  0.00000000000E+00  0.00000000000E+00 -0.79129712615E+03  0.79129712615E+03  0.25500000920E-02 0.  1.
    10030    2    1    2    0    0  0.00000000000E+00  0.00000000000E+00  0.99618105528E+03  0.25787753076E+04  0.23785931540E+04 0.  0.
        2    1    3    3  502    0  0.66221315114E+03 -0.85472675624E+03  0.10350970018E+04  0.14968332868E+04  0.25500000920E-02 0. -1.
       -2    1    3    3    0  502 -0.66221315114E+03  0.85472675624E+03 -0.38915946547E+02  0.10819420208E+04  0.25500000920E-02 0.  1.
</event>
<event>
 5   0  0.6600166E-05  0.2336284E+04  0.7818609E-02  0.8463751E-01
        2   -1    0    0  501    0  0.00000000000E+00  0.00000000000E+00  0.15998192791E+04  0.15998192791E+04  0.25500000920E-02 0.  1.
       -2   -1    0    0    0  501  0.00000000000E+00  0.00000000000E+00 -0.85294400584E+03  0.85294400585E+03  0.25500000920E-02 0. -1.
    10030    2    1    2    0    0  0.00000000000E+00  0.00000000000E+00  0.74687527324E+03  0.24527632849E+04  0.23362844557E+04 0.  0.
        5    1    3    3  502    0  0.65541148229E+03  0.55186168285E+03 -0.46013690505E+03  0.97255518583E+03  0.46999998093E+01 0. -1.
       -5    1    3    3    0  502 -0.65541148229E+03 -0.55186168285E+03  0.12070121783E+04  0.14802080991E+04  0.46999998093E+01 0.  1.
</event>
<event>
 5   0  0.2847158E-05  0.2318312E+04  0.7818609E-02  0.8470736E-01
       -1   -1    0    0    0  501  0.00000000000E+00  0.00000000000E+00  0.78784925214E+03  0.78784925215E+03  0.50400001928E-02 0.  1.
        1   -1    0    0  501    0  0.00000000000E+00  0.00000000000E+00 -0.17054559237E+04  0.17054559237E+04  0.50400001928E-02 0. -1.
    10030    2    1    2    0    0  0.00000000000E+00  0.00000000000E+00 -0.91760667160E+03  0.24933051759E+04  0.23183116047E+04 0.  0.
        5    1    3    3  502    0  0.61962819041E+03 -0.15711693387E+03  0.58113678548E+03  0.86392527379E+03  0.46999998093E+01 0.  1.
       -5    1    3    3    0  502 -0.61962819041E+03  0.15711693387E+03 -0.14987434571E+04  0.16293799021E+04  0.46999998093E+01 0. -1.
</event>
<event>
 5   0  0.2901816E-05  0.2393471E+04  0.7818609E-02  0.8441952E-01
        1   -1    0    0  501    0  0.00000000000E+00  0.00000000000E+00  0.12477337422E+04  0.12477337422E+04  0.50400001928E-02 0. -1.
       -1   -1    0    0    0  501  0.00000000000E+00  0.00000000000E+00 -0.11478216308E+04  0.11478216308E+04  0.50400001928E-02 0.  1.
    10030    2    1    2    0    0  0.00000000000E+00  0.00000000000E+00  0.99912111441E+02  0.23955553730E+04  0.23934709347E+04 0.  0.
        4    1    3    3  502    0  0.17174598770E+03 -0.55680412357E+03 -0.99625167595E+03  0.11541432021E+04  0.12699999809E+01 0.  1.
       -4    1    3    3    0  502 -0.17174598770E+03  0.55680412357E+03  0.10961637874E+04  0.12414121709E+04  0.12699999809E+01 0. -1.
</event>
<event>
 5   0  0.6714629E-05  0.2400350E+04  0.7818609E-02  0.8439373E-01
       -2   -1    0    0    0  501  0.00000000000E+00  0.00000000000E+00  0.58813482209E+03  0.58813482210E+03  0.25500000920E-02 0. -1.
        2   -1    0    0  501    0  0.00000000000E+00  0.00000000000E+00 -0.24491321947E+04  0.24491321947E+04  0.25500000920E-02 0.  1.
    10030    2    1    2    0    0  0.00000000000E+00  0.00000000000E+00 -0.18609973726E+04  0.30372670168E+04  0.24003499142E+04 0.  0.
        3    1    3    3  502    0 -0.96148059334E+03  0.30697570509E+03 -0.10876464346E+03  0.10151397799E+04  0.10100000352E+00 0. -1.
       -3    1    3    3    0  502  0.96148059334E+03 -0.30697570509E+03 -0.17522327291E+04  0.20221272369E+04  0.10100000352E+00 0.  1.
</event>
<event>
 5   0  0.2915546E-05  0.2234344E+04  0.7818609E-02  0.8504268E-01
        1   -1    0    0  501    0  0.00000000000E+00  0.00000000000E+00  0.11422728285E+04  0.11422728285E+04  0.50400001928E-02 0.  1.
       -1   -1    0    0    0  501  0.00000000000E+00  0.00000000000E+00 -0.10926230341E+04  0.10926230342E+04  0.50400001928E-02 0. -1.
    10030    2    1    2    0    0  0.00000000000E+00  0.00000000000E+00  0.49649794350E+02  0.22348958626E+04  0.22343442919E+04 0.  0.
        2    1    3    3  502    0  0.21014493662E+03  0.55111738447E+03  0.97383850673E+03  0.11385309408E+04  0.25500000920E-02 0.  1.
       -2    1    3    3    0  502 -0.21014493662E+03 -0.55111738447E+03 -0.92418871238E+03  0.10963649219E+04  0.25500000920E-02 0. -1.
</event>
<event>
 5   0  0.6978115E-05  0.2401646E+04  0.7818609E-02  0.8438888E-01
       -2   -1    0    0    0  501  0.00000000000E+00  0.00000000000E+00  0.17693832821E+04  0.17693832821E+04  0.25500000920E-02 0. -1.
        2   -1    0    0  501    0  0.00000000000E+00  0.00000000000E+00 -0.81495930914E+03  0.81495930915E+03  0.25500000920E-02 0.  1.
    10030    2    1    2    0    0  0.00000000000E+00  0.00000000000E+00  0.95442397295E+03  0.25843425912E+04  0.24016455835E+04 0.  0.
        4    1    3    3  502    0 -0.91554585598E+03  0.61875605958E+02 -0.35625458251E+03  0.98436362461E+03  0.12699999809E+01 0.  1.
       -4    1    3    3    0  502  0.91554585598E+03 -0.61875605958E+02  0.13106785555E+04  0.15999789666E+04  0.12699999809E+01 0. -1.
</event>
<event>
 5   0  0.2901816E-05  0.2371874E+04  0.7818609E-02  0.8450109E-01
        1   -1    0    0  501    0  0.00000000000E+00  0.00000000000E+00  0.25236102233E+04  0.25236102233E+04  0.50400001928E-02 0.  1.
       -1   -1    0    0    0  501  0.00000000000E+00  0.00000000000E+00 -0.55731538174E+03  0.55731538176E+03  0.50400001928E-02 0. -1.
    10030    2    1    2    0    0  0.00000000000E+00  0.00000000000E+00  0.19662948416E+04  0.30809256051E+04  0.23718741914E+04 0.  0.
        4    1    3    3  502    0 -0.34176266836E+03 -0.27061279838E+03  0.24157638951E+04  0.24547810122E+04  0.12699999809E+01 0.  1.
       -4    1    3    3    0  502  0.34176266836E+03  0.27061279838E+03 -0.44946905355E+03  0.62614459284E+03  0.12699999809E+01 0. -1.
</event>
<event>
 5   0  0.2943123E-05  0.2424211E+04  0.7818609E-02  0.8430494E-01
        1   -1    0    0  501    0  0.00000000000E+00  0.00000000000E+00  0.99430033044E+03  0.99430033046E+03  0.50400001928E-02 0.  1.
       -1   -1    0    0    0  501  0.00000000000E+00  0.00000000000E+00 -0.14776221124E+04  0.14776221124E+04  0.50400001928E-02 0. -1.
    10030    2    1    2    0    0  0.00000000000E+00  0.00000000000E+00 -0.48332178198E+03  0.24719224429E+04  0.24242113395E+04 0.  0.
        1    1    3    3  502    0 -0.32827386705E+02 -0.12108856643E+04 -0.28585468921E+03  0.12446021986E+04  0.50400001928E-02 0. -1.
       -1    1    3    3    0  502  0.32827386705E+02  0.12108856643E+04 -0.19746709277E+03  0.12273202443E+04  0.50400001928E-02 0.  1.
</event>
<event>
 5   0  0.2847158E-05  0.2434954E+04  0.7818609E-02  0.8426532E-01
        1   -1    0    0  501    0  0.00000000000E+00  0.00000000000E+00  0.10043659752E+04  0.10043659752E+04  0.50400001928E-02 0. -1.
       -1   -1    0    0    0  501  0.00000000000E+00  0.00000000000E+00 -0.14758063415E+04  0.14758063415E+04  0.50400001928E-02 0.  1.
    10030    2    1    2    0    0  0.00000000000E+00  0.00000000000E+00 -0.47144036634E+03  0.24801723167E+04  0.24349535317E+04 0.  0.
        5    1    3    3  502    0 -0.28423298312E+02  0.12170368702E+04 -0.25153127769E+03  0.12430915899E+04  0.46999998093E+01 0.  1.
       -5    1    3    3    0  502  0.28423298312E+02 -0.12170368702E+04 -0.21990908866E+03  0.12370807268E+04  0.46999998093E+01 0. -1.
</event>
<event>
 5   0  0.2943244E-05  0.1936840E+04  0.7818609E-02  0.8636733E-01
       -1   -1    0    0    0  501  0.00000000000E+00  0.00000000000E+00  0.92152654918E+03  0.92152654919E+03  0.50400001928E-02 0. -1.
        1   -1    0    0  501    0  0.00000000000E+00  0.00000000000E+00 -0.10176999633E+04  0.10176999633E+04  0.50400001928E-02 0.  1.
    10030    2    1    2    0    0  0.00000000000E+00  0.00000000000E+00 -0.96173414076E+02  0.19392265125E+04  0.19368402466E+04 0.  0.
        3    1    3    3  502    0  0.48030657659E+03  0.36350973064E+03  0.71113758269E+03  0.93196051606E+03  0.10100000352E+00 0. -1.
       -3    1    3    3    0  502 -0.48030657659E+03 -0.36350973064E+03 -0.80731099677E+03  0.10072659964E+04  0.10100000352E+00 0.  1.
</event>
<event>
 5   0  0.6703961E-05  0.2387381E+04  0.7818609E-02  0.8444243E-01
       -2   -1    0    0    0  501  0.00000000000E+00  0.00000000000E+00  0.11297885066E+04  0.11297885066E+04  0.25500000920E-02 0.  1.
        2   -1    0    0  501    0  0.00000000000E+00  0.00000000000E+00 -0.12612068397E+04  0.12612068397E+04  0.25500000920E-02 0. -1.
    10030    2    1    2    0    0  0.00000000000E+00  0.00000000000E+00 -0.13141833317E+03  0.23909953463E+04  0.23873809851E+04 0.  0.
        2    1    3    3  502    0 -0.82755702298E+03 -0.79286953172E+03  0.26856893073E+03  0.11771244587E+04  0.25500000920E-02 0.  1.
       -2    1    3    3    0  502  0.82755702298E+03  0.79286953172E+03 -0.39998726390E+03  0.12138708877E+04  0.25500000920E-02 0. -1.
</event>
<event>
 5   0  0.2901816E-05  0.2394364E+04  0.7818609E-02  0.8441617E-01
       -1   -1    0    0    0  501  0.00000000000E+00  0.00000000000E+00  0.52177792347E+03  0.52177792349E+03  0.50400001928E-02 0. -1.
        1   -1    0    0  501    0  0.00000000000E+00  0.00000000000E+00 -0.27468477696E+04  0.27468477696E+04  0.50400001928E-02 0.  1.
    10030    2    1    2    0    0  0.00000000000E+00  0.00000000000E+00 -0.22250698462E+04  0.32686256931E+04  0.23943638198E+04 0.  0.
        4    1    3    3  502    0  0.19889145480E+03 -0.22613833366E+03  0.46922193491E+03  0.55755465548E+03  0.12699999809E+01 0. -1.
       -4    1    3    3    0  502 -0.19889145480E+03  0.22613833366E+03 -0.26942917811E+04  0.27110710376E+04  0.12699999809E+01 0.  1.
</event>
<event>
 5   0  0.6714629E-05  0.2539621E+04  0.7818609E-02  0.8389005E-01
       -2   -1    0    0    0  501  0.00000000000E+00  0.00000000000E+00  0.11598433223E+04  0.11598433223E+04  0.25500000920E-02 0. -1.
        2   -1    0    0  501    0  0.00000000000E+00  0.00000000000E+00 -0.13902041635E+04  0.13902041635E+04  0.25500000920E-02 0.  1.
    10030    2    1    2    0    0  0.00000000000E+00  0.00000000000E+00 -0.23036084117E+03  0.25500474857E+04  0.25396212439E+04 0.  0.
        3    1    3    3  502    0 -0.16412496697E+03  0.53792750631E+03 -0.12583252389E+04  0.13782907618E+04  0.10100000352E+00 0.  1.
       -3    1    3    3    0  502  0.16412496697E+03 -0.53792750631E+03  0.10279643978E+04  0.11717567240E+04  0.10100000352E+00 0. -1.
</event>
<event>
 5   0  0.6978115E-05  0.2361493E+04  0.7818609E-02  0.8454062E-01
        2   -1    0    0  501    0  0.00000000000E+00  0.00000000000E+00  0.14781712573E+04  0.14781712573E+04  0.25500000920E-02 0. -1.
       -2   -1    0    0    0  501  0.00000000000E+00  0.00000000000E+00 -0.94316700260E+03  0.94316700261E+03  0.25500000920E-02 0.  1.
    10030    2    1    2    0    0  0.00000000000E+00  0.00000000000E+00  0.53500425465E+03  0.24213382599E+04  0.23614930481E+04 0.  0.
        4    1    3    3  502    0  0.43220420476E+03 -0.33839158829E+03  0.13393899804E+04  0.14475069858E+04  0.12699999809E+01 0. -1.
       -4    1    3    3    0  502 -0.43220420476E+03  0.33839158829E+03 -0.80438572571E+03  0.97383127403E+03  0.12699999809E+01 0.  1.
</event>
<event>
 5   0  0.2943123E-05  0.2952435E+04  0.7818609E-02  0.8257445E-01
       -1   -1    0    0    0  501  0.00000000000E+00  0.00000000000E+00  0.10304962867E+04  0.10304962867E+04  0.50400001928E-02 0. -1.
        1   -1    0    0  501    0  0.00000000000E+00  0.00000000000E+00 -0.21147264323E+04  0.21147264323E+04  0.50400001928E-02 0.  1.
    10030    2    1    2    0    0  0.00000000000E+00  0.00000000000E+00 -0.10842301455E+04  0.31452227190E+04  0.29524347484E+04 0.  0.
        1    1    3    3  502    0 -0.31333937851E+03  0.11014550615E+04  0.45029041130E+03  0.12305065108E+04  0.50400001928E-02 0. -1.
       -1    1    3    3    0  502  0.31333937851E+03 -0.11014550615E+04 -0.15345205568E+04  0.19147162082E+04  0.50400001928E-02 0.  1.
</event>
<event>
 5   0  0.6600166E-05  0.2398333E+04  0.7818609E-02  0.8440128E-01
       -2   -1    0    0    0  501  0.00000000000E+00  0.00000000000E+00  0.93584316747E+03  0.93584316747E+03  0.25500000920E-02 0.  1.
        2   -1    0    0  501    0  0.00000000000E+00  0.00000000000E+00 -0.15365829710E+04  0.15365829710E+04  0.25500000920E-02 0. -1.
    10030    2    1    2    0    0  0.00000000000E+00  0.00000000000E+00 -0.60073980355E+03  0.24724261385E+04  0.23983333169E+04 0.  0.
        5    1    3    3  502    0  0.85056291837E+03 -0.22396300349E+03 -0.11406346392E+04  0.14403770948E+04  0.46999998093E+01 0.  1.
       -5    1    3    3    0  502 -0.85056291837E+03  0.22396300349E+03  0.53989483566E+03  0.10320490437E+04  0.46999998093E+01 0. -1.
</event>
<event>
 5   0  0.2339125E-05  0.2414176E+04  0.7818609E-02  0.8434215E-01
        3   -1    0    0  501    0  0.00000000000E+00  0.00000000000E+00  0.15949873614E+04  0.15949873646E+04  0.10100000352E+00 0. -1.
       -3   -1    0    0    0  501  0.00000000000E+00  0.00000000000E+00 -0.91352573734E+03  0.91352574292E+03  0.10100000352E+00 0.  1.
    10030    2    1    2    0    0  0.00000000000E+00  0.00000000000E+00  0.68146162409E+03  0.25085131076E+04  0.24141764777E+04 0.  0.
        5    1    3    3  502    0 -0.42512638962E+03  0.58642941244E+03 -0.66261435148E+03  0.98168822531E+03  0.46999998093E+01 0.  1.
       -5    1    3    3    0  502  0.42512638962E+03 -0.58642941244E+03  0.13440759756E+04  0.15268248822E+04  0.46999998093E+01 0. -1.
</event>
<event>
 5   0  0.6337926E-05  0.2332655E+04  0.7818609E-02  0.8465156E-01
        2   -1    0    0  501    0  0.00000000000E+00  0.00000000000E+00  0.13665118656E+04  0.13665118656E+04  0.25500000920E-02 0.  1.
       -2   -1    0    0    0  501  0.00000000000E+00  0.00000000000E+00 -0.99546853887E+03  0.99546853887E+03  0.25500000920E-02 0. -1.
    10030    2    1    2    0    0  0.00000000000E+00  0.00000000000E+00  0.37104332668E+03  0.23619804044E+04  0.23326547710E+04 0.  0.
        1    1    3    3  502    0 -0.63586581771E+03 -0.96694773124E+03  0.38764002928E+02  0.11579360522E+04  0.50400001928E-02 0. -1.
       -1    1    3    3    0  502  0.63586581771E+03  0.96694773124E+03  0.33227932375E+03  0.12040443522E+04  0.50400001928E-02 0.  1.
</event>
<event>
 5   0  0.6714629E-05  0.2322318E+04  0.7818609E-02  0.8469173E-01
        2   -1    0    0  501    0  0.00000000000E+00  0.00000000000E+00  0.18567205779E+04  0.18567205779E+04  0.25500000920E-02 0.  1.
       -2   -1    0    0    0  501  0.00000000000E+00  0.00000000000E+00 -0.72616741519E+03  0.72616741519E+03  0.25500000920E-02 0. -1.
    10030    2    1    2    0    0  0.00000000000E+00  0.00000000000E+00  0.11305531627E+04  0.25828879931E+04  0.23223177929E+04 0.  0.
        3    1    3    3  502    0  0.96101045000E+03 -0.84096180906E+01 -0.15951625177E+03  0.97419569465E+03  0.10100000352E+00 0. -1.
       -3    1    3    3    0  502 -0.96101045000E+03  0.84096180906E+01  0.12900694145E+04  0.16086922985E+04  0.10100000352E+00 0.  1.
</event>
<event>
 5   0  0.2943123E-05  0.2419987E+04  0.7818609E-02  0.8432058E-01
       -1   -1    0    0    0  501  0.00000000000E+00  0.00000000000E+00  0.88926133581E+03  0.88926133582E+03  0.50400001928E-02 0.  1.
        1   -1    0    0  501    0  0.00000000000E+00  0.00000000000E+00 -0.16464055129E+04  0.16464055129E+04  0.50400001928E-02 0. -1.
    10030    2    1    2    0    0  0.00000000000E+00  0.00000000000E+00 -0.75714417713E+03  0.25356668488E+04  0.24199874097E+04 0.  0.
        1    1    3    3  502    0  0.10760601451E+04  0.29314071381E+03 -0.87031139769E+03  0.14146656294E+04  0.50400001928E-02 0. -1.
       -1    1    3    3    0  502 -0.10760601451E+04 -0.29314071381E+03  0.11316722056E+03  0.11210012194E+04  0.50400001928E-02 0.  1.
</event>
<event>
 5   0  0.2915546E-05  0.2430543E+04  0.7818609E-02  0.8428156E-01
       -1   -1    0    0    0  501  0.00000000000E+00  0.00000000000E+00  0.95285814894E+03  0.95285814896E+03  0.50400001928E-02 0. -1.
        1   -1    0    0  501    0  0.00000000000E+00  0.00000000000E+00 -0.15499529198E+04  0.15499529198E+04  0.50400001928E-02 0.  1.
    10030    2    1    2    0    0  0.00000000000E+00  0.00000000000E+00 -0.59709477088E+03  0.25028110688E+04  0.24305433715E+04 0.  0.
        2    1    3    3  502    0  0.45436020302E+03  0.57034468434E+03 -0.12996413321E+04  0.14902361709E+04  0.25500000920E-02 0.  1.
       -2    1    3    3    0  502 -0.45436020302E+03 -0.57034468434E+03  0.70254656123E+03  0.10125748978E+04  0.25500000920E-02 0. -1.
</event>
<event>
 5   0  0.6337926E-05  0.2420244E+04  0.7818609E-02  0.8431963E-01
       -2   -1    0    0    0  501  0.00000000000E+00  0.00000000000E+00  0.84342243832E+03  0.84342243833E+03  0.25500000920E-02 0. -1.
        2   -1    0    0  501    0  0.00000000000E+00  0.00000000000E+00 -0.17362536090E+04  0.17362536090E+04  0.25500000920E-02 0.  1.
    10030    2    1    2    0    0  0.00000000000E+00  0.00000000000E+00 -0.89283117066E+03  0.25796760473E+04  0.24202439980E+04 0.  0.
        1    1    3    3  502    0 -0.88724439229E+03  0.65932276579E+03  0.78451660663E+02  0.11081803934E+04  0.50400001928E-02 0. -1.
       -1    1    3    3    0  502  0.88724439229E+03 -0.65932276579E+03 -0.97128283132E+03  0.14714956540E+04  0.50400001928E-02 0.  1.
</event>
<event>
 5   0  0.6714629E-05  0.2446336E+04  0.7818609E-02  0.8422357E-01
        2   -1    0    0  501    0  0.00000000000E+00  0.00000000000E+00  0.44501291888E+03  0.44501291889E+03  0.25500000920E-02 0. -1.
       -2   -1    0    0    0  501  0.00000000000E+00  0.00000000000E+00 -0.33620157279E+04  0.33620157279E+04  0.25500000920E-02 0.  1.
    10030    2    1    2    0    0  0.00000000000E+00  0.00000000000E+00 -0.29170028090E+04  0.38070286468E+04  0.24463363893E+04 0.  0.
        3    1    3    3  502    0 -0.49816397421E+03 -0.91849354453E+02 -0.31911068577E+04  0.32310627720E+04  0.10100000352E+00 0.  1.
       -3    1    3    3    0  502  0.49816397421E+03  0.91849354453E+02  0.27410404874E+03  0.57596587473E+03  0.10100000352E+00 0. -1.
</event>
<event>
 5   0  0.2847158E-05  0.2351986E+04  0.7818609E-02  0.8457701E-01
       -1   -1    0    0    0  501  0.00000000000E+00  0.00000000000E+00  0.92575671432E+03  0.92575671433E+03  0.50400001928E-02 0.  1.
        1   -1    0    0  501    0  0.00000000000E+00  0.00000000000E+00 -0.14938686745E+04  0.14938686745E+04  0.50400001928E-02 0. -1.
    10030    2    1    2    0    0  0.00000000000E+00  0.00000000000E+00 -0.56811196018E+03  0.24196253888E+04  0.23519855066E+04 0.  0.
        5    1    3    3  502    0 -0.97739276661E+01 -0.48629951885E+03 -0.13855265268E+04  0.14684306583E+04  0.46999998093E+01 0. -1.
       -5    1    3    3    0  502  0.97739276661E+01  0.48629951885E+03  0.81741456663E+03  0.95119473056E+03  0.46999998093E+01 0.  1.
</event>
<event>
 5   0  0.6714629E-05  0.2435784E+04  0.7818609E-02  0.8426227E-01
       -2   -1    0    0    0  501  0.00000000000E+00  0.00000000000E+00  0.94370733004E+03  0.94370733004E+03  0.25500000920E-02 0. -1.
        2   -1    0    0  501    0  0.00000000000E+00  0.00000000000E+00 -0.15717383276E+04  0.15717383276E+04  0.25500000920E-02 0.  1.
    10030    2    1    2    0    0  0.00000000000E+00  0.00000000000E+00 -0.62803099759E+03  0.25154456577E+04  0.24357840468E+04 0.  0.
        3    1    3    3  502    0  0.45473982038E+03 -0.61063461971E+03  0.66765060382E+03  0.10126303778E+04  0.10100000352E+00 0. -1.
       -3    1    3    3    0  502 -0.45473982038E+03  0.61063461971E+03 -0.12956816014E+04  0.15028152799E+04  0.10100000352E+00 0.  1.
</event>
<event>
 5   0  0.2915546E-05  0.2384898E+04  0.7818609E-02  0.8445179E-01
       -1   -1    0    0    0  501  0.00000000000E+00  0.00000000000E+00  0.81687455159E+03  0.81687455161E+03  0.50400001928E-02 0. -1.
        1   -1    0    0  501    0  0.00000000000E+00  0.00000000000E+00 -0.17407019367E+04  0.17407019367E+04  0.50400001928E-02 0.  1.
    10030    2    1    2    0    0  0.00000000000E+00  0.00000000000E+00 -0.92382738507E+03  0.25575764883E+04  0.23848984163E+04 0.  0.
        2    1    3    3  502    0  0.56047213777E+03  0.10121858718E+04 -0.15242529156E+03  0.11669973118E+04  0.25500000920E-02 0.  1.
       -2    1    3    3    0  502 -0.56047213777E+03 -0.10121858718E+04 -0.77140209351E+03  0.13905791765E+04  0.25500000920E-02 0. -1.
</event>
<event>
 5   0  0.2901816E-05  0.2398067E+04  0.7818609E-02  0.8440227E-01
        1   -1    0    0  501    0  0.00000000000E+00  0.00000000000E+00  0.20686163229E+04  0.20686163229E+04  0.50400001928E-02 0. -1.
       -1   -1    0    0    0  501  0.00000000000E+00  0.00000000000E+00 -0.69499678245E+03  0.69499678247E+03  0.50400001928E-02 0.  1.
    10030    2    1    2    0    0  0.00000000000E+00  0.00000000000E+00  0.13736195404E+04  0.27636131053E+04  0.23980672956E+04 0.  0.
        4    1    3    3  502    0  0.12660797868E+02  0.79853820947E+03  0.17174851893E+04  0.18940909577E+04  0.12699999809E+01 0. -1.
       -4    1    3    3    0  502 -0.12660797868E+02 -0.79853820947E+03 -0.34386564889E+03  0.86952214761E+03  0.12699999809E+01 0.  1.
</event>
<event>
 5   0  0.6714629E-05  0.2356931E+04  0.7818609E-02  0.8455806E-01
       -2   -1    0    0    0  501  0.00000000000E+00  0.00000000000E+00  0.18060189874E+04  0.18060189874E+04  0.25500000920E-02 0.  1.
        2   -1    0    0  501    0  0.00000000000E+00  0.00000000000E+00 -0.76897341754E+03  0.76897341754E+03  0.25500000920E-02 0. -1.
    10030    2    1    2    0    0  0.00000000000E+00  0.00000000000E+00  0.10370455699E+04  0.25749924050E+04  0.23569307100E+04 0.  0.
        3    1    3    3  502    0 -0.92285167894E+03 -0.69088021434E+03  0.78570998084E+03  0.13951024608E+04  0.10100000352E+00 0. -1.
       -3    1    3    3    0  502  0.92285167894E+03  0.69088021434E+03  0.25133558906E+03  0.11798899442E+04  0.10100000352E+00 0.  1.
</event>
<event>
 5   0  0.2943244E-05  0.2434792E+04  0.7818609E-02  0.8426592E-01
        1   -1    0    0  501    0  0.00000000000E+00  0.00000000000E+00  0.18606904722E+04  0.18606904722E+04  0.50400001928E-02 0.  1.
       -1   -1    0    0    0  501  0.00000000000E+00  0.00000000000E+00 -0.79650678740E+03  0.79650678742E+03  0.50400001928E-02 0. -1.
    10030    2    1    2    0    0  0.00000000000E+00  0.00000000000E+00  0.10641836848E+04  0.26571972597E+04  0.24347916465E+04 0.  0.
        3    1    3    3  502    0  0.41498440206E+03  0.69275662586E+03 -0.46212795401E+03  0.93042251300E+03  0.10100000352E+00 0. -1.
       -3    1    3    3    0  502 -0.41498440206E+03 -0.69275662586E+03  0.15263116388E+04  0.17267747466E+04  0.10100000352E+00 0.  1.
</event>
<event>
 5   0  0.2943123E-05  0.2406960E+04  0.7818609E-02  0.8436903E-01
       -1   -1    0    0    0  501  0.00000000000E+00  0.00000000000E+00  0.59845378840E+03  0.59845378842E+03  0.50400001928E-02 0.  1.
        1   -1    0    0  501    0  0.00000000000E+00  0.00000000000E+00 -0.24201766137E+04  0.24201766137E+04  0.50400001928E-02 0. -1.
    10030    2    1    2    0    0  0.00000000000E+00  0.00000000000E+00 -0.18217228253E+04  0.30186304022E+04  0.24069597945E+04 0.  0.
        1    1    3    3  502    0 -0.23412788752E+03  0.48543799452E+03 -0.22603718509E+04  0.23237355311E+04  0.50400001928E-02 0. -1.
       -1    1    3    3    0  502  0.23412788752E+03 -0.48543799452E+03  0.43864902552E+03  0.69489487108E+03  0.50400001928E-02 0.  1.
</event>
<event>
 5   0  0.2901816E-05  0.2349704E+04  0.7818609E-02  0.8458577E-01
        1   -1    0    0  501    0  0.00000000000E+00  0.00000000000E+00  0.83017159298E+03  0.83017159300E+03  0.50400001928E-02 0. -1.
       -1   -1    0    0    0  501  0.00000000000E+00  0.00000000000E+00 -0.16626406241E+04  0.16626406241E+04  0.50400001928E-02 0.  1.
    10030    2    1    2    0    0  0.00000000000E+00  0.00000000000E+00 -0.83246903113E+03  0.24928122171E+04  0.23497038243E+04 0.  0.
        4    1    3    3  502    0 -0.14240827692E+01  0.28132071086E+03  0.79390968850E+03  0.84228117441E+03  0.12699999809E+01 0. -1.
       -4    1    3    3    0  502  0.14240827692E+01 -0.28132071086E+03 -0.16263787196E+04  0.16505310427E+04  0.12699999809E+01 0.  1.
</event>
<event>
 5   0  0.6703961E-05  0.2408710E+04  0.7818609E-02  0.8436250E-01
        2   -1    0    0  501    0  0.00000000000E+00  0.00000000000E+00  0.81189547563E+03  0.81189547564E+03  0.25500000920E-02 0.  1.
       -2   -1    0    0    0  501  0.00000000000E+00  0.00000000000E+00 -0.17865247163E+04  0.17865247163E+04  0.25500000920E-02 0. -1.
    10030    2    1    2    0    0  0.00000000000E+00  0.00000000000E+00 -0.97462924070E+03  0.25984201920E+04  0.24087103058E+04 0.  0.
        2    1    3    3  502    0 -0.16702263647E+03  0.11879216668E+04 -0.60257994040E+03  0.13424444242E+04  0.25500000920E-02 0. -1.
       -2    1    3    3    0  502  0.16702263647E+03 -0.11879216668E+04 -0.37204930030E+03  0.12559757678E+04  0.25500000920E-02 0.  1.
</event>
<event>
 5   0  0.6703961E-05  0.2349331E+04  0.7818609E-02  0.8458721E-01
       -2   -1    0    0    0  501  0.00000000000E+00  0.00000000000E+00  0.74645134476E+03  0.74645134476E+03  0.25500000920E-02 0.  1.
        2   -1    0    0  501    0  0.00000000000E+00  0.00000000000E+00 -0.18485315875E+04  0.18485315875E+04  0.25500000920E-02 0. -1.
    10030    2    1    2    0    0  0.00000000000E+00  0.00000000000E+00 -0.11020802428E+04  0.25949829323E+04  0.23493308744E+04 0.  0.
        2    1    3    3  502    0 -0.18387479997E+02  0.53601325615E+02  0.74494068524E+03  0.74709291661E+03  0.25500000920E-02 0.  1.
       -2    1    3    3    0  502  0.18387479997E+02 -0.53601325615E+02 -0.18470209280E+04  0.18478900157E+04  0.25500000920E-02 0. -1.
</event>
<event>
 5   0  0.6703961E-05  0.2370647E+04  0.7818609E-02  0.8450575E-01
       -2   -1    0    0    0  501  0.00000000000E+00  0.00000000000E+00  0.97475094181E+03  0.97475094181E+03  0.25500000920E-02 0. -1.
        2   -1    0    0  501    0  0.00000000000E+00  0.00000000000E+00 -0.14413859189E+04  0.14413859189E+04  0.25500000920E-02 0.  1.
    10030    2    1    2    0    0  0.00000000000E+00  0.00000000000E+00 -0.46663497705E+03  0.24161368607E+04  0.23706474069E+04 0.  0.
        2    1    3    3  502    0  0.55258887370E+03 -0.14853853988E+03  0.82466417909E+03  0.10037375999E+04  0.25500000920E-02 0. -1.
       -2    1    3    3    0  502 -0.55258887370E+03  0.14853853988E+03 -0.12912991561E+04  0.14123992608E+04  0.25500000920E-02 0.  1.
</event>
<event>
 5   0  0.2915546E-05  0.2406694E+04  0.7818609E-02  0.8437002E-01
       -1   -1    0    0    0  501  0.00000000000E+00  0.00000000000E+00  0.13092259078E+04  0.13092259078E+04  0.50400001928E-02 0.  1.
        1   -1    0    0  501    0  0.00000000000E+00  0.00000000000E+00 -0.11060308964E+04  0.11060308964E+04  0.50400001928E-02 0. -1.
    10030    2    1    2    0    0  0.00000000000E+00  0.00000000000E+00  0.20319501132E+03  0.24152568042E+04  0.24066942510E+04 0.  0.
        2    1    3    3  502    0 -0.12677087050E+03 -0.57629373697E+03 -0.95087533157E+03  0.11190840992E+04  0.25500000920E-02 0. -1.
       -2    1    3    3    0  502  0.12677087050E+03  0.57629373697E+03  0.11540703429E+04  0.12961727050E+04  0.25500000920E-02 0.  1.
</event>
<event>
 5   0  0.2901816E-05  0.2265432E+04  0.7818609E-02  0.8491677E-01
        1   -1    0    0  501    0  0.00000000000E+00  0.00000000000E+00  0.16032304701E+04  0.16032304701E+04  0.50400001928E-02 0.  1.
       -1   -1    0    0    0  501  0.00000000000E+00  0.00000000000E+00 -0.80028751427E+03  0.80028751429E+03  0.50400001928E-02 0. -1.
    10030    2    1    2    0    0  0.00000000000E+00  0.00000000000E+00  0.80294295587E+03  0.24035179844E+04  0.22654318156E+04 0.  0.
        4    1    3    3  502    0 -0.55928991764E+03 -0.73554618961E+03 -0.29360317473E+03  0.96955548894E+03  0.12699999809E+01 0. -1.
       -4    1    3    3    0  502  0.55928991764E+03  0.73554618961E+03  0.10965461306E+04  0.14339624955E+04  0.12699999809E+01 0.  1.
</event>
<event>
 5   0  0.2943244E-05  0.1884720E+04  0.7818609E-02  0.8662500E-01
        1   -1    0    0  501    0  0.00000000000E+00  0.00000000000E+00  0.17480243061E+04  0.17480243061E+04  0.50400001928E-02 0. -1.
       -1   -1    0    0    0  501  0.00000000000E+00  0.00000000000E+00 -0.50802654116E+03  0.50802654118E+03  0.50400001928E-02 0.  1.
    10030    2    1    2    0    0  0.00000000000E+00  0.00000000000E+00  0.12399977649E+04  0.22560508473E+04  0.18847203953E+04 0.  0.
        3    1    3    3  502    0 -0.15243217059E+03 -0.73985557980E+03  0.12944022083E+04  0.14986990801E+04  0.10100000352E+00 0. -1.
       -3    1    3    3    0  502  0.15243217059E+03  0.73985557980E+03 -0.54404443387E+02  0.75735176718E+03  0.10100000352E+00 0.  1.
</event>
<event>
 5   0  0.6600166E-05  0.2366955E+04  0.7818609E-02  0.8451980E-01
        2   -1    0    0  501    0  0.00000000000E+00  0.00000000000E+00  0.15532503864E+04  0.15532503864E+04  0.25500000920E-02 0. -1.
       -2   -1    0    0    0  501  0.00000000000E+00  0.00000000000E+00 -0.90173383252E+03  0.90173383252E+03  0.25500000920E-02 0.  1.
    10030    2    1    2    0    0  0.00000000000E+00  0.00000000000E+00  0.65151655387E+03  0.24549842189E+04  0.23669545190E+04 0.  0.
        5    1    3    3  502    0  0.71861231375E+03 -0.19067957733E+03 -0.62926553402E+03  0.97404289484E+03  0.46999998093E+01 0.  1.
       -5    1    3    3    0  502 -0.71861231375E+03  0.19067957733E+03  0.12807820879E+04  0.14809413241E+04  0.46999998093E+01 0. -1.
</event>
<event>
 5   0  0.2901816E-05  0.2431651E+04  0.7818609E-02  0.8427748E-01
        1   -1    0    0  501    0  0.00000000000E+00  0.00000000000E+00  0.14888329129E+04  0.14888329129E+04  0.50400001928E-02 0.  1.
       -1   -1    0    0    0  501  0.00000000000E+00  0.00000000000E+00 -0.99287948416E+03  0.99287948417E+03  0.50400001928E-02 0. -1.
    10030    2    1    2    0    0  0.00000000000E+00  0.00000000000E+00  0.49595342876E+03  0.24817123971E+04  0.24316510067E+04 0.  0.
        4    1    3    3  502    0  0.90319325824E+03 -0.74756150460E+03 -0.80556977529E+02  0.11752009634E+04  0.12699999809E+01 0. -1.
       -4    1    3    3    0  502 -0.90319325824E+03  0.74756150460E+03  0.57651040629E+03  0.13065114337E+04  0.12699999809E+01 0.  1.
</event>
<event>
 5   0  0.6600166E-05  0.1520620E+04  0.7818609E-02  0.8870855E-01
       -2   -1    0    0    0  501  0.00000000000E+00  0.00000000000E+00  0.32842329525E+03  0.32842329526E+03  0.25500000920E-02 0. -1.
        2   -1    0    0  501    0  0.00000000000E+00  0.00000000000E+00 -0.17601417085E+04  0.17601417085E+04  0.25500000920E-02 0.  1.
    10030    2    1    2    0    0  0.00000000000E+00  0.00000000000E+00 -0.14317184133E+04  0.20885650038E+04  0.15206203208E+04 0.  0.
        5    1    3    3  502    0  0.38389527342E+03 -0.43396208984E+03 -0.13920191079E+04  0.15077924138E+04  0.46999998093E+01 0.  1.
       -5    1    3    3    0  502 -0.38389527342E+03  0.43396208984E+03 -0.39699305322E+02  0.58077258993E+03  0.46999998093E+01 0. -1.
</event>
<event>
 5   0  0.2901816E-05  0.2328319E+04  0.7818609E-02  0.8466838E-01
        1   -1    0    0  501    0  0.00000000000E+00  0.00000000000E+00  0.17952747019E+04  0.17952747019E+04  0.50400001928E-02 0. -1.
       -1   -1    0    0    0  501  0.00000000000E+00  0.00000000000E+00 -0.75490818510E+03  0.75490818512E+03  0.50400001928E-02 0.  1.
    10030    2    1    2    0    0  0.00000000000E+00  0.00000000000E+00  0.10403665168E+04  0.25501828870E+04  0.23283191938E+04 0.  0.
        4    1    3    3  502    0 -0.33727548212E+03 -0.27467211527E+03  0.17029264466E+04  0.17576005284E+04  0.12699999809E+01 0. -1.
       -4    1    3    3    0  502  0.33727548212E+03  0.27467211527E+03 -0.66255992984E+03  0.79258235867E+03  0.12699999809E+01 0.  1.
</event>
<event>
 5   0  0.2847158E-05  0.2407748E+04  0.7818609E-02  0.8436609E-01
        1   -1    0    0  501    0  0.00000000000E+00  0.00000000000E+00  0.91706251328E+03  0.91706251329E+03  0.50400001928E-02 0. -1.
       -1   -1    0    0    0  501  0.00000000000E+00  0.00000000000E+00 -0.15803857615E+04  0.15803857615E+04  0.50400001928E-02 0.  1.
    10030    2    1    2    0    0  0.00000000000E+00  0.00000000000E+00 -0.66332324824E+03  0.24974482748E+04  0.24077479423E+04 0.  0.
        5    1    3    3  502    0  0.42377063460E+03  0.10289119437E+04 -0.80817735717E+03  0.13752869043E+04  0.46999998093E+01 0.  1.
       -5    1    3    3    0  502 -0.42377063460E+03 -0.10289119437E+04  0.14485410893E+03  0.11221613705E+04  0.46999998093E+01 0. -1.
</event>
<event>
 5   0  0.2943244E-05  0.2311221E+04  0.7818609E-02  0.8473510E-01
        1   -1    0    0  501    0  0.00000000000E+00  0.00000000000E+00  0.16608148851E+04  0.16608148851E+04  0.50400001928E-02 0.  1.
       -1   -1    0    0    0  501  0.00000000000E+00  0.00000000000E+00 -0.80408469185E+03  0.80408469187E+03  0.50400001928E-02 0. -1.
    10030    2    1    2    0    0  0.00000000000E+00  0.00000000000E+00  0.85673019324E+03  0.24648995770E+04  0.23112211708E+04 0.  0.
        3    1    3    3  502    0  0.91069005626E+03 -0.55837050564E+02 -0.32798900036E+03  0.96956224624E+03  0.10100000352E+00 0. -1.
       -3    1    3    3    0  502 -0.91069005626E+03  0.55837050564E+02  0.11847191936E+04  0.14953373307E+04  0.10100000352E+00 0.  1.
</event>
<event>
 5   0  0.2943123E-05  0.2399544E+04  0.7818609E-02  0.8439674E-01
        1   -1    0    0  501    0  0.00000000000E+00  0.00000000000E+00  0.14594830756E+04  0.14594830756E+04  0.50400001928E-02 0.  1.
       -1   -1    0    0    0  501  0.00000000000E+00  0.00000000000E+00 -0.98627565311E+03  0.98627565312E+03  0.50400001928E-02 0. -1.
    10030    2    1    2    0    0  0.00000000000E+00  0.00000000000E+00  0.47320742250E+03  0.24457587287E+04  0.23995438097E+04 0.  0.
        1    1    3    3  502    0  0.50944579736E+03 -0.10859673447E+04  0.26141446157E+03  0.12276797689E+04  0.50400001928E-02 0.  1.
       -1    1    3    3    0  502 -0.50944579736E+03  0.10859673447E+04  0.21179296093E+03  0.12180789599E+04  0.50400001928E-02 0. -1.
</event>
<event>
 5   0  0.6978115E-05  0.2387948E+04  0.7818609E-02  0.8444029E-01
       -2   -1    0    0    0  501  0.00000000000E+00  0.00000000000E+00  0.74851988580E+03  0.74851988581E+03  0.25500000920E-02 0.  1.
        2   -1    0    0  501    0  0.00000000000E+00  0.00000000000E+00 -0.19045241809E+04  0.19045241809E+04  0.25500000920E-02 0. -1.
    10030    2    1    2    0    0  0.00000000000E+00  0.00000000000E+00 -0.11560042951E+04  0.26530440668E+04  0.23879482594E+04 0.  0.
        4    1    3    3  502    0 -0.36175420656E+03 -0.86937088693E+02  0.68247178747E+03  0.77729885948E+03  0.12699999809E+01 0.  1.
       -4    1    3    3    0  502  0.36175420656E+03  0.86937088693E+02 -0.18384760826E+04  0.18757452073E+04  0.12699999809E+01 0. -1.
</event>
<event>
 5   0  0.6703961E-05  0.2360316E+04  0.7818609E-02  0.8454512E-01
       -2   -1    0    0    0  501  0.00000000000E+00  0.00000000000E+00  0.94100743695E+03  0.94100743695E+03  0.25500000920E-02 0. -1.
        2   -1    0    0  501    0  0.00000000000E+00  0.00000000000E+00 -0.14800870332E+04  0.14800870332E+04  0.25500000920E-02 0.  1.
    10030    2    1    2    0    0  0.00000000000E+00  0.00000000000E+00 -0.53907959626E+03  0.24210944702E+04  0.23603160005E+04 0.  0.
        2    1    3    3  502    0  0.98602777794E+03 -0.29660660613E+03 -0.86105767243E+03  0.13422542877E+04  0.25500000920E-02 0. -1.
       -2    1    3    3    0  502 -0.98602777794E+03  0.29660660613E+03  0.32197807617E+03  0.10788401824E+04  0.25500000920E-02 0.  1.
</event>
<event>
 5   0  0.2943244E-05  0.2399240E+04  0.7818609E-02  0.8439788E-01
        1   -1    0    0  501    0  0.00000000000E+00  0.00000000000E+00  0.15575428558E+04  0.15575428558E+04  0.50400001928E-02 0. -1.
       -1   -1    0    0    0  501  0.00000000000E+00  0.00000000000E+00 -0.92394754914E+03  0.92394754916E+03  0.50400001928E-02 0.  1.
    10030    2    1    2    0    0  0.00000000000E+00  0.00000000000E+00  0.63359530668E+03  0.24814904050E+04  0.23992397999E+04 0.  0.
        3    1    3    3  502    0 -0.49485904098E+03 -0.95486499213E+03 -0.23286775712E+03  0.11003999392E+04  0.10100000352E+00 0.  1.
       -3    1    3    3    0  502  0.49485904098E+03  0.95486499213E+03  0.86646306380E+03  0.13810904658E+04  0.10100000352E+00 0. -1.
</event>
<event>
 5   0  0.6714629E-05  0.2093209E+04  0.7818609E-02  0.8564241E-01
       -2   -1    0    0    0  501  0.00000000000E+00  0.00000000000E+00  0.56747241213E+03  0.56747241213E+03  0.25500000920E-02 0.  1.
        2   -1    0    0  501    0  0.00000000000E+00  0.00000000000E+00 -0.19302799250E+04  0.19302799250E+04  0.25500000920E-02 0. -1.
    10030    2    1    2    0    0  0.00000000000E+00  0.00000000000E+00 -0.13628075129E+04  0.24977523371E+04  0.20932086424E+04 0.  0.
        3    1    3    3  502    0 -0.42827229240E+03 -0.51824142771E+03 -0.16385399931E+04  0.17711026659E+04  0.10100000352E+00 0. -1.
       -3    1    3    3    0  502  0.42827229240E+03  0.51824142771E+03  0.27573248027E+03  0.72664967124E+03  0.10100000352E+00 0.  1.
</event>
<event>
 5   0  0.2943123E-05  0.2404305E+04  0.7818609E-02  0.8437894E-01
       -1   -1    0    0    0  501  0.00000000000E+00  0.00000000000E+00  0.10181468875E+04  0.10181468876E+04  0.50400001928E-02 0. -1.
        1   -1    0    0  501    0  0.00000000000E+00  0.00000000000E+00 -0.14194123297E+04  0.14194123297E+04  0.50400001928E-02 0.  1.
    10030    2    1    2    0    0  0.00000000000E+00  0.00000000000E+00 -0.40126544212E+03  0.24375592172E+04  0.24043046775E+04 0.  0.
        1    1    3    3  502    0 -0.61720176753E+03 -0.87883225321E+03 -0.74837009658E+03  0.13089468869E+04  0.50400001928E-02 0.  1.
       -1    1    3    3    0  502  0.61720176753E+03  0.87883225321E+03  0.34710465446E+03  0.11286123304E+04  0.50400001928E-02 0. -1.
</event>
<event>
 5   0  0.2901816E-05  0.2409303E+04  0.7818609E-02  0.8436029E-01
       -1   -1    0    0    0  501  0.00000000000E+00  0.00000000000E+00  0.75420431555E+03  0.75420431557E+03  0.50400001928E-02 0.  1.
        1   -1    0    0  501    0  0.00000000000E+00  0.00000000000E+00 -0.19241272653E+04  0.19241272653E+04  0.50400001928E-02 0. -1.
    10030    2    1    2    0    0  0.00000000000E+00  0.00000000000E+00 -0.11699229497E+04  0.26783315808E+04  0.24093028761E+04 0.  0.
        4    1    3    3  502    0 -0.59721012440E+03  0.33234667510E+03 -0.16877335728E+04  0.18208680542E+04  0.12699999809E+01 0. -1.
       -4    1    3    3    0  502  0.59721012440E+03 -0.33234667510E+03  0.51781062313E+03  0.85746352661E+03  0.12699999809E+01 0.  1.
</event>
<event>
 5   0  0.2847158E-05  0.2366224E+04  0.7818609E-02  0.8452258E-01
        1   -1    0    0  501    0  0.00000000000E+00  0.00000000000E+00  0.69218424085E+03  0.69218424087E+03  0.50400001928E-02 0.  1.
       -1   -1    0    0    0  501  0.00000000000E+00  0.00000000000E+00 -0.20222278183E+04  0.20222278183E+04  0.50400001928E-02 0. -1.
    10030    2    1    2    0    0  0.00000000000E+00  0.00000000000E+00 -0.13300435774E+04  0.27144120592E+04  0.23662241882E+04 0.  0.
        5    1    3    3  502    0  0.11215545051E+04  0.12000285035E+03 -0.25549284439E+03  0.11565396126E+04  0.46999998093E+01 0. -1.
       -5    1    3    3    0  502 -0.11215545051E+04 -0.12000285035E+03 -0.10745507330E+04  0.15578724466E+04  0.46999998093E+01 0.  1.
</event>
<event>
 5   0  0.6714629E-05  0.2367547E+04  0.7818609E-02  0.8451754E-01
        2   -1    0    0  501    0  0.00000000000E+00  0.00000000000E+00  0.11507243650E+04  0.11507243650E+04  0.25500000920E-02 0. -1.
       -2   -1    0    0    0  501  0.00000000000E+00  0.00000000000E+00 -0.12177715445E+04  0.12177715445E+04  0.25500000920E-02 0.  1.
    10030    2    1    2    0    0  0.00000000000E+00  0.00000000000E+00 -0.67047179565E+02  0.23684959095E+04  0.23675467364E+04 0.  0.
        3    1    3    3  502    0 -0.82769378919E+03  0.74488878230E+03  0.36836258380E+03  0.11728713953E+04  0.10100000352E+00 0. -1.
       -3    1    3    3    0  502  0.82769378919E+03 -0.74488878230E+03 -0.43540976336E+03  0.11956245142E+04  0.10100000352E+00 0.  1.
</event>
<event>
 5   0  0.2943123E-05  0.2230114E+04  0.7818609E-02  0.8505998E-01
        1   -1    0    0  501    0  0.00000000000E+00  0.00000000000E+00  0.12206862374E+04  0.12206862374E+04  0.50400001928E-02 0. -1.
       -1   -1    0    0    0  501  0.00000000000E+00  0.00000000000E+00 -0.10185680569E+04  0.10185680569E+04  0.50400001928E-02 0.  1.
    10030    2    1    2    0    0  0.00000000000E+00  0.00000000000E+00  0.20211818051E+03  0.22392542943E+04  0.22301139064E+04 0.  0.
        1    1    3    3  502    0  0.10858956942E+04 -0.63486809592E+02  0.34732330955E+03  0.11418552952E+04  0.50400001928E-02 0.  1.
       -1    1    3    3    0  502 -0.10858956942E+04  0.63486809592E+02 -0.14520512905E+03  0.10973989991E+04  0.50400001928E-02 0. -1.
</event>
<event>
 5   0  0.6337926E-05  0.2247498E+04  0.7818609E-02  0.8498914E-01
        2   -1    0    0  501    0  0.00000000000E+00  0.00000000000E+00  0.15512530035E+04  0.15512530035E+04  0.25500000920E-02 0.  1.
       -2   -1    0    0    0  501  0.00000000000E+00  0.00000000000E+00 -0.81405921709E+03  0.81405921709E+03  0.25500000920E-02 0. -1.
    10030    2    1    2    0    0  0.00000000000E+00  0.00000000000E+00  0.73719378638E+03  0.23653122206E+04  0.22474979916E+04 0.  0.
        1    1    3    3  502    0  0.57037695449E+02 -0.48179572560E+01 -0.81252395149E+03  0.81453771133E+03  0.50400001928E-02 0. -1.
       -1    1    3    3    0  502 -0.57037695449E+02  0.48179572560E+01  0.15497177379E+04  0.15507745092E+04  0.50400001928E-02 0.  1.
</event>
<event>
 5   0  0.2901816E-05  0.1983721E+04  0.7818609E-02  0.8614270E-01
        1   -1    0    0  501    0  0.00000000000E+00  0.00000000000E+00  0.14057357584E+04  0.14057357584E+04  0.50400001928E-02 0. -1.
       -1   -1    0    0    0  501  0.00000000000E+00  0.00000000000E+00 -0.69983808639E+03  0.69983808641E+03  0.50400001928E-02 0.  1.
    10030    2    1    2    0    0  0.00000000000E+00  0.00000000000E+00  0.70589767200E+03  0.21055738448E+04  0.19837211731E+04 0.  0.
        4    1    3    3  502    0  0.13450039308E+03 -0.26539899649E+03 -0.65135276347E+03  0.71609288396E+03  0.12699999809E+01 0.  1.
       -4    1    3    3    0  502 -0.13450039308E+03  0.26539899649E+03  0.13572504355E+04  0.13894809608E+04  0.12699999809E+01 0. -1.
</event>
<event>
 5   0  0.2847158E-05  0.2420889E+04  0.7818609E-02  0.8431724E-01
        1   -1    0    0  501    0  0.00000000000E+00  0.00000000000E+00  0.78425975038E+03  0.78425975040E+03  0.50400001928E-02 0.  1.
       -1   -1    0    0    0  501  0.00000000000E+00  0.00000000000E+00 -0.18682276009E+04  0.18682276010E+04  0.50400001928E-02 0. -1.
    10030    2    1    2    0    0  0.00000000000E+00  0.00000000000E+00 -0.10839678506E+04  0.26524873514E+04  0.24208888549E+04 0.  0.
        5    1    3    3  502    0  0.25083200929E+03 -0.10954573427E+04 -0.49286910927E+02  0.11248976736E+04  0.46999998093E+01 0.  1.
       -5    1    3    3    0  502 -0.25083200929E+03  0.10954573427E+04 -0.10346809396E+04  0.15275896777E+04  0.46999998093E+01 0. -1.
</event>
<event>
 5   0  0.2915546E-05  0.2287058E+04  0.7818609E-02  0.8483041E-01
       -1   -1    0    0    0  501  0.00000000000E+00  0.00000000000E+00  0.10589947942E+04  0.10589947942E+04  0.50400001928E-02 0.  1.
        1   -1    0    0  501    0  0.00000000000E+00  0.00000000000E+00 -0.12348114085E+04  0.12348114085E+04  0.50400001928E-02 0. -1.
    10030    2    1    2    0    0  0.00000000000E+00  0.00000000000E+00 -0.17581661430E+03  0.22938062028E+04  0.22870582446E+04 0.  0.
        2    1    3    3  502    0  0.17885005783E+03  0.47722854179E+03  0.93879386356E+03  0.10682080053E+04  0.25500000920E-02 0.  1.
       -2    1    3    3    0  502 -0.17885005783E+03 -0.47722854179E+03 -0.11146104779E+04  0.12255981975E+04  0.25500000920E-02 0. -1.
</event>
<event>
 5   0  0.2915546E-05  0.2396127E+04  0.7818609E-02  0.8440955E-01
        1   -1    0    0  501    0  0.00000000000E+00  0.00000000000E+00  0.16250773125E+04  0.16250773125E+04  0.50400001928E-02 0.  1.
       -1   -1    0    0    0  501  0.00000000000E+00  0.00000000000E+00 -0.88325392857E+03  0.88325392859E+03  0.50400001928E-02 0. -1.
    10030    2    1    2    0    0  0.00000000000E+00  0.00000000000E+00  0.74182338393E+03  0.25083312411E+04  0.23961268084E+04 0.  0.
        2    1    3    3  502    0  0.36361243734E+03 -0.57331313660E+03 -0.66245807723E+03  0.94855293014E+03  0.25500000920E-02 0. -1.
       -2    1    3    3    0  502 -0.36361243734E+03  0.57331313660E+03  0.14042814612E+04  0.15597783110E+04  0.25500000920E-02 0.  1.
</event>
<event>
 5   0  0.2847158E-05  0.2458640E+04  0.7818609E-02  0.8417870E-01
       -1   -1    0    0    0  501  0.00000000000E+00  0.00000000000E+00  0.84434721322E+03  0.84434721323E+03  0.50400001928E-02 0. -1.
        1   -1    0    0  501    0  0.00000000000E+00  0.00000000000E+00 -0.17898178944E+04  0.17898178944E+04  0.50400001928E-02 0.  1.
    10030    2    1    2    0    0  0.00000000000E+00  0.00000000000E+00 -0.94547068116E+03  0.26341651076E+04  0.24586400723E+04 0.  0.
        5    1    3    3  502    0  0.11012396124E+04 -0.49569899957E+03 -0.71882778883E+03  0.14054115633E+04  0.46999998093E+01 0.  1.
       -5    1    3    3    0  502 -0.11012396124E+04  0.49569899957E+03 -0.22664289233E+03  0.12287535444E+04  0.46999998093E+01 0. -1.
</event>
<event>
 5   0  0.6703961E-05  0.2465930E+04  0.7818609E-02  0.8415225E-01
       -2   -1    0    0    0  501  0.00000000000E+00  0.00000000000E+00  0.10932068343E+04  0.10932068343E+04  0.25500000920E-02 0.  1.
        2   -1    0    0  501    0  0.00000000000E+00  0.00000000000E+00 -0.13905905871E+04  0.13905905871E+04  0.25500000920E-02 0. -1.
    10030    2    1    2    0    0  0.00000000000E+00  0.00000000000E+00 -0.29738375280E+03  0.24837974213E+04  0.24659303587E+04 0.  0.
        2    1    3    3  502    0 -0.11536967996E+04  0.23261754084E+03 -0.51888156024E+03  0.12862213259E+04  0.25500000920E-02 0.  1.
       -2    1    3    3    0  502  0.11536967996E+04 -0.23261754084E+03  0.22149780744E+03  0.11975760954E+04  0.25500000920E-02 0. -1.
</event>
<event>
 5   0  0.2901816E-05  0.2354518E+04  0.7818609E-02  0.8456730E-01
       -1   -1    0    0    0  501  0.00000000000E+00  0.00000000000E+00  0.14188856750E+04  0.14188856750E+04  0.50400001928E-02 0. -1.
        1   -1    0    0  501    0  0.00000000000E+00  0.00000000000E+00 -0.97677983146E+03  0.97677983147E+03  0.50400001928E-02 0.  1.
    10030    2    1    2    0    0  0.00000000000E+00  0.00000000000E+00  0.44210584354E+03  0.23956655065E+04  0.23545181337E+04 0.  0.
        4    1    3    3  502    0  0.96791477361E+02 -0.92554053835E+03  0.95472532438E+03  0.13332276385E+04  0.12699999809E+01 0. -1.
       -4    1    3    3    0  502 -0.96791477361E+02  0.92554053835E+03 -0.51261948084E+03  0.10624378679E+04  0.12699999809E+01 0.  1.
</event>
<event>
 5   0  0.2943123E-05  0.2268770E+04  0.7818609E-02  0.8490337E-01
        1   -1    0    0  501    0  0.00000000000E+00  0.00000000000E+00  0.47870868940E+03  0.47870868942E+03  0.50400001928E-02 0. -1.
       -1   -1    0    0    0  501  0.00000000000E+00  0.00000000000E+00 -0.26881271098E+04  0.26881271098E+04  0.50400001928E-02 0.  1.
    10030    2    1    2    0    0  0.00000000000E+00  0.00000000000E+00 -0.22094184204E+04  0.31668357992E+04  0.22687704209E+04 0.  0.
        1    1    3    3  502    0 -0.43450091423E+03 -0.10078562001E+04 -0.15050608373E+04  0.18627327475E+04  0.50400001928E-02 0.  1.
       -1    1    3    3    0  502  0.43450091423E+03  0.10078562001E+04 -0.70435758313E+03  0.13041030517E+04  0.50400001928E-02 0. -1.
</event>
<event>
 5   0  0.2943123E-05  0.2435513E+04  0.7818609E-02  0.8426326E-01
       -1   -1    0    0    0  501  0.00000000000E+00  0.00000000000E+00  0.79701285507E+03  0.79701285509E+03  0.50400001928E-02 0.  1.
        1   -1    0    0  501    0  0.00000000000E+00  0.00000000000E+00 -0.18606112497E+04  0.18606112497E+04  0.50400001928E-02 0. -1.
    10030    2    1    2    0    0  0.00000000000E+00  0.00000000000E+00 -0.10635983946E+04  0.26576241048E+04  0.24355131569E+04 0.  0.
        1    1    3    3  502    0  0.40999491865E+03 -0.84924182981E+03 -0.13725332549E+04  0.16652792722E+04  0.50400001928E-02 0. -1.
       -1    1    3    3    0  502 -0.40999491865E+03  0.84924182981E+03  0.30893486023E+03  0.99234483256E+03  0.50400001928E-02 0.  1.
</event>
<event>
 5   0  0.6978115E-05  0.2392285E+04  0.7818609E-02  0.8442397E-01
        2   -1    0    0  501    0  0.00000000000E+00  0.00000000000E+00  0.10279874688E+04  0.10279874688E+04  0.25500000920E-02 0. -1.
       -2   -1    0    0    0  501  0.00000000000E+00  0.00000000000E+00 -0.13918042518E+04  0.13918042518E+04  0.25500000920E-02 0.  1.
    10030    2    1    2    0    0  0.00000000000E+00  0.00000000000E+00 -0.36381678304E+03  0.24197917206E+04  0.23922853758E+04 0.  0.
        4    1    3    3  502    0 -0.46477461151E+03  0.61235295357E+03  0.74501461807E+03  0.10705325653E+04  0.12699999809E+01 0. -1.
       -4    1    3    3    0  502  0.46477461151E+03 -0.61235295357E+03 -0.11088314011E+04  0.13492591553E+04  0.12699999809E+01 0.  1.
</event>
<event>
 5   0  0.2943244E-05  0.2449852E+04  0.7818609E-02  0.8421072E-01
       -1   -1    0    0    0  501  0.00000000000E+00  0.00000000000E+00  0.16388070387E+04  0.16388070387E+04  0.50400001928E-02 0.  1.
        1   -1    0    0  501    0  0.00000000000E+00  0.00000000000E+00 -0.91557035672E+03  0.91557035673E+03  0.50400001928E-02 0. -1.
    10030    2    1    2    0    0  0.00000000000E+00  0.00000000000E+00  0.72323668195E+03  0.25543773954E+04  0.24498515425E+04 0.  0.
        3    1    3    3  502    0  0.49304623972E+03  0.36746532786E+03 -0.74297702021E+03  0.96443777634E+03  0.10100000352E+00 0. -1.
       -3    1    3    3    0  502 -0.49304623972E+03 -0.36746532786E+03  0.14662137022E+04  0.15899396191E+04  0.10100000352E+00 0.  1.
</event>
<event>
 5   0  0.6978115E-05  0.2632232E+04  0.7818609E-02  0.8357334E-01
        2   -1    0    0  501    0  0.00000000000E+00  0.00000000000E+00  0.13754037030E+04  0.13754037030E+04  0.25500000920E-02 0.  1.
       -2   -1    0    0    0  501  0.00000000000E+00  0.00000000000E+00 -0.12593843856E+04  0.12593843856E+04  0.25500000920E-02 0. -1.
    10030    2    1    2    0    0  0.00000000000E+00  0.00000000000E+00  0.11601931743E+03  0.26347880886E+04  0.26322324726E+04 0.  0.
        4    1    3    3  502    0 -0.98513814000E+03  0.62505462351E+02 -0.81332745260E+03  0.12790258972E+04  0.12699999809E+01 0. -1.
       -4    1    3    3    0  502  0.98513814000E+03 -0.62505462351E+02  0.92934677003E+03  0.13557621914E+04  0.12699999809E+01 0.  1.
</event>
<event>
 5   0  0.6714629E-05  0.2330947E+04  0.7818609E-02  0.8465818E-01
        2   -1    0    0  501    0  0.00000000000E+00  0.00000000000E+00  0.12189942615E+04  0.12189942615E+04  0.25500000920E-02 0.  1.
       -2   -1    0    0    0  501  0.00000000000E+00  0.00000000000E+00 -0.11143029404E+04  0.11143029404E+04  0.25500000920E-02 0. -1.
    10030    2    1    2    0    0  0.00000000000E+00  0.00000000000E+00  0.10469132109E+03  0.23332972019E+04  0.23309473524E+04 0.  0.
        3    1    3    3  502    0  0.25822452528E+01 -0.10380734679E+04  0.58271532072E+03  0.11904454410E+04  0.10100000352E+00 0.  1.
       -3    1    3    3    0  502 -0.25822452528E+01  0.10380734679E+04 -0.47802399963E+03  0.11428517608E+04  0.10100000352E+00 0. -1.
</event>
<event>
 5   0  0.6337926E-05  0.2410447E+04  0.7818609E-02  0.8435603E-01
        2   -1    0    0  501    0  0.00000000000E+00  0.00000000000E+00  0.13082924640E+04  0.13082924640E+04  0.25500000920E-02 0. -1.
       -2   -1    0    0    0  501  0.00000000000E+00  0.00000000000E+00 -0.11102740655E+04  0.11102740655E+04  0.25500000920E-02 0.  1.
    10030    2    1    2    0    0  0.00000000000E+00  0.00000000000E+00  0.19801839844E+03  0.24185665295E+04  0.24104465917E+04 0.  0.
        1    1    3    3  502    0  0.43267475584E+03  0.71235103497E+03 -0.77450475182E+03  0.11377649371E+04  0.50400001928E-02 0.  1.
       -1    1    3    3    0  502 -0.43267475584E+03 -0.71235103497E+03  0.97252315027E+03  0.12808015924E+04  0.50400001928E-02 0. -1.
</event>
<event>
 5   0  0.6978115E-05  0.2398968E+04  0.7818609E-02  0.8439890E-01
       -2   -1    0    0    0  501  0.00000000000E+00  0.00000000000E+00  0.67190508677E+03  0.67190508677E+03  0.25500000920E-02 0. -1.
        2   -1    0    0  501    0  0.00000000000E+00  0.00000000000E+00 -0.21413167225E+04  0.21413167225E+04  0.25500000920E-02 0.  1.
    10030    2    1    2    0    0  0.00000000000E+00  0.00000000000E+00 -0.14694116357E+04  0.28132218093E+04  0.23989677766E+04 0.  0.
        4    1    3    3  502    0 -0.57679757507E+03 -0.90907968932E+03 -0.13548292874E+04  0.17305159159E+04  0.12699999809E+01 0.  1.
       -4    1    3    3    0  502  0.57679757507E+03  0.90907968932E+03 -0.11458234829E+03  0.10827058934E+04  0.12699999809E+01 0. -1.
</event>
<event>
 5   0  0.2943244E-05  0.1965033E+04  0.7818609E-02  0.8623145E-01
       -1   -1    0    0    0  501  0.00000000000E+00  0.00000000000E+00  0.89091802387E+03  0.89091802388E+03  0.50400001928E-02 0. -1.
        1   -1    0    0  501    0  0.00000000000E+00  0.00000000000E+00 -0.10835329375E+04  0.10835329375E+04  0.50400001928E-02 0.  1.
    10030    2    1    2    0    0  0.00000000000E+00  0.00000000000E+00 -0.19261491364E+03  0.19744509614E+04  0.19650333570E+04 0.  0.
        3    1    3    3  502    0 -0.61390132994E+03 -0.27515688239E+03 -0.81580691412E+03  0.10574152846E+04  0.10100000352E+00 0.  1.
       -3    1    3    3    0  502  0.61390132994E+03  0.27515688239E+03  0.62319200048E+03  0.91703567678E+03  0.10100000352E+00 0. -1.
</event>
<event>
 5   0  0.6714629E-05  0.2355769E+04  0.7818609E-02  0.8456251E-01
        2   -1    0    0  501    0  0.00000000000E+00  0.00000000000E+00  0.56653160751E+03  0.56653160752E+03  0.25500000920E-02 0. -1.
       -2   -1    0    0    0  501  0.00000000000E+00  0.00000000000E+00 -0.24489574618E+04  0.24489574618E+04  0.25500000920E-02 0.  1.
    10030    2    1    2    0    0  0.00000000000E+00  0.00000000000E+00 -0.18824258542E+04  0.30154890693E+04  0.23557689255E+04 0.  0.
        3    1    3    3  502    0  0.90268739789E+02 -0.14184341150E+03  0.55109269007E+03  0.57616938657E+03  0.10100000352E+00 0. -1.
       -3    1    3    3    0  502 -0.90268739789E+02  0.14184341150E+03 -0.24335185443E+04  0.24393196827E+04  0.10100000352E+00 0.  1.
</event>
<event>
 5   0  0.2943123E-05  0.2313577E+04  0.7818609E-02  0.8472587E-01
       -1   -1    0    0    0  501  0.00000000000E+00  0.00000000000E+00  0.11373567642E+04  0.11373567642E+04  0.50400001928E-02 0.  1.
        1   -1    0    0  501    0  0.00000000000E+00  0.00000000000E+00 -0.11765521037E+04  0.11765521037E+04  0.50400001928E-02 0. -1.
    10030    2    1    2    0    0  0.00000000000E+00  0.00000000000E+00 -0.39195339505E+02  0.23139088679E+04  0.23135768788E+04 0.  0.
        1    1    3    3  502    0  0.62030585810E+03  0.59335557317E+03 -0.79515030052E+03  0.11700915324E+04  0.50400001928E-02 0. -1.
       -1    1    3    3    0  502 -0.62030585810E+03 -0.59335557317E+03  0.75595496101E+03  0.11438173355E+04  0.50400001928E-02 0.  1.
</event>
<event>
 5   0  0.6978115E-05  0.2433059E+04  0.7818609E-02  0.8427229E-01
        2   -1    0    0  501    0  0.00000000000E+00  0.00000000000E+00  0.74349518192E+03  0.74349518192E+03  0.25500000920E-02 0. -1.
       -2   -1    0    0    0  501  0.00000000000E+00  0.00000000000E+00 -0.19905230690E+04  0.19905230690E+04  0.25500000920E-02 0.  1.
    10030    2    1    2    0    0  0.00000000000E+00  0.00000000000E+00 -0.12470278870E+04  0.27340182509E+04  0.24330592358E+04 0.  0.
        4    1    3    3  502    0 -0.50202874800E+03  0.58060423906E+03 -0.16840877960E+04  0.18507532153E+04  0.12699999809E+01 0.  1.
       -4    1    3    3    0  502  0.50202874800E+03 -0.58060423906E+03  0.43705990897E+03  0.88326503563E+03  0.12699999809E+01 0. -1.
</event>
<event>
 5   0  0.6703961E-05  0.2425054E+04  0.7818609E-02  0.8430183E-01
        2   -1    0    0  501    0  0.00000000000E+00  0.00000000000E+00  0.10291740672E+04  0.10291740672E+04  0.25500000920E-02 0. -1.
       -2   -1    0    0    0  501  0.00000000000E+00  0.00000000000E+00 -0.14285456544E+04  0.14285456544E+04  0.25500000920E-02 0.  1.
    10030    2    1    2    0    0  0.00000000000E+00  0.00000000000E+00 -0.39937158716E+03  0.24577197216E+04  0.24250543428E+04 0.  0.
        2    1    3    3  502    0  0.59641157726E+03 -0.78503377530E+03  0.51568139551E+03  0.11126149826E+04  0.25500000920E-02 0. -1.
       -2    1    3    3    0  502 -0.59641157726E+03  0.78503377530E+03 -0.91505298267E+03  0.13451047390E+04  0.25500000920E-02 0.  1.
</event>
<event>
 5   0  0.6337926E-05  0.1565553E+04  0.7818609E-02  0.8841994E-01
        2   -1    0    0  501    0  0.00000000000E+00  0.00000000000E+00  0.12599637763E+04  0.12599637763E+04  0.25500000920E-02 0. -1.
       -2   -1    0    0    0  501  0.00000000000E+00  0.00000000000E+00 -0.48631511848E+03  0.48631511849E+03  0.25500000920E-02 0.  1.
    10030    2    1    2    0    0  0.00000000000E+00  0.00000000000E+00  0.77364865785E+03  0.17462788948E+04  0.15655534909E+04 0.  0.
        1    1    3    3  502    0 -0.35060217395E+03  0.14496375908E+03  0.11505561958E+04  0.12114932668E+04  0.50400001928E-02 0. -1.
       -1    1    3    3    0  502  0.35060217395E+03 -0.14496375908E+03 -0.37690753790E+03  0.53478562806E+03  0.50400001928E-02 0.  1.
</event>
<event>
 5   0  0.6714629E-05  0.2397749E+04  0.7818609E-02  0.8440347E-01
       -2   -1    0    0    0  501  0.00000000000E+00  0.00000000000E+00  0.11575317015E+04  0.11575317015E+04  0.25500000920E-02 0. -1.
        2   -1    0    0  501    0  0.00000000000E+00  0.00000000000E+00 -0.12416938837E+04  0.12416938837E+04  0.25500000920E-02 0.  1.
    10030    2    1    2    0    0  0.00000000000E+00  0.00000000000E+00 -0.84162182185E+02  0.23992255852E+04  0.23977489726E+04 0.  0.
        3    1    3    3  502    0 -0.54698837608E+03  0.10525404876E+04 -0.21614874057E+03  0.12057188934E+04  0.10100000352E+00 0. -1.
       -3    1    3    3    0  502  0.54698837608E+03 -0.10525404876E+04  0.13198655839E+03  0.11935066918E+04  0.10100000352E+00 0.  1.
</event>
<event>
 5   0  0.6703961E-05  0.2415324E+04  0.7818609E-02  0.8433789E-01
        2   -1    0    0  501    0  0.00000000000E+00  0.00000000000E+00  0.11982846299E+04  0.11982846299E+04  0.25500000920E-02 0. -1.
       -2   -1    0    0    0  501  0.00000000000E+00  0.00000000000E+00 -0.12171125524E+04  0.12171125524E+04  0.25500000920E-02 0.  1.
    10030    2    1    2    0    0  0.00000000000E+00  0.00000000000E+00 -0.18827922490E+02  0.24153971824E+04  0.24153237998E+04 0.  0.
        2    1    3    3  502    0  0.71442469453E+03 -0.17433825645E+03 -0.96738397842E+03  0.12151659284E+04  0.25500000920E-02 0.  1.
       -2    1    3    3    0  502 -0.71442469453E+03  0.17433825645E+03  0.94855605593E+03  0.12002312540E+04  0.25500000920E-02 0. -1.
</event>
<event>
 5   0  0.2915546E-05  0.2488775E+04  0.7818609E-02  0.8406995E-01
       -1   -1    0    0    0  501  0.00000000000E+00  0.00000000000E+00  0.14199857990E+04  0.14199857991E+04  0.50400001928E-02 0. -1.
        1   -1    0    0  501    0  0.00000000000E+00  0.00000000000E+00 -0.10905039971E+04  0.10905039971E+04  0.50400001928E-02 0.  1.
    10030    2    1    2    0    0  0.00000000000E+00  0.00000000000E+00  0.32948180194E+03  0.25104897962E+04  0.24887749514E+04 0.  0.
        2    1    3    3  502    0 -0.85773325518E+03  0.65973461976E+03 -0.45506637221E+03  0.11739001272E+04  0.25500000920E-02 0.  1.
       -2    1    3    3    0  502  0.85773325518E+03 -0.65973461976E+03  0.78454817415E+03  0.13365896689E+04  0.25500000920E-02 0. -1.
</event>
<event>
 5   0  0.2915546E-05  0.2503492E+04  0.7818609E-02  0.8401742E-01
        1   -1    0    0  501    0  0.00000000000E+00  0.00000000000E+00  0.14456449579E+04  0.14456449579E+04  0.50400001928E-02 0.  1.
       -1   -1    0    0    0  501  0.00000000000E+00  0.00000000000E+00 -0.10838542030E+04  0.10838542030E+04  0.50400001928E-02 0. -1.
    10030    2    1    2    0    0  0.00000000000E+00  0.00000000000E+00  0.36179075483E+03  0.25294991609E+04  0.25034922518E+04 0.  0.
        2    1    3    3  502    0 -0.42682563363E+02  0.15960857828E+03  0.14345798377E+04  0.14440623291E+04  0.25500000920E-02 0.  1.
       -2    1    3    3    0  502  0.42682563363E+02 -0.15960857828E+03 -0.10727890829E+04  0.10854368318E+04  0.25500000920E-02 0. -1.
</event>
<event>
 5   0  0.2901816E-05  0.2445579E+04  0.7818609E-02  0.8422634E-01
       -1   -1    0    0    0  501  0.00000000000E+00  0.00000000000E+00  0.11811900625E+04  0.11811900626E+04  0.50400001928E-02 0. -1.
        1   -1    0    0  501    0  0.00000000000E+00  0.00000000000E+00 -0.12658535455E+04  0.12658535455E+04  0.50400001928E-02 0.  1.
    10030    2    1    2    0    0  0.00000000000E+00  0.00000000000E+00 -0.84663482914E+02  0.24470436080E+04  0.24455785643E+04 0.  0.
        4    1    3    3  502    0 -0.41231039266E+03  0.40360711631E+03 -0.11210840092E+04  0.12608447695E+04  0.12699999809E+01 0.  1.
       -4    1    3    3    0  502  0.41231039266E+03 -0.40360711631E+03  0.10364205263E+04  0.11861988385E+04  0.12699999809E+01 0. -1.
</event>
<event>
 5   0  0.2847158E-05  0.2417335E+04  0.7818609E-02  0.8433042E-01
       -1   -1    0    0    0  501  0.00000000000E+00  0.00000000000E+00  0.68960513406E+03  0.68960513408E+03  0.50400001928E-02 0.  1.
        1   -1    0    0  501    0  0.00000000000E+00  0.00000000000E+00 -0.21184247972E+04  0.21184247972E+04  0.50400001928E-02 0. -1.
    10030    2    1    2    0    0  0.00000000000E+00  0.00000000000E+00 -0.14288196631E+04  0.28080299313E+04  0.24173345787E+04 0.  0.
        5    1    3    3  502    0  0.39342270416E+03  0.10041280392E+04 -0.13483193932E+04  0.17265693787E+04  0.46999998093E+01 0. -1.
       -5    1    3    3    0  502 -0.39342270416E+03 -0.10041280392E+04 -0.80500269910E+02  0.10814605526E+04  0.46999998093E+01 0.  1.
</event>
<event>
 5   0  0.2847158E-05  0.2338467E+04  0.7818609E-02  0.8462907E-01
        1   -1    0    0  501    0  0.00000000000E+00  0.00000000000E+00  0.16929814822E+04  0.16929814822E+04  0.50400001928E-02 0.  1.
       -1   -1    0    0    0  501  0.00000000000E+00  0.00000000000E+00 -0.80751467368E+03  0.80751467369E+03  0.50400001928E-02 0. -1.
    10030    2    1    2    0    0  0.00000000000E+00  0.00000000000E+00  0.88546680850E+03  0.25004961559E+04  0.23384673521E+04 0.  0.
        5    1    3    3  502    0 -0.29966568163E+03  0.11205112884E+04  0.60039537762E+03  0.13060787754E+04  0.46999998093E+01 0. -1.
       -5    1    3    3    0  502  0.29966568163E+03 -0.11205112884E+04  0.28507143088E+03  0.11944173805E+04  0.46999998093E+01 0.  1.
</event>
<event>
 5   0  0.6714629E-05  0.1909188E+04  0.7818609E-02  0.8650296E-01
       -2   -1    0    0    0  501  0.00000000000E+00  0.00000000000E+00  0.45441386258E+03  0.45441386259E+03  0.25500000920E-02 0. -1.
        2   -1    0    0  501    0  0.00000000000E+00  0.00000000000E+00 -0.20053300392E+04  0.20053300392E+04  0.25500000920E-02 0.  1.
    10030    2    1    2    0    0  0.00000000000E+00  0.00000000000E+00 -0.15509161767E+04  0.24597439018E+04  0.19091880671E+04 0.  0.
        3    1    3    3  502    0 -0.62197906552E+01  0.63437672295E+03 -0.16944358912E+04  0.18093052567E+04  0.10100000352E+00 0.  1.
       -3    1    3    3    0  502  0.62197906552E+01 -0.63437672295E+03  0.14351971452E+03  0.65043864513E+03  0.10100000352E+00 0. -1.
</event>
<event>
 5   0  0.6714629E-05  0.2435246E+04  0.7818609E-02  0.8426425E-01
       -2   -1    0    0    0  501  0.00000000000E+00  0.00000000000E+00  0.54179153989E+03  0.54179153990E+03  0.25500000920E-02 0.  1.
        2   -1    0    0  501    0  0.00000000000E+00  0.00000000000E+00 -0.27364873352E+04  0.27364873352E+04  0.25500000920E-02 0. -1.
    10030    2    1    2    0    0  0.00000000000E+00  0.00000000000E+00 -0.21946957953E+04  0.32782788751E+04  0.24352459319E+04 0.  0.
        3    1    3    3  502    0 -0.80327699499E+03 -0.11355826691E+03  0.12497762547E+03  0.82083422670E+03  0.10100000352E+00 0.  1.
       -3    1    3    3    0  502  0.80327699499E+03  0.11355826691E+03 -0.23196734208E+04  0.24574446484E+04  0.10100000352E+00 0. -1.
</event>
<event>
 5   0  0.2847158E-05  0.2426966E+04  0.7818609E-02  0.8429476E-01
        1   -1    0    0  501    0  0.00000000000E+00  0.00000000000E+00  0.15689119950E+04  0.15689119950E+04  0.50400001928E-02 0.  1.
       -1   -1    0    0    0  501  0.00000000000E+00  0.00000000000E+00 -0.93857498163E+03  0.93857498164E+03  0.50400001928E-02 0. -1.
    10030    2    1    2    0    0  0.00000000000E+00  0.00000000000E+00  0.63033701335E+03  0.25074869766E+04  0.24269664579E+04 0.  0.
        5    1    3    3  502    0 -0.71275578614E+03 -0.22027417385E+03 -0.67365189382E+03  0.10051718691E+04  0.46999998093E+01 0. -1.
       -5    1    3    3    0  502  0.71275578614E+03  0.22027417385E+03  0.13039889072E+04  0.15023151075E+04  0.46999998093E+01 0.  1.
</event>
<event>
 5   0  0.6337926E-05  0.2366922E+04  0.7818609E-02  0.8451992E-01
        2   -1    0    0  501    0  0.00000000000E+00  0.00000000000E+00  0.23641282498E+04  0.23641282498E+04  0.25500000920E-02 0. -1.
       -2   -1    0    0    0  501  0.00000000000E+00  0.00000000000E+00 -0.59242973318E+03  0.59242973318E+03  0.25500000920E-02 0.  1.
    10030    2    1    2    0    0  0.00000000000E+00  0.00000000000E+00  0.17716985166E+04  0.29565579830E+04  0.23669219406E+04 0.  0.
        1    1    3    3  502    0  0.10272629818E+04 -0.46077978281E+03  0.13413784847E+04  0.17512519754E+04  0.50400001928E-02 0. -1.
       -1    1    3    3    0  502 -0.10272629818E+04  0.46077978281E+03  0.43032003195E+03  0.12053060076E+04  0.50400001928E-02 0.  1.
</event>
<event>
 5   0  0.2915546E-05  0.2446332E+04  0.7818609E-02  0.8422358E-01
        1   -1    0    0  501    0  0.00000000000E+00  0.00000000000E+00  0.11683051230E+04  0.11683051230E+04  0.50400001928E-02 0. -1.
       -1   -1    0    0    0  501  0.00000000000E+00  0.00000000000E+00 -0.12806029083E+04  0.12806029083E+04  0.50400001928E-02 0.  1.
    10030    2    1    2    0    0  0.00000000000E+00  0.00000000000E+00 -0.11229778535E+03  0.24489080313E+04  0.24463318976E+04 0.  0.
        2    1    3    3  502    0  0.91612528952E+03 -0.34482346104E+03 -0.79036939664E+03  0.12581226286E+04  0.25500000920E-02 0.  1.
       -2    1    3    3    0  502 -0.91612528952E+03  0.34482346104E+03  0.67807161129E+03  0.11907854028E+04  0.25500000920E-02 0. -1.
</event>
<event>
 5   0  0.6714629E-05  0.2441941E+04  0.7818609E-02  0.8423966E-01
       -2   -1    0    0    0  501  0.00000000000E+00  0.00000000000E+00  0.11472132061E+04  0.11472132061E+04  0.25500000920E-02 0.  1.
        2   -1    0    0  501    0  0.00000000000E+00  0.00000000000E+00 -0.12994698614E+04  0.12994698614E+04  0.25500000920E-02 0. -1.
    10030    2    1    2    0    0  0.00000000000E+00  0.00000000000E+00 -0.15225665532E+03  0.24466830676E+04  0.24419410198E+04 0.  0.
        3    1    3    3  502    0 -0.10684532634E+04 -0.57399545011E+03 -0.21677835939E+03  0.12320941604E+04  0.10100000352E+00 0.  1.
       -3    1    3    3    0  502  0.10684532634E+04  0.57399545011E+03  0.64521704076E+02  0.12145889071E+04  0.10100000352E+00 0. -1.
</event>
<event>
 5   0  0.6978115E-05  0.2250856E+04  0.7818609E-02  0.8497554E-01
        2   -1    0    0  501    0  0.00000000000E+00  0.00000000000E+00  0.19326656716E+04  0.19326656716E+04  0.25500000920E-02 0. -1.
       -2   -1    0    0    0  501  0.00000000000E+00  0.00000000000E+00 -0.65535813618E+03  0.65535813618E+03  0.25500000920E-02 0.  1.
    10030    2    1    2    0    0  0.00000000000E+00  0.00000000000E+00  0.12773075354E+04  0.25880238078E+04  0.22508559904E+04 0.  0.
        4    1    3    3  502    0 -0.87255238804E+03  0.56309185830E+03  0.11374138084E+04  0.15401726835E+04  0.12699999809E+01 0. -1.
       -4    1    3    3    0  502  0.87255238804E+03 -0.56309185830E+03  0.13989372703E+03  0.10478511242E+04  0.12699999809E+01 0.  1.
</event>
<event>
 5   0  0.6600166E-05  0.2356511E+04  0.7818609E-02  0.8455967E-01
        2   -1    0    0  501    0  0.00000000000E+00  0.00000000000E+00  0.53331050162E+03  0.53331050162E+03  0.25500000920E-02 0.  1.
       -2   -1    0    0    0  501  0.00000000000E+00  0.00000000000E+00 -0.26031467302E+04  0.26031467302E+04  0.25500000920E-02 0. -1.
    10030    2    1    2    0    0  0.00000000000E+00  0.00000000000E+00 -0.20698362286E+04  0.31364572319E+04  0.23565105461E+04 0.  0.
        5    1    3    3  502    0  0.31326023572E+03  0.30113346946E+03 -0.24925943276E+04  0.25301900944E+04  0.46999998093E+01 0. -1.
       -5    1    3    3    0  502 -0.31326023572E+03 -0.30113346946E+03  0.42275809899E+03  0.60626713747E+03  0.46999998093E+01 0.  1.
</event>
<event>
 5   0  0.2943123E-05  0.2393169E+04  0.7818609E-02  0.8442065E-01
       -1   -1    0    0    0  501  0.00000000000E+00  0.00000000000E+00  0.79267088791E+03  0.79267088792E+03  0.50400001928E-02 0. -1.
        1   -1    0    0  501    0  0.00000000000E+00  0.00000000000E+00 -0.18063161802E+04  0.18063161802E+04  0.50400001928E-02 0.  1.
    10030    2    1    2    0    0  0.00000000000E+00  0.00000000000E+00 -0.10136452923E+04  0.25989870681E+04  0.23931688201E+04 0.  0.
        1    1    3    3  502    0  0.73207551984E+03 -0.28276880580E+02  0.52062980822E+03  0.89877113102E+03  0.50400001928E-02 0. -1.
       -1    1    3    3    0  502 -0.73207551984E+03  0.28276880580E+02 -0.15342751005E+04  0.17002159371E+04  0.50400001928E-02 0.  1.
</event>
<event>
 5   0  0.2943244E-05  0.2381706E+04  0.7818609E-02  0.8446385E-01
        1   -1    0    0  501    0  0.00000000000E+00  0.00000000000E+00  0.11651394165E+04  0.11651394165E+04  0.50400001928E-02 0.  1.
       -1   -1    0    0    0  501  0.00000000000E+00  0.00000000000E+00 -0.12171337831E+04  0.12171337832E+04  0.50400001928E-02 0. -1.
    10030    2    1    2    0    0  0.00000000000E+00  0.00000000000E+00 -0.51994366658E+02  0.23822731996E+04  0.23817057299E+04 0.  0.
        3    1    3    3  502    0  0.29282435052E+03  0.92043937712E+03 -0.72270875483E+03  0.12063426966E+04  0.10100000352E+00 0. -1.
       -3    1    3    3    0  502 -0.29282435052E+03 -0.92043937712E+03  0.67071438817E+03  0.11759305030E+04  0.10100000352E+00 0.  1.
</event>
<event>
 5   0  0.2901816E-05  0.2456657E+04  0.7818609E-02  0.8418592E-01
       -1   -1    0    0    0  501  0.00000000000E+00  0.00000000000E+00  0.98774443288E+03  0.98774443289E+03  0.50400001928E-02 0. -1.
        1   -1    0    0  501    0  0.00000000000E+00  0.00000000000E+00 -0.15275110439E+04  0.15275110439E+04  0.50400001928E-02 0.  1.
    10030    2    1    2    0    0  0.00000000000E+00  0.00000000000E+00 -0.53976661102E+03  0.25152554768E+04  0.24566566954E+04 0.  0.
        4    1    3    3  502    0  0.58351682775E+03 -0.10754608482E+04 -0.38053995228E+03  0.12813743374E+04  0.12699999809E+01 0. -1.
       -4    1    3    3    0  502 -0.58351682775E+03  0.10754608482E+04 -0.15922665874E+03  0.12338811394E+04  0.12699999809E+01 0.  1.
</event>
<event>
 5   0  0.2847158E-05  0.2469409E+04  0.7818609E-02  0.8413966E-01
        1   -1    0    0  501    0  0.00000000000E+00  0.00000000000E+00  0.16676794126E+04  0.16676794126E+04  0.50400001928E-02 0.  1.
       -1   -1    0    0    0  501  0.00000000000E+00  0.00000000000E+00 -0.91414128064E+03  0.91414128065E+03  0.50400001928E-02 0. -1.
    10030    2    1    2    0    0  0.00000000000E+00  0.00000000000E+00  0.75353813192E+03  0.25818206932E+04  0.24694085072E+04 0.  0.
        5    1    3    3  502    0  0.19166832831E+03  0.52423539166E+03 -0.77468857103E+03  0.95484237758E+03  0.46999998093E+01 0. -1.
       -5    1    3    3    0  502 -0.19166832831E+03 -0.52423539166E+03  0.15282267029E+04  0.16269783156E+04  0.46999998093E+01 0.  1.
</event>
<event>
 5   0  0.6714629E-05  0.1600119E+04  0.7818609E-02  0.8820475E-01
        2   -1    0    0  501    0  0.00000000000E+00  0.00000000000E+00  0.98584228613E+03  0.98584228613E+03  0.25500000920E-02 0. -1.
       -2   -1    0    0    0  501  0.00000000000E+00  0.00000000000E+00 -0.64928746400E+03  0.64928746401E+03  0.25500000920E-02 0.  1.
    10030    2    1    2    0    0  0.00000000000E+00  0.00000000000E+00  0.33655482213E+03  0.16351297501E+04  0.16001187929E+04 0.  0.
        3    1    3    3  502    0  0.76233130005E+02  0.14862850254E+03  0.96782480425E+03  0.98213379119E+03  0.10100000352E+00 0. -1.
       -3    1    3    3    0  502 -0.76233130005E+02 -0.14862850254E+03 -0.63126998212E+03  0.65299595895E+03  0.10100000352E+00 0.  1.
</event>
<event>
 5   0  0.2915546E-05  0.2377834E+04  0.7818609E-02  0.8447849E-01
        1   -1    0    0  501    0  0.00000000000E+00  0.00000000000E+00  0.98396637316E+03  0.98396637318E+03  0.50400001928E-02 0.  1.
       -1   -1    0    0    0  501  0.00000000000E+00  0.00000000000E+00 -0.14365564777E+04  0.14365564777E+04  0.50400001928E-02 0. -1.
    10030    2    1    2    0    0  0.00000000000E+00  0.00000000000E+00 -0.45259010449E+03  0.24205228508E+04  0.23778336924E+04 0.  0.
        2    1    3    3  502    0  0.41428847258E+03  0.39240676147E+03  0.83545734255E+03  0.10117346372E+04  0.25500000920E-02 0.  1.
       -2    1    3    3    0  502 -0.41428847258E+03 -0.39240676147E+03 -0.12880474470E+04  0.14087882136E+04  0.25500000920E-02 0. -1.
</event>
<event>
 5   0  0.2901816E-05  0.2406490E+04  0.7818609E-02  0.8437078E-01
        1   -1    0    0  501    0  0.00000000000E+00  0.00000000000E+00  0.11025198458E+04  0.11025198458E+04  0.50400001928E-02 0. -1.
       -1   -1    0    0    0  501  0.00000000000E+00  0.00000000000E+00 -0.13131719775E+04  0.13131719775E+04  0.50400001928E-02 0.  1.
    10030    2    1    2    0    0  0.00000000000E+00  0.00000000000E+00 -0.21065213170E+03  0.24156918233E+04  0.24064896975E+04 0.  0.
        4    1    3    3  502    0  0.29994833254E+03 -0.66719001411E+03 -0.10643246977E+04  0.12914721028E+04  0.12699999809E+01 0.  1.
       -4    1    3    3    0  502 -0.29994833254E+03  0.66719001411E+03  0.85367256601E+03  0.11242197205E+04  0.12699999809E+01 0. -1.
</event>
<event>
 5   0  0.2943244E-05  0.2156678E+04  0.7818609E-02  0.8536679E-01
        1   -1    0    0  501    0  0.00000000000E+00  0.00000000000E+00  0.13832396465E+04  0.13832396465E+04  0.50400001928E-02 0.  1.
       -1   -1    0    0    0  501  0.00000000000E+00  0.00000000000E+00 -0.84064615535E+03  0.84064615537E+03  0.50400001928E-02 0. -1.
    10030    2    1    2    0    0  0.00000000000E+00  0.00000000000E+00  0.54259349115E+03  0.22238858019E+04  0.21566780852E+04 0.  0.
        3    1    3    3  502    0  0.69951146866E+03  0.44381535933E+03  0.98311772252E+03  0.12856161303E+04  0.10100000352E+00 0.  1.
       -3    1    3    3    0  502 -0.69951146866E+03 -0.44381535933E+03 -0.44052423137E+03  0.93826967157E+03  0.10100000352E+00 0. -1.
</event>
<event>
 5   0  0.2901816E-05  0.2345780E+04  0.7818609E-02  0.8460086E-01
       -1   -1    0    0    0  501  0.00000000000E+00  0.00000000000E+00  0.10150760964E+04  0.10150760965E+04  0.50400001928E-02 0.  1.
        1   -1    0    0  501    0  0.00000000000E+00  0.00000000000E+00 -0.13552393872E+04  0.13552393872E+04  0.50400001928E-02 0. -1.
    10030    2    1    2    0    0  0.00000000000E+00  0.00000000000E+00 -0.34016329075E+03  0.23703154837E+04  0.23457801320E+04 0.  0.
        4    1    3    3  502    0 -0.87851073683E+03  0.45900206298E+03  0.46353799957E+03  0.10942271695E+04  0.12699999809E+01 0.  1.
       -4    1    3    3    0  502  0.87851073683E+03 -0.45900206298E+03 -0.80370129032E+03  0.12760883142E+04  0.12699999809E+01 0. -1.
</event>
<event>
 5   0  0.6703961E-05  0.2360525E+04  0.7818609E-02  0.8454432E-01
        2   -1    0    0  501    0  0.00000000000E+00  0.00000000000E+00  0.12723403294E+04  0.12723403294E+04  0.25500000920E-02 0.  1.
       -2   -1    0    0    0  501  0.00000000000E+00  0.00000000000E+00 -0.10948482902E+04  0.10948482902E+04  0.25500000920E-02 0. -1.
    10030    2    1    2    0    0  0.00000000000E+00  0.00000000000E+00  0.17749203918E+03  0.23671886196E+04  0.23605250554E+04 0.  0.
        2    1    3    3  502    0 -0.26526510786E+03  0.11495708069E+04  0.12262031513E+03  0.11861342079E+04  0.25500000920E-02 0.  1.
       -2    1    3    3    0  502  0.26526510786E+03 -0.11495708069E+04  0.54871724054E+02  0.11810544118E+04  0.25500000920E-02 0. -1.
</event>
<event>
 5   0  0.6600166E-05  0.2428096E+04  0.7818609E-02  0.8429059E-01
        2   -1    0    0  501    0  0.00000000000E+00  0.00000000000E+00  0.28242642309E+04  0.28242642309E+04  0.25500000920E-02 0. -1.
       -2   -1    0    0    0  501  0.00000000000E+00  0.00000000000E+00 -0.52187475420E+03  0.52187475421E+03  0.25500000920E-02 0.  1.
    10030    2    1    2    0    0  0.00000000000E+00  0.00000000000E+00  0.23023894767E+04  0.33461389851E+04  0.24280957158E+04 0.  0.
        5    1    3    3  502    0  0.73776352545E+03 -0.95381457106E+03  0.13452702774E+04  0.18066077230E+04  0.46999998093E+01 0. -1.
       -5    1    3    3    0  502 -0.73776352545E+03  0.95381457106E+03  0.95711919931E+03  0.15395312621E+04  0.46999998093E+01 0.  1.
</event>
<event>
 5   0  0.6714629E-05  0.2302279E+04  0.7818609E-02  0.8477023E-01
        2   -1    0    0  501    0  0.00000000000E+00  0.00000000000E+00  0.21184361000E+04  0.21184361000E+04  0.25500000920E-02 0. -1.
       -2   -1    0    0    0  501  0.00000000000E+00  0.00000000000E+00 -0.62551913805E+03  0.62551913805E+03  0.25500000920E-02 0.  1.
    10030    2    1    2    0    0  0.00000000000E+00  0.00000000000E+00  0.14929169619E+04  0.27439552380E+04  0.23022791519E+04 0.  0.
        3    1    3    3  502    0 -0.47557308139E+03  0.93952931937E+03  0.13006811196E+04  0.16735162033E+04  0.10100000352E+00 0. -1.
       -3    1    3    3    0  502  0.47557308139E+03 -0.93952931937E+03  0.19223584229E+03  0.10704390347E+04  0.10100000352E+00 0.  1.
</event>
<event>
 5   0  0.6600166E-05  0.2327561E+04  0.7818609E-02  0.8467133E-01
       -2   -1    0    0    0  501  0.00000000000E+00  0.00000000000E+00  0.65608700908E+03  0.65608700909E+03  0.25500000920E-02 0.  1.
        2   -1    0    0  501    0  0.00000000000E+00  0.00000000000E+00 -0.20643367871E+04  0.20643367871E+04  0.25500000920E-02 0. -1.
    10030    2    1    2    0    0  0.00000000000E+00  0.00000000000E+00 -0.14082497781E+04  0.27204237962E+04  0.23275605671E+04 0.  0.
        5    1    3    3  502    0 -0.51648956195E+03 -0.10351322445E+04 -0.55581211810E+03  0.12834365710E+04  0.46999998093E+01 0.  1.
       -5    1    3    3    0  502  0.51648956195E+03  0.10351322445E+04 -0.85243765996E+03  0.14369872252E+04  0.46999998093E+01 0. -1.
</event>
<event>
 5   0  0.2901816E-05  0.2117666E+04  0.7818609E-02  0.8553501E-01
        1   -1    0    0  501    0  0.00000000000E+00  0.00000000000E+00  0.37722911510E+03  0.37722911513E+03  0.50400001928E-02 0.  1.
       -1   -1    0    0    0  501  0.00000000000E+00  0.00000000000E+00 -0.29720062477E+04  0.29720062477E+04  0.50400001928E-02 0. -1.
    10030    2    1    2    0    0  0.00000000000E+00  0.00000000000E+00 -0.25947771326E+04  0.33492353629E+04  0.21176659670E+04 0.  0.
        4    1    3    3  502    0 -0.86506850922E+03 -0.22412351250E+03 -0.21956179797E+04  0.23705093967E+04  0.12699999809E+01 0. -1.
       -4    1    3    3    0  502  0.86506850922E+03  0.22412351250E+03 -0.39915915299E+03  0.97872596615E+03  0.12699999809E+01 0.  1.
</event>
<event>
 5   0  0.2943244E-05  0.1702449E+04  0.7818609E-02  0.8759969E-01
       -1   -1    0    0    0  501  0.00000000000E+00  0.00000000000E+00  0.51741403190E+03  0.51741403192E+03  0.50400001928E-02 0.  1.
        1   -1    0    0  501    0  0.00000000000E+00  0.00000000000E+00 -0.14003934913E+04  0.14003934913E+04  0.50400001928E-02 0. -1.
    10030    2    1    2    0    0  0.00000000000E+00  0.00000000000E+00 -0.88297945942E+03  0.19178075233E+04  0.17024491095E+04 0.  0.
        3    1    3    3  502    0 -0.73809127722E+03 -0.26650833383E+03 -0.69953620596E+02  0.78784449274E+03  0.10100000352E+00 0.  1.
       -3    1    3    3    0  502  0.73809127722E+03  0.26650833383E+03 -0.81302583883E+03  0.11299630305E+04  0.10100000352E+00 0. -1.
</event>
<event>
 5   0  0.2943244E-05  0.2393399E+04  0.7818609E-02  0.8441979E-01
        1   -1    0    0  501    0  0.00000000000E+00  0.00000000000E+00  0.11742504813E+04  0.11742504813E+04  0.50400001928E-02 0.  1.
       -1   -1    0    0    0  501  0.00000000000E+00  0.00000000000E+00 -0.12195781444E+04  0.12195781444E+04  0.50400001928E-02 0. -1.
    10030    2    1    2    0    0  0.00000000000E+00  0.00000000000E+00 -0.45327663079E+02  0.23938286257E+04  0.23933994427E+04 0.  0.
        3    1    3    3  502    0 -0.10657300456E+04 -0.10137667455E+03 -0.55757975402E+03  0.12070430616E+04  0.10100000352E+00 0. -1.
       -3    1    3    3    0  502  0.10657300456E+04  0.10137667455E+03  0.51225209094E+03  0.11867855641E+04  0.10100000352E+00 0.  1.
</event>
<event>
 5   0  0.2847158E-05  0.2452869E+04  0.7818609E-02  0.8419971E-01
       -1   -1    0    0    0  501  0.00000000000E+00  0.00000000000E+00  0.13564473172E+04  0.13564473172E+04  0.50400001928E-02 0. -1.
        1   -1    0    0  501    0  0.00000000000E+00  0.00000000000E+00 -0.11088834048E+04  0.11088834048E+04  0.50400001928E-02 0.  1.
    10030    2    1    2    0    0  0.00000000000E+00  0.00000000000E+00  0.24756391241E+03  0.24653307220E+04  0.24528692746E+04 0.  0.
        5    1    3    3  502    0 -0.59365296049E+03 -0.26827773889E+03  0.11681581662E+04  0.13375396719E+04  0.46999998093E+01 0. -1.
       -5    1    3    3    0  502  0.59365296049E+03  0.26827773889E+03 -0.92059425376E+03  0.11277910501E+04  0.46999998093E+01 0.  1.
</event>
<event>
 5   0  0.6703961E-05  0.2411890E+04  0.7818609E-02  0.8435066E-01
       -2   -1    0    0    0  501  0.00000000000E+00  0.00000000000E+00  0.70758844830E+03  0.70758844831E+03  0.25500000920E-02 0.  1.
        2   -1    0    0  501    0  0.00000000000E+00  0.00000000000E+00 -0.20552947265E+04  0.20552947265E+04  0.25500000920E-02 0. -1.
    10030    2    1    2    0    0  0.00000000000E+00  0.00000000000E+00 -0.13477062782E+04  0.27628831748E+04  0.24118895550E+04 0.  0.
        2    1    3    3  502    0  0.90140463162E+03  0.67471232821E+03 -0.17910272347E+03  0.11401073727E+04  0.25500000920E-02 0.  1.
       -2    1    3    3    0  502 -0.90140463162E+03 -0.67471232821E+03 -0.11686035547E+04  0.16227758021E+04  0.25500000920E-02 0. -1.
</event>
<event>
 5   0  0.6714629E-05  0.2419855E+04  0.7818609E-02  0.8432107E-01
        2   -1    0    0  501    0  0.00000000000E+00  0.00000000000E+00  0.24947463836E+04  0.24947463836E+04  0.25500000920E-02 0. -1.
       -2   -1    0    0    0  501  0.00000000000E+00  0.00000000000E+00 -0.58680314687E+03  0.58680314687E+03  0.25500000920E-02 0.  1.
    10030    2    1    2    0    0  0.00000000000E+00  0.00000000000E+00  0.19079432367E+04  0.30815495305E+04  0.24198553912E+04 0.  0.
        3    1    3    3  502    0 -0.11277423665E+04 -0.17413389252E+03  0.44173761104E+03  0.12236247729E+04  0.10100000352E+00 0.  1.
       -3    1    3    3    0  502  0.11277423665E+04  0.17413389252E+03  0.14662056257E+04  0.18579247575E+04  0.10100000352E+00 0. -1.
</event>
<event>
 5   0  0.6714629E-05  0.2350242E+04  0.7818609E-02  0.8458371E-01
       -2   -1    0    0    0  501  0.00000000000E+00  0.00000000000E+00  0.60193241650E+03  0.60193241650E+03  0.25500000920E-02 0. -1.
        2   -1    0    0  501    0  0.00000000000E+00  0.00000000000E+00 -0.22941263013E+04  0.22941263013E+04  0.25500000920E-02 0.  1.
    10030    2    1    2    0    0  0.00000000000E+00  0.00000000000E+00 -0.16921938848E+04  0.28960587178E+04  0.23502416798E+04 0.  0.
        3    1    3    3  502    0 -0.32892973900E+03 -0.11188048408E+04 -0.66757139802E+03  0.13437152327E+04  0.10100000352E+00 0.  1.
       -3    1    3    3    0  502  0.32892973900E+03  0.11188048408E+04 -0.10246224868E+04  0.15523434851E+04  0.10100000352E+00 0. -1.
</event>
<event>
 5   0  0.2915546E-05  0.2380133E+04  0.7818609E-02  0.8446979E-01
        1   -1    0    0  501    0  0.00000000000E+00  0.00000000000E+00  0.12149063282E+04  0.12149063282E+04  0.50400001928E-02 0.  1.
       -1   -1    0    0    0  501  0.00000000000E+00  0.00000000000E+00 -0.11657350215E+04  0.11657350215E+04  0.50400001928E-02 0. -1.
    10030    2    1    2    0    0  0.00000000000E+00  0.00000000000E+00  0.49171306692E+02  0.23806413497E+04  0.23801334876E+04 0.  0.
        2    1    3    3  502    0  0.15477911391E+02  0.10956051013E+04  0.48908624291E+03  0.11999147706E+04  0.25500000920E-02 0.  1.
       -2    1    3    3    0  502 -0.15477911391E+02 -0.10956051013E+04 -0.43991493622E+03  0.11807265792E+04  0.25500000920E-02 0. -1.
</event>
<event>
 5   0  0.6978115E-05  0.2340834E+04  0.7818609E-02  0.8461993E-01
       -2   -1    0    0    0  501  0.00000000000E+00  0.00000000000E+00  0.71743701847E+03  0.71743701848E+03  0.25500000920E-02 0. -1.
        2   -1    0    0  501    0  0.00000000000E+00  0.00000000000E+00 -0.19094017191E+04  0.19094017191E+04  0.25500000920E-02 0.  1.
    10030    2    1    2    0    0  0.00000000000E+00  0.00000000000E+00 -0.11919647006E+04  0.26268387376E+04  0.23408335920E+04 0.  0.
        4    1    3    3  502    0  0.94865245352E+03 -0.66018647161E+03 -0.80316444521E+03  0.14074311329E+04  0.12699999809E+01 0.  1.
       -4    1    3    3    0  502 -0.94865245352E+03  0.66018647161E+03 -0.38880025541E+03  0.12194076047E+04  0.12699999809E+01 0. -1.
</event>
<event>
 5   0  0.6714629E-05  0.2011757E+04  0.7818609E-02  0.8601143E-01
        2   -1    0    0  501    0  0.00000000000E+00  0.00000000000E+00  0.19661604415E+04  0.19661604415E+04  0.25500000920E-02 0. -1.
       -2   -1    0    0    0  501  0.00000000000E+00  0.00000000000E+00 -0.51460289338E+03  0.51460289339E+03  0.25500000920E-02 0.  1.
    10030    2    1    2    0    0  0.00000000000E+00  0.00000000000E+00  0.14515575481E+04  0.24807633349E+04  0.20117572936E+04 0.  0.
        3    1    3    3  502    0  0.39226662206E+03 -0.28687886444E+03  0.18117893169E+04  0.18758339811E+04  0.10100000352E+00 0. -1.
       -3    1    3    3    0  502 -0.39226662206E+03  0.28687886444E+03 -0.36023176877E+03  0.60492935379E+03  0.10100000352E+00 0.  1.
</event>
<event>
 5   0  0.6714629E-05  0.2433583E+04  0.7818609E-02  0.8427036E-01
       -2   -1    0    0    0  501  0.00000000000E+00  0.00000000000E+00  0.62476649376E+03  0.62476649376E+03  0.25500000920E-02 0.  1.
        2   -1    0    0  501    0  0.00000000000E+00  0.00000000000E+00 -0.23698167317E+04  0.23698167317E+04  0.25500000920E-02 0. -1.
    10030    2    1    2    0    0  0.00000000000E+00  0.00000000000E+00 -0.17450502379E+04  0.29945832254E+04  0.24335834404E+04 0.  0.
        3    1    3    3  502    0  0.93314293637E+03  0.74876074698E+03 -0.11454233212E+04  0.16563191090E+04  0.10100000352E+00 0.  1.
       -3    1    3    3    0  502 -0.93314293637E+03 -0.74876074698E+03 -0.59962691676E+03  0.13382641165E+04  0.10100000352E+00 0. -1.
</event>
<event>
 5   0  0.6714629E-05  0.2348533E+04  0.7818609E-02  0.8459027E-01
        2   -1    0    0  501    0  0.00000000000E+00  0.00000000000E+00  0.13219530100E+04  0.13219530100E+04  0.25500000920E-02 0.  1.
       -2   -1    0    0    0  501  0.00000000000E+00  0.00000000000E+00 -0.10430795311E+04  0.10430795311E+04  0.25500000920E-02 0. -1.
    10030    2    1    2    0    0  0.00000000000E+00  0.00000000000E+00  0.27887347884E+03  0.23650325411E+04  0.23485332664E+04 0.  0.
        3    1    3    3  502    0  0.95480471585E+03 -0.44971153059E+03  0.65784416722E+03  0.12436444286E+04  0.10100000352E+00 0.  1.
       -3    1    3    3    0  502 -0.95480471585E+03  0.44971153059E+03 -0.37897068838E+03  0.11213881126E+04  0.10100000352E+00 0. -1.
</event>
<event>
 5   0  0.6600166E-05  0.2259222E+04  0.7818609E-02  0.8494175E-01
       -2   -1    0    0    0  501  0.00000000000E+00  0.00000000000E+00  0.79178646553E+03  0.79178646553E+03  0.25500000920E-02 0. -1.
        2   -1    0    0  501    0  0.00000000000E+00  0.00000000000E+00 -0.16115714940E+04  0.16115714941E+04  0.25500000920E-02 0.  1.
    10030    2    1    2    0    0  0.00000000000E+00  0.00000000000E+00 -0.81978502852E+03  0.24033579596E+04  0.22592215449E+04 0.  0.
        5    1    3    3  502    0  0.63147434459E+03 -0.46021619453E+03 -0.12776811621E+04  0.14976815534E+04  0.46999998093E+01 0.  1.
       -5    1    3    3    0  502 -0.63147434459E+03  0.46021619453E+03  0.45789613353E+03  0.90567640617E+03  0.46999998093E+01 0. -1.
</event>
<event>
 5   0  0.2943244E-05  0.2358648E+04  0.7818609E-02  0.8455149E-01
        1   -1    0    0  501    0  0.00000000000E+00  0.00000000000E+00  0.10246776260E+04  0.10246776260E+04  0.50400001928E-02 0.  1.
       -1   -1    0    0    0  501  0.00000000000E+00  0.00000000000E+00 -0.13573102138E+04  0.13573102138E+04  0.50400001928E-02 0. -1.
    10030    2    1    2    0    0  0.00000000000E+00  0.00000000000E+00 -0.33263258784E+03  0.23819878398E+04  0.23586482635E+04 0.  0.
        3    1    3    3  502    0 -0.36508099477E+03 -0.76739042578E+03 -0.99210763996E+03  0.13063115164E+04  0.10100000352E+00 0. -1.
       -3    1    3    3    0  502  0.36508099477E+03  0.76739042578E+03  0.65947505213E+03  0.10756763235E+04  0.10100000352E+00 0.  1.
</event>
<event>
 5   0  0.2915546E-05  0.2347770E+04  0.7818609E-02  0.8459321E-01
        1   -1    0    0  501    0  0.00000000000E+00  0.00000000000E+00  0.13527801222E+04  0.13527801222E+04  0.50400001928E-02 0.  1.
       -1   -1    0    0    0  501  0.00000000000E+00  0.00000000000E+00 -0.10186478086E+04  0.10186478086E+04  0.50400001928E-02 0. -1.
    10030    2    1    2    0    0  0.00000000000E+00  0.00000000000E+00  0.33413231355E+03  0.23714279308E+04  0.23477704377E+04 0.  0.
        2    1    3    3  502    0 -0.62396174106E+03 -0.36874463438E+02  0.11707176709E+04  0.13271276673E+04  0.25500000920E-02 0.  1.
       -2    1    3    3    0  502  0.62396174106E+03  0.36874463438E+02 -0.83658535733E+03  0.10443002636E+04  0.25500000920E-02 0. -1.
</event>
<event>
 5   0  0.2901816E-05  0.2352656E+04  0.7818609E-02  0.8457444E-01
       -1   -1    0    0    0  501  0.00000000000E+00  0.00000000000E+00  0.66321171644E+03  0.66321171646E+03  0.50400001928E-02 0. -1.
        1   -1    0    0  501    0  0.00000000000E+00  0.00000000000E+00 -0.20864350059E+04  0.20864350059E+04  0.50400001928E-02 0.  1.
    10030    2    1    2    0    0  0.00000000000E+00  0.00000000000E+00 -0.14232232894E+04  0.27496467223E+04  0.23526564913E+04 0.  0.
        4    1    3    3  502    0  0.33388887567E+03  0.11204291426E+04 -0.86356276960E+03  0.14534736030E+04  0.12699999809E+01 0.  1.
       -4    1    3    3    0  502 -0.33388887567E+03 -0.11204291426E+04 -0.55966051983E+03  0.12961731193E+04  0.12699999809E+01 0. -1.
</event>
<event>
 5   0  0.6714629E-05  0.2387311E+04  0.7818609E-02  0.8444269E-01
       -2   -1    0    0    0  501  0.00000000000E+00  0.00000000000E+00  0.18876580145E+04  0.18876580145E+04  0.25500000920E-02 0. -1.
        2   -1    0    0  501    0  0.00000000000E+00  0.00000000000E+00 -0.75480517754E+03  0.75480517755E+03  0.25500000920E-02 0.  1.
    10030    2    1    2    0    0  0.00000000000E+00  0.00000000000E+00  0.11328528370E+04  0.26424631920E+04  0.23873114944E+04 0.  0.
        3    1    3    3  502    0 -0.43730689177E+03 -0.43056058070E+03  0.16996634417E+04  0.18070626875E+04  0.10100000352E+00 0. -1.
       -3    1    3    3    0  502  0.43730689177E+03  0.43056058070E+03 -0.56681060472E+03  0.83540050459E+03  0.10100000352E+00 0.  1.
</event>
<event>
 5   0  0.6714629E-05  0.2335649E+04  0.7818609E-02  0.8463996E-01
       -2   -1    0    0    0  501  0.00000000000E+00  0.00000000000E+00  0.11593810351E+04  0.11593810351E+04  0.25500000920E-02 0. -1.
        2   -1    0    0  501    0  0.00000000000E+00  0.00000000000E+00 -0.11763297140E+04  0.11763297140E+04  0.25500000920E-02 0.  1.
    10030    2    1    2    0    0  0.00000000000E+00  0.00000000000E+00 -0.16948678864E+02  0.23357107490E+04  0.23356492557E+04 0.  0.
        3    1    3    3  502    0 -0.11252530930E+04  0.18532879161E+03  0.24307366510E+03  0.11660300602E+04  0.10100000352E+00 0. -1.
       -3    1    3    3    0  502  0.11252530930E+04 -0.18532879161E+03 -0.26002234397E+03  0.11696806889E+04  0.10100000352E+00 0.  1.
</event>
<event>
 5   0  0.6337926E-05  0.1939466E+04  0.7818609E-02  0.8635457E-01
        2   -1    0    0  501    0  0.00000000000E+00  0.00000000000E+00  0.12791811069E+04  0.12791811069E+04  0.25500000920E-02 0. -1.
       -2   -1    0    0    0  501  0.00000000000E+00  0.00000000000E+00 -0.73514354876E+03  0.73514354876E+03  0.25500000920E-02 0.  1.
    10030    2    1    2    0    0  0.00000000000E+00  0.00000000000E+00  0.54403755813E+03  0.20143246557E+04  0.19394656361E+04 0.  0.
        1    1    3    3  502    0  0.13689405056E+03  0.42883842823E+03  0.11640886195E+04  0.12480964277E+04  0.50400001928E-02 0. -1.
       -1    1    3    3    0  502 -0.13689405056E+03 -0.42883842823E+03 -0.62005106140E+03  0.76622822799E+03  0.50400001928E-02 0.  1.
</event>
<event>
 5   0  0.2943123E-05  0.2418699E+04  0.7818609E-02  0.8432536E-01
       -1   -1    0    0    0  501  0.00000000000E+00  0.00000000000E+00  0.18025116888E+04  0.18025116888E+04  0.50400001928E-02 0. -1.
        1   -1    0    0  501    0  0.00000000000E+00  0.00000000000E+00 -0.81138217539E+03  0.81138217541E+03  0.50400001928E-02 0.  1.
    10030    2    1    2    0    0  0.00000000000E+00  0.00000000000E+00  0.99112951337E+03  0.26138938642E+04  0.24186987040E+04 0.  0.
        1    1    3    3  502    0  0.12976978860E+03  0.10949601318E+04 -0.41260535250E+02  0.11033949066E+04  0.50400001928E-02 0.  1.
       -1    1    3    3    0  502 -0.12976978860E+03 -0.10949601318E+04  0.10323900486E+04  0.15104989575E+04  0.50400001928E-02 0. -1.
</event>
<event>
 5   0  0.6703961E-05  0.2358834E+04  0.7818609E-02  0.8455078E-01
       -2   -1    0    0    0  501  0.00000000000E+00  0.00000000000E+00  0.93447295640E+03  0.93447295640E+03  0.25500000920E-02 0. -1.
        2   -1    0    0  501    0  0.00000000000E+00  0.00000000000E+00 -0.14885651960E+04  0.14885651960E+04  0.25500000920E-02 0.  1.
    10030    2    1    2    0    0  0.00000000000E+00  0.00000000000E+00 -0.55409223957E+03  0.24230381524E+04  0.23588335418E+04 0.  0.
        2    1    3    3  502    0 -0.43306070647E+03 -0.86787510702E+03 -0.96633606593E+03  0.13691435897E+04  0.25500000920E-02 0.  1.
       -2    1    3    3    0  502  0.43306070647E+03  0.86787510702E+03  0.41224382635E+03  0.10538945627E+04  0.25500000920E-02 0. -1.
</event>
<event>
 5   0  0.6714629E-05  0.2429940E+04  0.7818609E-02  0.8428379E-01
        2   -1    0    0  501    0  0.00000000000E+00  0.00000000000E+00  0.10593418158E+04  0.10593418158E+04  0.25500000920E-02 0. -1.
       -2   -1    0    0    0  501  0.00000000000E+00  0.00000000000E+00 -0.13934616326E+04  0.13934616326E+04  0.25500000920E-02 0.  1.
    10030    2    1    2    0    0  0.00000000000E+00  0.00000000000E+00 -0.33411981677E+03  0.24528034484E+04  0.24299400619E+04 0.  0.
        3    1    3    3  502    0 -0.11848753718E+04  0.26534190540E+03 -0.21007770006E+03  0.12322615890E+04  0.10100000352E+00 0.  1.
       -3    1    3    3    0  502  0.11848753718E+04 -0.26534190540E+03 -0.12404211671E+03  0.12205418594E+04  0.10100000352E+00 0. -1.
</event>
<event>
 5   0  0.2943123E-05  0.2168079E+04  0.7818609E-02  0.8531833E-01
       -1   -1    0    0    0  501  0.00000000000E+00  0.00000000000E+00  0.46229665947E+03  0.46229665950E+03  0.50400001928E-02 0. -1.
        1   -1    0    0  501    0  0.00000000000E+00  0.00000000000E+00 -0.25419651574E+04  0.25419651574E+04  0.50400001928E-02 0.  1.
    10030    2    1    2    0    0  0.00000000000E+00  0.00000000000E+00 -0.20796684979E+04  0.30042618169E+04  0.21680793351E+04 0.  0.
        1    1    3    3  502    0 -0.99990559059E+03 -0.36355918201E+03 -0.75197456460E+03  0.13028630837E+04  0.50400001928E-02 0.  1.
       -1    1    3    3    0  502  0.99990559059E+03  0.36355918201E+03 -0.13276939333E+04  0.17013987333E+04  0.50400001928E-02 0. -1.
</event>
<event>
 5   0  0.6978115E-05  0.2280006E+04  0.7818609E-02  0.8485847E-01
       -2   -1    0    0    0  501  0.00000000000E+00  0.00000000000E+00  0.58205218986E+03  0.58205218987E+03  0.25500000920E-02 0. -1.
        2   -1    0    0  501    0  0.00000000000E+00  0.00000000000E+00 -0.22328005113E+04  0.22328005113E+04  0.25500000920E-02 0.  1.
    10030    2    1    2    0    0  0.00000000000E+00  0.00000000000E+00 -0.16507483214E+04  0.28148527011E+04  0.22800056378E+04 0.  0.
        4    1    3    3  502    0 -0.58479366138E+02 -0.80262346526E+03 -0.18222408243E+04  0.19920309983E+04  0.12699999809E+01 0.  1.
       -4    1    3    3    0  502  0.58479366138E+02  0.80262346526E+03  0.17149250294E+03  0.82282170287E+03  0.12699999809E+01 0. -1.
</event>
<event>
 5   0  0.2847158E-05  0.2416928E+04  0.7818609E-02  0.8433193E-01
       -1   -1    0    0    0  501  0.00000000000E+00  0.00000000000E+00  0.13417543654E+04  0.13417543655E+04  0.50400001928E-02 0. -1.
        1   -1    0    0  501    0  0.00000000000E+00  0.00000000000E+00 -0.10884150994E+04  0.10884150995E+04  0.50400001928E-02 0.  1.
    10030    2    1    2    0    0  0.00000000000E+00  0.00000000000E+00  0.25333926600E+03  0.24301694649E+04  0.24169283904E+04 0.  0.
        5    1    3    3  502    0 -0.65269443761E+03 -0.11260674852E+02  0.11492104857E+04  0.13216821335E+04  0.46999998093E+01 0. -1.
       -5    1    3    3    0  502  0.65269443761E+03  0.11260674852E+02 -0.89587121965E+03  0.11084873314E+04  0.46999998093E+01 0.  1.
</event>
<event>
 5   0  0.6600166E-05  0.2437213E+04  0.7818609E-02  0.8425701E-01
       -2   -1    0    0    0  501  0.00000000000E+00  0.00000000000E+00  0.63458674055E+03  0.63458674056E+03  0.25500000920E-02 0. -1.
        2   -1    0    0  501    0  0.00000000000E+00  0.00000000000E+00 -0.23401092622E+04  0.23401092622E+04  0.25500000920E-02 0.  1.
    10030    2    1    2    0    0  0.00000000000E+00  0.00000000000E+00 -0.17055225216E+04  0.29746960027E+04  0.24372134164E+04 0.  0.
        5    1    3    3  502    0  0.15137401232E+03  0.10562641981E+04 -0.15710854033E+04  0.18991944562E+04  0.46999998093E+01 0. -1.
       -5    1    3    3    0  502 -0.15137401232E+03 -0.10562641981E+04 -0.13443711830E+03  0.10755015466E+04  0.46999998093E+01 0.  1.
</event>
<event>
 5   0  0.6978115E-05  0.2272016E+04  0.7818609E-02  0.8489037E-01
       -2   -1    0    0    0  501  0.00000000000E+00  0.00000000000E+00  0.53476701074E+03  0.53476701075E+03  0.25500000920E-02 0. -1.
        2   -1    0    0  501    0  0.00000000000E+00  0.00000000000E+00 -0.24132270603E+04  0.24132270604E+04  0.25500000920E-02 0.  1.
    10030    2    1    2    0    0  0.00000000000E+00  0.00000000000E+00 -0.18784600496E+04  0.29479940711E+04  0.22720160398E+04 0.  0.
        4    1    3    3  502    0  0.34436245820E+03  0.10221163623E+04 -0.47645732938E+03  0.11791185523E+04  0.12699999809E+01 0.  1.
       -4    1    3    3    0  502 -0.34436245820E+03 -0.10221163623E+04 -0.14020027202E+04  0.17688755188E+04  0.12699999809E+01 0. -1.
</event>
<event>
 5   0  0.6714629E-05  0.2377816E+04  0.7818609E-02  0.8447856E-01
       -2   -1    0    0    0  501  0.00000000000E+00  0.00000000000E+00  0.10115907864E+04  0.10115907864E+04  0.25500000920E-02 0.  1.
        2   -1    0    0  501    0  0.00000000000E+00  0.00000000000E+00 -0.13973063857E+04  0.13973063857E+04  0.25500000920E-02 0. -1.
    10030    2    1    2    0    0  0.00000000000E+00  0.00000000000E+00 -0.38571559927E+03  0.24088971722E+04  0.23778160279E+04 0.  0.
        3    1    3    3  502    0  0.18780508343E+03  0.81664763337E+03 -0.10472788834E+04  0.13412595484E+04  0.10100000352E+00 0. -1.
       -3    1    3    3    0  502 -0.18780508343E+03 -0.81664763337E+03  0.66156328414E+03  0.10676376237E+04  0.10100000352E+00 0.  1.
</event>
<event>
 5   0  0.6714629E-05  0.1801277E+04  0.7818609E-02  0.8705621E-01
       -2   -1    0    0    0  501  0.00000000000E+00  0.00000000000E+00  0.54825497615E+03  0.54825497616E+03  0.25500000920E-02 0. -1.
        2   -1    0    0  501    0  0.00000000000E+00  0.00000000000E+00 -0.14795112815E+04  0.14795112815E+04  0.25500000920E-02 0.  1.
    10030    2    1    2    0    0  0.00000000000E+00  0.00000000000E+00 -0.93125630532E+03  0.20277662576E+04  0.18012766832E+04 0.  0.
        3    1    3    3  502    0 -0.51902552572E+03  0.54693389388E+03  0.88876821316E+02  0.75922544754E+03  0.10100000352E+00 0. -1.
       -3    1    3    3    0  502  0.51902552572E+03 -0.54693389388E+03 -0.10201331266E+04  0.12685408101E+04  0.10100000352E+00 0.  1.
</event>
<event>
 5   0  0.6978115E-05  0.2384582E+04  0.7818609E-02  0.8445298E-01
       -2   -1    0    0    0  501  0.00000000000E+00  0.00000000000E+00  0.10351915096E+04  0.10351915096E+04  0.25500000920E-02 0. -1.
        2   -1    0    0  501    0  0.00000000000E+00  0.00000000000E+00 -0.13732319824E+04  0.13732319824E+04  0.25500000920E-02 0.  1.
    10030    2    1    2    0    0  0.00000000000E+00  0.00000000000E+00 -0.33804047281E+03  0.24084234919E+04  0.23845822182E+04 0.  0.
        4    1    3    3  502    0  0.16386236282E+03 -0.91553062987E+03  0.58443378328E+03  0.10984587694E+04  0.12699999809E+01 0. -1.
       -4    1    3    3    0  502 -0.16386236282E+03  0.91553062987E+03 -0.92247425609E+03  0.13099647225E+04  0.12699999809E+01 0.  1.
</event>
<event>
 5   0  0.6714629E-05  0.2390586E+04  0.7818609E-02  0.8443036E-01
        2   -1    0    0  501    0  0.00000000000E+00  0.00000000000E+00  0.18239569621E+04  0.18239569621E+04  0.25500000920E-02 0. -1.
       -2   -1    0    0    0  501  0.00000000000E+00  0.00000000000E+00 -0.78331118898E+03  0.78331118898E+03  0.25500000920E-02 0.  1.
    10030    2    1    2    0    0  0.00000000000E+00  0.00000000000E+00  0.10406457732E+04  0.26072681511E+04  0.23905864525E+04 0.  0.
        3    1    3    3  502    0  0.26342108058E+02 -0.10988638578E+04  0.10324942389E+04  0.15080583703E+04  0.10100000352E+00 0. -1.
       -3    1    3    3    0  502 -0.26342108058E+02  0.10988638578E+04  0.81515342290E+01  0.10992097808E+04  0.10100000352E+00 0.  1.
</event>
<event>
 5   0  0.2847158E-05  0.1602438E+04  0.7818609E-02  0.8819052E-01
        1   -1    0    0  501    0  0.00000000000E+00  0.00000000000E+00  0.19083667404E+04  0.19083667404E+04  0.50400001928E-02 0.  1.
       -1   -1    0    0    0  501  0.00000000000E+00  0.00000000000E+00 -0.33638802457E+03  0.33638802461E+03  0.50400001928E-02 0. -1.
    10030    2    1    2    0    0  0.00000000000E+00  0.00000000000E+00  0.15719787158E+04  0.22447547650E+04  0.16024377904E+04 0.  0.
        5    1    3    3  502    0  0.27398535139E+02  0.76213658049E+03  0.11300561827E+04  0.13633238475E+04  0.46999998093E+01 0.  1.
       -5    1    3    3    0  502 -0.27398535139E+02 -0.76213658049E+03  0.44192253308E+03  0.88143091748E+03  0.46999998093E+01 0. -1.
</event>
<event>
 5   0  0.6337926E-05  0.1676915E+04  0.7818609E-02  0.8774641E-01
        2   -1    0    0  501    0  0.00000000000E+00  0.00000000000E+00  0.10985345681E+04  0.10985345681E+04  0.25500000920E-02 0. -1.
       -2   -1    0    0    0  501  0.00000000000E+00  0.00000000000E+00 -0.63995316797E+03  0.63995316798E+03  0.25500000920E-02 0.  1.
    10030    2    1    2    0    0  0.00000000000E+00  0.00000000000E+00  0.45858140014E+03  0.17384877361E+04  0.16769146394E+04 0.  0.
        1    1    3    3  502    0 -0.42059680750E+03 -0.17720361096E+03 -0.49988987450E+03  0.67689931369E+03  0.50400001928E-02 0.  1.
       -1    1    3    3    0  502  0.42059680750E+03  0.17720361096E+03  0.95847127465E+03  0.10615884224E+04  0.50400001928E-02 0. -1.
</event>
<event>
 5   0  0.2943123E-05  0.2414714E+04  0.7818609E-02  0.8434015E-01
        1   -1    0    0  501    0  0.00000000000E+00  0.00000000000E+00  0.22432287105E+04  0.22432287105E+04  0.50400001928E-02 0. -1.
       -1   -1    0    0    0  501  0.00000000000E+00  0.00000000000E+00 -0.64982695006E+03  0.64982695008E+03  0.50400001928E-02 0.  1.
    10030    2    1    2    0    0  0.00000000000E+00  0.00000000000E+00  0.15934017605E+04  0.28930556606E+04  0.24147136238E+04 0.  0.
        1    1    3    3  502    0  0.54469771855E+03  0.62275401770E+02  0.20854948038E+04  0.21563539614E+04  0.50400001928E-02 0. -1.
       -1    1    3    3    0  502 -0.54469771855E+03 -0.62275401770E+02 -0.49209304333E+03  0.73670169918E+03  0.50400001928E-02 0.  1.
</event>
<event>
 5   0  0.6978115E-05  0.2391256E+04  0.7818609E-02  0.8442784E-01
        2   -1    0    0  501    0  0.00000000000E+00  0.00000000000E+00  0.11867651054E+04  0.11867651054E+04  0.25500000920E-02 0.  1.
       -2   -1    0    0    0  501  0.00000000000E+00  0.00000000000E+00 -0.12045573803E+04  0.12045573803E+04  0.25500000920E-02 0. -1.
    10030    2    1    2    0    0  0.00000000000E+00  0.00000000000E+00 -0.17792274878E+02  0.23913224856E+04  0.23912562944E+04 0.  0.
        4    1    3    3  502    0  0.11273209215E+04  0.39831354919E+03 -0.13244812840E+02  0.11956935985E+04  0.12699999809E+01 0. -1.
       -4    1    3    3    0  502 -0.11273209215E+04 -0.39831354919E+03 -0.45474620384E+01  0.11956288872E+04  0.12699999809E+01 0.  1.
</event>
<event>
 5   0  0.6978115E-05  0.2411460E+04  0.7818609E-02  0.8435226E-01
       -2   -1    0    0    0  501  0.00000000000E+00  0.00000000000E+00  0.82306171779E+03  0.82306171779E+03  0.25500000920E-02 0. -1.
        2   -1    0    0  501    0  0.00000000000E+00  0.00000000000E+00 -0.17663131568E+04  0.17663131568E+04  0.25500000920E-02 0.  1.
    10030    2    1    2    0    0  0.00000000000E+00  0.00000000000E+00 -0.94325143905E+03  0.25893748746E+04  0.24114599238E+04 0.  0.
        4    1    3    3  502    0 -0.19960273274E+03  0.10124358196E+04 -0.11412675213E+04  0.15386229908E+04  0.12699999809E+01 0.  1.
       -4    1    3    3    0  502  0.19960273274E+03 -0.10124358196E+04  0.19801608225E+03  0.10507518839E+04  0.12699999809E+01 0. -1.
</event>
<event>
 5   0  0.2339125E-05  0.2254906E+04  0.7818609E-02  0.8495916E-01
        3   -1    0    0  501    0  0.00000000000E+00  0.00000000000E+00  0.74137868866E+03  0.74137869554E+03  0.10100000352E+00 0. -1.
       -3   -1    0    0    0  501  0.00000000000E+00  0.00000000000E+00 -0.17145759484E+04  0.17145759514E+04  0.10100000352E+00 0.  1.
    10030    2    1    2    0    0  0.00000000000E+00  0.00000000000E+00 -0.97319725979E+03  0.24559546470E+04  0.22549058343E+04 0.  0.
        4    1    3    3  502    0  0.65749177677E+03 -0.81185046352E+03 -0.94837172323E+03  0.14109596557E+04  0.12699999809E+01 0.  1.
       -4    1    3    3    0  502 -0.65749177677E+03  0.81185046352E+03 -0.24825536564E+02  0.10449949913E+04  0.12699999809E+01 0. -1.
</event>
<event>
 5   0  0.6978115E-05  0.2348622E+04  0.7818609E-02  0.8458993E-01
        2   -1    0    0  501    0  0.00000000000E+00  0.00000000000E+00  0.12289246352E+04  0.12289246352E+04  0.25500000920E-02 0.  1.
       -2   -1    0    0    0  501  0.00000000000E+00  0.00000000000E+00 -0.11221243610E+04  0.11221243610E+04  0.25500000920E-02 0. -1.
    10030    2    1    2    0    0  0.00000000000E+00  0.00000000000E+00  0.10680027420E+03  0.23510489961E+04  0.23486219542E+04 0.  0.
        4    1    3    3  502    0  0.65794362791E+03 -0.70381076308E+03 -0.61868420587E+03  0.11449939595E+04  0.12699999809E+01 0. -1.
       -4    1    3    3    0  502 -0.65794362791E+03  0.70381076308E+03  0.72548448007E+03  0.12060550367E+04  0.12699999809E+01 0.  1.
</event>
<event>
 5   0  0.6337926E-05  0.2304074E+04  0.7818609E-02  0.8476317E-01
        2   -1    0    0  501    0  0.00000000000E+00  0.00000000000E+00  0.99802321713E+03  0.99802321714E+03  0.25500000920E-02 0. -1.
       -2   -1    0    0    0  501  0.00000000000E+00  0.00000000000E+00 -0.13298179646E+04  0.13298179646E+04  0.25500000920E-02 0.  1.
    10030    2    1    2    0    0  0.00000000000E+00  0.00000000000E+00 -0.33179474747E+03  0.23278411817E+04  0.23040739600E+04 0.  0.
        1    1    3    3  502    0  0.72015150654E+03 -0.52715260419E+03  0.57009575397E+03  0.10590171052E+04  0.50400001928E-02 0. -1.
       -1    1    3    3    0  502 -0.72015150654E+03  0.52715260419E+03 -0.90189050144E+03  0.12688240765E+04  0.50400001928E-02 0.  1.
</event>
<event>
 5   0  0.2901816E-05  0.2501650E+04  0.7818609E-02  0.8402398E-01
        1   -1    0    0  501    0  0.00000000000E+00  0.00000000000E+00  0.13641910404E+04  0.13641910404E+04  0.50400001928E-02 0. -1.
       -1   -1    0    0    0  501  0.00000000000E+00  0.00000000000E+00 -0.11468801528E+04  0.11468801529E+04  0.50400001928E-02 0.  1.
    10030    2    1    2    0    0  0.00000000000E+00  0.00000000000E+00  0.21731088754E+03  0.25110711933E+04  0.25016503584E+04 0.  0.
        4    1    3    3  502    0  0.73729527152E+03  0.44957022933E+03 -0.79965243705E+03  0.11769296247E+04  0.12699999809E+01 0.  1.
       -4    1    3    3    0  502 -0.73729527152E+03 -0.44957022933E+03  0.10169633246E+04  0.13341415686E+04  0.12699999809E+01 0. -1.
</event>
<event>
 5   0  0.2339125E-05  0.2415250E+04  0.7818609E-02  0.8433816E-01
       -3   -1    0    0    0  501  0.00000000000E+00  0.00000000000E+00  0.13728273396E+04  0.13728273434E+04  0.10100000352E+00 0.  1.
        3   -1    0    0  501    0  0.00000000000E+00  0.00000000000E+00 -0.10623030676E+04  0.10623030724E+04  0.10100000352E+00 0. -1.
    10030    2    1    2    0    0  0.00000000000E+00  0.00000000000E+00  0.31052427209E+03  0.24351304157E+04  0.24152504669E+04 0.  0.
        1    1    3    3  502    0 -0.64937150885E+03 -0.83594971398E+03  0.74130669718E+03  0.12922967539E+04  0.50400001928E-02 0.  1.
       -1    1    3    3    0  502  0.64937150885E+03  0.83594971398E+03 -0.43078242509E+03  0.11428336618E+04  0.50400001928E-02 0. -1.
</event>
<event>
 5   0  0.2847158E-05  0.2372874E+04  0.7818609E-02  0.8449729E-01
       -1   -1    0    0    0  501  0.00000000000E+00  0.00000000000E+00  0.57381870283E+03  0.57381870286E+03  0.50400001928E-02 0. -1.
        1   -1    0    0  501    0  0.00000000000E+00  0.00000000000E+00 -0.24530970637E+04  0.24530970637E+04  0.50400001928E-02 0.  1.
    10030    2    1    2    0    0  0.00000000000E+00  0.00000000000E+00 -0.18792783608E+04  0.30269157665E+04  0.23728741855E+04 0.  0.
        5    1    3    3  502    0 -0.80851577380E+03 -0.70638802983E+03 -0.15837125059E+04  0.19133345752E+04  0.46999998093E+01 0. -1.
       -5    1    3    3    0  502  0.80851577380E+03  0.70638802983E+03 -0.29556585494E+03  0.11135811914E+04  0.46999998093E+01 0.  1.
</event>
<event>
 5   0  0.6978115E-05  0.2400538E+04  0.7818609E-02  0.8439302E-01
       -2   -1    0    0    0  501  0.00000000000E+00  0.00000000000E+00  0.10304345300E+04  0.10304345300E+04  0.25500000920E-02 0.  1.
        2   -1    0    0  501    0  0.00000000000E+00  0.00000000000E+00 -0.13980956794E+04  0.13980956794E+04  0.25500000920E-02 0. -1.
    10030    2    1    2    0    0  0.00000000000E+00  0.00000000000E+00 -0.36766114934E+03  0.24285302094E+04  0.24005383266E+04 0.  0.
        4    1    3    3  502    0 -0.45812357447E+03  0.57863960495E+02  0.93697759408E+03  0.10445832050E+04  0.12699999809E+01 0.  1.
       -4    1    3    3    0  502  0.45812357447E+03 -0.57863960495E+02 -0.13046387434E+04  0.13839470045E+04  0.12699999809E+01 0. -1.
</event>
<event>
 5   0  0.6337926E-05  0.2280031E+04  0.7818609E-02  0.8485837E-01
       -2   -1    0    0    0  501  0.00000000000E+00  0.00000000000E+00  0.10014369245E+04  0.10014369245E+04  0.25500000920E-02 0. -1.
        2   -1    0    0  501    0  0.00000000000E+00  0.00000000000E+00 -0.12977700205E+04  0.12977700205E+04  0.25500000920E-02 0.  1.
    10030    2    1    2    0    0  0.00000000000E+00  0.00000000000E+00 -0.29633309595E+03  0.22992069450E+04  0.22800305419E+04 0.  0.
        1    1    3    3  502    0 -0.55214694623E+03  0.33450356563E+03  0.79935094578E+03  0.10274827591E+04  0.50400001928E-02 0. -1.
       -1    1    3    3    0  502  0.55214694623E+03 -0.33450356563E+03 -0.10956840417E+04  0.12717241859E+04  0.50400001928E-02 0.  1.
</event>
<event>
 5   0  0.6703961E-05  0.2393961E+04  0.7818609E-02  0.8441768E-01
        2   -1    0    0  501    0  0.00000000000E+00  0.00000000000E+00  0.19730463707E+04  0.19730463707E+04  0.25500000920E-02 0. -1.
       -2   -1    0    0    0  501  0.00000000000E+00  0.00000000000E+00 -0.72616745446E+03  0.72616745446E+03  0.25500000920E-02 0.  1.
    10030    2    1    2    0    0  0.00000000000E+00  0.00000000000E+00  0.12468789162E+04  0.26992138252E+04  0.23939607854E+04 0.  0.
        2    1    3    3  502    0  0.62713493399E+03 -0.71572066178E+03  0.14421137606E+04  0.17277865579E+04  0.25500000920E-02 0. -1.
       -2    1    3    3    0  502 -0.62713493399E+03  0.71572066178E+03 -0.19523484435E+03  0.97142726727E+03  0.25500000920E-02 0.  1.
</event>
<event>
 5   0  0.6600166E-05  0.2280848E+04  0.7818609E-02  0.8485511E-01
        2   -1    0    0  501    0  0.00000000000E+00  0.00000000000E+00  0.25155716304E+04  0.25155716304E+04  0.25500000920E-02 0. -1.
       -2   -1    0    0    0  501  0.00000000000E+00  0.00000000000E+00 -0.51700666239E+03  0.51700666240E+03  0.25500000920E-02 0.  1.
    10030    2    1    2    0    0  0.00000000000E+00  0.00000000000E+00  0.19985649680E+04  0.30325782928E+04  0.22808483445E+04 0.  0.
        5    1    3    3  502    0  0.43424829546E+03  0.89223052015E+03  0.17465726550E+04  0.20087769942E+04  0.46999998093E+01 0. -1.
       -5    1    3    3    0  502 -0.43424829546E+03 -0.89223052015E+03  0.25199231299E+03  0.10238012986E+04  0.46999998093E+01 0.  1.
</event>
<event>
 5   0  0.6703961E-05  0.2393451E+04  0.7818609E-02  0.8441960E-01
       -2   -1    0    0    0  501  0.00000000000E+00  0.00000000000E+00  0.14218870870E+04  0.14218870870E+04  0.25500000920E-02 0. -1.
        2   -1    0    0  501    0  0.00000000000E+00  0.00000000000E+00 -0.10072189784E+04  0.10072189784E+04  0.25500000920E-02 0.  1.
    10030    2    1    2    0    0  0.00000000000E+00  0.00000000000E+00  0.41466810858E+03  0.24291060654E+04  0.23934507801E+04 0.  0.
        2    1    3    3  502    0  0.84180437722E+03  0.45159962568E+03 -0.52421933823E+03  0.10896709347E+04  0.25500000920E-02 0.  1.
       -2    1    3    3    0  502 -0.84180437722E+03 -0.45159962568E+03  0.93888744680E+03  0.13394351306E+04  0.25500000920E-02 0. -1.
</event>
<event>
 5   0  0.2943244E-05  0.1948719E+04  0.7818609E-02  0.8630979E-01
       -1   -1    0    0    0  501  0.00000000000E+00  0.00000000000E+00  0.44129507309E+03  0.44129507312E+03  0.50400001928E-02 0. -1.
        1   -1    0    0  501    0  0.00000000000E+00  0.00000000000E+00 -0.21513410644E+04  0.21513410644E+04  0.50400001928E-02 0.  1.
    10030    2    1    2    0    0  0.00000000000E+00  0.00000000000E+00 -0.17100459913E+04  0.25926361375E+04  0.19487187712E+04 0.  0.
        3    1    3    3  502    0 -0.79301356201E+02  0.38126860025E+03 -0.20433011655E+04  0.20800803142E+04  0.10100000352E+00 0.  1.
       -3    1    3    3    0  502  0.79301356201E+02 -0.38126860025E+03  0.33325517419E+03  0.51255582327E+03  0.10100000352E+00 0. -1.
</event>
<event>
 5   0  0.6337926E-05  0.1931978E+04  0.7818609E-02  0.8639100E-01
        2   -1    0    0  501    0  0.00000000000E+00  0.00000000000E+00  0.10497980429E+04  0.10497980429E+04  0.25500000920E-02 0. -1.
       -2   -1    0    0    0  501  0.00000000000E+00  0.00000000000E+00 -0.88887100297E+03  0.88887100297E+03  0.25500000920E-02 0.  1.
    10030    2    1    2    0    0  0.00000000000E+00  0.00000000000E+00  0.16092703991E+03  0.19386690459E+04  0.19319783014E+04 0.  0.
        1    1    3    3  502    0  0.84994568316E+03 -0.77876221928E+02  0.53442682418E+03  0.10070175772E+04  0.50400001928E-02 0. -1.
       -1    1    3    3    0  502 -0.84994568316E+03  0.77876221928E+02 -0.37349978427E+03  0.93165146870E+03  0.50400001928E-02 0.  1.
</event>
<event>
 5   0  0.2915546E-05  0.2402227E+04  0.7818609E-02  0.8438670E-01
       -1   -1    0    0    0  501  0.00000000000E+00  0.00000000000E+00  0.11534600680E+04  0.11534600680E+04  0.50400001928E-02 0.  1.
        1   -1    0    0  501    0  0.00000000000E+00  0.00000000000E+00 -0.12507355043E+04  0.12507355043E+04  0.50400001928E-02 0. -1.
    10030    2    1    2    0    0  0.00000000000E+00  0.00000000000E+00 -0.97275436246E+02  0.24041955723E+04  0.24022268501E+04 0.  0.
        2    1    3    3  502    0  0.70863239296E+03  0.16860299402E+03  0.90717723170E+03  0.11634248440E+04  0.25500000920E-02 0.  1.
       -2    1    3    3    0  502 -0.70863239296E+03 -0.16860299402E+03 -0.10044526679E+04  0.12407707283E+04  0.25500000920E-02 0. -1.
</event>
<event>
 5   0  0.2901816E-05  0.2296061E+04  0.7818609E-02  0.8479476E-01
       -1   -1    0    0    0  501  0.00000000000E+00  0.00000000000E+00  0.99699146211E+03  0.99699146212E+03  0.50400001928E-02 0.  1.
        1   -1    0    0  501    0  0.00000000000E+00  0.00000000000E+00 -0.13219510250E+04  0.13219510250E+04  0.50400001928E-02 0. -1.
    10030    2    1    2    0    0  0.00000000000E+00  0.00000000000E+00 -0.32495956293E+03  0.23189424872E+04  0.22960608749E+04 0.  0.
        4    1    3    3  502    0  0.39926378556E+01 -0.23232745864E+03 -0.12979525656E+04  0.13185880573E+04  0.12699999809E+01 0. -1.
       -4    1    3    3    0  502 -0.39926378556E+01  0.23232745864E+03  0.97299300271E+03  0.10003544299E+04  0.12699999809E+01 0.  1.
</event>
<event>
 5   0  0.6714629E-05  0.1757387E+04  0.7818609E-02  0.8729294E-01
        2   -1    0    0  501    0  0.00000000000E+00  0.00000000000E+00  0.14710632080E+04  0.14710632080E+04  0.25500000920E-02 0.  1.
       -2   -1    0    0    0  501  0.00000000000E+00  0.00000000000E+00 -0.52486026041E+03  0.52486026042E+03  0.25500000920E-02 0. -1.
    10030    2    1    2    0    0  0.00000000000E+00  0.00000000000E+00  0.94620294757E+03  0.19959234684E+04  0.17573874000E+04 0.  0.
        3    1    3    3  502    0 -0.30211964649E+03 -0.26287429711E+03 -0.41518681088E+03  0.57685290586E+03  0.10100000352E+00 0. -1.
       -3    1    3    3    0  502  0.30211964649E+03  0.26287429711E+03  0.13613897585E+04  0.14190705625E+04  0.10100000352E+00 0.  1.
</event>
<event>
 5   0  0.6600166E-05  0.2091976E+04  0.7818609E-02  0.8564786E-01
       -2   -1    0    0    0  501  0.00000000000E+00  0.00000000000E+00  0.25709745404E+04  0.25709745404E+04  0.25500000920E-02 0. -1.
        2   -1    0    0  501    0  0.00000000000E+00  0.00000000000E+00 -0.42555489986E+03  0.42555489987E+03  0.25500000920E-02 0.  1.
    10030    2    1    2    0    0  0.00000000000E+00  0.00000000000E+00  0.21454196406E+04  0.29965294403E+04  0.20919759206E+04 0.  0.
        5    1    3    3  502    0 -0.94645843684E+03  0.44240072232E+03  0.11452792591E+04  0.15502221271E+04  0.46999998093E+01 0. -1.
       -5    1    3    3    0  502  0.94645843684E+03 -0.44240072232E+03  0.10001403814E+04  0.14463073132E+04  0.46999998093E+01 0.  1.
</event>
<event>
 5   0  0.2339125E-05  0.2330924E+04  0.7818609E-02  0.8465827E-01
        3   -1    0    0  501    0  0.00000000000E+00  0.00000000000E+00  0.13298500526E+04  0.13298500564E+04  0.10100000352E+00 0.  1.
       -3   -1    0    0    0  501  0.00000000000E+00  0.00000000000E+00 -0.10213947225E+04  0.10213947275E+04  0.10100000352E+00 0. -1.
    10030    2    1    2    0    0  0.00000000000E+00  0.00000000000E+00  0.30845533012E+03  0.23512447839E+04  0.23309241393E+04 0.  0.
        4    1    3    3  502    0 -0.75257272360E+03 -0.36364767206E+03 -0.66506914773E+03  0.10681404017E+04  0.12699999809E+01 0. -1.
       -4    1    3    3    0  502  0.75257272360E+03  0.36364767206E+03  0.97352447785E+03  0.12831043822E+04  0.12699999809E+01 0.  1.
</event>
<event>
 5   0  0.6600166E-05  0.2370361E+04  0.7818609E-02  0.8450684E-01
        2   -1    0    0  501    0  0.00000000000E+00  0.00000000000E+00  0.13600308824E+04  0.13600308824E+04  0.25500000920E-02 0. -1.
       -2   -1    0    0    0  501  0.00000000000E+00  0.00000000000E+00 -0.10328095322E+04  0.10328095322E+04  0.25500000920E-02 0.  1.
    10030    2    1    2    0    0  0.00000000000E+00  0.00000000000E+00  0.32722135016E+03  0.23928404146E+04  0.23703610353E+04 0.  0.
        5    1    3    3  502    0  0.47755864861E+03 -0.10841112917E+04  0.12761846417E+03  0.11914982661E+04  0.46999998093E+01 0.  1.
       -5    1    3    3    0  502 -0.47755864861E+03  0.10841112917E+04  0.19960288600E+03  0.12013421485E+04  0.46999998093E+01 0. -1.
</event>
<event>
 5   0  0.6337926E-05  0.2398347E+04  0.7818609E-02  0.8440123E-01
       -2   -1    0    0    0  501  0.00000000000E+00  0.00000000000E+00  0.11374268924E+04  0.11374268924E+04  0.25500000920E-02 0. -1.
        2   -1    0    0  501    0  0.00000000000E+00  0.00000000000E+00 -0.12642725787E+04  0.12642725787E+04  0.25500000920E-02 0.  1.
    10030    2    1    2    0    0  0.00000000000E+00  0.00000000000E+00 -0.12684568631E+03  0.24016994711E+04  0.23983474563E+04 0.  0.
        1    1    3    3  502    0  0.43516824979E+03  0.33420457789E+03 -0.11311933420E+04  0.12572440027E+04  0.50400001928E-02 0.  1.
       -1    1    3    3    0  502 -0.43516824979E+03 -0.33420457789E+03  0.10043476556E+04  0.11444554683E+04  0.50400001928E-02 0. -1.
</event>
<event>
 5   0  0.2901816E-05  0.2442157E+04  0.7818609E-02  0.8423887E-01
       -1   -1    0    0    0  501  0.00000000000E+00  0.00000000000E+00  0.11356183018E+04  0.11356183018E+04  0.50400001928E-02 0.  1.
        1   -1    0    0  501    0  0.00000000000E+00  0.00000000000E+00 -0.13129696066E+04  0.13129696067E+04  0.50400001928E-02 0. -1.
    10030    2    1    2    0    0  0.00000000000E+00  0.00000000000E+00 -0.17735130485E+03  0.24485879084E+04  0.24421566821E+04 0.  0.
        4    1    3    3  502    0  0.10669316917E+04 -0.26601377877E+03 -0.62103919536E+03  0.12628530636E+04  0.12699999809E+01 0. -1.
       -4    1    3    3    0  502 -0.10669316917E+04  0.26601377877E+03  0.44368789050E+03  0.11857348448E+04  0.12699999809E+01 0.  1.
</event>
<event>
 5   0  0.2847158E-05  0.2304535E+04  0.7818609E-02  0.8476135E-01
        1   -1    0    0  501    0  0.00000000000E+00  0.00000000000E+00  0.22639749944E+04  0.22639749944E+04  0.50400001928E-02 0. -1.
       -1   -1    0    0    0  501  0.00000000000E+00  0.00000000000E+00 -0.58645538268E+03  0.58645538270E+03  0.50400001928E-02 0.  1.
    10030    2    1    2    0    0  0.00000000000E+00  0.00000000000E+00  0.16775196117E+04  0.28504303771E+04  0.23045349394E+04 0.  0.
        5    1    3    3  502    0 -0.90914094111E+03 -0.56574638676E+03  0.13651124167E+04  0.17349813328E+04  0.46999998093E+01 0. -1.
       -5    1    3    3    0  502  0.90914094111E+03  0.56574638676E+03  0.31240719502E+03  0.11154490443E+04  0.46999998093E+01 0.  1.
</event>
<event>
 5   0  0.6600166E-05  0.2330575E+04  0.7818609E-02  0.8465962E-01
       -2   -1    0    0    0  501  0.00000000000E+00  0.00000000000E+00  0.11901176750E+04  0.11901176750E+04  0.25500000920E-02 0.  1.
        2   -1    0    0  501    0  0.00000000000E+00  0.00000000000E+00 -0.11409756913E+04  0.11409756913E+04  0.25500000920E-02 0. -1.
    10030    2    1    2    0    0  0.00000000000E+00  0.00000000000E+00  0.49141983747E+02  0.23310933663E+04  0.23305753255E+04 0.  0.
        5    1    3    3  502    0 -0.75322388678E+03  0.54810146968E+03 -0.67566447628E+03  0.11507849578E+04  0.46999998093E+01 0. -1.
       -5    1    3    3    0  502  0.75322388678E+03 -0.54810146968E+03  0.72480646003E+03  0.11803084085E+04  0.46999998093E+01 0.  1.
</event>
<event>
 5   0  0.6703961E-05  0.2420111E+04  0.7818609E-02  0.8432013E-01
       -2   -1    0    0    0  501  0.00000000000E+00  0.00000000000E+00  0.62233669532E+03  0.62233669533E+03  0.25500000920E-02 0. -1.
        2   -1    0    0  501    0  0.00000000000E+00  0.00000000000E+00 -0.23528007111E+04  0.23528007111E+04  0.25500000920E-02 0.  1.
    10030    2    1    2    0    0  0.00000000000E+00  0.00000000000E+00 -0.17304640158E+04  0.29751374065E+04  0.24201109225E+04 0.  0.
        2    1    3    3  502    0  0.90925146274E+03  0.13081533249E+03  0.10304991038E+03  0.92437555017E+03  0.25500000920E-02 0. -1.
       -2    1    3    3    0  502 -0.90925146274E+03 -0.13081533249E+03 -0.18335139262E+04  0.20507618563E+04  0.25500000920E-02 0.  1.
</event>
<event>
 5   0  0.6714629E-05  0.2284758E+04  0.7818609E-02  0.8483955E-01
        2   -1    0    0  501    0  0.00000000000E+00  0.00000000000E+00  0.21288103329E+04  0.21288103329E+04  0.25500000920E-02 0. -1.
       -2   -1    0    0    0  501  0.00000000000E+00  0.00000000000E+00 -0.61303242778E+03  0.61303242778E+03  0.25500000920E-02 0.  1.
    10030    2    1    2    0    0  0.00000000000E+00  0.00000000000E+00  0.15157779051E+04  0.27418427607E+04  0.22847579886E+04 0.  0.
        3    1    3    3  502    0 -0.73729192210E+02 -0.83306518163E+03  0.16917750263E+04  0.18872033119E+04  0.10100000352E+00 0. -1.
       -3    1    3    3    0  502  0.73729192210E+02  0.83306518163E+03 -0.17599712114E+03  0.85463944882E+03  0.10100000352E+00 0.  1.
</event>
<event>
 5   0  0.2943123E-05  0.2196913E+04  0.7818609E-02  0.8519714E-01
        1   -1    0    0  501    0  0.00000000000E+00  0.00000000000E+00  0.95366100531E+03  0.95366100532E+03  0.50400001928E-02 0. -1.
       -1   -1    0    0    0  501  0.00000000000E+00  0.00000000000E+00 -0.12652366935E+04  0.12652366935E+04  0.50400001928E-02 0.  1.
    10030    2    1    2    0    0  0.00000000000E+00  0.00000000000E+00 -0.31157568821E+03  0.22188976989E+04  0.21969131955E+04 0.  0.
        1    1    3    3  502    0  0.15616748157E+03  0.10778981287E+04 -0.29988380838E+03  0.11296826796E+04  0.50400001928E-02 0. -1.
       -1    1    3    3    0  502 -0.15616748157E+03 -0.10778981287E+04 -0.11691879832E+02  0.10892150192E+04  0.50400001928E-02 0.  1.
</event>
<event>
 5   0  0.6714629E-05  0.2428783E+04  0.7818609E-02  0.8428806E-01
       -2   -1    0    0    0  501  0.00000000000E+00  0.00000000000E+00  0.80675177581E+03  0.80675177582E+03  0.25500000920E-02 0. -1.
        2   -1    0    0  501    0  0.00000000000E+00  0.00000000000E+00 -0.18280048979E+04  0.18280048979E+04  0.25500000920E-02 0.  1.
    10030    2    1    2    0    0  0.00000000000E+00  0.00000000000E+00 -0.10212531221E+04  0.26347566737E+04  0.24287825737E+04 0.  0.
        3    1    3    3  502    0  0.90286926326E+03  0.17032792812E+03 -0.13720479709E+04  0.16512722835E+04  0.10100000352E+00 0.  1.
       -3    1    3    3    0  502 -0.90286926326E+03 -0.17032792812E+03  0.35079484881E+03  0.98348439021E+03  0.10100000352E+00 0. -1.
</event>
<event>
 5   0  0.6600166E-05  0.2387740E+04  0.7818609E-02  0.8444108E-01
       -2   -1    0    0    0  501  0.00000000000E+00  0.00000000000E+00  0.89064424746E+03  0.89064424746E+03  0.25500000920E-02 0.  1.
        2   -1    0    0  501    0  0.00000000000E+00  0.00000000000E+00 -0.16003310699E+04  0.16003310699E+04  0.25500000920E-02 0. -1.
    10030    2    1    2    0    0  0.00000000000E+00  0.00000000000E+00 -0.70968682242E+03  0.24909753173E+04  0.23877400708E+04 0.  0.
        5    1    3    3  502    0 -0.60602015934E+03  0.10957100682E+03 -0.14218226491E+04  0.15494734508E+04  0.46999998093E+01 0. -1.
       -5    1    3    3    0  502  0.60602015934E+03 -0.10957100682E+03  0.71213582671E+03  0.94150186657E+03  0.46999998093E+01 0.  1.
</event>
<event>
 5   0  0.2943123E-05  0.2374158E+04  0.7818609E-02  0.8449242E-01
       -1   -1    0    0    0  501  0.00000000000E+00  0.00000000000E+00  0.91140146742E+03  0.91140146743E+03  0.50400001928E-02 0. -1.
        1   -1    0    0  501    0  0.00000000000E+00  0.00000000000E+00 -0.15461421194E+04  0.15461421194E+04  0.50400001928E-02 0.  1.
    10030    2    1    2    0    0  0.00000000000E+00  0.00000000000E+00 -0.63474065197E+03  0.24575435868E+04  0.23741577003E+04 0.  0.
        1    1    3    3  502    0  0.25485729344E+02 -0.81998183581E+03 -0.12054886511E+04  0.14581572691E+04  0.50400001928E-02 0.  1.
       -1    1    3    3    0  502 -0.25485729344E+02  0.81998183581E+03  0.57074799916E+03  0.99938631771E+03  0.50400001928E-02 0. -1.
</event>
<event>
 5   0  0.2915546E-05  0.2469828E+04  0.7818609E-02  0.8413814E-01
       -1   -1    0    0    0  501  0.00000000000E+00  0.00000000000E+00  0.11390614949E+04  0.11390614949E+04  0.50400001928E-02 0. -1.
        1   -1    0    0  501    0  0.00000000000E+00  0.00000000000E+00 -0.13388322615E+04  0.13388322615E+04  0.50400001928E-02 0.  1.
    10030    2    1    2    0    0  0.00000000000E+00  0.00000000000E+00 -0.19977076663E+03  0.24778937565E+04  0.24698277489E+04 0.  0.
        2    1    3    3  502    0  0.69740669960E+03  0.65819183063E+03 -0.88051367177E+03  0.13018820671E+04  0.25500000920E-02 0.  1.
       -2    1    3    3    0  502 -0.69740669960E+03 -0.65819183063E+03  0.68074290514E+03  0.11760116893E+04  0.25500000920E-02 0. -1.
</event>
<event>
 5   0  0.6978115E-05  0.2405933E+04  0.7818609E-02  0.8437286E-01
        2   -1    0    0  501    0  0.00000000000E+00  0.00000000000E+00  0.11306543879E+04  0.11306543879E+04  0.25500000920E-02 0.  1.
       -2   -1    0    0    0  501  0.00000000000E+00  0.00000000000E+00 -0.12799029186E+04  0.12799029187E+04  0.25500000920E-02 0. -1.
    10030    2    1    2    0    0  0.00000000000E+00  0.00000000000E+00 -0.14924853079E+03  0.24105573065E+04  0.24059325435E+04 0.  0.
        4    1    3    3  502    0 -0.11044428724E+03 -0.15006395288E+03 -0.12653569328E+04  0.12790023107E+04  0.12699999809E+01 0. -1.
       -4    1    3    3    0  502  0.11044428724E+03  0.15006395288E+03  0.11161084020E+04  0.11315549958E+04  0.12699999809E+01 0.  1.
</event>
<event>
 5   0  0.6978115E-05  0.2315481E+04  0.7818609E-02  0.8471842E-01
        2   -1    0    0  501    0  0.00000000000E+00  0.00000000000E+00  0.17479288050E+04  0.17479288050E+04  0.25500000920E-02 0. -1.
       -2   -1    0    0    0  501  0.00000000000E+00  0.00000000000E+00 -0.76682963911E+03  0.76682963911E+03  0.25500000920E-02 0.  1.
    10030    2    1    2    0    0  0.00000000000E+00  0.00000000000E+00  0.98109916591E+03  0.25147584441E+04  0.23154814746E+04 0.  0.
        4    1    3    3  502    0 -0.95929961611E+03  0.49893748292E+02  0.11923990548E+04  0.15311963487E+04  0.12699999809E+01 0. -1.
       -4    1    3    3    0  502  0.95929961611E+03 -0.49893748292E+02 -0.21129988887E+03  0.98356209541E+03  0.12699999809E+01 0.  1.
</event>
<event>
 5   0  0.6703961E-05  0.2404096E+04  0.7818609E-02  0.8437972E-01
        2   -1    0    0  501    0  0.00000000000E+00  0.00000000000E+00  0.20271622416E+04  0.20271622416E+04  0.25500000920E-02 0. -1.
       -2   -1    0    0    0  501  0.00000000000E+00  0.00000000000E+00 -0.71277909530E+03  0.71277909530E+03  0.25500000920E-02 0.  1.
    10030    2    1    2    0    0  0.00000000000E+00  0.00000000000E+00  0.13143831463E+04  0.27399413369E+04  0.24040955626E+04 0.  0.
        2    1    3    3  502    0 -0.28281017129E+03 -0.79429580632E+03  0.16336345160E+04  0.18383822107E+04  0.25500000920E-02 0.  1.
       -2    1    3    3    0  502  0.28281017129E+03  0.79429580632E+03 -0.31925136967E+03  0.90155912617E+03  0.25500000920E-02 0. -1.
</event>
<event>
 5   0  0.6337926E-05  0.2440271E+04  0.7818609E-02  0.8424579E-01
        2   -1    0    0  501    0  0.00000000000E+00  0.00000000000E+00  0.17974850777E+04  0.17974850777E+04  0.25500000920E-02 0.  1.
       -2   -1    0    0    0  501  0.00000000000E+00  0.00000000000E+00 -0.82822942565E+03  0.82822942566E+03  0.25500000920E-02 0. -1.
    10030    2    1    2    0    0  0.00000000000E+00  0.00000000000E+00  0.96925565204E+03  0.26257145033E+04  0.24402705043E+04 0.  0.
        1    1    3    3  502    0 -0.11329024462E+04 -0.44503251921E+03  0.39327519221E+03  0.12791353613E+04  0.50400001928E-02 0.  1.
       -1    1    3    3    0  502  0.11329024462E+04  0.44503251921E+03  0.57598045982E+03  0.13465791421E+04  0.50400001928E-02 0. -1.
</event>
<event>
 5   0  0.6978115E-05  0.2372296E+04  0.7818609E-02  0.8449949E-01
        2   -1    0    0  501    0  0.00000000000E+00  0.00000000000E+00  0.24355446986E+04  0.24355446986E+04  0.25500000920E-02 0.  1.
       -2   -1    0    0    0  501  0.00000000000E+00  0.00000000000E+00 -0.57767248927E+03  0.57767248927E+03  0.25500000920E-02 0. -1.
    10030    2    1    2    0    0  0.00000000000E+00  0.00000000000E+00  0.18578722093E+04  0.30132171879E+04  0.23722960766E+04 0.  0.
        4    1    3    3  502    0 -0.85985928268E+03  0.72682475944E+03  0.45484926910E+03  0.12142988460E+04  0.12699999809E+01 0. -1.
       -4    1    3    3    0  502  0.85985928268E+03 -0.72682475944E+03  0.14030229402E+04  0.17989183418E+04  0.12699999809E+01 0.  1.
</event>
<event>
 5   0  0.6714629E-05  0.2390078E+04  0.7818609E-02  0.8443228E-01
       -2   -1    0    0    0  501  0.00000000000E+00  0.00000000000E+00  0.88092417158E+03  0.88092417159E+03  0.25500000920E-02 0. -1.
        2   -1    0    0  501    0  0.00000000000E+00  0.00000000000E+00 -0.16211589065E+04  0.16211589065E+04  0.25500000920E-02 0.  1.
    10030    2    1    2    0    0  0.00000000000E+00  0.00000000000E+00 -0.74023473490E+03  0.25020830781E+04  0.23900778788E+04 0.  0.
        3    1    3    3  502    0  0.11661094186E+04 -0.66051344862E+02 -0.63483929335E+03  0.13293588285E+04  0.10100000352E+00 0.  1.
       -3    1    3    3    0  502 -0.11661094186E+04  0.66051344862E+02 -0.10539544155E+03  0.11727242496E+04  0.10100000352E+00 0. -1.
</event>
<event>
 5   0  0.2943123E-05  0.2435440E+04  0.7818609E-02  0.8426353E-01
        1   -1    0    0  501    0  0.00000000000E+00  0.00000000000E+00  0.18296384806E+04  0.18296384806E+04  0.50400001928E-02 0.  1.
       -1   -1    0    0    0  501  0.00000000000E+00  0.00000000000E+00 -0.81045633168E+03  0.81045633169E+03  0.50400001928E-02 0. -1.
    10030    2    1    2    0    0  0.00000000000E+00  0.00000000000E+00  0.10191821489E+04  0.26400948123E+04  0.24354400763E+04 0.  0.
        1    1    3    3  502    0  0.36173071809E+03  0.84475857141E+03  0.13757155849E+04  0.16544060950E+04  0.50400001928E-02 0.  1.
       -1    1    3    3    0  502 -0.36173071809E+03 -0.84475857141E+03 -0.35653343605E+03  0.98568871731E+03  0.50400001928E-02 0. -1.
</event>
<event>
 5   0  0.2943244E-05  0.2497398E+04  0.7818609E-02  0.8403913E-01
       -1   -1    0    0    0  501  0.00000000000E+00  0.00000000000E+00  0.96566019264E+03  0.96566019265E+03  0.50400001928E-02 0. -1.
        1   -1    0    0  501    0  0.00000000000E+00  0.00000000000E+00 -0.16146970891E+04  0.16146970891E+04  0.50400001928E-02 0.  1.
    10030    2    1    2    0    0  0.00000000000E+00  0.00000000000E+00 -0.64903689650E+03  0.25803572818E+04  0.24973976073E+04 0.  0.
        3    1    3    3  502    0  0.33545809702E+03 -0.11952212958E+04 -0.46376398866E+03  0.13252030517E+04  0.10100000352E+00 0. -1.
       -3    1    3    3    0  502 -0.33545809702E+03  0.11952212958E+04 -0.18527290784E+03  0.12551542301E+04  0.10100000352E+00 0.  1.
</event>
<event>
 5   0  0.2901816E-05  0.2364021E+04  0.7818609E-02  0.8453098E-01
       -1   -1    0    0    0  501  0.00000000000E+00  0.00000000000E+00  0.13622559640E+04  0.13622559640E+04  0.50400001928E-02 0. -1.
        1   -1    0    0  501    0  0.00000000000E+00  0.00000000000E+00 -0.10256136710E+04  0.10256136710E+04  0.50400001928E-02 0.  1.
    10030    2    1    2    0    0  0.00000000000E+00  0.00000000000E+00  0.33664229297E+03  0.23878696351E+04  0.23640205923E+04 0.  0.
        4    1    3    3  502    0  0.55505146598E+03  0.83488533276E+03 -0.46411925602E+03  0.11047732552E+04  0.12699999809E+01 0.  1.
       -4    1    3    3    0  502 -0.55505146598E+03 -0.83488533276E+03  0.80076154899E+03  0.12830963798E+04  0.12699999809E+01 0. -1.
</event>
<event>
 5   0  0.2943123E-05  0.2358761E+04  0.7818609E-02  0.8455106E-01
       -1   -1    0    0    0  501  0.00000000000E+00  0.00000000000E+00  0.13617682812E+04  0.13617682812E+04  0.50400001928E-02 0. -1.
        1   -1    0    0  501    0  0.00000000000E+00  0.00000000000E+00 -0.10214205799E+04  0.10214205799E+04  0.50400001928E-02 0.  1.
    10030    2    1    2    0    0  0.00000000000E+00  0.00000000000E+00  0.34034770137E+03  0.23831888611E+04  0.23587608166E+04 0.  0.
        1    1    3    3  502    0  0.80775542316E+03 -0.47089535114E+03  0.89645552769E+03  0.12953160883E+04  0.50400001928E-02 0. -1.
       -1    1    3    3    0  502 -0.80775542316E+03  0.47089535114E+03 -0.55610782633E+03  0.10878727728E+04  0.50400001928E-02 0.  1.
</event>
<event>
 5   0  0.6337926E-05  0.2354207E+04  0.7818609E-02  0.8456850E-01
        2   -1    0    0  501    0  0.00000000000E+00  0.00000000000E+00  0.86345601704E+03  0.86345601704E+03  0.25500000920E-02 0.  1.
       -2   -1    0    0    0  501  0.00000000000E+00  0.00000000000E+00 -0.16046819339E+04  0.16046819339E+04  0.25500000920E-02 0. -1.
    10030    2    1    2    0    0  0.00000000000E+00  0.00000000000E+00 -0.74122591685E+03  0.24681379509E+04  0.23542066785E+04 0.  0.
        1    1    3    3  502    0  0.80795441516E+03  0.25995394682E+03  0.48445942914E+03  0.97727546268E+03  0.50400001928E-02 0.  1.
       -1    1    3    3    0  502 -0.80795441516E+03 -0.25995394682E+03 -0.12256853460E+04  0.14908624882E+04  0.50400001928E-02 0. -1.
</event>
<event>
 5   0  0.6978115E-05  0.2413255E+04  0.7818609E-02  0.8434558E-01
       -2   -1    0    0    0  501  0.00000000000E+00  0.00000000000E+00  0.66242861190E+03  0.66242861191E+03  0.25500000920E-02 0. -1.
        2   -1    0    0  501    0  0.00000000000E+00  0.00000000000E+00 -0.21978977710E+04  0.21978977710E+04  0.25500000920E-02 0.  1.
    10030    2    1    2    0    0  0.00000000000E+00  0.00000000000E+00 -0.15354691591E+04  0.28603263829E+04  0.24132553694E+04 0.  0.
        4    1    3    3  502    0  0.85167187747E+03  0.60478025978E+03 -0.51811643077E+02  0.10458442564E+04  0.12699999809E+01 0. -1.
       -4    1    3    3    0  502 -0.85167187747E+03 -0.60478025978E+03 -0.14836575160E+04  0.18144821264E+04  0.12699999809E+01 0.  1.
</event>
<event>
 5   0  0.6703961E-05  0.2415255E+04  0.7818609E-02  0.8433814E-01
        2   -1    0    0  501    0  0.00000000000E+00  0.00000000000E+00  0.12906356802E+04  0.12906356802E+04  0.25500000920E-02 0.  1.
       -2   -1    0    0    0  501  0.00000000000E+00  0.00000000000E+00 -0.11299576842E+04  0.11299576842E+04  0.25500000920E-02 0. -1.
    10030    2    1    2    0    0  0.00000000000E+00  0.00000000000E+00  0.16067799597E+03  0.24205933644E+04  0.24152546071E+04 0.  0.
        2    1    3    3  502    0  0.38764722057E+03 -0.63950160355E+03 -0.86998219289E+03  0.11472147508E+04  0.25500000920E-02 0. -1.
       -2    1    3    3    0  502 -0.38764722057E+03  0.63950160355E+03  0.10306601889E+04  0.12733786136E+04  0.25500000920E-02 0.  1.
</event>
<event>
 5   0  0.2847158E-05  0.2388848E+04  0.7818609E-02  0.8443690E-01
        1   -1    0    0  501    0  0.00000000000E+00  0.00000000000E+00  0.12781264813E+04  0.12781264814E+04  0.50400001928E-02 0.  1.
       -1   -1    0    0    0  501  0.00000000000E+00  0.00000000000E+00 -0.11162033304E+04  0.11162033304E+04  0.50400001928E-02 0. -1.
    10030    2    1    2    0    0  0.00000000000E+00  0.00000000000E+00  0.16192315096E+03  0.23943298118E+04  0.23888482875E+04 0.  0.
        5    1    3    3  502    0 -0.92244270659E+03 -0.37001906822E+03 -0.58298753554E+03  0.11522635178E+04  0.46999998093E+01 0. -1.
       -5    1    3    3    0  502  0.92244270659E+03  0.37001906822E+03  0.74491068650E+03  0.12420662940E+04  0.46999998093E+01 0.  1.
</event>
<event>
 5   0  0.2943244E-05  0.2410677E+04  0.7818609E-02  0.8435517E-01
       -1   -1    0    0    0  501  0.00000000000E+00  0.00000000000E+00  0.11284357297E+04  0.11284357297E+04  0.50400001928E-02 0. -1.
        1   -1    0    0  501    0  0.00000000000E+00  0.00000000000E+00 -0.12874825698E+04  0.12874825698E+04  0.50400001928E-02 0.  1.
    10030    2    1    2    0    0  0.00000000000E+00  0.00000000000E+00 -0.15904684011E+03  0.24159182994E+04  0.24106773596E+04 0.  0.
        3    1    3    3  502    0 -0.65415506101E+03  0.67946524234E+03 -0.83165452151E+03  0.12574741002E+04  0.10100000352E+00 0.  1.
       -3    1    3    3    0  502  0.65415506101E+03 -0.67946524234E+03  0.67260768140E+03  0.11584441992E+04  0.10100000352E+00 0. -1.
</event>
<event>
 5   0  0.6337926E-05  0.2689162E+04  0.7818609E-02  0.8338530E-01
        2   -1    0    0  501    0  0.00000000000E+00  0.00000000000E+00  0.21807538905E+04  0.21807538905E+04  0.25500000920E-02 0.  1.
       -2   -1    0    0    0  501  0.00000000000E+00  0.00000000000E+00 -0.82902407354E+03  0.82902407354E+03  0.25500000920E-02 0. -1.
    10030    2    1    2    0    0  0.00000000000E+00  0.00000000000E+00  0.13517298170E+04  0.30097779641E+04  0.26891615598E+04 0.  0.
        1    1    3    3  502    0 -0.87477464134E+03 -0.81204760920E+03 -0.17011995253E+02  0.11937090939E+04  0.50400001928E-02 0. -1.
       -1    1    3    3    0  502  0.87477464134E+03  0.81204760920E+03  0.13687418122E+04  0.18160688702E+04  0.50400001928E-02 0.  1.
</event>
<event>
 5   0  0.2901816E-05  0.2371177E+04  0.7818609E-02  0.8450374E-01
        1   -1    0    0  501    0  0.00000000000E+00  0.00000000000E+00  0.23944400968E+04  0.23944400968E+04  0.50400001928E-02 0.  1.
       -1   -1    0    0    0  501  0.00000000000E+00  0.00000000000E+00 -0.58703519612E+03  0.58703519614E+03  0.50400001928E-02 0. -1.
    10030    2    1    2    0    0  0.00000000000E+00  0.00000000000E+00  0.18074049006E+04  0.29814752929E+04  0.23711774390E+04 0.  0.
        4    1    3    3  502    0 -0.61274255997E+03 -0.93092527870E+02 -0.36712388114E+03  0.72034798573E+03  0.12699999809E+01 0. -1.
       -4    1    3    3    0  502  0.61274255997E+03  0.93092527870E+02  0.21745287818E+04  0.22611273072E+04  0.12699999809E+01 0.  1.
</event>
<event>
 5   0  0.2943244E-05  0.2354874E+04  0.7818609E-02  0.8456594E-01
       -1   -1    0    0    0  501  0.00000000000E+00  0.00000000000E+00  0.91720242062E+03  0.91720242064E+03  0.50400001928E-02 0.  1.
        1   -1    0    0  501    0  0.00000000000E+00  0.00000000000E+00 -0.15115065534E+04  0.15115065534E+04  0.50400001928E-02 0. -1.
    10030    2    1    2    0    0  0.00000000000E+00  0.00000000000E+00 -0.59430413276E+03  0.24287089740E+04  0.23548736438E+04 0.  0.
        3    1    3    3  502    0 -0.75111265068E+03  0.85243600716E+03  0.21635013947E+02  0.11363474136E+04  0.10100000352E+00 0.  1.
       -3    1    3    3    0  502  0.75111265068E+03 -0.85243600716E+03 -0.61593914671E+03  0.12923615605E+04  0.10100000352E+00 0. -1.
</event>
<event>
 5   0  0.2943123E-05  0.2329985E+04  0.7818609E-02  0.8466191E-01
       -1   -1    0    0    0  501  0.00000000000E+00  0.00000000000E+00  0.74296832571E+03  0.74296832572E+03  0.50400001928E-02 0.  1.
        1   -1    0    0  501    0  0.00000000000E+00  0.00000000000E+00 -0.18267370749E+04  0.18267370749E+04  0.50400001928E-02 0. -1.
    10030    2    1    2    0    0  0.00000000000E+00  0.00000000000E+00 -0.10837687492E+04  0.25697054006E+04  0.23299852240E+04 0.  0.
        1    1    3    3  502    0 -0.11181890713E+04  0.25023751902E+03 -0.30990552788E+03  0.11870160283E+04  0.50400001928E-02 0.  1.
       -1    1    3    3    0  502  0.11181890713E+04 -0.25023751902E+03 -0.77386322130E+03  0.13826893724E+04  0.50400001928E-02 0. -1.
</event>
<event>
 5   0  0.2847158E-05  0.2391705E+04  0.7818609E-02  0.8442616E-01
       -1   -1    0    0    0  501  0.00000000000E+00  0.00000000000E+00  0.12048973363E+04  0.12048973363E+04  0.50400001928E-02 0. -1.
        1   -1    0    0  501    0  0.00000000000E+00  0.00000000000E+00 -0.11868753149E+04  0.11868753149E+04  0.50400001928E-02 0.  1.
    10030    2    1    2    0    0  0.00000000000E+00  0.00000000000E+00  0.18022021430E+02  0.23917726512E+04  0.23917047523E+04 0.  0.
        5    1    3    3  502    0 -0.35218849252E+03  0.80576186152E+03 -0.80141430591E+03  0.11897797659E+04  0.46999998093E+01 0.  1.
       -5    1    3    3    0  502  0.35218849252E+03 -0.80576186152E+03  0.81943632734E+03  0.12019928853E+04  0.46999998093E+01 0. -1.
</event>
<event>
 5   0  0.2943244E-05  0.1875109E+04  0.7818609E-02  0.8667347E-01
       -1   -1    0    0    0  501  0.00000000000E+00  0.00000000000E+00  0.76036818733E+03  0.76036818735E+03  0.50400001928E-02 0.  1.
        1   -1    0    0  501    0  0.00000000000E+00  0.00000000000E+00 -0.11560296366E+04  0.11560296366E+04  0.50400001928E-02 0. -1.
    10030    2    1    2    0    0  0.00000000000E+00  0.00000000000E+00 -0.39566144930E+03  0.19163978240E+04  0.18751087001E+04 0.  0.
        3    1    3    3  502    0 -0.26741998529E+03 -0.24290895103E+03 -0.10820341737E+04  0.11407524579E+04  0.10100000352E+00 0. -1.
       -3    1    3    3    0  502  0.26741998529E+03  0.24290895103E+03  0.68637272435E+03  0.77564536610E+03  0.10100000352E+00 0.  1.
</event>
<event>
 5   0  0.6978115E-05  0.2370128E+04  0.7818609E-02  0.8450772E-01
        2   -1    0    0  501    0  0.00000000000E+00  0.00000000000E+00  0.20424864609E+04  0.20424864609E+04  0.25500000920E-02 0.  1.
       -2   -1    0    0    0  501  0.00000000000E+00  0.00000000000E+00 -0.68758214026E+03  0.68758214027E+03  0.25500000920E-02 0. -1.
    10030    2    1    2    0    0  0.00000000000E+00  0.00000000000E+00  0.13549043207E+04  0.27300686012E+04  0.23701284457E+04 0.  0.
        4    1    3    3  502    0 -0.76424341971E+03  0.53171779018E+03  0.15220009784E+04  0.17841749926E+04  0.12699999809E+01 0.  1.
       -4    1    3    3    0  502  0.76424341971E+03 -0.53171779018E+03 -0.16709665772E+03  0.94589360864E+03  0.12699999809E+01 0. -1.
</event>
<event>
 5   0  0.6337926E-05  0.2362868E+04  0.7818609E-02  0.8453537E-01
        2   -1    0    0  501    0  0.00000000000E+00  0.00000000000E+00  0.20566192907E+04  0.20566192907E+04  0.25500000920E-02 0. -1.
       -2   -1    0    0    0  501  0.00000000000E+00  0.00000000000E+00 -0.67868019183E+03  0.67868019184E+03  0.25500000920E-02 0.  1.
    10030    2    1    2    0    0  0.00000000000E+00  0.00000000000E+00  0.13779390988E+04  0.27352994825E+04  0.23628684049E+04 0.  0.
        1    1    3    3  502    0  0.69308251905E+03  0.54451405875E+03  0.15996905599E+04  0.18264360995E+04  0.50400001928E-02 0. -1.
       -1    1    3    3    0  502 -0.69308251905E+03 -0.54451405875E+03 -0.22175146103E+03  0.90886338296E+03  0.50400001928E-02 0.  1.
</event>
<event>
 5   0  0.2901816E-05  0.2427020E+04  0.7818609E-02  0.8429457E-01
       -1   -1    0    0    0  501  0.00000000000E+00  0.00000000000E+00  0.15356167321E+04  0.15356167321E+04  0.50400001928E-02 0. -1.
        1   -1    0    0  501    0  0.00000000000E+00  0.00000000000E+00 -0.95896732190E+03  0.95896732192E+03  0.50400001928E-02 0.  1.
    10030    2    1    2    0    0  0.00000000000E+00  0.00000000000E+00  0.57664941024E+03  0.24945840541E+04  0.24270197899E+04 0.  0.
        4    1    3    3  502    0 -0.10011043631E+04 -0.66658015220E+03  0.45426763228E+03  0.12856514846E+04  0.12699999809E+01 0.  1.
       -4    1    3    3    0  502  0.10011043631E+04  0.66658015220E+03  0.12238177795E+03  0.12089325695E+04  0.12699999809E+01 0. -1.
</event>
<event>
 5   0  0.6600166E-05  0.2466928E+04  0.7818609E-02  0.8414863E-01
       -2   -1    0    0    0  501  0.00000000000E+00  0.00000000000E+00  0.77676980487E+03  0.77676980487E+03  0.25500000920E-02 0.  1.
        2   -1    0    0  501    0  0.00000000000E+00  0.00000000000E+00 -0.19586664017E+04  0.19586664017E+04  0.25500000920E-02 0. -1.
    10030    2    1    2    0    0  0.00000000000E+00  0.00000000000E+00 -0.11818965968E+04  0.27354362066E+04  0.24669275779E+04 0.  0.
        5    1    3    3  502    0 -0.24546372784E+03 -0.74583472043E+03  0.46384614929E+03  0.91197434838E+03  0.46999998093E+01 0.  1.
       -5    1    3    3    0  502  0.24546372784E+03  0.74583472043E+03 -0.16457427461E+04  0.18234618582E+04  0.46999998093E+01 0. -1.
</event>
<event>
 5   0  0.2901816E-05  0.2413615E+04  0.7818609E-02  0.8434424E-01
        1   -1    0    0  501    0  0.00000000000E+00  0.00000000000E+00  0.18388253802E+04  0.18388253802E+04  0.50400001928E-02 0.  1.
       -1   -1    0    0    0  501  0.00000000000E+00  0.00000000000E+00 -0.79201865464E+03  0.79201865466E+03  0.50400001928E-02 0. -1.
    10030    2    1    2    0    0  0.00000000000E+00  0.00000000000E+00  0.10468067256E+04  0.26308440349E+04  0.24136147197E+04 0.  0.
        4    1    3    3  502    0  0.11851316968E+04  0.22768176702E+03  0.52067504862E+03  0.13143364276E+04  0.12699999809E+01 0. -1.
       -4    1    3    3    0  502 -0.11851316968E+04 -0.22768176702E+03  0.52613167694E+03  0.13165076073E+04  0.12699999809E+01 0.  1.
</event>
<event>
 5   0  0.2943123E-05  0.2181042E+04  0.7818609E-02  0.8526360E-01
       -1   -1    0    0    0  501  0.00000000000E+00  0.00000000000E+00  0.57299130553E+03  0.57299130555E+03  0.50400001928E-02 0. -1.
        1   -1    0    0  501    0  0.00000000000E+00  0.00000000000E+00 -0.20754871917E+04  0.20754871917E+04  0.50400001928E-02 0.  1.
    10030    2    1    2    0    0  0.00000000000E+00  0.00000000000E+00 -0.15024958861E+04  0.26484784972E+04  0.21810420588E+04 0.  0.
        1    1    3    3  502    0  0.64846755938E+03 -0.80610629213E+03 -0.11700003137E+04  0.15617996875E+04  0.50400001928E-02 0.  1.
       -1    1    3    3    0  502 -0.64846755938E+03  0.80610629213E+03 -0.33249557242E+03  0.10866788097E+04  0.50400001928E-02 0. -1.
</event>
<event>
 5   0  0.2943123E-05  0.2384397E+04  0.7818609E-02  0.8445368E-01
        1   -1    0    0  501    0  0.00000000000E+00  0.00000000000E+00  0.16464647369E+04  0.16464647369E+04  0.50400001928E-02 0. -1.
       -1   -1    0    0    0  501  0.00000000000E+00  0.00000000000E+00 -0.86326621341E+03  0.86326621342E+03  0.50400001928E-02 0.  1.
    10030    2    1    2    0    0  0.00000000000E+00  0.00000000000E+00  0.78319852347E+03  0.25097309503E+04  0.23843970969E+04 0.  0.
        1    1    3    3  502    0  0.84956920915E+03 -0.67350139982E+03 -0.13041887671E+03  0.10919620232E+04  0.50400001928E-02 0.  1.
       -1    1    3    3    0  502 -0.84956920915E+03  0.67350139982E+03  0.91361740018E+03  0.14177689271E+04  0.50400001928E-02 0. -1.
</event>
<event>
 5   0  0.2943244E-05  0.2451790E+04  0.7818609E-02  0.8420365E-01
       -1   -1    0    0    0  501  0.00000000000E+00  0.00000000000E+00  0.80284965956E+03  0.80284965958E+03  0.50400001928E-02 0.  1.
        1   -1    0    0  501    0  0.00000000000E+00  0.00000000000E+00 -0.18718552849E+04  0.18718552850E+04  0.50400001928E-02 0. -1.
    10030    2    1    2    0    0  0.00000000000E+00  0.00000000000E+00 -0.10690056254E+04  0.26747049445E+04  0.24517898591E+04 0.  0.
        3    1    3    3  502    0 -0.11962533962E+04  0.20417638121E+03 -0.34520964948E+03  0.12616972279E+04  0.10100000352E+00 0.  1.
       -3    1    3    3    0  502  0.11962533962E+04 -0.20417638121E+03 -0.72379597590E+03  0.14130077167E+04  0.10100000352E+00 0. -1.
</event>
<event>
 5   0  0.6600166E-05  0.2354415E+04  0.7818609E-02  0.8456770E-01
       -2   -1    0    0    0  501  0.00000000000E+00  0.00000000000E+00  0.77149770441E+03  0.77149770442E+03  0.25500000920E-02 0.  1.
        2   -1    0    0  501    0  0.00000000000E+00  0.00000000000E+00 -0.17962688761E+04  0.17962688761E+04  0.25500000920E-02 0. -1.
    10030    2    1    2    0    0  0.00000000000E+00  0.00000000000E+00 -0.10247711717E+04  0.25677665805E+04  0.23544148440E+04 0.  0.
        5    1    3    3  502    0 -0.69424303606E+03  0.21529708276E+03  0.49752231153E+03  0.88083867276E+03  0.46999998093E+01 0.  1.
       -5    1    3    3    0  502  0.69424303606E+03 -0.21529708276E+03 -0.15222934832E+04  0.16869279077E+04  0.46999998093E+01 0. -1.
</event>
<event>
 5   0  0.6337926E-05  0.2827430E+04  0.7818609E-02  0.8294803E-01
       -2   -1    0    0    0  501  0.00000000000E+00  0.00000000000E+00  0.65984126012E+03  0.65984126012E+03  0.25500000920E-02 0. -1.
        2   -1    0    0  501    0  0.00000000000E+00  0.00000000000E+00 -0.30288956446E+04  0.30288956446E+04  0.25500000920E-02 0.  1.
    10030    2    1    2    0    0  0.00000000000E+00  0.00000000000E+00 -0.23690543845E+04  0.36887369047E+04  0.28274301540E+04 0.  0.
        1    1    3    3  502    0  0.46900285780E+03  0.11412475524E+04 -0.20847949007E+04  0.24225563842E+04  0.50400001928E-02 0.  1.
       -1    1    3    3    0  502 -0.46900285780E+03 -0.11412475524E+04 -0.28425948382E+03  0.12661805206E+04  0.50400001928E-02 0. -1.
</event>
<event>
 5   0  0.2901816E-05  0.1933149E+04  0.7818609E-02  0.8638530E-01
       -1   -1    0    0    0  501  0.00000000000E+00  0.00000000000E+00  0.77305585833E+03  0.77305585834E+03  0.50400001928E-02 0. -1.
        1   -1    0    0  501    0  0.00000000000E+00  0.00000000000E+00 -0.12085360956E+04  0.12085360956E+04  0.50400001928E-02 0.  1.
    10030    2    1    2    0    0  0.00000000000E+00  0.00000000000E+00 -0.43548023731E+03  0.19815919540E+04  0.19331486324E+04 0.  0.
        4    1    3    3  502    0 -0.57113272464E+03  0.15624222361E+03 -0.10008613109E+04  0.11628968991E+04  0.12699999809E+01 0.  1.
       -4    1    3    3    0  502  0.57113272464E+03 -0.15624222361E+03  0.56538107354E+03  0.81869505484E+03  0.12699999809E+01 0. -1.
</event>
<event>
 5   0  0.2943244E-05  0.2381658E+04  0.7818609E-02  0.8446403E-01
        1   -1    0    0  501    0  0.00000000000E+00  0.00000000000E+00  0.10976375903E+04  0.10976375904E+04  0.50400001928E-02 0. -1.
       -1   -1    0    0    0  501  0.00000000000E+00  0.00000000000E+00 -0.12919327125E+04  0.12919327125E+04  0.50400001928E-02 0.  1.
    10030    2    1    2    0    0  0.00000000000E+00  0.00000000000E+00 -0.19429512210E+03  0.23895703028E+04  0.23816581698E+04 0.  0.
        3    1    3    3  502    0 -0.51115636308E+03  0.82119793181E+03 -0.79402467011E+03  0.12514479844E+04  0.10100000352E+00 0.  1.
       -3    1    3    3    0  502  0.51115636308E+03 -0.82119793181E+03  0.59972954800E+03  0.11381223184E+04  0.10100000352E+00 0. -1.
</event>
<event>
 5   0  0.6600166E-05  0.2407977E+04  0.7818609E-02  0.8436523E-01
        2   -1    0    0  501    0  0.00000000000E+00  0.00000000000E+00  0.75753880453E+03  0.75753880454E+03  0.25500000920E-02 0.  1.
       -2   -1    0    0    0  501  0.00000000000E+00  0.00000000000E+00 -0.19135492679E+04  0.19135492679E+04  0.25500000920E-02 0. -1.
    10030    2    1    2    0    0  0.00000000000E+00  0.00000000000E+00 -0.11560104634E+04  0.26710880724E+04  0.24079765986E+04 0.  0.
        5    1    3    3  502    0 -0.15225975213E+03  0.49708405153E+03  0.62660426121E+03  0.81420548792E+03  0.46999998093E+01 0.  1.
       -5    1    3    3    0  502  0.15225975213E+03 -0.49708405153E+03 -0.17826147246E+04  0.18568825845E+04  0.46999998093E+01 0. -1.
</event>
<event>
 5   0  0.2943244E-05  0.2528320E+04  0.7818609E-02  0.8392965E-01
        1   -1    0    0  501    0  0.00000000000E+00  0.00000000000E+00  0.16796917608E+04  0.16796917608E+04  0.50400001928E-02 0.  1.
       -1   -1    0    0    0  501  0.00000000000E+00  0.00000000000E+00 -0.95142456666E+03  0.95142456668E+03  0.50400001928E-02 0. -1.
    10030    2    1    2    0    0  0.00000000000E+00  0.00000000000E+00  0.72826719409E+03  0.26311163274E+04  0.25283196045E+04 0.  0.
        3    1    3    3  502    0  0.52751463052E+03  0.10294688944E+04  0.89478976039E+03  0.14624385852E+04  0.10100000352E+00 0.  1.
       -3    1    3    3    0  502 -0.52751463052E+03 -0.10294688944E+04 -0.16652256630E+03  0.11686777423E+04  0.10100000352E+00 0. -1.
</event>
<event>
 5   0  0.2943123E-05  0.2324569E+04  0.7818609E-02  0.8468296E-01
       -1   -1    0    0    0  501  0.00000000000E+00  0.00000000000E+00  0.11205997030E+04  0.11205997030E+04  0.50400001928E-02 0. -1.
        1   -1    0    0  501    0  0.00000000000E+00  0.00000000000E+00 -0.12055201412E+04  0.12055201412E+04  0.50400001928E-02 0.  1.
    10030    2    1    2    0    0  0.00000000000E+00  0.00000000000E+00 -0.84920438122E+02  0.23261198442E+04  0.23245692179E+04 0.  0.
        1    1    3    3  502    0 -0.53592826794E+03 -0.51333723286E+02 -0.10732207605E+04  0.12006902433E+04  0.50400001928E-02 0.  1.
       -1    1    3    3    0  502  0.53592826794E+03  0.51333723286E+02  0.98830032235E+03  0.11254296009E+04  0.50400001928E-02 0. -1.
</event>
<event>
 5   0  0.6978115E-05  0.2407762E+04  0.7818609E-02  0.8436603E-01
        2   -1    0    0  501    0  0.00000000000E+00  0.00000000000E+00  0.16406709744E+04  0.16406709744E+04  0.25500000920E-02 0. -1.
       -2   -1    0    0    0  501  0.00000000000E+00  0.00000000000E+00 -0.88337599333E+03  0.88337599333E+03  0.25500000920E-02 0.  1.
    10030    2    1    2    0    0  0.00000000000E+00  0.00000000000E+00  0.75729498106E+03  0.25240469677E+04  0.24077619083E+04 0.  0.
        4    1    3    3  502    0 -0.21096204054E+03 -0.29379214980E+03 -0.82507238120E+03  0.90086894549E+03  0.12699999809E+01 0.  1.
       -4    1    3    3    0  502  0.21096204054E+03  0.29379214980E+03  0.15823673623E+04  0.16231780222E+04  0.12699999809E+01 0. -1.
</event>
<event>
 5   0  0.6703961E-05  0.2445650E+04  0.7818609E-02  0.8422608E-01
       -2   -1    0    0    0  501  0.00000000000E+00  0.00000000000E+00  0.11630192600E+04  0.11630192600E+04  0.25500000920E-02 0. -1.
        2   -1    0    0  501    0  0.00000000000E+00  0.00000000000E+00 -0.12857064454E+04  0.12857064454E+04  0.25500000920E-02 0.  1.
    10030    2    1    2    0    0  0.00000000000E+00  0.00000000000E+00 -0.12268718537E+03  0.24487257054E+04  0.24456503091E+04 0.  0.
        2    1    3    3  502    0 -0.10543673129E+04  0.17027214117E+03  0.53490362887E+03  0.11944893992E+04  0.25500000920E-02 0. -1.
       -2    1    3    3    0  502  0.10543673129E+04 -0.17027214117E+03 -0.65759081425E+03  0.12542363061E+04  0.25500000920E-02 0.  1.
</event>
<event>
 5   0  0.2915546E-05  0.2346634E+04  0.7818609E-02  0.8459758E-01
        1   -1    0    0  501    0  0.00000000000E+00  0.00000000000E+00  0.15515277584E+04  0.15515277584E+04  0.50400001928E-02 0.  1.
       -1   -1    0    0    0  501  0.00000000000E+00  0.00000000000E+00 -0.88730136442E+03  0.88730136444E+03  0.50400001928E-02 0. -1.
    10030    2    1    2    0    0  0.00000000000E+00  0.00000000000E+00  0.66422639398E+03  0.24388291228E+04  0.23466339271E+04 0.  0.
        2    1    3    3  502    0  0.42583015002E+03  0.42294746250E+03 -0.71569187197E+03  0.93404000360E+03  0.25500000920E-02 0. -1.
       -2    1    3    3    0  502 -0.42583015002E+03 -0.42294746250E+03  0.13799182660E+04  0.15047891193E+04  0.25500000920E-02 0.  1.
</event>
<event>
 5   0  0.6703961E-05  0.2349730E+04  0.7818609E-02  0.8458567E-01
        2   -1    0    0  501    0  0.00000000000E+00  0.00000000000E+00  0.66981543814E+03  0.66981543814E+03  0.25500000920E-02 0. -1.
       -2   -1    0    0    0  501  0.00000000000E+00  0.00000000000E+00 -0.20607284765E+04  0.20607284765E+04  0.25500000920E-02 0.  1.
    10030    2    1    2    0    0  0.00000000000E+00  0.00000000000E+00 -0.13909130383E+04  0.27305439146E+04  0.23497299822E+04 0.  0.
        2    1    3    3  502    0 -0.10320747585E+04  0.18450764609E+03 -0.13115563644E+04  0.16791073448E+04  0.25500000920E-02 0.  1.
       -2    1    3    3    0  502  0.10320747585E+04 -0.18450764609E+03 -0.79356673969E+02  0.10514365698E+04  0.25500000920E-02 0. -1.
</event>
<event>
 5   0  0.2915546E-05  0.2434415E+04  0.7818609E-02  0.8426730E-01
       -1   -1    0    0    0  501  0.00000000000E+00  0.00000000000E+00  0.92185302888E+03  0.92185302889E+03  0.50400001928E-02 0. -1.
        1   -1    0    0  501    0  0.00000000000E+00  0.00000000000E+00 -0.16071913468E+04  0.16071913468E+04  0.50400001928E-02 0.  1.
    10030    2    1    2    0    0  0.00000000000E+00  0.00000000000E+00 -0.68533831790E+03  0.25290443757E+04  0.24344150928E+04 0.  0.
        2    1    3    3  502    0 -0.19475266095E+03 -0.82271137956E+03 -0.12523858318E+04  0.15110436409E+04  0.25500000920E-02 0.  1.
       -2    1    3    3    0  502  0.19475266095E+03  0.82271137956E+03  0.56704751390E+03  0.10180007348E+04  0.25500000920E-02 0. -1.
</event>
<event>
 5   0  0.2339125E-05  0.1870057E+04  0.7818609E-02  0.8669906E-01
        3   -1    0    0  501    0  0.00000000000E+00  0.00000000000E+00  0.13735077232E+04  0.13735077269E+04  0.10100000352E+00 0. -1.
       -3   -1    0    0    0  501  0.00000000000E+00  0.00000000000E+00 -0.63652988720E+03  0.63652989521E+03  0.10100000352E+00 0.  1.
    10030    2    1    2    0    0  0.00000000000E+00  0.00000000000E+00  0.73697783596E+03  0.20100376221E+04  0.18700574621E+04 0.  0.
        4    1    3    3  502    0 -0.20353951667E+03  0.77831577460E+03  0.88068034385E+03  0.11928131709E+04  0.12699999809E+01 0.  1.
       -4    1    3    3    0  502  0.20353951667E+03 -0.77831577460E+03 -0.14370250790E+03  0.81722445113E+03  0.12699999809E+01 0. -1.
</event>
<event>
 5   0  0.2943123E-05  0.2404581E+04  0.7818609E-02  0.8437790E-01
        1   -1    0    0  501    0  0.00000000000E+00  0.00000000000E+00  0.10284390233E+04  0.10284390233E+04  0.50400001928E-02 0. -1.
       -1   -1    0    0    0  501  0.00000000000E+00  0.00000000000E+00 -0.14055307625E+04  0.14055307625E+04  0.50400001928E-02 0.  1.
    10030    2    1    2    0    0  0.00000000000E+00  0.00000000000E+00 -0.37709173920E+03  0.24339697858E+04  0.24045811981E+04 0.  0.
        1    1    3    3  502    0 -0.38695423139E+03 -0.85041012499E+03 -0.95447870019E+03  0.13356498594E+04  0.50400001928E-02 0.  1.
       -1    1    3    3    0  502  0.38695423139E+03  0.85041012499E+03  0.57738696100E+03  0.10983199264E+04  0.50400001928E-02 0. -1.
</event>
<event>
 5   0  0.6703961E-05  0.2146298E+04  0.7818609E-02  0.8541118E-01
       -2   -1    0    0    0  501  0.00000000000E+00  0.00000000000E+00  0.13195210581E+04  0.13195210581E+04  0.25500000920E-02 0.  1.
        2   -1    0    0  501    0  0.00000000000E+00  0.00000000000E+00 -0.87277802145E+03  0.87277802145E+03  0.25500000920E-02 0. -1.
    10030    2    1    2    0    0  0.00000000000E+00  0.00000000000E+00  0.44674303666E+03  0.21922990796E+04  0.21462981884E+04 0.  0.
        2    1    3    3  502    0  0.84261391259E+03 -0.20716574041E+03  0.86835843133E+03  0.12275838932E+04  0.25500000920E-02 0.  1.
       -2    1    3    3    0  502 -0.84261391259E+03  0.20716574041E+03 -0.42161539467E+03  0.96471518632E+03  0.25500000920E-02 0. -1.
</event>
<event>
 5   0  0.6978115E-05  0.2216561E+04  0.7818609E-02  0.8511567E-01
        2   -1    0    0  501    0  0.00000000000E+00  0.00000000000E+00  0.19569393096E+04  0.19569393096E+04  0.25500000920E-02 0. -1.
       -2   -1    0    0    0  501  0.00000000000E+00  0.00000000000E+00 -0.62765643810E+03  0.62765643810E+03  0.25500000920E-02 0.  1.
    10030    2    1    2    0    0  0.00000000000E+00  0.00000000000E+00  0.13292828715E+04  0.25845957477E+04  0.22165609007E+04 0.  0.
        4    1    3    3  502    0 -0.65842227186E+03 -0.89063646165E+03  0.61902042240E+03  0.12688345405E+04  0.12699999809E+01 0. -1.
       -4    1    3    3    0  502  0.65842227186E+03  0.89063646165E+03  0.71026244910E+03  0.13157612072E+04  0.12699999809E+01 0.  1.
</event>
<event>
 5   0  0.6337926E-05  0.2203534E+04  0.7818609E-02  0.8516959E-01
       -2   -1    0    0    0  501  0.00000000000E+00  0.00000000000E+00  0.13256791274E+04  0.13256791274E+04  0.25500000920E-02 0. -1.
        2   -1    0    0  501    0  0.00000000000E+00  0.00000000000E+00 -0.91567461042E+03  0.91567461042E+03  0.25500000920E-02 0.  1.
    10030    2    1    2    0    0  0.00000000000E+00  0.00000000000E+00  0.41000451693E+03  0.22413537378E+04  0.22035341781E+04 0.  0.
        1    1    3    3  502    0  0.60216519798E+03  0.61999891341E+03  0.90002257334E+03  0.12478149746E+04  0.50400001928E-02 0. -1.
       -1    1    3    3    0  502 -0.60216519798E+03 -0.61999891341E+03 -0.49001805641E+03  0.99353876317E+03  0.50400001928E-02 0.  1.
</event>
<event>
 5   0  0.6337926E-05  0.2339681E+04  0.7818609E-02  0.8462438E-01
       -2   -1    0    0    0  501  0.00000000000E+00  0.00000000000E+00  0.13078307459E+04  0.13078307459E+04  0.25500000920E-02 0.  1.
        2   -1    0    0  501    0  0.00000000000E+00  0.00000000000E+00 -0.10464095897E+04  0.10464095897E+04  0.25500000920E-02 0. -1.
    10030    2    1    2    0    0  0.00000000000E+00  0.00000000000E+00  0.26142115624E+03  0.23542403356E+04  0.23396808622E+04 0.  0.
        1    1    3    3  502    0  0.41544720857E+03  0.39307539846E+03 -0.89614069008E+03  0.10630958510E+04  0.50400001928E-02 0. -1.
       -1    1    3    3    0  502 -0.41544720857E+03 -0.39307539846E+03  0.11575618463E+04  0.12911444846E+04  0.50400001928E-02 0.  1.
</event>
<event>
 5   0  0.2915546E-05  0.2035975E+04  0.7818609E-02  0.8589983E-01
        1   -1    0    0  501    0  0.00000000000E+00  0.00000000000E+00  0.14078286167E+04  0.14078286167E+04  0.50400001928E-02 0. -1.
       -1   -1    0    0    0  501  0.00000000000E+00  0.00000000000E+00 -0.73609724830E+03  0.73609724832E+03  0.50400001928E-02 0.  1.
    10030    2    1    2    0    0  0.00000000000E+00  0.00000000000E+00  0.67173136836E+03  0.21439258650E+04  0.20359752168E+04 0.  0.
        2    1    3    3  502    0 -0.57781825656E+03  0.38344073257E+03 -0.44889899342E+03  0.82608173888E+03  0.25500000920E-02 0.  1.
       -2    1    3    3    0  502  0.57781825656E+03 -0.38344073257E+03  0.11206303618E+04  0.13178441261E+04  0.25500000920E-02 0. -1.
</event>
<event>
 5   0  0.2339125E-05  0.2363892E+04  0.7818609E-02  0.8453147E-01
       -4   -1    0    0    0  501  0.00000000000E+00  0.00000000000E+00  0.95524306876E+03  0.95524391299E+03  0.12699999809E+01 0.  1.
        4   -1    0    0  501    0  0.00000000000E+00  0.00000000000E+00 -0.14624490973E+04  0.14624496487E+04  0.12699999809E+01 0. -1.
    10030    2    1    2    0    0  0.00000000000E+00  0.00000000000E+00 -0.50720602852E+03  0.24176935617E+04  0.23638917494E+04 0.  0.
        2    1    3    3  502    0 -0.10503781782E+04  0.14225875982E+03  0.28123700038E+03  0.10966431153E+04  0.25500000920E-02 0.  1.
       -2    1    3    3    0  502  0.10503781782E+04 -0.14225875982E+03 -0.78844302889E+03  0.13210504464E+04  0.25500000920E-02 0. -1.
</event>
<event>
 5   0  0.6337926E-05  0.2312692E+04  0.7818609E-02  0.8472934E-01
       -2   -1    0    0    0  501  0.00000000000E+00  0.00000000000E+00  0.15210731034E+04  0.15210731034E+04  0.25500000920E-02 0. -1.
        2   -1    0    0  501    0  0.00000000000E+00  0.00000000000E+00 -0.87907416925E+03  0.87907416925E+03  0.25500000920E-02 0.  1.
    10030    2    1    2    0    0  0.00000000000E+00  0.00000000000E+00  0.64199893418E+03  0.24001472727E+04  0.23126920026E+04 0.  0.
        1    1    3    3  502    0  0.45933615793E+03 -0.10533788184E+04  0.18753046617E+03  0.11643729286E+04  0.50400001928E-02 0.  1.
       -1    1    3    3    0  502 -0.45933615793E+03  0.10533788184E+04  0.45446846801E+03  0.12357743441E+04  0.50400001928E-02 0. -1.
</event>
<event>
 5   0  0.6600166E-05  0.2387791E+04  0.7818609E-02  0.8444088E-01
        2   -1    0    0  501    0  0.00000000000E+00  0.00000000000E+00  0.20134557940E+04  0.20134557940E+04  0.25500000920E-02 0.  1.
       -2   -1    0    0    0  501  0.00000000000E+00  0.00000000000E+00 -0.70793053423E+03  0.70793053423E+03  0.25500000920E-02 0. -1.
    10030    2    1    2    0    0  0.00000000000E+00  0.00000000000E+00  0.13055252597E+04  0.27213863282E+04  0.23877913107E+04 0.  0.
        5    1    3    3  502    0 -0.52611811725E+03  0.14925966624E+03 -0.55677164286E+03  0.78044568905E+03  0.46999998093E+01 0. -1.
       -5    1    3    3    0  502  0.52611811725E+03 -0.14925966624E+03  0.18622969026E+04  0.19409406391E+04  0.46999998093E+01 0.  1.
</event>
<event>
 5   0  0.6978115E-05  0.2383810E+04  0.7818609E-02  0.8445590E-01
        2   -1    0    0  501    0  0.00000000000E+00  0.00000000000E+00  0.72210297664E+03  0.72210297664E+03  0.25500000920E-02 0. -1.
       -2   -1    0    0    0  501  0.00000000000E+00  0.00000000000E+00 -0.19673618303E+04  0.19673618303E+04  0.25500000920E-02 0.  1.
    10030    2    1    2    0    0  0.00000000000E+00  0.00000000000E+00 -0.12452588536E+04  0.26894648069E+04  0.23838102557E+04 0.  0.
        4    1    3    3  502    0  0.41960310774E+03  0.30577066192E+03 -0.18330763694E+04  0.19051858320E+04  0.12699999809E+01 0.  1.
       -4    1    3    3    0  502 -0.41960310774E+03 -0.30577066192E+03  0.58781751575E+03  0.78427897488E+03  0.12699999809E+01 0. -1.
</event>
<event>
 5   0  0.2943123E-05  0.2461990E+04  0.7818609E-02  0.8416653E-01
        1   -1    0    0  501    0  0.00000000000E+00  0.00000000000E+00  0.10278029641E+04  0.10278029641E+04  0.50400001928E-02 0.  1.
       -1   -1    0    0    0  501  0.00000000000E+00  0.00000000000E+00 -0.14743573005E+04  0.14743573005E+04  0.50400001928E-02 0. -1.
    10030    2    1    2    0    0  0.00000000000E+00  0.00000000000E+00 -0.44655433637E+03  0.25021602646E+04  0.24619900923E+04 0.  0.
        1    1    3    3  502    0 -0.43466065822E+03 -0.10913170638E+04  0.15075752381E+03  0.11843270885E+04  0.50400001928E-02 0. -1.
       -1    1    3    3    0  502  0.43466065822E+03  0.10913170638E+04 -0.59731186019E+03  0.13178331761E+04  0.50400001928E-02 0.  1.
</event>
<event>
 5   0  0.6714629E-05  0.2490007E+04  0.7818609E-02  0.8406554E-01
        2   -1    0    0  501    0  0.00000000000E+00  0.00000000000E+00  0.14492161698E+04  0.14492161698E+04  0.25500000920E-02 0.  1.
       -2   -1    0    0    0  501  0.00000000000E+00  0.00000000000E+00 -0.10695672895E+04  0.10695672895E+04  0.25500000920E-02 0. -1.
    10030    2    1    2    0    0  0.00000000000E+00  0.00000000000E+00  0.37964888034E+03  0.25187834593E+04  0.24900073981E+04 0.  0.
        3    1    3    3  502    0 -0.31744470630E+03 -0.27742565309E+03 -0.99516483800E+03  0.10807817539E+04  0.10100000352E+00 0. -1.
       -3    1    3    3    0  502  0.31744470630E+03  0.27742565309E+03  0.13748137183E+04  0.14380017055E+04  0.10100000352E+00 0.  1.
</event>
<event>
 5   0  0.6337926E-05  0.2372735E+04  0.7818609E-02  0.8449782E-01
       -2   -1    0    0    0  501  0.00000000000E+00  0.00000000000E+00  0.17201045608E+04  0.17201045608E+04  0.25500000920E-02 0. -1.
        2   -1    0    0  501    0  0.00000000000E+00  0.00000000000E+00 -0.81824565671E+03  0.81824565672E+03  0.25500000920E-02 0.  1.
    10030    2    1    2    0    0  0.00000000000E+00  0.00000000000E+00  0.90185890409E+03  0.25383502175E+04  0.23727352031E+04 0.  0.
        1    1    3    3  502    0  0.10675642404E+04 -0.51721083100E+03  0.43342801735E+03  0.12629569657E+04  0.50400001928E-02 0. -1.
       -1    1    3    3    0  502 -0.10675642404E+04  0.51721083100E+03  0.46843088674E+03  0.12753932518E+04  0.50400001928E-02 0.  1.
</event>
<event>
 5   0  0.2901816E-05  0.2207041E+04  0.7818609E-02  0.8515503E-01
        1   -1    0    0  501    0  0.00000000000E+00  0.00000000000E+00  0.71601416905E+03  0.71601416907E+03  0.50400001928E-02 0. -1.
       -1   -1    0    0    0  501  0.00000000000E+00  0.00000000000E+00 -0.17007444592E+04  0.17007444592E+04  0.50400001928E-02 0.  1.
    10030    2    1    2    0    0  0.00000000000E+00  0.00000000000E+00 -0.98473029015E+03  0.24167586283E+04  0.22070406709E+04 0.  0.
        4    1    3    3  502    0 -0.43804184922E+01  0.79909335759E+03  0.34099364404E+03  0.86881969383E+03  0.12699999809E+01 0. -1.
       -4    1    3    3    0  502  0.43804184922E+01 -0.79909335759E+03 -0.13257239342E+04  0.15479389344E+04  0.12699999809E+01 0.  1.
</event>
<event>
 5   0  0.6714629E-05  0.2355930E+04  0.7818609E-02  0.8456189E-01
        2   -1    0    0  501    0  0.00000000000E+00  0.00000000000E+00  0.23820760065E+04  0.23820760065E+04  0.25500000920E-02 0. -1.
       -2   -1    0    0    0  501  0.00000000000E+00  0.00000000000E+00 -0.58251774633E+03  0.58251774634E+03  0.25500000920E-02 0.  1.
    10030    2    1    2    0    0  0.00000000000E+00  0.00000000000E+00  0.17995582602E+04  0.29645937529E+04  0.23559300048E+04 0.  0.
        3    1    3    3  502    0 -0.83720453637E+03 -0.44193066290E+02  0.19410524172E+04  0.21143672716E+04  0.10100000352E+00 0. -1.
       -3    1    3    3    0  502  0.83720453637E+03  0.44193066290E+02 -0.14149415695E+03  0.85022648129E+03  0.10100000352E+00 0.  1.
</event>
<event>
 5   0  0.6337926E-05  0.2414692E+04  0.7818609E-02  0.8434023E-01
        2   -1    0    0  501    0  0.00000000000E+00  0.00000000000E+00  0.11676442013E+04  0.11676442013E+04  0.25500000920E-02 0.  1.
       -2   -1    0    0    0  501  0.00000000000E+00  0.00000000000E+00 -0.12483981060E+04  0.12483981060E+04  0.25500000920E-02 0. -1.
    10030    2    1    2    0    0  0.00000000000E+00  0.00000000000E+00 -0.80753904725E+02  0.24160423074E+04  0.24146923692E+04 0.  0.
        1    1    3    3  502    0 -0.69039787803E+03  0.66604432696E+03 -0.77387650506E+03  0.12325376751E+04  0.50400001928E-02 0. -1.
       -1    1    3    3    0  502  0.69039787803E+03 -0.66604432696E+03  0.69312260033E+03  0.11835046323E+04  0.50400001928E-02 0.  1.
</event>
<event>
 5   0  0.2915546E-05  0.2431892E+04  0.7818609E-02  0.8427659E-01
        1   -1    0    0  501    0  0.00000000000E+00  0.00000000000E+00  0.24870979491E+04  0.24870979492E+04  0.50400001928E-02 0.  1.
       -1   -1    0    0    0  501  0.00000000000E+00  0.00000000000E+00 -0.59447810074E+03  0.59447810076E+03  0.50400001928E-02 0. -1.
    10030    2    1    2    0    0  0.00000000000E+00  0.00000000000E+00  0.18926198484E+04  0.30815760499E+04  0.24318924855E+04 0.  0.
        2    1    3    3  502    0  0.16950676009E+02  0.11428211916E+04  0.14721360338E+04  0.18637360605E+04  0.25500000920E-02 0. -1.
       -2    1    3    3    0  502 -0.16950676009E+02 -0.11428211916E+04  0.42048381461E+03  0.12178399894E+04  0.25500000920E-02 0.  1.
</event>
<event>
 5   0  0.6600166E-05  0.2406207E+04  0.7818609E-02  0.8437183E-01
        2   -1    0    0  501    0  0.00000000000E+00  0.00000000000E+00  0.18724722566E+04  0.18724722566E+04  0.25500000920E-02 0. -1.
       -2   -1    0    0    0  501  0.00000000000E+00  0.00000000000E+00 -0.77301972933E+03  0.77301972934E+03  0.25500000920E-02 0.  1.
    10030    2    1    2    0    0  0.00000000000E+00  0.00000000000E+00  0.10994525273E+04  0.26454919859E+04  0.24062069711E+04 0.  0.
        5    1    3    3  502    0 -0.10609526366E+04 -0.50494459534E+02 -0.71499722641E+02  0.10645677470E+04  0.46999998093E+01 0.  1.
       -5    1    3    3    0  502  0.10609526366E+04  0.50494459534E+02  0.11709522499E+04  0.15809242389E+04  0.46999998093E+01 0. -1.
</event>
<event>
 5   0  0.2943123E-05  0.2050228E+04  0.7818609E-02  0.8583491E-01
        1   -1    0    0  501    0  0.00000000000E+00  0.00000000000E+00  0.10147820801E+04  0.10147820801E+04  0.50400001928E-02 0. -1.
       -1   -1    0    0    0  501  0.00000000000E+00  0.00000000000E+00 -0.10355509254E+04  0.10355509254E+04  0.50400001928E-02 0.  1.
    10030    2    1    2    0    0  0.00000000000E+00  0.00000000000E+00 -0.20768845337E+02  0.20503330055E+04  0.20502278138E+04 0.  0.
        1    1    3    3  502    0  0.34919697981E+03  0.50738805999E+03  0.80909483462E+03  0.10168655887E+04  0.50400001928E-02 0. -1.
       -1    1    3    3    0  502 -0.34919697981E+03 -0.50738805999E+03 -0.82986367995E+03  0.10334674167E+04  0.50400001928E-02 0.  1.
</event>
<event>
 5   0  0.6337926E-05  0.2408188E+04  0.7818609E-02  0.8436444E-01
       -2   -1    0    0    0  501  0.00000000000E+00  0.00000000000E+00  0.89135150990E+03  0.89135150991E+03  0.25500000920E-02 0. -1.
        2   -1    0    0  501    0  0.00000000000E+00  0.00000000000E+00 -0.16265662419E+04  0.16265662419E+04  0.25500000920E-02 0.  1.
    10030    2    1    2    0    0  0.00000000000E+00  0.00000000000E+00 -0.73521473203E+03  0.25179177518E+04  0.24081879293E+04 0.  0.
        1    1    3    3  502    0 -0.78277973318E+03  0.18876630058E+03 -0.13036455531E+04  0.15322756133E+04  0.50400001928E-02 0.  1.
       -1    1    3    3    0  502  0.78277973318E+03 -0.18876630058E+03  0.56843082108E+03  0.98564213855E+03  0.50400001928E-02 0. -1.
</event>
<event>
 5   0  0.6703961E-05  0.2423769E+04  0.7818609E-02  0.8430658E-01
        2   -1    0    0  501    0  0.00000000000E+00  0.00000000000E+00  0.16979031521E+04  0.16979031521E+04  0.25500000920E-02 0.  1.
       -2   -1    0    0    0  501  0.00000000000E+00  0.00000000000E+00 -0.86498705237E+03  0.86498705238E+03  0.25500000920E-02 0. -1.
    10030    2    1    2    0    0  0.00000000000E+00  0.00000000000E+00  0.83291609974E+03  0.25628902045E+04  0.24237691662E+04 0.  0.
        2    1    3    3  502    0  0.25122575792E+03  0.22577091486E+03 -0.81420921983E+03  0.88148938797E+03  0.25500000920E-02 0. -1.
       -2    1    3    3    0  502 -0.25122575792E+03 -0.22577091486E+03  0.16471253196E+04  0.16814008165E+04  0.25500000920E-02 0.  1.
</event>
<event>
 5   0  0.2847158E-05  0.2277983E+04  0.7818609E-02  0.8486653E-01
       -1   -1    0    0    0  501  0.00000000000E+00  0.00000000000E+00  0.97130276564E+03  0.97130276565E+03  0.50400001928E-02 0.  1.
        1   -1    0    0  501    0  0.00000000000E+00  0.00000000000E+00 -0.13356309717E+04  0.13356309717E+04  0.50400001928E-02 0. -1.
    10030    2    1    2    0    0  0.00000000000E+00  0.00000000000E+00 -0.36432820604E+03  0.23069337373E+04  0.22779833684E+04 0.  0.
        5    1    3    3  502    0  0.44346282579E+03  0.64549838356E+02  0.87826046495E+03  0.98599670070E+03  0.46999998093E+01 0.  1.
       -5    1    3    3    0  502 -0.44346282579E+03 -0.64549838356E+02 -0.12425886710E+04  0.13209370366E+04  0.46999998093E+01 0. -1.
</event>
<event>
 5   0  0.2943244E-05  0.2264932E+04  0.7818609E-02  0.8491878E-01
        1   -1    0    0  501    0  0.00000000000E+00  0.00000000000E+00  0.77420472591E+03  0.77420472592E+03  0.50400001928E-02 0. -1.
       -1   -1    0    0    0  501  0.00000000000E+00  0.00000000000E+00 -0.16565111177E+04  0.16565111177E+04  0.50400001928E-02 0.  1.
    10030    2    1    2    0    0  0.00000000000E+00  0.00000000000E+00 -0.88230639182E+03  0.24307158437E+04  0.22649315538E+04 0.  0.
        3    1    3    3  502    0 -0.28421130334E+03 -0.11536627852E+03  0.72877498892E+03  0.79069490820E+03  0.10100000352E+00 0. -1.
       -3    1    3    3    0  502  0.28421130334E+03  0.11536627852E+03 -0.16110813807E+04  0.16400209355E+04  0.10100000352E+00 0.  1.
</event>
<event>
 5   0  0.6714629E-05  0.2464883E+04  0.7818609E-02  0.8415604E-01
        2   -1    0    0  501    0  0.00000000000E+00  0.00000000000E+00  0.25164896852E+04  0.25164896852E+04  0.25500000920E-02 0. -1.
       -2   -1    0    0    0  501  0.00000000000E+00  0.00000000000E+00 -0.60358367921E+03  0.60358367922E+03  0.25500000920E-02 0.  1.
    10030    2    1    2    0    0  0.00000000000E+00  0.00000000000E+00  0.19129060059E+04  0.31200733644E+04  0.24648830422E+04 0.  0.
        3    1    3    3  502    0 -0.86702515513E+03 -0.21094253693E+03 -0.11962145754E+03  0.90029921516E+03  0.10100000352E+00 0.  1.
       -3    1    3    3    0  502  0.86702515513E+03  0.21094253693E+03  0.20325274635E+04  0.22197741492E+04  0.10100000352E+00 0. -1.
</event>
<event>
 5   0  0.6600166E-05  0.2393364E+04  0.7818609E-02  0.8441992E-01
       -2   -1    0    0    0  501  0.00000000000E+00  0.00000000000E+00  0.70916923213E+03  0.70916923213E+03  0.25500000920E-02 0. -1.
        2   -1    0    0  501    0  0.00000000000E+00  0.00000000000E+00 -0.20193323981E+04  0.20193323981E+04  0.25500000920E-02 0.  1.
    10030    2    1    2    0    0  0.00000000000E+00  0.00000000000E+00 -0.13101631660E+04  0.27285016303E+04  0.23933644989E+04 0.  0.
        5    1    3    3  502    0  0.74835248399E+02 -0.32972760074E+03 -0.19637348296E+04  0.19926357359E+04  0.46999998093E+01 0.  1.
       -5    1    3    3    0  502 -0.74835248399E+02  0.32972760074E+03  0.65357166356E+03  0.73586589438E+03  0.46999998093E+01 0. -1.
</event>
<event>
 5   0  0.2847158E-05  0.2416100E+04  0.7818609E-02  0.8433501E-01
       -1   -1    0    0    0  501  0.00000000000E+00  0.00000000000E+00  0.10147995961E+04  0.10147995961E+04  0.50400001928E-02 0.  1.
        1   -1    0    0  501    0  0.00000000000E+00  0.00000000000E+00 -0.14381013187E+04  0.14381013187E+04  0.50400001928E-02 0. -1.
    10030    2    1    2    0    0  0.00000000000E+00  0.00000000000E+00 -0.42330172257E+03  0.24529009148E+04  0.24160998633E+04 0.  0.
        5    1    3    3  502    0 -0.11994988093E+04  0.12974491149E+03 -0.27366657019E+03  0.12371526249E+04  0.46999998093E+01 0.  1.
       -5    1    3    3    0  502  0.11994988093E+04 -0.12974491149E+03 -0.14963515238E+03  0.12157482899E+04  0.46999998093E+01 0. -1.
</event>
<event>
 5   0  0.6337926E-05  0.2455927E+04  0.7818609E-02  0.8418857E-01
        2   -1    0    0  501    0  0.00000000000E+00  0.00000000000E+00  0.21532270222E+04  0.21532270222E+04  0.25500000920E-02 0. -1.
       -2   -1    0    0    0  501  0.00000000000E+00  0.00000000000E+00 -0.70029490502E+03  0.70029490502E+03  0.25500000920E-02 0.  1.
    10030    2    1    2    0    0  0.00000000000E+00  0.00000000000E+00  0.14529321172E+04  0.28535219273E+04  0.24559266382E+04 0.  0.
        1    1    3    3  502    0 -0.11200695333E+04  0.49781647655E+02  0.13084104439E+04  0.17230704750E+04  0.50400001928E-02 0. -1.
       -1    1    3    3    0  502  0.11200695333E+04 -0.49781647655E+02  0.14452167330E+03  0.11304514523E+04  0.50400001928E-02 0.  1.
</event>
<event>
 5   0  0.2943123E-05  0.1615975E+04  0.7818609E-02  0.8810794E-01
       -1   -1    0    0    0  501  0.00000000000E+00  0.00000000000E+00  0.35223924034E+03  0.35223924038E+03  0.50400001928E-02 0. -1.
        1   -1    0    0  501    0  0.00000000000E+00  0.00000000000E+00 -0.18534103588E+04  0.18534103589E+04  0.50400001928E-02 0.  1.
    10030    2    1    2    0    0  0.00000000000E+00  0.00000000000E+00 -0.15011711185E+04  0.22056495992E+04  0.16159750702E+04 0.  0.
        1    1    3    3  502    0 -0.17837830008E+03 -0.36522252814E+03 -0.17037118087E+04  0.17515251183E+04  0.50400001928E-02 0.  1.
       -1    1    3    3    0  502  0.17837830008E+03  0.36522252814E+03  0.20254069016E+03  0.45412448094E+03  0.50400001928E-02 0. -1.
</event>
<event>
 5   0  0.6714629E-05  0.2373194E+04  0.7818609E-02  0.8449608E-01
        2   -1    0    0  501    0  0.00000000000E+00  0.00000000000E+00  0.12835351315E+04  0.12835351315E+04  0.25500000920E-02 0. -1.
       -2   -1    0    0    0  501  0.00000000000E+00  0.00000000000E+00 -0.10969803903E+04  0.10969803903E+04  0.25500000920E-02 0.  1.
    10030    2    1    2    0    0  0.00000000000E+00  0.00000000000E+00  0.18655474119E+03  0.23805155218E+04  0.23731943617E+04 0.  0.
        3    1    3    3  502    0 -0.92251443318E+03  0.52004155326E+02  0.84007094005E+03  0.12487820090E+04  0.10100000352E+00 0. -1.
       -3    1    3    3    0  502  0.92251443318E+03 -0.52004155326E+02 -0.65351619886E+03  0.11317335128E+04  0.10100000352E+00 0.  1.
</event>
<event>
 5   0  0.6978115E-05  0.1529324E+04  0.7818609E-02  0.8865183E-01
       -2   -1    0    0    0  501  0.00000000000E+00  0.00000000000E+00  0.34569265817E+03  0.34569265818E+03  0.25500000920E-02 0. -1.
        2   -1    0    0  501    0  0.00000000000E+00  0.00000000000E+00 -0.16914103127E+04  0.16914103127E+04  0.25500000920E-02 0.  1.
    10030    2    1    2    0    0  0.00000000000E+00  0.00000000000E+00 -0.13457176545E+04  0.20371029709E+04  0.15293241999E+04 0.  0.
        4    1    3    3  502    0 -0.15868418245E+03  0.31823237197E+03 -0.15745681388E+04  0.16142239463E+04  0.12699999809E+01 0.  1.
       -4    1    3    3    0  502  0.15868418245E+03 -0.31823237197E+03  0.22885048428E+03  0.42287902453E+03  0.12699999809E+01 0. -1.
</event>
<event>
 5   0  0.6703961E-05  0.2376493E+04  0.7818609E-02  0.8448357E-01
       -2   -1    0    0    0  501  0.00000000000E+00  0.00000000000E+00  0.15139579224E+04  0.15139579224E+04  0.25500000920E-02 0. -1.
        2   -1    0    0  501    0  0.00000000000E+00  0.00000000000E+00 -0.93260842427E+03  0.93260842427E+03  0.25500000920E-02 0.  1.
    10030    2    1    2    0    0  0.00000000000E+00  0.00000000000E+00  0.58134949815E+03  0.24465663467E+04  0.23764931411E+04 0.  0.
        2    1    3    3  502    0 -0.51896844427E+03  0.10330514301E+04  0.79755603684E+01  0.11561086078E+04  0.25500000920E-02 0. -1.
       -2    1    3    3    0  502  0.51896844427E+03 -0.10330514301E+04  0.57337393778E+03  0.12904577389E+04  0.25500000920E-02 0.  1.
</event>
<event>
 5   0  0.6703961E-05  0.2427021E+04  0.7818609E-02  0.8429456E-01
        2   -1    0    0  501    0  0.00000000000E+00  0.00000000000E+00  0.16802595239E+04  0.16802595239E+04  0.25500000920E-02 0.  1.
       -2   -1    0    0    0  501  0.00000000000E+00  0.00000000000E+00 -0.87641718341E+03  0.87641718342E+03  0.25500000920E-02 0. -1.
    10030    2    1    2    0    0  0.00000000000E+00  0.00000000000E+00  0.80384234048E+03  0.25566767073E+04  0.24270214827E+04 0.  0.
        2    1    3    3  502    0 -0.40170535543E+03  0.11438628026E+04  0.45785195714E+03  0.12959235002E+04  0.25500000920E-02 0. -1.
       -2    1    3    3    0  502  0.40170535543E+03 -0.11438628026E+04  0.34599038334E+03  0.12607532071E+04  0.25500000920E-02 0.  1.
</event>
<event>
 5   0  0.6337926E-05  0.2357223E+04  0.7818609E-02  0.8455694E-01
        2   -1    0    0  501    0  0.00000000000E+00  0.00000000000E+00  0.10354832645E+04  0.10354832645E+04  0.25500000920E-02 0. -1.
       -2   -1    0    0    0  501  0.00000000000E+00  0.00000000000E+00 -0.13415235945E+04  0.13415235945E+04  0.25500000920E-02 0.  1.
    10030    2    1    2    0    0  0.00000000000E+00  0.00000000000E+00 -0.30604032994E+03  0.23770068590E+04  0.23572231384E+04 0.  0.
        1    1    3    3  502    0 -0.24964601572E+03  0.44806027647E+03 -0.12230784565E+04  0.13262737482E+04  0.50400001928E-02 0.  1.
       -1    1    3    3    0  502  0.24964601572E+03 -0.44806027647E+03  0.91703812654E+03  0.10507331108E+04  0.50400001928E-02 0. -1.
</event>
<event>
 5   0  0.2847158E-05  0.2469112E+04  0.7818609E-02  0.8414073E-01
        1   -1    0    0  501    0  0.00000000000E+00  0.00000000000E+00  0.99907296920E+03  0.99907296921E+03  0.50400001928E-02 0. -1.
       -1   -1    0    0    0  501  0.00000000000E+00  0.00000000000E+00 -0.15255422773E+04  0.15255422773E+04  0.50400001928E-02 0.  1.
    10030    2    1    2    0    0  0.00000000000E+00  0.00000000000E+00 -0.52646930811E+03  0.25246152465E+04  0.24691116238E+04 0.  0.
        5    1    3    3  502    0 -0.74594962431E+03 -0.75646758701E+03  0.37972665819E+03  0.11282280253E+04  0.46999998093E+01 0. -1.
       -5    1    3    3    0  502  0.74594962431E+03  0.75646758701E+03 -0.90619596630E+03  0.13963872212E+04  0.46999998093E+01 0.  1.
</event>
<event>
 5   0  0.2943123E-05  0.2374514E+04  0.7818609E-02  0.8449107E-01
       -1   -1    0    0    0  501  0.00000000000E+00  0.00000000000E+00  0.85345562491E+03  0.85345562493E+03  0.50400001928E-02 0.  1.
        1   -1    0    0  501    0  0.00000000000E+00  0.00000000000E+00 -0.16516134433E+04  0.16516134433E+04  0.50400001928E-02 0. -1.
    10030    2    1    2    0    0  0.00000000000E+00  0.00000000000E+00 -0.79815781835E+03  0.25050690682E+04  0.23745136625E+04 0.  0.
        1    1    3    3  502    0  0.76811197076E+02  0.83583541886E+03  0.48676549607E+03  0.97028936694E+03  0.50400001928E-02 0.  1.
       -1    1    3    3    0  502 -0.76811197076E+02 -0.83583541886E+03 -0.12849233144E+04  0.15347797013E+04  0.50400001928E-02 0. -1.
</event>
<event>
 5   0  0.6337926E-05  0.2416921E+04  0.7818609E-02  0.8433195E-01
        2   -1    0    0  501    0  0.00000000000E+00  0.00000000000E+00  0.16474016756E+04  0.16474016756E+04  0.25500000920E-02 0. -1.
       -2   -1    0    0    0  501  0.00000000000E+00  0.00000000000E+00 -0.88647312167E+03  0.88647312168E+03  0.25500000920E-02 0.  1.
    10030    2    1    2    0    0  0.00000000000E+00  0.00000000000E+00  0.76092855388E+03  0.25338747972E+04  0.24169214352E+04 0.  0.
        1    1    3    3  502    0 -0.79069190029E+02 -0.10035138466E+04 -0.32053541618E+03  0.10564255441E+04  0.50400001928E-02 0.  1.
       -1    1    3    3    0  502  0.79069190029E+02  0.10035138466E+04  0.10814639701E+04  0.14774492532E+04  0.50400001928E-02 0. -1.
</event>
<event>
 5   0  0.2915546E-05  0.2382106E+04  0.7818609E-02  0.8446233E-01
       -1   -1    0    0    0  501  0.00000000000E+00  0.00000000000E+00  0.71144802107E+03  0.71144802108E+03  0.50400001928E-02 0. -1.
        1   -1    0    0  501    0  0.00000000000E+00  0.00000000000E+00 -0.19939710406E+04  0.19939710406E+04  0.50400001928E-02 0.  1.
    10030    2    1    2    0    0  0.00000000000E+00  0.00000000000E+00 -0.12825230195E+04  0.27054190617E+04  0.23821055820E+04 0.  0.
        2    1    3    3  502    0  0.23245900433E+03 -0.20624893654E+03 -0.19471146814E+04  0.19717584525E+04  0.25500000920E-02 0.  1.
       -2    1    3    3    0  502 -0.23245900433E+03  0.20624893654E+03  0.66459166184E+03  0.73366060921E+03  0.25500000920E-02 0. -1.
</event>
<event>
 5   0  0.2943244E-05  0.1900279E+04  0.7818609E-02  0.8654717E-01
       -1   -1    0    0    0  501  0.00000000000E+00  0.00000000000E+00  0.50499843729E+03  0.50499843731E+03  0.50400001928E-02 0.  1.
        1   -1    0    0  501    0  0.00000000000E+00  0.00000000000E+00 -0.17876593883E+04  0.17876593883E+04  0.50400001928E-02 0. -1.
    10030    2    1    2    0    0  0.00000000000E+00  0.00000000000E+00 -0.12826609510E+04  0.22926578256E+04  0.19002791348E+04 0.  0.
        3    1    3    3  502    0 -0.19499400068E+02  0.68840967593E+03  0.14841225957E+03  0.70449578956E+03  0.10100000352E+00 0.  1.
       -3    1    3    3    0  502  0.19499400068E+02 -0.68840967593E+03 -0.14310732106E+04  0.15881620361E+04  0.10100000352E+00 0. -1.
</event>
<event>
 5   0  0.2901816E-05  0.2381456E+04  0.7818609E-02  0.8446479E-01
       -1   -1    0    0    0  501  0.00000000000E+00  0.00000000000E+00  0.26683931993E+04  0.26683931993E+04  0.50400001928E-02 0. -1.
        1   -1    0    0  501    0  0.00000000000E+00  0.00000000000E+00 -0.53134328853E+03  0.53134328855E+03  0.50400001928E-02 0.  1.
    10030    2    1    2    0    0  0.00000000000E+00  0.00000000000E+00  0.21370499108E+04  0.31997364879E+04  0.23814557041E+04 0.  0.
        4    1    3    3  502    0 -0.80342859436E+03  0.23769823759E+03 -0.68258222759E+02  0.84062997583E+03  0.12699999809E+01 0.  1.
       -4    1    3    3    0  502  0.80342859436E+03 -0.23769823759E+03  0.22053081335E+04  0.23591065120E+04  0.12699999809E+01 0. -1.
</event>
<event>
 5   0  0.6337926E-05  0.2460969E+04  0.7818609E-02  0.8417024E-01
       -2   -1    0    0    0  501  0.00000000000E+00  0.00000000000E+00  0.11390968153E+04  0.11390968153E+04  0.25500000920E-02 0.  1.
        2   -1    0    0  501    0  0.00000000000E+00  0.00000000000E+00 -0.13292041756E+04  0.13292041756E+04  0.25500000920E-02 0. -1.
    10030    2    1    2    0    0  0.00000000000E+00  0.00000000000E+00 -0.19010736033E+03  0.24683009909E+04  0.24609691126E+04 0.  0.
        1    1    3    3  502    0 -0.78781040515E+03  0.92158625946E+03 -0.30574086901E+03  0.12503775218E+04  0.50400001928E-02 0. -1.
       -1    1    3    3    0  502  0.78781040515E+03 -0.92158625946E+03  0.11563350869E+03  0.12179234690E+04  0.50400001928E-02 0.  1.
</event>
<event>
 5   0  0.2915546E-05  0.2403817E+04  0.7818609E-02  0.8438076E-01
       -1   -1    0    0    0  501  0.00000000000E+00  0.00000000000E+00  0.12623992133E+04  0.12623992133E+04  0.50400001928E-02 0. -1.
        1   -1    0    0  501    0  0.00000000000E+00  0.00000000000E+00 -0.11443159497E+04  0.11443159497E+04  0.50400001928E-02 0.  1.
    10030    2    1    2    0    0  0.00000000000E+00  0.00000000000E+00  0.11808326361E+03  0.24067151630E+04  0.24038165942E+04 0.  0.
        2    1    3    3  502    0 -0.66351306489E+03 -0.10021116312E+04  0.69361628534E+02  0.12038639226E+04  0.25500000920E-02 0.  1.
       -2    1    3    3    0  502  0.66351306489E+03  0.10021116312E+04  0.48721635075E+02  0.12028512403E+04  0.25500000920E-02 0. -1.
</event>
<event>
 5   0  0.2943244E-05  0.2414262E+04  0.7818609E-02  0.8434183E-01
       -1   -1    0    0    0  501  0.00000000000E+00  0.00000000000E+00  0.91720074519E+03  0.91720074521E+03  0.50400001928E-02 0. -1.
        1   -1    0    0  501    0  0.00000000000E+00  0.00000000000E+00 -0.15887096296E+04  0.15887096296E+04  0.50400001928E-02 0.  1.
    10030    2    1    2    0    0  0.00000000000E+00  0.00000000000E+00 -0.67150888440E+03  0.25059103748E+04  0.24142623355E+04 0.  0.
        3    1    3    3  502    0  0.73048004719E+03 -0.62928185024E+02 -0.13311177798E+04  0.15196827333E+04  0.10100000352E+00 0.  1.
       -3    1    3    3    0  502 -0.73048004719E+03  0.62928185024E+02  0.65960889543E+03  0.98622764154E+03  0.10100000352E+00 0. -1.
</event>
<event>
 5   0  0.2847158E-05  0.2286391E+04  0.7818609E-02  0.8483306E-01
       -1   -1    0    0    0  501  0.00000000000E+00  0.00000000000E+00  0.49952907631E+03  0.49952907633E+03  0.50400001928E-02 0. -1.
        1   -1    0    0  501    0  0.00000000000E+00  0.00000000000E+00 -0.26162555923E+04  0.26162555923E+04  0.50400001928E-02 0.  1.
    10030    2    1    2    0    0  0.00000000000E+00  0.00000000000E+00 -0.21167265160E+04  0.31157846687E+04  0.22863908148E+04 0.  0.
        5    1    3    3  502    0  0.50921326107E+03  0.67214003313E+03 -0.64778895640E+01  0.84328786452E+03  0.46999998093E+01 0. -1.
       -5    1    3    3    0  502 -0.50921326107E+03 -0.67214003313E+03 -0.21102486265E+04  0.22724968042E+04  0.46999998093E+01 0.  1.
</event>
<event>
 5   0  0.6337926E-05  0.2428189E+04  0.7818609E-02  0.8429025E-01
       -2   -1    0    0    0  501  0.00000000000E+00  0.00000000000E+00  0.12061558511E+04  0.12061558512E+04  0.25500000920E-02 0.  1.
        2   -1    0    0  501    0  0.00000000000E+00  0.00000000000E+00 -0.12220858680E+04  0.12220858680E+04  0.25500000920E-02 0. -1.
    10030    2    1    2    0    0  0.00000000000E+00  0.00000000000E+00 -0.15930016895E+02  0.24282417192E+04  0.24281894657E+04 0.  0.
        1    1    3    3  502    0  0.25348554413E+03  0.26844103337E+03  0.11486542397E+04  0.12065330795E+04  0.50400001928E-02 0.  1.
       -1    1    3    3    0  502 -0.25348554413E+03 -0.26844103337E+03 -0.11645842566E+04  0.12217086397E+04  0.50400001928E-02 0. -1.
</event>
<event>
 5   0  0.2339125E-05  0.1946203E+04  0.7818609E-02  0.8632194E-01
        3   -1    0    0  501    0  0.00000000000E+00  0.00000000000E+00  0.54936893631E+03  0.54936894559E+03  0.10100000352E+00 0.  1.
       -3   -1    0    0    0  501  0.00000000000E+00  0.00000000000E+00 -0.17236624947E+04  0.17236624976E+04  0.10100000352E+00 0. -1.
    10030    2    1    2    0    0  0.00000000000E+00  0.00000000000E+00 -0.11742935584E+04  0.22730314432E+04  0.19462031191E+04 0.  0.
        5    1    3    3  502    0 -0.59386877513E+03  0.21385997972E+03  0.27782309112E+03  0.68965496660E+03  0.46999998093E+01 0.  1.
       -5    1    3    3    0  502  0.59386877513E+03 -0.21385997972E+03 -0.14521166495E+04  0.15833764766E+04  0.46999998093E+01 0. -1.
</event>
<event>
 5   0  0.2847158E-05  0.2563001E+04  0.7818609E-02  0.8380879E-01
       -1   -1    0    0    0  501  0.00000000000E+00  0.00000000000E+00  0.98559856448E+03  0.98559856449E+03  0.50400001928E-02 0.  1.
        1   -1    0    0  501    0  0.00000000000E+00  0.00000000000E+00 -0.16662399963E+04  0.16662399963E+04  0.50400001928E-02 0. -1.
    10030    2    1    2    0    0  0.00000000000E+00  0.00000000000E+00 -0.68064143183E+03  0.26518385608E+04  0.25630011693E+04 0.  0.
        5    1    3    3  502    0 -0.20227549566E+02 -0.11345680036E+04 -0.95641618564E+03  0.14840511173E+04  0.46999998093E+01 0. -1.
       -5    1    3    3    0  502  0.20227549566E+02  0.11345680036E+04  0.27577475381E+03  0.11677874436E+04  0.46999998093E+01 0.  1.
</event>
<event>
 5   0  0.6703961E-05  0.2283990E+04  0.7818609E-02  0.8484260E-01
       -2   -1    0    0    0  501  0.00000000000E+00  0.00000000000E+00  0.83644862475E+03  0.83644862476E+03  0.25500000920E-02 0.  1.
        2   -1    0    0  501    0  0.00000000000E+00  0.00000000000E+00 -0.15591550567E+04  0.15591550567E+04  0.25500000920E-02 0. -1.
    10030    2    1    2    0    0  0.00000000000E+00  0.00000000000E+00 -0.72270643198E+03  0.23956036815E+04  0.22839904579E+04 0.  0.
        2    1    3    3  502    0  0.58906587312E+03 -0.13562046479E+03  0.65489159832E+03  0.89122080255E+03  0.25500000920E-02 0.  1.
       -2    1    3    3    0  502 -0.58906587312E+03  0.13562046479E+03 -0.13775980303E+04  0.15043828789E+04  0.25500000920E-02 0. -1.
</event>
<event>
 5   0  0.2915546E-05  0.2297899E+04  0.7818609E-02  0.8478750E-01
       -1   -1    0    0    0  501  0.00000000000E+00  0.00000000000E+00  0.59193520964E+03  0.59193520966E+03  0.50400001928E-02 0. -1.
        1   -1    0    0  501    0  0.00000000000E+00  0.00000000000E+00 -0.22301176445E+04  0.22301176445E+04  0.50400001928E-02 0.  1.
    10030    2    1    2    0    0  0.00000000000E+00  0.00000000000E+00 -0.16381824349E+04  0.28220528542E+04  0.22978991757E+04 0.  0.
        2    1    3    3  502    0  0.45239170450E+03  0.42414901072E+03  0.36875921722E+03  0.72148735116E+03  0.25500000920E-02 0. -1.
       -2    1    3    3    0  502 -0.45239170450E+03 -0.42414901072E+03 -0.20069416521E+04  0.21005655030E+04  0.25500000920E-02 0.  1.
</event>
<event>
 5   0  0.6600166E-05  0.2349800E+04  0.7818609E-02  0.8458540E-01
        2   -1    0    0  501    0  0.00000000000E+00  0.00000000000E+00  0.20690814958E+04  0.20690814958E+04  0.25500000920E-02 0. -1.
       -2   -1    0    0    0  501  0.00000000000E+00  0.00000000000E+00 -0.66715109145E+03  0.66715109145E+03  0.25500000920E-02 0.  1.
    10030    2    1    2    0    0  0.00000000000E+00  0.00000000000E+00  0.14019304043E+04  0.27362325872E+04  0.23497999729E+04 0.  0.
        5    1    3    3  502    0 -0.16003155079E+03  0.85380378601E+03  0.16221184236E+04  0.18400764312E+04  0.46999998093E+01 0. -1.
       -5    1    3    3    0  502  0.16003155079E+03 -0.85380378601E+03 -0.22018801928E+03  0.89615615609E+03  0.46999998093E+01 0.  1.
</event>
<event>
 5   0  0.6978115E-05  0.2418181E+04  0.7818609E-02  0.8432728E-01
        2   -1    0    0  501    0  0.00000000000E+00  0.00000000000E+00  0.84841429661E+03  0.84841429661E+03  0.25500000920E-02 0.  1.
       -2   -1    0    0    0  501  0.00000000000E+00  0.00000000000E+00 -0.17230960113E+04  0.17230960113E+04  0.25500000920E-02 0. -1.
    10030    2    1    2    0    0  0.00000000000E+00  0.00000000000E+00 -0.87468171468E+03  0.25715103079E+04  0.24181805478E+04 0.  0.
        4    1    3    3  502    0  0.78172215423E+03 -0.65119036022E+03 -0.11320308231E+04  0.15220492137E+04  0.12699999809E+01 0. -1.
       -4    1    3    3    0  502 -0.78172215423E+03  0.65119036022E+03  0.25734910843E+03  0.10494610942E+04  0.12699999809E+01 0.  1.
</event>
<event>
 5   0  0.6978115E-05  0.2401079E+04  0.7818609E-02  0.8439100E-01
       -2   -1    0    0    0  501  0.00000000000E+00  0.00000000000E+00  0.64532879940E+03  0.64532879940E+03  0.25500000920E-02 0. -1.
        2   -1    0    0  501    0  0.00000000000E+00  0.00000000000E+00 -0.22334269680E+04  0.22334269680E+04  0.25500000920E-02 0.  1.
    10030    2    1    2    0    0  0.00000000000E+00  0.00000000000E+00 -0.15880981686E+04  0.28787557674E+04  0.24010787108E+04 0.  0.
        4    1    3    3  502    0 -0.21032001217E+03 -0.99631437938E+03 -0.15565014907E+04  0.18599933746E+04  0.12699999809E+01 0.  1.
       -4    1    3    3    0  502  0.21032001217E+03  0.99631437938E+03 -0.31596677922E+02  0.10187623928E+04  0.12699999809E+01 0. -1.
</event>
<event>
 5   0  0.2847158E-05  0.2356988E+04  0.7818609E-02  0.8455785E-01
        1   -1    0    0  501    0  0.00000000000E+00  0.00000000000E+00  0.22214939068E+04  0.22214939068E+04  0.50400001928E-02 0.  1.
       -1   -1    0    0    0  501  0.00000000000E+00  0.00000000000E+00 -0.62518630956E+03  0.62518630958E+03  0.50400001928E-02 0. -1.
    10030    2    1    2    0    0  0.00000000000E+00  0.00000000000E+00  0.15963075972E+04  0.28466802164E+04  0.23569875497E+04 0.  0.
        5    1    3    3  502    0  0.10793488304E+04  0.40778467252E+03  0.50843372305E+03  0.12608763530E+04  0.46999998093E+01 0.  1.
       -5    1    3    3    0  502 -0.10793488304E+04 -0.40778467252E+03  0.10878738742E+04  0.15858038634E+04  0.46999998093E+01 0. -1.
</event>
<event>
 5   0  0.2847158E-05  0.2377002E+04  0.7818609E-02  0.8448164E-01
        1   -1    0    0  501    0  0.00000000000E+00  0.00000000000E+00  0.10102999421E+04  0.10102999421E+04  0.50400001928E-02 0. -1.
       -1   -1    0    0    0  501  0.00000000000E+00  0.00000000000E+00 -0.13981340491E+04  0.13981340491E+04  0.50400001928E-02 0.  1.
    10030    2    1    2    0    0  0.00000000000E+00  0.00000000000E+00 -0.38783410695E+03  0.24084339912E+04  0.23770021026E+04 0.  0.
        5    1    3    3  502    0  0.48260904725E+02 -0.11320026665E+04 -0.55748427045E+03  0.12627628256E+04  0.46999998093E+01 0.  1.
       -5    1    3    3    0  502 -0.48260904725E+02  0.11320026665E+04  0.16965016350E+03  0.11456711657E+04  0.46999998093E+01 0. -1.
</event>
<event>
 5   0  0.2847158E-05  0.2057131E+04  0.7818609E-02  0.8580366E-01
        1   -1    0    0  501    0  0.00000000000E+00  0.00000000000E+00  0.19430646272E+04  0.19430646273E+04  0.50400001928E-02 0.  1.
       -1   -1    0    0    0  501  0.00000000000E+00  0.00000000000E+00 -0.54447336589E+03  0.54447336591E+03  0.50400001928E-02 0. -1.
    10030    2    1    2    0    0  0.00000000000E+00  0.00000000000E+00  0.13985912614E+04  0.24875379932E+04  0.20571309514E+04 0.  0.
        5    1    3    3  502    0 -0.72696985426E+03  0.19391779239E+03 -0.14874712866E+03  0.76696615147E+03  0.46999998093E+01 0. -1.
       -5    1    3    3    0  502  0.72696985426E+03 -0.19391779239E+03  0.15473383900E+04  0.17205718417E+04  0.46999998093E+01 0.  1.
</event>
<event>
 5   0  0.6337926E-05  0.2339599E+04  0.7818609E-02  0.8462469E-01
        2   -1    0    0  501    0  0.00000000000E+00  0.00000000000E+00  0.13291814310E+04  0.13291814310E+04  0.25500000920E-02 0.  1.
       -2   -1    0    0    0  501  0.00000000000E+00  0.00000000000E+00 -0.10295294196E+04  0.10295294196E+04  0.25500000920E-02 0. -1.
    10030    2    1    2    0    0  0.00000000000E+00  0.00000000000E+00  0.29965201141E+03  0.23587108505E+04  0.23395994419E+04 0.  0.
        1    1    3    3  502    0  0.83162696184E+03 -0.49189624148E+03 -0.51500452958E+03  0.10948949637E+04  0.50400001928E-02 0. -1.
       -1    1    3    3    0  502 -0.83162696184E+03  0.49189624148E+03  0.81465654099E+03  0.12638158868E+04  0.50400001928E-02 0.  1.
</event>
<event>
 5   0  0.6600166E-05  0.2328063E+04  0.7818609E-02  0.8466938E-01
        2   -1    0    0  501    0  0.00000000000E+00  0.00000000000E+00  0.10554736340E+04  0.10554736340E+04  0.25500000920E-02 0.  1.
       -2   -1    0    0    0  501  0.00000000000E+00  0.00000000000E+00 -0.12837551454E+04  0.12837551454E+04  0.25500000920E-02 0. -1.
    10030    2    1    2    0    0  0.00000000000E+00  0.00000000000E+00 -0.22828151136E+03  0.23392287794E+04  0.23280633225E+04 0.  0.
        5    1    3    3  502    0 -0.44632258414E+03 -0.64938609456E+03  0.74673050107E+03  0.10856033715E+04  0.46999998093E+01 0.  1.
       -5    1    3    3    0  502  0.44632258414E+03  0.64938609456E+03 -0.97501201242E+03  0.12536254079E+04  0.46999998093E+01 0. -1.
</event>
<event>
 5   0  0.2943244E-05  0.2292023E+04  0.7818609E-02  0.8481073E-01
       -1   -1    0    0    0  501  0.00000000000E+00  0.00000000000E+00  0.84206773388E+03  0.84206773390E+03  0.50400001928E-02 0. -1.
        1   -1    0    0  501    0  0.00000000000E+00  0.00000000000E+00 -0.15596639762E+04  0.15596639762E+04  0.50400001928E-02 0.  1.
    10030    2    1    2    0    0  0.00000000000E+00  0.00000000000E+00 -0.71759624234E+03  0.24017317101E+04  0.22920233071E+04 0.  0.
        3    1    3    3  502    0  0.82523264581E+03  0.78903422767E+03 -0.46231304192E+03  0.12317943380E+04  0.10100000352E+00 0. -1.
       -3    1    3    3    0  502 -0.82523264581E+03 -0.78903422767E+03 -0.25528320042E+03  0.11699373722E+04  0.10100000352E+00 0.  1.
</event>
<event>
 5   0  0.6978115E-05  0.2416276E+04  0.7818609E-02  0.8433435E-01
       -2   -1    0    0    0  501  0.00000000000E+00  0.00000000000E+00  0.78260196970E+03  0.78260196970E+03  0.25500000920E-02 0.  1.
        2   -1    0    0  501    0  0.00000000000E+00  0.00000000000E+00 -0.18650578258E+04  0.18650578258E+04  0.25500000920E-02 0. -1.
    10030    2    1    2    0    0  0.00000000000E+00  0.00000000000E+00 -0.10824558561E+04  0.26476597955E+04  0.24162764147E+04 0.  0.
        4    1    3    3  502    0 -0.43700228173E+03 -0.65789607418E+03  0.46053798438E+03  0.91427298255E+03  0.12699999809E+01 0.  1.
       -4    1    3    3    0  502  0.43700228173E+03  0.65789607418E+03 -0.15429938405E+04  0.17333868130E+04  0.12699999809E+01 0. -1.
</event>
<event>
 5   0  0.6337926E-05  0.2372324E+04  0.7818609E-02  0.8449938E-01
        2   -1    0    0  501    0  0.00000000000E+00  0.00000000000E+00  0.17192503149E+04  0.17192503149E+04  0.25500000920E-02 0. -1.
       -2   -1    0    0    0  501  0.00000000000E+00  0.00000000000E+00 -0.81836871641E+03  0.81836871642E+03  0.25500000920E-02 0.  1.
    10030    2    1    2    0    0  0.00000000000E+00  0.00000000000E+00  0.90088159847E+03  0.25376190313E+04  0.23723243230E+04 0.  0.
        1    1    3    3  502    0  0.72202278476E+02  0.11087396691E+04  0.62174315500E+01  0.11111055212E+04  0.50400001928E-02 0.  1.
       -1    1    3    3    0  502 -0.72202278476E+02 -0.11087396691E+04  0.89466416692E+03  0.14265135101E+04  0.50400001928E-02 0. -1.
</event>
<event>
 5   0  0.2943123E-05  0.2428675E+04  0.7818609E-02  0.8428846E-01
       -1   -1    0    0    0  501  0.00000000000E+00  0.00000000000E+00  0.10636168781E+04  0.10636168781E+04  0.50400001928E-02 0. -1.
        1   -1    0    0  501    0  0.00000000000E+00  0.00000000000E+00 -0.13864159486E+04  0.13864159486E+04  0.50400001928E-02 0.  1.
    10030    2    1    2    0    0  0.00000000000E+00  0.00000000000E+00 -0.32279907052E+03  0.24500328268E+04  0.24286748676E+04 0.  0.
        1    1    3    3  502    0 -0.67869895306E+03  0.60931157727E+03 -0.97014952585E+03  0.13315716164E+04  0.50400001928E-02 0.  1.
       -1    1    3    3    0  502  0.67869895306E+03 -0.60931157727E+03  0.64735045532E+03  0.11184612104E+04  0.50400001928E-02 0. -1.
</event>
<event>
 5   0  0.6714629E-05  0.2009123E+04  0.7818609E-02  0.8602367E-01
        2   -1    0    0  501    0  0.00000000000E+00  0.00000000000E+00  0.93850453358E+03  0.93850453358E+03  0.25500000920E-02 0.  1.
       -2   -1    0    0    0  501  0.00000000000E+00  0.00000000000E+00 -0.10752674718E+04  0.10752674718E+04  0.25500000920E-02 0. -1.
    10030    2    1    2    0    0  0.00000000000E+00  0.00000000000E+00 -0.13676293819E+03  0.20137720054E+04  0.20091225916E+04 0.  0.
        3    1    3    3  502    0 -0.12542812996E+03 -0.53639575533E+03 -0.91037950612E+03  0.10640693011E+04  0.10100000352E+00 0. -1.
       -3    1    3    3    0  502  0.12542812996E+03  0.53639575533E+03  0.77361656793E+03  0.94970270427E+03  0.10100000352E+00 0.  1.
</event>
<event>
 5   0  0.2943244E-05  0.2420127E+04  0.7818609E-02  0.8432007E-01
       -1   -1    0    0    0  501  0.00000000000E+00  0.00000000000E+00  0.89652577919E+03  0.89652577921E+03  0.50400001928E-02 0.  1.
        1   -1    0    0  501    0  0.00000000000E+00  0.00000000000E+00 -0.16332529210E+04  0.16332529210E+04  0.50400001928E-02 0. -1.
    10030    2    1    2    0    0  0.00000000000E+00  0.00000000000E+00 -0.73672714184E+03  0.25297787002E+04  0.24201267303E+04 0.  0.
        3    1    3    3  502    0 -0.92313413702E+03 -0.35820184319E+02 -0.11853064059E+04  0.15028010535E+04  0.10100000352E+00 0. -1.
       -3    1    3    3    0  502  0.92313413702E+03  0.35820184319E+02  0.44857926402E+03  0.10269776467E+04  0.10100000352E+00 0.  1.
</event>
<event>
 5   0  0.2847158E-05  0.2275982E+04  0.7818609E-02  0.8487451E-01
       -1   -1    0    0    0  501  0.00000000000E+00  0.00000000000E+00  0.77206799274E+03  0.77206799276E+03  0.50400001928E-02 0.  1.
        1   -1    0    0  501    0  0.00000000000E+00  0.00000000000E+00 -0.16773446025E+04  0.16773446026E+04  0.50400001928E-02 0. -1.
    10030    2    1    2    0    0  0.00000000000E+00  0.00000000000E+00 -0.90527660980E+03  0.24494125953E+04  0.22759824959E+04 0.  0.
        5    1    3    3  502    0  0.10915229286E+03 -0.86814153767E+03 -0.12356935378E+04  0.15141151085E+04  0.46999998093E+01 0. -1.
       -5    1    3    3    0  502 -0.10915229286E+03  0.86814153767E+03  0.33041692801E+03  0.93529748678E+03  0.46999998093E+01 0.  1.
</event>
<event>
 5   0  0.2943123E-05  0.2259834E+04  0.7818609E-02  0.8493929E-01
        1   -1    0    0  501    0  0.00000000000E+00  0.00000000000E+00  0.12620533191E+04  0.12620533192E+04  0.50400001928E-02 0.  1.
       -1   -1    0    0    0  501  0.00000000000E+00  0.00000000000E+00 -0.10116152300E+04  0.10116152300E+04  0.50400001928E-02 0. -1.
    10030    2    1    2    0    0  0.00000000000E+00  0.00000000000E+00  0.25043808913E+03  0.22736685492E+04  0.22598339397E+04 0.  0.
        1    1    3    3  502    0 -0.17333629240E+03  0.13072272748E+03  0.12408710495E+04  0.12597201527E+04  0.50400001928E-02 0.  1.
       -1    1    3    3    0  502  0.17333629240E+03 -0.13072272748E+03 -0.99043296033E+03  0.10139483965E+04  0.50400001928E-02 0. -1.
</event>
<event>
 5   0  0.2943123E-05  0.2313658E+04  0.7818609E-02  0.8472555E-01
       -1   -1    0    0    0  501  0.00000000000E+00  0.00000000000E+00  0.78782210511E+03  0.78782210512E+03  0.50400001928E-02 0. -1.
        1   -1    0    0  501    0  0.00000000000E+00  0.00000000000E+00 -0.16986742199E+04  0.16986742199E+04  0.50400001928E-02 0.  1.
    10030    2    1    2    0    0  0.00000000000E+00  0.00000000000E+00 -0.91085211482E+03  0.24864963251E+04  0.23136577965E+04 0.  0.
        1    1    3    3  502    0 -0.40056280760E+02  0.49895008038E+03 -0.15762637942E+04  0.16538328928E+04  0.50400001928E-02 0.  1.
       -1    1    3    3    0  502  0.40056280760E+02 -0.49895008038E+03  0.66541167939E+03  0.83266343226E+03  0.50400001928E-02 0. -1.
</event>
<event>
 5   0  0.6714629E-05  0.2412376E+04  0.7818609E-02  0.8434885E-01
       -2   -1    0    0    0  501  0.00000000000E+00  0.00000000000E+00  0.87276915353E+03  0.87276915353E+03  0.25500000920E-02 0. -1.
        2   -1    0    0  501    0  0.00000000000E+00  0.00000000000E+00 -0.16669814994E+04  0.16669814994E+04  0.25500000920E-02 0.  1.
    10030    2    1    2    0    0  0.00000000000E+00  0.00000000000E+00 -0.79421234584E+03  0.25397506529E+04  0.24123764484E+04 0.  0.
        3    1    3    3  502    0  0.97018703393E+03 -0.57017162730E+03  0.60021920419E+02  0.11269255550E+04  0.10100000352E+00 0. -1.
       -3    1    3    3    0  502 -0.97018703393E+03  0.57017162730E+03 -0.85423426626E+03  0.14128250979E+04  0.10100000352E+00 0.  1.
</event>
<event>
 5   0  0.2943123E-05  0.2203445E+04  0.7818609E-02  0.8516996E-01
       -1   -1    0    0    0  501  0.00000000000E+00  0.00000000000E+00  0.86682089455E+03  0.86682089457E+03  0.50400001928E-02 0. -1.
        1   -1    0    0  501    0  0.00000000000E+00  0.00000000000E+00 -0.14002800234E+04  0.14002800234E+04  0.50400001928E-02 0.  1.
    10030    2    1    2    0    0  0.00000000000E+00  0.00000000000E+00 -0.53345912888E+03  0.22671009180E+04  0.22034445603E+04 0.  0.
        1    1    3    3  502    0  0.98141628373E+03  0.56554936236E+02  0.24504920328E+03  0.10131265937E+04  0.50400001928E-02 0. -1.
       -1    1    3    3    0  502 -0.98141628373E+03 -0.56554936236E+02 -0.77850833216E+03  0.12539743243E+04  0.50400001928E-02 0.  1.
</event>
<event>
 5   0  0.2915546E-05  0.2891910E+04  0.7818609E-02  0.8275289E-01
       -1   -1    0    0    0  501  0.00000000000E+00  0.00000000000E+00  0.18004910705E+04  0.18004910705E+04  0.50400001928E-02 0.  1.
        1   -1    0    0  501    0  0.00000000000E+00  0.00000000000E+00 -0.11612307941E+04  0.11612307941E+04  0.50400001928E-02 0. -1.
    10030    2    1    2    0    0  0.00000000000E+00  0.00000000000E+00  0.63926027642E+03  0.29617218646E+04  0.28919098710E+04 0.  0.
        2    1    3    3  502    0 -0.11181500772E+04  0.84873894123E+03 -0.35391201587E+02  0.14042328591E+04  0.25500000920E-02 0. -1.
       -2    1    3    3    0  502  0.11181500772E+04 -0.84873894123E+03  0.67465147801E+03  0.15574890055E+04  0.25500000920E-02 0.  1.
</event>
<event>
 5   0  0.2847158E-05  0.2357986E+04  0.7818609E-02  0.8455403E-01
       -1   -1    0    0    0  501  0.00000000000E+00  0.00000000000E+00  0.86800615090E+03  0.86800615092E+03  0.50400001928E-02 0.  1.
        1   -1    0    0  501    0  0.00000000000E+00  0.00000000000E+00 -0.16013987382E+04  0.16013987382E+04  0.50400001928E-02 0. -1.
    10030    2    1    2    0    0  0.00000000000E+00  0.00000000000E+00 -0.73339258733E+03  0.24694048892E+04  0.23579855427E+04 0.  0.
        5    1    3    3  502    0 -0.70551089252E+03 -0.89706800376E+03 -0.67652226920E+03  0.13267181666E+04  0.46999998093E+01 0. -1.
       -5    1    3    3    0  502  0.70551089252E+03  0.89706800376E+03 -0.56870318129E+02  0.11426867226E+04  0.46999998093E+01 0.  1.
</event>
<event>
 5   0  0.6337926E-05  0.2347166E+04  0.7818609E-02  0.8459553E-01
       -2   -1    0    0    0  501  0.00000000000E+00  0.00000000000E+00  0.86367079956E+03  0.86367079956E+03  0.25500000920E-02 0. -1.
        2   -1    0    0  501    0  0.00000000000E+00  0.00000000000E+00 -0.15947018254E+04  0.15947018254E+04  0.25500000920E-02 0.  1.
    10030    2    1    2    0    0  0.00000000000E+00  0.00000000000E+00 -0.73103102583E+03  0.24583726249E+04  0.23471662920E+04 0.  0.
        1    1    3    3  502    0  0.24858104677E+03  0.11117525230E+04 -0.66085259651E+03  0.13170088700E+04  0.50400001928E-02 0.  1.
       -1    1    3    3    0  502 -0.24858104677E+03 -0.11117525230E+04 -0.70178429315E+02  0.11413637550E+04  0.50400001928E-02 0. -1.
</event>
<event>
 5   0  0.6714629E-05  0.2439126E+04  0.7818609E-02  0.8424999E-01
        2   -1    0    0  501    0  0.00000000000E+00  0.00000000000E+00  0.17284639665E+04  0.17284639665E+04  0.25500000920E-02 0.  1.
       -2   -1    0    0    0  501  0.00000000000E+00  0.00000000000E+00 -0.86049475376E+03  0.86049475377E+03  0.25500000920E-02 0. -1.
    10030    2    1    2    0    0  0.00000000000E+00  0.00000000000E+00  0.86796921274E+03  0.25889587203E+04  0.24391262167E+04 0.  0.
        3    1    3    3  502    0 -0.38048950100E+02  0.34567138136E+03  0.16747207077E+04  0.17104461072E+04  0.10100000352E+00 0.  1.
       -3    1    3    3    0  502  0.38048950100E+02 -0.34567138136E+03 -0.80675149499E+03  0.87851261309E+03  0.10100000352E+00 0. -1.
</event>
<event>
 5   0  0.2901816E-05  0.1475085E+04  0.7818609E-02  0.8901192E-01
       -1   -1    0    0    0  501  0.00000000000E+00  0.00000000000E+00  0.82851004417E+03  0.82851004418E+03  0.50400001928E-02 0.  1.
        1   -1    0    0  501    0  0.00000000000E+00  0.00000000000E+00 -0.65656306200E+03  0.65656306202E+03  0.50400001928E-02 0. -1.
    10030    2    1    2    0    0  0.00000000000E+00  0.00000000000E+00  0.17194698217E+03  0.14850731062E+04  0.14750852064E+04 0.  0.
        4    1    3    3  502    0  0.12074849468E+03 -0.22768618852E+03 -0.60975286930E+03  0.66198291060E+03  0.12699999809E+01 0. -1.
       -4    1    3    3    0  502 -0.12074849468E+03  0.22768618852E+03  0.78169985147E+03  0.82309019560E+03  0.12699999809E+01 0.  1.
</event>
<event>
 5   0  0.2915546E-05  0.2391615E+04  0.7818609E-02  0.8442650E-01
        1   -1    0    0  501    0  0.00000000000E+00  0.00000000000E+00  0.21000560209E+04  0.21000560209E+04  0.50400001928E-02 0. -1.
       -1   -1    0    0    0  501  0.00000000000E+00  0.00000000000E+00 -0.68091287890E+03  0.68091287891E+03  0.50400001928E-02 0.  1.
    10030    2    1    2    0    0  0.00000000000E+00  0.00000000000E+00  0.14191431420E+04  0.27809688998E+04  0.23916146772E+04 0.  0.
        2    1    3    3  502    0  0.74473370444E+03 -0.34398534095E+03 -0.30213167776E+03  0.87420692976E+03  0.25500000920E-02 0.  1.
       -2    1    3    3    0  502 -0.74473370444E+03  0.34398534095E+03  0.17212748197E+04  0.19067619701E+04  0.25500000920E-02 0. -1.
</event>
<event>
 5   0  0.2901816E-05  0.2447368E+04  0.7818609E-02  0.8421979E-01
       -1   -1    0    0    0  501  0.00000000000E+00  0.00000000000E+00  0.10458291372E+04  0.10458291372E+04  0.50400001928E-02 0.  1.
        1   -1    0    0  501    0  0.00000000000E+00  0.00000000000E+00 -0.14317855834E+04  0.14317855834E+04  0.50400001928E-02 0. -1.
    10030    2    1    2    0    0  0.00000000000E+00  0.00000000000E+00 -0.38595644624E+03  0.24776147206E+04  0.24473684490E+04 0.  0.
        4    1    3    3  502    0 -0.11206834665E+04 -0.48937197359E+03 -0.14787303877E+03  0.12317809907E+04  0.12699999809E+01 0. -1.
       -4    1    3    3    0  502  0.11206834665E+04  0.48937197359E+03 -0.23808340747E+03  0.12458337299E+04  0.12699999809E+01 0.  1.
</event>
<event>
 5   0  0.2943123E-05  0.2400407E+04  0.7818609E-02  0.8439351E-01
        1   -1    0    0  501    0  0.00000000000E+00  0.00000000000E+00  0.10408083056E+04  0.10408083057E+04  0.50400001928E-02 0. -1.
       -1   -1    0    0    0  501  0.00000000000E+00  0.00000000000E+00 -0.13840095843E+04  0.13840095843E+04  0.50400001928E-02 0.  1.
    10030    2    1    2    0    0  0.00000000000E+00  0.00000000000E+00 -0.34320127864E+03  0.24248178900E+04  0.24004071908E+04 0.  0.
        1    1    3    3  502    0 -0.11013589986E+03  0.49754952288E+03  0.92609761610E+03  0.10570441044E+04  0.50400001928E-02 0. -1.
       -1    1    3    3    0  502  0.11013589986E+03 -0.49754952288E+03 -0.12692988947E+04  0.13677737855E+04  0.50400001928E-02 0.  1.
</event>
<event>
 5   0  0.2339125E-05  0.2380692E+04  0.7818609E-02  0.8446768E-01
        3   -1    0    0  501    0  0.00000000000E+00  0.00000000000E+00  0.16517751869E+04  0.16517751900E+04  0.10100000352E+00 0. -1.
       -3   -1    0    0    0  501  0.00000000000E+00  0.00000000000E+00 -0.85781881919E+03  0.85781882513E+03  0.10100000352E+00 0.  1.
    10030    2    1    2    0    0  0.00000000000E+00  0.00000000000E+00  0.79395636769E+03  0.25095940151E+04  0.23806922117E+04 0.  0.
        4    1    3    3  502    0 -0.10187088289E+04 -0.31787799424E+03  0.95289149116E+03  0.14306704387E+04  0.12699999809E+01 0. -1.
       -4    1    3    3    0  502  0.10187088289E+04  0.31787799424E+03 -0.15893512348E+03  0.10789235764E+04  0.12699999809E+01 0.  1.
</event>
<event>
 5   0  0.2901816E-05  0.2373785E+04  0.7818609E-02  0.8449384E-01
        1   -1    0    0  501    0  0.00000000000E+00  0.00000000000E+00  0.18547661091E+04  0.18547661091E+04  0.50400001928E-02 0. -1.
       -1   -1    0    0    0  501  0.00000000000E+00  0.00000000000E+00 -0.75951002576E+03  0.75951002578E+03  0.50400001928E-02 0.  1.
    10030    2    1    2    0    0  0.00000000000E+00  0.00000000000E+00  0.10952560834E+04  0.26142761349E+04  0.23737847041E+04 0.  0.
        4    1    3    3  502    0  0.30201940324E+03 -0.73090714850E+03 -0.42706107541E+03  0.89879016165E+03  0.12699999809E+01 0.  1.
       -4    1    3    3    0  502 -0.30201940324E+03  0.73090714850E+03  0.15223171588E+04  0.17154859733E+04  0.12699999809E+01 0. -1.
</event>
<event>
 5   0  0.6978115E-05  0.2406994E+04  0.7818609E-02  0.8436890E-01
       -2   -1    0    0    0  501  0.00000000000E+00  0.00000000000E+00  0.85586911393E+03  0.85586911394E+03  0.25500000920E-02 0. -1.
        2   -1    0    0  501    0  0.00000000000E+00  0.00000000000E+00 -0.16923202832E+04  0.16923202832E+04  0.25500000920E-02 0.  1.
    10030    2    1    2    0    0  0.00000000000E+00  0.00000000000E+00 -0.83645116927E+03  0.25481893971E+04  0.24069936945E+04 0.  0.
        4    1    3    3  502    0  0.56153061296E+03 -0.28586090934E+03  0.66728617766E+03  0.91777205480E+03  0.12699999809E+01 0. -1.
       -4    1    3    3    0  502 -0.56153061296E+03  0.28586090934E+03 -0.15037373469E+04  0.16304173423E+04  0.12699999809E+01 0.  1.
</event>
<event>
 5   0  0.6978115E-05  0.2358959E+04  0.7818609E-02  0.8455031E-01
       -2   -1    0    0    0  501  0.00000000000E+00  0.00000000000E+00  0.72233713342E+03  0.72233713343E+03  0.25500000920E-02 0. -1.
        2   -1    0    0  501    0  0.00000000000E+00  0.00000000000E+00 -0.19259314455E+04  0.19259314455E+04  0.25500000920E-02 0.  1.
    10030    2    1    2    0    0  0.00000000000E+00  0.00000000000E+00 -0.12035943121E+04  0.26482685790E+04  0.23589589225E+04 0.  0.
        4    1    3    3  502    0  0.60134026180E+03  0.97967843115E+03 -0.89837521554E+03  0.14589241172E+04  0.12699999809E+01 0. -1.
       -4    1    3    3    0  502 -0.60134026180E+03 -0.97967843115E+03 -0.30521909656E+03  0.11893444618E+04  0.12699999809E+01 0.  1.
</event>
<event>
 5   0  0.2943123E-05  0.2320337E+04  0.7818609E-02  0.8469946E-01
        1   -1    0    0  501    0  0.00000000000E+00  0.00000000000E+00  0.10828655463E+04  0.10828655463E+04  0.50400001928E-02 0.  1.
       -1   -1    0    0    0  501  0.00000000000E+00  0.00000000000E+00 -0.12429894138E+04  0.12429894139E+04  0.50400001928E-02 0. -1.
    10030    2    1    2    0    0  0.00000000000E+00  0.00000000000E+00 -0.16012386756E+03  0.23258549601E+04  0.23203365365E+04 0.  0.
        1    1    3    3  502    0 -0.17308116986E+03 -0.60699962168E+03  0.89569284758E+03  0.10957514815E+04  0.50400001928E-02 0.  1.
       -1    1    3    3    0  502  0.17308116986E+03  0.60699962168E+03 -0.10558167151E+04  0.12301034786E+04  0.50400001928E-02 0. -1.
</event>
<event>
 5   0  0.2901816E-05  0.2381757E+04  0.7818609E-02  0.8446365E-01
       -1   -1    0    0    0  501  0.00000000000E+00  0.00000000000E+00  0.97964162500E+03  0.97964162501E+03  0.50400001928E-02 0.  1.
        1   -1    0    0  501    0  0.00000000000E+00  0.00000000000E+00 -0.14476641913E+04  0.14476641913E+04  0.50400001928E-02 0. -1.
    10030    2    1    2    0    0  0.00000000000E+00  0.00000000000E+00 -0.46802256628E+03  0.24273058163E+04  0.23817574191E+04 0.  0.
        4    1    3    3  502    0 -0.10861512096E+04  0.45930719281E+03 -0.40302289140E+03  0.12462409925E+04  0.12699999809E+01 0. -1.
       -4    1    3    3    0  502  0.10861512096E+04 -0.45930719281E+03 -0.64999674878E+02  0.11810648238E+04  0.12699999809E+01 0.  1.
</event>
<event>
 5   0  0.6978115E-05  0.1640651E+04  0.7818609E-02  0.8795957E-01
        2   -1    0    0  501    0  0.00000000000E+00  0.00000000000E+00  0.67963283973E+03  0.67963283974E+03  0.25500000920E-02 0.  1.
       -2   -1    0    0    0  501  0.00000000000E+00  0.00000000000E+00 -0.99014297727E+03  0.99014297728E+03  0.25500000920E-02 0. -1.
    10030    2    1    2    0    0  0.00000000000E+00  0.00000000000E+00 -0.31051013754E+03  0.16697758170E+04  0.16406507043E+04 0.  0.
        4    1    3    3  502    0 -0.69247443403E+03  0.29290622939E+02  0.29134368545E+03  0.75183877150E+03  0.12699999809E+01 0.  1.
       -4    1    3    3    0  502  0.69247443403E+03 -0.29290622939E+02 -0.60185382300E+03  0.91793704552E+03  0.12699999809E+01 0. -1.
</event>
<event>
 5   0  0.6978115E-05  0.2231654E+04  0.7818609E-02  0.8505368E-01
        2   -1    0    0  501    0  0.00000000000E+00  0.00000000000E+00  0.24761096738E+04  0.24761096738E+04  0.25500000920E-02 0. -1.
       -2   -1    0    0    0  501  0.00000000000E+00  0.00000000000E+00 -0.50283293768E+03  0.50283293769E+03  0.25500000920E-02 0.  1.
    10030    2    1    2    0    0  0.00000000000E+00  0.00000000000E+00  0.19732767361E+04  0.29789426115E+04  0.22316536481E+04 0.  0.
        4    1    3    3  502    0 -0.50927186305E+03 -0.11795725490E+03 -0.32926176040E+03  0.61780795093E+03  0.12699999809E+01 0.  1.
       -4    1    3    3    0  502  0.50927186305E+03  0.11795725490E+03  0.23025384965E+04  0.23611346606E+04  0.12699999809E+01 0. -1.
</event>
<event>
 5   0  0.6600166E-05  0.2381850E+04  0.7818609E-02  0.8446330E-01
       -2   -1    0    0    0  501  0.00000000000E+00  0.00000000000E+00  0.60323948411E+03  0.60323948412E+03  0.25500000920E-02 0.  1.
        2   -1    0    0  501    0  0.00000000000E+00  0.00000000000E+00 -0.23511422806E+04  0.23511422806E+04  0.25500000920E-02 0. -1.
    10030    2    1    2    0    0  0.00000000000E+00  0.00000000000E+00 -0.17479027965E+04  0.29543817647E+04  0.23818495808E+04 0.  0.
        5    1    3    3  502    0 -0.18458882555E+03 -0.10348358878E+04 -0.15682516519E+04  0.18879601910E+04  0.46999998093E+01 0. -1.
       -5    1    3    3    0  502  0.18458882555E+03  0.10348358878E+04 -0.17965114465E+03  0.10664215738E+04  0.46999998093E+01 0.  1.
</event>
<event>
 5   0  0.6337926E-05  0.2390810E+04  0.7818609E-02  0.8442952E-01
        2   -1    0    0  501    0  0.00000000000E+00  0.00000000000E+00  0.15683378657E+04  0.15683378657E+04  0.25500000920E-02 0.  1.
       -2   -1    0    0    0  501  0.00000000000E+00  0.00000000000E+00 -0.91115111082E+03  0.91115111082E+03  0.25500000920E-02 0. -1.
    10030    2    1    2    0    0  0.00000000000E+00  0.00000000000E+00  0.65718675493E+03  0.24794889766E+04  0.23908097277E+04 0.  0.
        1    1    3    3  502    0 -0.92098218519E+03 -0.61066942879E+03 -0.14424249076E+03  0.11144196843E+04  0.50400001928E-02 0.  1.
       -1    1    3    3    0  502  0.92098218519E+03  0.61066942879E+03  0.80142924569E+03  0.13650692922E+04  0.50400001928E-02 0. -1.
</event>
<event>
 5   0  0.2847158E-05  0.1978462E+04  0.7818609E-02  0.8616757E-01
        1   -1    0    0  501    0  0.00000000000E+00  0.00000000000E+00  0.14966734502E+04  0.14966734502E+04  0.50400001928E-02 0.  1.
       -1   -1    0    0    0  501  0.00000000000E+00  0.00000000000E+00 -0.65383534411E+03  0.65383534413E+03  0.50400001928E-02 0. -1.
    10030    2    1    2    0    0  0.00000000000E+00  0.00000000000E+00  0.84283810610E+03  0.21505087944E+04  0.19784620293E+04 0.  0.
        5    1    3    3  502    0 -0.40918282096E+03  0.68552295052E+03  0.10563223548E+04  0.13240888580E+04  0.46999998093E+01 0.  1.
       -5    1    3    3    0  502  0.40918282096E+03 -0.68552295052E+03 -0.21348424875E+03  0.82641993631E+03  0.46999998093E+01 0. -1.
</event>
<event>
 5   0  0.6600166E-05  0.2586570E+04  0.7818609E-02  0.8372777E-01
        2   -1    0    0  501    0  0.00000000000E+00  0.00000000000E+00  0.20299467072E+04  0.20299467072E+04  0.25500000920E-02 0.  1.
       -2   -1    0    0    0  501  0.00000000000E+00  0.00000000000E+00 -0.82395586503E+03  0.82395586503E+03  0.25500000920E-02 0. -1.
    10030    2    1    2    0    0  0.00000000000E+00  0.00000000000E+00  0.12059908422E+04  0.28539025722E+04  0.25865703123E+04 0.  0.
        5    1    3    3  502    0  0.96272088001E+03  0.86312536178E+03  0.63316205762E+03  0.14396989839E+04  0.46999998093E+01 0.  1.
       -5    1    3    3    0  502 -0.96272088001E+03 -0.86312536178E+03  0.57282878456E+03  0.14142035884E+04  0.46999998093E+01 0. -1.
</event>
<event>
 5   0  0.2915546E-05  0.2419371E+04  0.7818609E-02  0.8432287E-01
        1   -1    0    0  501    0  0.00000000000E+00  0.00000000000E+00  0.99600248962E+03  0.99600248963E+03  0.50400001928E-02 0. -1.
       -1   -1    0    0    0  501  0.00000000000E+00  0.00000000000E+00 -0.14692119059E+04  0.14692119059E+04  0.50400001928E-02 0.  1.
    10030    2    1    2    0    0  0.00000000000E+00  0.00000000000E+00 -0.47320941624E+03  0.24652143955E+04  0.24193707579E+04 0.  0.
        2    1    3    3  502    0  0.26478922745E+03 -0.88708909924E+03  0.55680123109E+03  0.10803092224E+04  0.25500000920E-02 0. -1.
       -2    1    3    3    0  502 -0.26478922745E+03  0.88708909924E+03 -0.10300106473E+04  0.13849051731E+04  0.25500000920E-02 0.  1.
</event>
<event>
 5   0  0.6600166E-05  0.2392731E+04  0.7818609E-02  0.8442230E-01
        2   -1    0    0  501    0  0.00000000000E+00  0.00000000000E+00  0.15439289326E+04  0.15439289326E+04  0.25500000920E-02 0. -1.
       -2   -1    0    0    0  501  0.00000000000E+00  0.00000000000E+00 -0.92704461679E+03  0.92704461679E+03  0.25500000920E-02 0.  1.
    10030    2    1    2    0    0  0.00000000000E+00  0.00000000000E+00  0.61688431584E+03  0.24709735494E+04  0.23927314983E+04 0.  0.
        5    1    3    3  502    0 -0.60908529344E+03  0.75592827851E+03 -0.41360374578E+03  0.10552263290E+04  0.46999998093E+01 0.  1.
       -5    1    3    3    0  502  0.60908529344E+03 -0.75592827851E+03  0.10304880616E+04  0.14157472204E+04  0.46999998093E+01 0. -1.
</event>
<event>
 5   0  0.2943244E-05  0.2426711E+04  0.7818609E-02  0.8429571E-01
        1   -1    0    0  501    0  0.00000000000E+00  0.00000000000E+00  0.19615006991E+04  0.19615006991E+04  0.50400001928E-02 0. -1.
       -1   -1    0    0    0  501  0.00000000000E+00  0.00000000000E+00 -0.75056389847E+03  0.75056389848E+03  0.50400001928E-02 0.  1.
    10030    2    1    2    0    0  0.00000000000E+00  0.00000000000E+00  0.12109368007E+04  0.27120645976E+04  0.24267110348E+04 0.  0.
        3    1    3    3  502    0 -0.60937987321E+03 -0.10432216331E+04  0.48013695028E+03  0.13000718083E+04  0.10100000352E+00 0.  1.
       -3    1    3    3    0  502  0.60937987321E+03  0.10432216331E+04  0.73079985039E+03  0.14119927893E+04  0.10100000352E+00 0. -1.
</event>
<event>
 5   0  0.2901816E-05  0.2238517E+04  0.7818609E-02  0.8502565E-01
        1   -1    0    0  501    0  0.00000000000E+00  0.00000000000E+00  0.10558475629E+04  0.10558475629E+04  0.50400001928E-02 0. -1.
       -1   -1    0    0    0  501  0.00000000000E+00  0.00000000000E+00 -0.11864779401E+04  0.11864779402E+04  0.50400001928E-02 0.  1.
    10030    2    1    2    0    0  0.00000000000E+00  0.00000000000E+00 -0.13063037727E+03  0.22423255030E+04  0.22385172249E+04 0.  0.
        4    1    3    3  502    0  0.77832624345E+03  0.50029875953E+03 -0.69618631688E+03  0.11579151915E+04  0.12699999809E+01 0.  1.
       -4    1    3    3    0  502 -0.77832624345E+03 -0.50029875953E+03  0.56555593960E+03  0.10844103115E+04  0.12699999809E+01 0. -1.
</event>
<event>
 5   0  0.2943244E-05  0.2370656E+04  0.7818609E-02  0.8450572E-01
       -1   -1    0    0    0  501  0.00000000000E+00  0.00000000000E+00  0.10560562895E+04  0.10560562895E+04  0.50400001928E-02 0. -1.
        1   -1    0    0  501    0  0.00000000000E+00  0.00000000000E+00 -0.13304236718E+04  0.13304236718E+04  0.50400001928E-02 0.  1.
    10030    2    1    2    0    0  0.00000000000E+00  0.00000000000E+00 -0.27436738224E+03  0.23864799613E+04  0.23706558471E+04 0.  0.
        3    1    3    3  502    0 -0.21388834978E+03  0.11648606004E+04 -0.88343543639E+02  0.11876249562E+04  0.10100000352E+00 0. -1.
       -3    1    3    3    0  502  0.21388834978E+03 -0.11648606004E+04 -0.18602383860E+03  0.11988550051E+04  0.10100000352E+00 0.  1.
</event>
<event>
 5   0  0.2943244E-05  0.2313085E+04  0.7818609E-02  0.8472780E-01
        1   -1    0    0  501    0  0.00000000000E+00  0.00000000000E+00  0.11578009717E+04  0.11578009717E+04  0.50400001928E-02 0. -1.
       -1   -1    0    0    0  501  0.00000000000E+00  0.00000000000E+00 -0.11552850134E+04  0.11552850134E+04  0.50400001928E-02 0.  1.
    10030    2    1    2    0    0  0.00000000000E+00  0.00000000000E+00  0.25159582844E+01  0.23130859851E+04  0.23130846168E+04 0.  0.
        3    1    3    3  502    0 -0.29623843590E+03 -0.83361064214E+03  0.74619209962E+03  0.11573532621E+04  0.10100000352E+00 0. -1.
       -3    1    3    3    0  502  0.29623843590E+03  0.83361064214E+03 -0.74367614133E+03  0.11557327230E+04  0.10100000352E+00 0.  1.
</event>
<event>
 5   0  0.6703961E-05  0.2331371E+04  0.7818609E-02  0.8465654E-01
       -2   -1    0    0    0  501  0.00000000000E+00  0.00000000000E+00  0.75074808411E+03  0.75074808411E+03  0.25500000920E-02 0.  1.
        2   -1    0    0  501    0  0.00000000000E+00  0.00000000000E+00 -0.18099575467E+04  0.18099575467E+04  0.25500000920E-02 0. -1.
    10030    2    1    2    0    0  0.00000000000E+00  0.00000000000E+00 -0.10592094626E+04  0.25607056309E+04  0.23313705502E+04 0.  0.
        2    1    3    3  502    0 -0.83493046700E+03  0.21027580486E+03  0.33350478200E+03  0.92333647088E+03  0.25500000920E-02 0.  1.
       -2    1    3    3    0  502  0.83493046700E+03 -0.21027580486E+03 -0.13927142446E+04  0.16373691600E+04  0.25500000920E-02 0. -1.
</event>
<event>
 5   0  0.2847158E-05  0.2301739E+04  0.7818609E-02  0.8477236E-01
       -1   -1    0    0    0  501  0.00000000000E+00  0.00000000000E+00  0.22105564020E+04  0.22105564020E+04  0.50400001928E-02 0.  1.
        1   -1    0    0  501    0  0.00000000000E+00  0.00000000000E+00 -0.59917073279E+03  0.59917073281E+03  0.50400001928E-02 0. -1.
    10030    2    1    2    0    0  0.00000000000E+00  0.00000000000E+00  0.16113856692E+04  0.28097271348E+04  0.23017390810E+04 0.  0.
        5    1    3    3  502    0  0.21860355085E+03 -0.60066636807E+03  0.19739271324E+04  0.20748489131E+04  0.46999998093E+01 0.  1.
       -5    1    3    3    0  502 -0.21860355085E+03  0.60066636807E+03 -0.36254146321E+03  0.73487822170E+03  0.46999998093E+01 0. -1.
</event>
<event>
 5   0  0.2915546E-05  0.2393326E+04  0.7818609E-02  0.8442006E-01
       -1   -1    0    0    0  501  0.00000000000E+00  0.00000000000E+00  0.10354619628E+04  0.10354619628E+04  0.50400001928E-02 0.  1.
        1   -1    0    0  501    0  0.00000000000E+00  0.00000000000E+00 -0.13829602257E+04  0.13829602257E+04  0.50400001928E-02 0. -1.
    10030    2    1    2    0    0  0.00000000000E+00  0.00000000000E+00 -0.34749826291E+03  0.24184221886E+04  0.23933263128E+04 0.  0.
        2    1    3    3  502    0 -0.27510672662E+03 -0.16127633343E+03 -0.13392335144E+04  0.13766772218E+04  0.25500000920E-02 0. -1.
       -2    1    3    3    0  502  0.27510672662E+03  0.16127633343E+03  0.99173525151E+03  0.10417449668E+04  0.25500000920E-02 0.  1.
</event>
<event>
 5   0  0.2943244E-05  0.2401124E+04  0.7818609E-02  0.8439083E-01
        1   -1    0    0  501    0  0.00000000000E+00  0.00000000000E+00  0.81864821041E+03  0.81864821043E+03  0.50400001928E-02 0.  1.
       -1   -1    0    0    0  501  0.00000000000E+00  0.00000000000E+00 -0.17606451404E+04  0.17606451404E+04  0.50400001928E-02 0. -1.
    10030    2    1    2    0    0  0.00000000000E+00  0.00000000000E+00 -0.94199692998E+03  0.25792933508E+04  0.24011238980E+04 0.  0.
        3    1    3    3  502    0  0.14017660158E+01  0.52815612353E+03 -0.16291452853E+04  0.17126194051E+04  0.10100000352E+00 0. -1.
       -3    1    3    3    0  502 -0.14017660158E+01 -0.52815612353E+03  0.68714835535E+03  0.86667394574E+03  0.10100000352E+00 0.  1.
</event>
<event>
 5   0  0.6337926E-05  0.2401373E+04  0.7818609E-02  0.8438990E-01
       -2   -1    0    0    0  501  0.00000000000E+00  0.00000000000E+00  0.75393101230E+03  0.75393101231E+03  0.25500000920E-02 0. -1.
        2   -1    0    0  501    0  0.00000000000E+00  0.00000000000E+00 -0.19121749514E+04  0.19121749514E+04  0.25500000920E-02 0.  1.
    10030    2    1    2    0    0  0.00000000000E+00  0.00000000000E+00 -0.11582439391E+04  0.26661059637E+04  0.24013729380E+04 0.  0.
        1    1    3    3  502    0  0.10972862021E+04 -0.47624052993E+03 -0.46371044589E+03  0.12829144279E+04  0.50400001928E-02 0. -1.
       -1    1    3    3    0  502 -0.10972862021E+04  0.47624052993E+03 -0.69453349319E+03  0.13831915358E+04  0.50400001928E-02 0.  1.
</event>
<event>
 5   0  0.6703961E-05  0.2417214E+04  0.7818609E-02  0.8433087E-01
        2   -1    0    0  501    0  0.00000000000E+00  0.00000000000E+00  0.16188130977E+04  0.16188130977E+04  0.25500000920E-02 0. -1.
       -2   -1    0    0    0  501  0.00000000000E+00  0.00000000000E+00 -0.90234672909E+03  0.90234672909E+03  0.25500000920E-02 0.  1.
    10030    2    1    2    0    0  0.00000000000E+00  0.00000000000E+00  0.71646636861E+03  0.25211598268E+04  0.24172138538E+04 0.  0.
        2    1    3    3  502    0  0.38399521639E+03  0.39510791308E+03 -0.76374272697E+03  0.94173538863E+03  0.25500000920E-02 0.  1.
       -2    1    3    3    0  502 -0.38399521639E+03 -0.39510791308E+03  0.14802090956E+04  0.15794244382E+04  0.25500000920E-02 0. -1.
</event>
<event>
 5   0  0.2943244E-05  0.2309955E+04  0.7818609E-02  0.8474006E-01
       -1   -1    0    0    0  501  0.00000000000E+00  0.00000000000E+00  0.67084515993E+03  0.67084515994E+03  0.50400001928E-02 0.  1.
        1   -1    0    0  501    0  0.00000000000E+00  0.00000000000E+00 -0.19884970040E+04  0.19884970040E+04  0.50400001928E-02 0. -1.
    10030    2    1    2    0    0  0.00000000000E+00  0.00000000000E+00 -0.13176518441E+04  0.26593421640E+04  0.23099554894E+04 0.  0.
        3    1    3    3  502    0 -0.10749490279E+03 -0.98777773088E+03  0.19059094170E+02  0.99379236213E+03  0.10100000352E+00 0.  1.
       -3    1    3    3    0  502  0.10749490279E+03  0.98777773088E+03 -0.13367109383E+04  0.16655498018E+04  0.10100000352E+00 0. -1.
</event>
<event>
 5   0  0.6337926E-05  0.2387941E+04  0.7818609E-02  0.8444032E-01
        2   -1    0    0  501    0  0.00000000000E+00  0.00000000000E+00  0.15197832935E+04  0.15197832935E+04  0.25500000920E-02 0.  1.
       -2   -1    0    0    0  501  0.00000000000E+00  0.00000000000E+00 -0.93800543030E+03  0.93800543030E+03  0.25500000920E-02 0. -1.
    10030    2    1    2    0    0  0.00000000000E+00  0.00000000000E+00  0.58177786318E+03  0.24577887238E+04  0.23879405203E+04 0.  0.
        1    1    3    3  502    0 -0.10603724831E+04  0.19942092280E+03 -0.23534544173E+03  0.11043305594E+04  0.50400001928E-02 0. -1.
       -1    1    3    3    0  502  0.10603724831E+04 -0.19942092280E+03  0.81712330491E+03  0.13534581644E+04  0.50400001928E-02 0.  1.
</event>
<event>
 5   0  0.2943123E-05  0.2505783E+04  0.7818609E-02  0.8400928E-01
        1   -1    0    0  501    0  0.00000000000E+00  0.00000000000E+00  0.11578730767E+04  0.11578730767E+04  0.50400001928E-02 0.  1.
       -1   -1    0    0    0  501  0.00000000000E+00  0.00000000000E+00 -0.13557069956E+04  0.13557069956E+04  0.50400001928E-02 0. -1.
    10030    2    1    2    0    0  0.00000000000E+00  0.00000000000E+00 -0.19783391893E+03  0.25135800723E+04  0.25057826163E+04 0.  0.
        1    1    3    3  502    0  0.45446622472E+03  0.46935885900E+03 -0.11713083630E+04  0.13411937105E+04  0.50400001928E-02 0. -1.
       -1    1    3    3    0  502 -0.45446622472E+03 -0.46935885900E+03  0.97347444405E+03  0.11723863617E+04  0.50400001928E-02 0.  1.
</event>
<event>
 5   0  0.2943244E-05  0.2383237E+04  0.7818609E-02  0.8445806E-01
        1   -1    0    0  501    0  0.00000000000E+00  0.00000000000E+00  0.14061848981E+04  0.14061848981E+04  0.50400001928E-02 0.  1.
       -1   -1    0    0    0  501  0.00000000000E+00  0.00000000000E+00 -0.10097923086E+04  0.10097923086E+04  0.50400001928E-02 0. -1.
    10030    2    1    2    0    0  0.00000000000E+00  0.00000000000E+00  0.39639258945E+03  0.24159772067E+04  0.23832370378E+04 0.  0.
        3    1    3    3  502    0 -0.66925275991E+03  0.81795464973E+03  0.75621779698E+03  0.12995439324E+04  0.10100000352E+00 0.  1.
       -3    1    3    3    0  502  0.66925275991E+03 -0.81795464973E+03 -0.35982520753E+03  0.11164332742E+04  0.10100000352E+00 0. -1.
</event>
<event>
 5   0  0.6978115E-05  0.2384897E+04  0.7818609E-02  0.8445180E-01
       -2   -1    0    0    0  501  0.00000000000E+00  0.00000000000E+00  0.12374778062E+04  0.12374778062E+04  0.25500000920E-02 0. -1.
        2   -1    0    0  501    0  0.00000000000E+00  0.00000000000E+00 -0.11490576468E+04  0.11490576468E+04  0.25500000920E-02 0.  1.
    10030    2    1    2    0    0  0.00000000000E+00  0.00000000000E+00  0.88420159415E+02  0.23865354531E+04  0.23848969253E+04 0.  0.
        4    1    3    3  502    0 -0.82072720407E+03 -0.52467653269E+03  0.73247118936E+03  0.12187675183E+04  0.12699999809E+01 0. -1.
       -4    1    3    3    0  502  0.82072720407E+03  0.52467653269E+03 -0.64405102995E+03  0.11677679348E+04  0.12699999809E+01 0.  1.
</event>
<event>
 5   0  0.6600166E-05  0.2397478E+04  0.7818609E-02  0.8440448E-01
       -2   -1    0    0    0  501  0.00000000000E+00  0.00000000000E+00  0.77419243780E+03  0.77419243780E+03  0.25500000920E-02 0. -1.
        2   -1    0    0  501    0  0.00000000000E+00  0.00000000000E+00 -0.18560954209E+04  0.18560954209E+04  0.25500000920E-02 0.  1.
    10030    2    1    2    0    0  0.00000000000E+00  0.00000000000E+00 -0.10819029831E+04  0.26302878587E+04  0.23974778737E+04 0.  0.
        5    1    3    3  502    0  0.76318206526E+03 -0.20853759534E+03 -0.15289674530E+04  0.17215395307E+04  0.46999998093E+01 0.  1.
       -5    1    3    3    0  502 -0.76318206526E+03  0.20853759534E+03  0.44706446990E+03  0.90874832801E+03  0.46999998093E+01 0. -1.
</event>
<event>
 5   0  0.2339125E-05  0.2412515E+04  0.7818609E-02  0.8434833E-01
       -3   -1    0    0    0  501  0.00000000000E+00  0.00000000000E+00  0.71152818973E+03  0.71152819690E+03  0.10100000352E+00 0.  1.
        3   -1    0    0  501    0  0.00000000000E+00  0.00000000000E+00 -0.20449748242E+04  0.20449748266E+04  0.10100000352E+00 0. -1.
    10030    2    1    2    0    0  0.00000000000E+00  0.00000000000E+00 -0.13334466344E+04  0.27565030235E+04  0.24125150760E+04 0.  0.
        3    1    3    3  502    0 -0.62889794947E+03 -0.89308545567E+03 -0.12515023811E+04  0.16611359011E+04  0.10100000352E+00 0. -1.
       -3    1    3    3    0  502  0.62889794947E+03  0.89308545567E+03 -0.81944253325E+02  0.10953671224E+04  0.10100000352E+00 0.  1.
</event>
<event>
 5   0  0.6337926E-05  0.2389543E+04  0.7818609E-02  0.8443429E-01
       -2   -1    0    0    0  501  0.00000000000E+00  0.00000000000E+00  0.10906400947E+04  0.10906400947E+04  0.25500000920E-02 0.  1.
        2   -1    0    0  501    0  0.00000000000E+00  0.00000000000E+00 -0.13088453262E+04  0.13088453262E+04  0.25500000920E-02 0. -1.
    10030    2    1    2    0    0  0.00000000000E+00  0.00000000000E+00 -0.21820523143E+03  0.23994854209E+04  0.23895432120E+04 0.  0.
        1    1    3    3  502    0  0.10570547789E+04  0.21612473286E+03 -0.62446748343E+03  0.12466091383E+04  0.50400001928E-02 0. -1.
       -1    1    3    3    0  502 -0.10570547789E+04 -0.21612473286E+03  0.40626225200E+03  0.11528762827E+04  0.50400001928E-02 0.  1.
</event>
<event>
 5   0  0.6600166E-05  0.2507113E+04  0.7818609E-02  0.8400456E-01
        2   -1    0    0  501    0  0.00000000000E+00  0.00000000000E+00  0.23104796841E+04  0.23104796841E+04  0.25500000920E-02 0. -1.
       -2   -1    0    0    0  501  0.00000000000E+00  0.00000000000E+00 -0.68012039715E+03  0.68012039716E+03  0.25500000920E-02 0.  1.
    10030    2    1    2    0    0  0.00000000000E+00  0.00000000000E+00  0.16303592869E+04  0.29906000812E+04  0.25071133683E+04 0.  0.
        5    1    3    3  502    0 -0.91978969357E+02 -0.21634684191E+03  0.22839388773E+04  0.22960106646E+04  0.46999998093E+01 0. -1.
       -5    1    3    3    0  502  0.91978969357E+02  0.21634684191E+03 -0.65357959034E+03  0.69458941665E+03  0.46999998093E+01 0.  1.
</event>
<event>
 5   0  0.6978115E-05  0.2444156E+04  0.7818609E-02  0.8423155E-01
        2   -1    0    0  501    0  0.00000000000E+00  0.00000000000E+00  0.12868021453E+04  0.12868021453E+04  0.25500000920E-02 0. -1.
       -2   -1    0    0    0  501  0.00000000000E+00  0.00000000000E+00 -0.11606090047E+04  0.11606090047E+04  0.25500000920E-02 0.  1.
    10030    2    1    2    0    0  0.00000000000E+00  0.00000000000E+00  0.12619314058E+03  0.24474111500E+04  0.24441556064E+04 0.  0.
        4    1    3    3  502    0  0.77303794287E+03  0.70165355672E+03  0.69921209806E+03  0.12565048928E+04  0.12699999809E+01 0. -1.
       -4    1    3    3    0  502 -0.77303794287E+03 -0.70165355672E+03 -0.57301895749E+03  0.11909062571E+04  0.12699999809E+01 0.  1.
</event>
<event>
 5   0  0.2943244E-05  0.2403006E+04  0.7818609E-02  0.8438379E-01
       -1   -1    0    0    0  501  0.00000000000E+00  0.00000000000E+00  0.65092069202E+03  0.65092069204E+03  0.50400001928E-02 0.  1.
        1   -1    0    0  501    0  0.00000000000E+00  0.00000000000E+00 -0.22177971009E+04  0.22177971009E+04  0.50400001928E-02 0. -1.
    10030    2    1    2    0    0  0.00000000000E+00  0.00000000000E+00 -0.15668764089E+04  0.28687177929E+04  0.24030064700E+04 0.  0.
        3    1    3    3  502    0 -0.18703489952E+03  0.13229459101E+03  0.62460550458E+03  0.66529388919E+03  0.10100000352E+00 0.  1.
       -3    1    3    3    0  502  0.18703489952E+03 -0.13229459101E+03 -0.21914819134E+04  0.22034239037E+04  0.10100000352E+00 0. -1.
</event>
<event>
 5   0  0.2943244E-05  0.2460555E+04  0.7818609E-02  0.8417174E-01
        1   -1    0    0  501    0  0.00000000000E+00  0.00000000000E+00  0.95515652407E+03  0.95515652408E+03  0.50400001928E-02 0. -1.
       -1   -1    0    0    0  501  0.00000000000E+00  0.00000000000E+00 -0.15846442932E+04  0.15846442932E+04  0.50400001928E-02 0.  1.
    10030    2    1    2    0    0  0.00000000000E+00  0.00000000000E+00 -0.62948776916E+03  0.25398008173E+04  0.24605554942E+04 0.  0.
        3    1    3    3  502    0  0.29371297083E+03 -0.46007011589E+03  0.82333152631E+03  0.98782925305E+03  0.10100000352E+00 0. -1.
       -3    1    3    3    0  502 -0.29371297083E+03  0.46007011589E+03 -0.14528192955E+04  0.15519715643E+04  0.10100000352E+00 0.  1.
</event>
<event>
 5   0  0.6714629E-05  0.2341845E+04  0.7818609E-02  0.8461602E-01
        2   -1    0    0  501    0  0.00000000000E+00  0.00000000000E+00  0.10324075851E+04  0.10324075851E+04  0.25500000920E-02 0. -1.
       -2   -1    0    0    0  501  0.00000000000E+00  0.00000000000E+00 -0.13280219978E+04  0.13280219978E+04  0.25500000920E-02 0.  1.
    10030    2    1    2    0    0  0.00000000000E+00  0.00000000000E+00 -0.29561441275E+03  0.23604295829E+04  0.23418454123E+04 0.  0.
        3    1    3    3  502    0  0.88626474577E+03  0.52748837619E+03 -0.70659896235E+03  0.12501965007E+04  0.10100000352E+00 0.  1.
       -3    1    3    3    0  502 -0.88626474577E+03 -0.52748837619E+03  0.41098454961E+03  0.11102330822E+04  0.10100000352E+00 0. -1.
</event>
<event>
 5   0  0.6978115E-05  0.2362415E+04  0.7818609E-02  0.8453710E-01
       -2   -1    0    0    0  501  0.00000000000E+00  0.00000000000E+00  0.11441550983E+04  0.11441550983E+04  0.25500000920E-02 0. -1.
        2   -1    0    0  501    0  0.00000000000E+00  0.00000000000E+00 -0.12194596075E+04  0.12194596075E+04  0.25500000920E-02 0.  1.
    10030    2    1    2    0    0  0.00000000000E+00  0.00000000000E+00 -0.75304509155E+02  0.23636147058E+04  0.23624148045E+04 0.  0.
        4    1    3    3  502    0  0.31707894263E+03 -0.11359400848E+04 -0.10364318197E+03  0.11839098167E+04  0.12699999809E+01 0.  1.
       -4    1    3    3    0  502 -0.31707894263E+03  0.11359400848E+04  0.28338672819E+02  0.11797048891E+04  0.12699999809E+01 0. -1.
</event>
<event>
 5   0  0.2915546E-05  0.2411632E+04  0.7818609E-02  0.8435162E-01
        1   -1    0    0  501    0  0.00000000000E+00  0.00000000000E+00  0.13054826303E+04  0.13054826303E+04  0.50400001928E-02 0.  1.
       -1   -1    0    0    0  501  0.00000000000E+00  0.00000000000E+00 -0.11137584554E+04  0.11137584554E+04  0.50400001928E-02 0. -1.
    10030    2    1    2    0    0  0.00000000000E+00  0.00000000000E+00  0.19172417485E+03  0.24192410857E+04  0.24116320763E+04 0.  0.
        2    1    3    3  502    0  0.69691785003E+03  0.77409740506E+03  0.70529103562E+03  0.12579176154E+04  0.25500000920E-02 0.  1.
       -2    1    3    3    0  502 -0.69691785003E+03 -0.77409740506E+03 -0.51356686077E+03  0.11613234703E+04  0.25500000920E-02 0. -1.
</event>
<event>
 5   0  0.2943123E-05  0.2411947E+04  0.7818609E-02  0.8435044E-01
        1   -1    0    0  501    0  0.00000000000E+00  0.00000000000E+00  0.12250347956E+04  0.12250347956E+04  0.50400001928E-02 0. -1.
       -1   -1    0    0    0  501  0.00000000000E+00  0.00000000000E+00 -0.11872085499E+04  0.11872085499E+04  0.50400001928E-02 0.  1.
    10030    2    1    2    0    0  0.00000000000E+00  0.00000000000E+00  0.37826245693E+02  0.24122433455E+04  0.24119467517E+04 0.  0.
        1    1    3    3  502    0  0.35605352467E+03  0.81960021678E+03  0.82886032119E+03  0.12188224070E+04  0.50400001928E-02 0. -1.
       -1    1    3    3    0  502 -0.35605352467E+03 -0.81960021678E+03 -0.79103407550E+03  0.11934209385E+04  0.50400001928E-02 0.  1.
</event>
<event>
 5   0  0.2915546E-05  0.2425006E+04  0.7818609E-02  0.8430201E-01
        1   -1    0    0  501    0  0.00000000000E+00  0.00000000000E+00  0.10882192296E+04  0.10882192296E+04  0.50400001928E-02 0. -1.
       -1   -1    0    0    0  501  0.00000000000E+00  0.00000000000E+00 -0.13509809939E+04  0.13509809939E+04  0.50400001928E-02 0.  1.
    10030    2    1    2    0    0  0.00000000000E+00  0.00000000000E+00 -0.26276176431E+03  0.24392002236E+04  0.24250059765E+04 0.  0.
        2    1    3    3  502    0  0.10948213409E+04 -0.98202950645E+02 -0.64612418295E+03  0.12750506060E+04  0.25500000920E-02 0.  1.
       -2    1    3    3    0  502 -0.10948213409E+04  0.98202950645E+02  0.38336241864E+03  0.11641496176E+04  0.25500000920E-02 0. -1.
</event>
<event>
 5   0  0.6978115E-05  0.1806046E+04  0.7818609E-02  0.8703091E-01
       -2   -1    0    0    0  501  0.00000000000E+00  0.00000000000E+00  0.34681508838E+03  0.34681508839E+03  0.25500000920E-02 0. -1.
        2   -1    0    0  501    0  0.00000000000E+00  0.00000000000E+00 -0.23512548422E+04  0.23512548422E+04  0.25500000920E-02 0.  1.
    10030    2    1    2    0    0  0.00000000000E+00  0.00000000000E+00 -0.20044397538E+04  0.26980699306E+04  0.18060461300E+04 0.  0.
        4    1    3    3  502    0 -0.73927108327E+03  0.48689796630E+03 -0.12688636390E+04  0.15471289253E+04  0.12699999809E+01 0.  1.
       -4    1    3    3    0  502  0.73927108327E+03 -0.48689796630E+03 -0.73557611483E+03  0.11509410053E+04  0.12699999809E+01 0. -1.
</event>
<event>
 5   0  0.6978115E-05  0.2382123E+04  0.7818609E-02  0.8446227E-01
       -2   -1    0    0    0  501  0.00000000000E+00  0.00000000000E+00  0.82247785656E+03  0.82247785657E+03  0.25500000920E-02 0. -1.
        2   -1    0    0  501    0  0.00000000000E+00  0.00000000000E+00 -0.17248208350E+04  0.17248208350E+04  0.25500000920E-02 0.  1.
    10030    2    1    2    0    0  0.00000000000E+00  0.00000000000E+00 -0.90234297842E+03  0.25472986916E+04  0.23821225353E+04 0.  0.
        4    1    3    3  502    0  0.10378730797E+04 -0.21816752967E+03 -0.10308363106E+04  0.14789870563E+04  0.12699999809E+01 0.  1.
       -4    1    3    3    0  502 -0.10378730797E+04  0.21816752967E+03  0.12849333216E+03  0.10683116352E+04  0.12699999809E+01 0. -1.
</event>
<event>
 5   0  0.6600166E-05  0.2458782E+04  0.7818609E-02  0.8417819E-01
        2   -1    0    0  501    0  0.00000000000E+00  0.00000000000E+00  0.21497549715E+04  0.21497549715E+04  0.25500000920E-02 0. -1.
       -2   -1    0    0    0  501  0.00000000000E+00  0.00000000000E+00 -0.70305779902E+03  0.70305779902E+03  0.25500000920E-02 0.  1.
    10030    2    1    2    0    0  0.00000000000E+00  0.00000000000E+00  0.14466971725E+04  0.28528127705E+04  0.24587818111E+04 0.  0.
        5    1    3    3  502    0  0.11246170515E+04  0.40891275822E+03  0.39639809432E+03  0.12606056860E+04  0.46999998093E+01 0. -1.
       -5    1    3    3    0  502 -0.11246170515E+04 -0.40891275822E+03  0.10502990782E+04  0.15922070845E+04  0.46999998093E+01 0.  1.
</event>
<event>
 5   0  0.2943244E-05  0.2394026E+04  0.7818609E-02  0.8441743E-01
        1   -1    0    0  501    0  0.00000000000E+00  0.00000000000E+00  0.93104713959E+03  0.93104713961E+03  0.50400001928E-02 0.  1.
       -1   -1    0    0    0  501  0.00000000000E+00  0.00000000000E+00 -0.15389555902E+04  0.15389555902E+04  0.50400001928E-02 0. -1.
    10030    2    1    2    0    0  0.00000000000E+00  0.00000000000E+00 -0.60790845060E+03  0.24700027298E+04  0.23940260652E+04 0.  0.
        3    1    3    3  502    0 -0.10774091396E+04  0.45426537080E+03 -0.39554485458E+02  0.11699282238E+04  0.10100000352E+00 0.  1.
       -3    1    3    3    0  502  0.10774091396E+04 -0.45426537080E+03 -0.56835396514E+03  0.13000745060E+04  0.10100000352E+00 0. -1.
</event>
<event>
 5   0  0.2915546E-05  0.2408503E+04  0.7818609E-02  0.8436327E-01
        1   -1    0    0  501    0  0.00000000000E+00  0.00000000000E+00  0.23111509165E+04  0.23111509165E+04  0.50400001928E-02 0.  1.
       -1   -1    0    0    0  501  0.00000000000E+00  0.00000000000E+00 -0.62748889933E+03  0.62748889935E+03  0.50400001928E-02 0. -1.
    10030    2    1    2    0    0  0.00000000000E+00  0.00000000000E+00  0.16836620172E+04  0.29386398159E+04  0.24085028917E+04 0.  0.
        2    1    3    3  502    0 -0.36078245284E+03 -0.57636568914E+03 -0.37085096457E+03  0.77452683867E+03  0.25500000920E-02 0. -1.
       -2    1    3    3    0  502  0.36078245284E+03  0.57636568914E+03  0.20545129817E+04  0.21641129772E+04  0.25500000920E-02 0.  1.
</event>
<event>
 5   0  0.6337926E-05  0.2368834E+04  0.7818609E-02  0.8451265E-01
       -2   -1    0    0    0  501  0.00000000000E+00  0.00000000000E+00  0.79560756281E+03  0.79560756281E+03  0.25500000920E-02 0.  1.
        2   -1    0    0  501    0  0.00000000000E+00  0.00000000000E+00 -0.17632353287E+04  0.17632353287E+04  0.25500000920E-02 0. -1.
    10030    2    1    2    0    0  0.00000000000E+00  0.00000000000E+00 -0.96762776588E+03  0.25588428915E+04  0.23688337743E+04 0.  0.
        1    1    3    3  502    0 -0.86587171081E+03 -0.30033108208E+03  0.32664095613E+03  0.97294752823E+03  0.50400001928E-02 0.  1.
       -1    1    3    3    0  502  0.86587171081E+03  0.30033108208E+03 -0.12942687220E+04  0.15858953633E+04  0.50400001928E-02 0. -1.
</event>
<event>
 5   0  0.2901816E-05  0.2391247E+04  0.7818609E-02  0.8442788E-01
       -1   -1    0    0    0  501  0.00000000000E+00  0.00000000000E+00  0.91551945710E+03  0.91551945711E+03  0.50400001928E-02 0. -1.
        1   -1    0    0  501    0  0.00000000000E+00  0.00000000000E+00 -0.15614250215E+04  0.15614250215E+04  0.50400001928E-02 0.  1.
    10030    2    1    2    0    0  0.00000000000E+00  0.00000000000E+00 -0.64590556442E+03  0.24769444786E+04  0.23912465268E+04 0.  0.
        4    1    3    3  502    0 -0.81429793913E+03 -0.32655382653E+03  0.51843534024E+03  0.10190659204E+04  0.12699999809E+01 0. -1.
       -4    1    3    3    0  502  0.81429793913E+03  0.32655382653E+03 -0.11643409047E+04  0.14578785582E+04  0.12699999809E+01 0.  1.
</event>
<event>
 5   0  0.6337926E-05  0.2402936E+04  0.7818609E-02  0.8438405E-01
       -2   -1    0    0    0  501  0.00000000000E+00  0.00000000000E+00  0.17821312149E+04  0.17821312150E+04  0.25500000920E-02 0. -1.
        2   -1    0    0  501    0  0.00000000000E+00  0.00000000000E+00 -0.80999962091E+03  0.80999962091E+03  0.25500000920E-02 0.  1.
    10030    2    1    2    0    0  0.00000000000E+00  0.00000000000E+00  0.97213159404E+03  0.25921308359E+04  0.24029362110E+04 0.  0.
        1    1    3    3  502    0  0.32618496358E+03  0.76773347969E+03  0.14188528608E+04  0.16458902658E+04  0.50400001928E-02 0. -1.
       -1    1    3    3    0  502 -0.32618496358E+03 -0.76773347969E+03 -0.44672126677E+03  0.94624057010E+03  0.50400001928E-02 0.  1.
</event>
<event>
 5   0  0.2339125E-05  0.2498313E+04  0.7818609E-02  0.8403587E-01
        3   -1    0    0  501    0  0.00000000000E+00  0.00000000000E+00  0.13559394054E+04  0.13559394091E+04  0.10100000352E+00 0. -1.
       -3   -1    0    0    0  501  0.00000000000E+00  0.00000000000E+00 -0.11507832053E+04  0.11507832097E+04  0.10100000352E+00 0.  1.
    10030    2    1    2    0    0  0.00000000000E+00  0.00000000000E+00  0.20515620009E+03  0.25067226188E+04  0.24983132752E+04 0.  0.
        1    1    3    3  502    0  0.78882982969E+03  0.82198640591E+02  0.10709085336E+04  0.13326117979E+04  0.50400001928E-02 0. -1.
       -1    1    3    3    0  502 -0.78882982969E+03 -0.82198640591E+02 -0.86575233348E+03  0.11741108209E+04  0.50400001928E-02 0.  1.
</event>
<event>
 5   0  0.6703961E-05  0.2289475E+04  0.7818609E-02  0.8482083E-01
       -2   -1    0    0    0  501  0.00000000000E+00  0.00000000000E+00  0.10219572474E+04  0.10219572474E+04  0.25500000920E-02 0. -1.
        2   -1    0    0  501    0  0.00000000000E+00  0.00000000000E+00 -0.12822684330E+04  0.12822684330E+04  0.25500000920E-02 0.  1.
    10030    2    1    2    0    0  0.00000000000E+00  0.00000000000E+00 -0.26031118558E+03  0.23042256804E+04  0.22894746281E+04 0.  0.
        2    1    3    3  502    0 -0.85443192343E+03 -0.71356655937E+03  0.13838250505E+03  0.11217757638E+04  0.25500000920E-02 0. -1.
       -2    1    3    3    0  502  0.85443192343E+03  0.71356655937E+03 -0.39869369062E+03  0.11824499166E+04  0.25500000920E-02 0.  1.
</event>
<event>
 5   0  0.2901816E-05  0.2372359E+04  0.7818609E-02  0.8449925E-01
        1   -1    0    0  501    0  0.00000000000E+00  0.00000000000E+00  0.18128732021E+04  0.18128732021E+04  0.50400001928E-02 0.  1.
       -1   -1    0    0    0  501  0.00000000000E+00  0.00000000000E+00 -0.77612814518E+03  0.77612814520E+03  0.50400001928E-02 0. -1.
    10030    2    1    2    0    0  0.00000000000E+00  0.00000000000E+00  0.10367450570E+04  0.25890013473E+04  0.23723590924E+04 0.  0.
        4    1    3    3  502    0  0.20119208338E+03  0.45051295518E+03 -0.65882677680E+03  0.82310054789E+03  0.12699999809E+01 0. -1.
       -4    1    3    3    0  502 -0.20119208338E+03 -0.45051295518E+03  0.16955718338E+04  0.17659007995E+04  0.12699999809E+01 0.  1.
</event>
<event>
 5   0  0.6978115E-05  0.2430353E+04  0.7818609E-02  0.8428227E-01
        2   -1    0    0  501    0  0.00000000000E+00  0.00000000000E+00  0.25763253813E+04  0.25763253813E+04  0.25500000920E-02 0.  1.
       -2   -1    0    0    0  501  0.00000000000E+00  0.00000000000E+00 -0.57316272108E+03  0.57316272108E+03  0.25500000920E-02 0. -1.
    10030    2    1    2    0    0  0.00000000000E+00  0.00000000000E+00  0.20031626602E+04  0.31494881024E+04  0.24303527859E+04 0.  0.
        4    1    3    3  502    0  0.43514444945E+03 -0.52616204923E+03  0.23042354303E+04  0.24032685504E+04  0.12699999809E+01 0.  1.
       -4    1    3    3    0  502 -0.43514444945E+03  0.52616204923E+03 -0.30107277015E+03  0.74621955198E+03  0.12699999809E+01 0. -1.
</event>
<event>
 5   0  0.2943244E-05  0.2087726E+04  0.7818609E-02  0.8566669E-01
       -1   -1    0    0    0  501  0.00000000000E+00  0.00000000000E+00  0.86952607379E+03  0.86952607381E+03  0.50400001928E-02 0. -1.
        1   -1    0    0  501    0  0.00000000000E+00  0.00000000000E+00 -0.12531542771E+04  0.12531542771E+04  0.50400001928E-02 0.  1.
    10030    2    1    2    0    0  0.00000000000E+00  0.00000000000E+00 -0.38362820326E+03  0.21226803509E+04  0.20877263407E+04 0.  0.
        3    1    3    3  502    0 -0.53880357759E+03 -0.78893939456E+03 -0.61946968725E+03  0.11386296005E+04  0.10100000352E+00 0.  1.
       -3    1    3    3    0  502  0.53880357759E+03  0.78893939456E+03  0.23584148399E+03  0.98405075037E+03  0.10100000352E+00 0. -1.
</event>
<event>
 5   0  0.6600166E-05  0.2479233E+04  0.7818609E-02  0.8410421E-01
        2   -1    0    0  501    0  0.00000000000E+00  0.00000000000E+00  0.16657542407E+04  0.16657542407E+04  0.25500000920E-02 0. -1.
       -2   -1    0    0    0  501  0.00000000000E+00  0.00000000000E+00 -0.92249458693E+03  0.92249458694E+03  0.25500000920E-02 0.  1.
    10030    2    1    2    0    0  0.00000000000E+00  0.00000000000E+00  0.74325965377E+03  0.25882488276E+04  0.24792331639E+04 0.  0.
        5    1    3    3  502    0 -0.22031417477E+03  0.98514652702E+02  0.16409823109E+04  0.16586405599E+04  0.46999998093E+01 0. -1.
       -5    1    3    3    0  502  0.22031417477E+03 -0.98514652702E+02 -0.89772265709E+03  0.92960826774E+03  0.46999998093E+01 0.  1.
</event>
<event>
 5   0  0.6600166E-05  0.2419107E+04  0.7818609E-02  0.8432384E-01
        2   -1    0    0  501    0  0.00000000000E+00  0.00000000000E+00  0.16065153028E+04  0.16065153028E+04  0.25500000920E-02 0.  1.
       -2   -1    0    0    0  501  0.00000000000E+00  0.00000000000E+00 -0.91067928483E+03  0.91067928483E+03  0.25500000920E-02 0. -1.
    10030    2    1    2    0    0  0.00000000000E+00  0.00000000000E+00  0.69583601796E+03  0.25171945876E+04  0.24191074445E+04 0.  0.
        5    1    3    3  502    0  0.17579823766E+03 -0.68565140888E+03  0.13684898440E+04  0.15407171765E+04  0.46999998093E+01 0.  1.
       -5    1    3    3    0  502 -0.17579823766E+03  0.68565140888E+03 -0.67265382600E+03  0.97647741115E+03  0.46999998093E+01 0. -1.
</event>
<event>
 5   0  0.6337926E-05  0.2298780E+04  0.7818609E-02  0.8478402E-01
        2   -1    0    0  501    0  0.00000000000E+00  0.00000000000E+00  0.25263864241E+04  0.25263864241E+04  0.25500000920E-02 0.  1.
       -2   -1    0    0    0  501  0.00000000000E+00  0.00000000000E+00 -0.52291958767E+03  0.52291958767E+03  0.25500000920E-02 0. -1.
    10030    2    1    2    0    0  0.00000000000E+00  0.00000000000E+00  0.20034668364E+04  0.30493060118E+04  0.22987796303E+04 0.  0.
        1    1    3    3  502    0  0.90802504825E+02 -0.29224833823E+03  0.24713508487E+04  0.24902267374E+04  0.50400001928E-02 0.  1.
       -1    1    3    3    0  502 -0.90802504825E+02  0.29224833823E+03 -0.46788401228E+03  0.55907927440E+03  0.50400001928E-02 0. -1.
</event>
<event>
 5   0  0.2915546E-05  0.2391985E+04  0.7818609E-02  0.8442510E-01
       -1   -1    0    0    0  501  0.00000000000E+00  0.00000000000E+00  0.53597914613E+03  0.53597914616E+03  0.50400001928E-02 0. -1.
        1   -1    0    0  501    0  0.00000000000E+00  0.00000000000E+00 -0.26687564406E+04  0.26687564406E+04  0.50400001928E-02 0.  1.
    10030    2    1    2    0    0  0.00000000000E+00  0.00000000000E+00 -0.21327772945E+04  0.32047355868E+04  0.23919847812E+04 0.  0.
        2    1    3    3  502    0  0.65704150573E+02 -0.16346281920E+03 -0.26512768130E+04  0.26571236079E+04  0.25500000920E-02 0.  1.
       -2    1    3    3    0  502 -0.65704150573E+02  0.16346281920E+03  0.51849951852E+03  0.54761197884E+03  0.25500000920E-02 0. -1.
</event>
<event>
 5   0  0.2943244E-05  0.2389969E+04  0.7818609E-02  0.8443269E-01
       -1   -1    0    0    0  501  0.00000000000E+00  0.00000000000E+00  0.52538356182E+03  0.52538356184E+03  0.50400001928E-02 0. -1.
        1   -1    0    0  501    0  0.00000000000E+00  0.00000000000E+00 -0.27179909709E+04  0.27179909709E+04  0.50400001928E-02 0.  1.
    10030    2    1    2    0    0  0.00000000000E+00  0.00000000000E+00 -0.21926074091E+04  0.32433745328E+04  0.23899688511E+04 0.  0.
        3    1    3    3  502    0 -0.11874193353E+04 -0.76085034212E+01 -0.12781987586E+04  0.17446531586E+04  0.10100000352E+00 0.  1.
       -3    1    3    3    0  502  0.11874193353E+04  0.76085034212E+01 -0.91440865050E+03  0.14987213742E+04  0.10100000352E+00 0. -1.
</event>
<event>
 5   0  0.2943123E-05  0.2437477E+04  0.7818609E-02  0.8425605E-01
       -1   -1    0    0    0  501  0.00000000000E+00  0.00000000000E+00  0.18686586747E+04  0.18686586747E+04  0.50400001928E-02 0. -1.
        1   -1    0    0  501    0  0.00000000000E+00  0.00000000000E+00 -0.79486059787E+03  0.79486059788E+03  0.50400001928E-02 0.  1.
    10030    2    1    2    0    0  0.00000000000E+00  0.00000000000E+00  0.10737980768E+04  0.26635192726E+04  0.24374766882E+04 0.  0.
        1    1    3    3  502    0 -0.10309993844E+03  0.76583569104E+02  0.18612433781E+04  0.18656691971E+04  0.50400001928E-02 0. -1.
       -1    1    3    3    0  502  0.10309993844E+03 -0.76583569104E+02 -0.78744530131E+03  0.79785007548E+03  0.50400001928E-02 0.  1.
</event>
<event>
 5   0  0.6978115E-05  0.2395241E+04  0.7818609E-02  0.8441287E-01
        2   -1    0    0  501    0  0.00000000000E+00  0.00000000000E+00  0.28219025845E+04  0.28219025845E+04  0.25500000920E-02 0.  1.
       -2   -1    0    0    0  501  0.00000000000E+00  0.00000000000E+00 -0.50827240221E+03  0.50827240222E+03  0.25500000920E-02 0. -1.
    10030    2    1    2    0    0  0.00000000000E+00  0.00000000000E+00  0.23136301823E+04  0.33301749867E+04  0.23952412868E+04 0.  0.
        4    1    3    3  502    0  0.42561950294E+02  0.11738558569E+04  0.14815233003E+04  0.18906776549E+04  0.12699999809E+01 0.  1.
       -4    1    3    3    0  502 -0.42561950294E+02 -0.11738558569E+04  0.83210688202E+03  0.14394973319E+04  0.12699999809E+01 0. -1.
</event>
<event>
 5   0  0.2847158E-05  0.2452007E+04  0.7818609E-02  0.8420286E-01
        1   -1    0    0  501    0  0.00000000000E+00  0.00000000000E+00  0.23626240625E+04  0.23626240625E+04  0.50400001928E-02 0.  1.
       -1   -1    0    0    0  501  0.00000000000E+00  0.00000000000E+00 -0.63619286148E+03  0.63619286150E+03  0.50400001928E-02 0. -1.
    10030    2    1    2    0    0  0.00000000000E+00  0.00000000000E+00  0.17264312010E+04  0.29988169240E+04  0.24520069845E+04 0.  0.
        5    1    3    3  502    0 -0.11363694180E+04 -0.35327892987E+03  0.12237864792E+04  0.17069905955E+04  0.46999998093E+01 0. -1.
       -5    1    3    3    0  502  0.11363694180E+04  0.35327892987E+03  0.50264472179E+03  0.12918263285E+04  0.46999998093E+01 0.  1.
</event>
<event>
 5   0  0.2901816E-05  0.2398144E+04  0.7818609E-02  0.8440199E-01
        1   -1    0    0  501    0  0.00000000000E+00  0.00000000000E+00  0.11474339427E+04  0.11474339427E+04  0.50400001928E-02 0. -1.
       -1   -1    0    0    0  501  0.00000000000E+00  0.00000000000E+00 -0.12530344361E+04  0.12530344361E+04  0.50400001928E-02 0.  1.
    10030    2    1    2    0    0  0.00000000000E+00  0.00000000000E+00 -0.10560049346E+03  0.24004683788E+04  0.23981444855E+04 0.  0.
        4    1    3    3  502    0 -0.54206079332E+03 -0.55496812842E+03 -0.96799095309E+03  0.12404949115E+04  0.12699999809E+01 0.  1.
       -4    1    3    3    0  502  0.54206079332E+03  0.55496812842E+03  0.86239045963E+03  0.11599734674E+04  0.12699999809E+01 0. -1.
</event>
<event>
 5   0  0.2915546E-05  0.2402820E+04  0.7818609E-02  0.8438449E-01
        1   -1    0    0  501    0  0.00000000000E+00  0.00000000000E+00  0.13913956594E+04  0.13913956594E+04  0.50400001928E-02 0. -1.
       -1   -1    0    0    0  501  0.00000000000E+00  0.00000000000E+00 -0.10373653604E+04  0.10373653604E+04  0.50400001928E-02 0.  1.
    10030    2    1    2    0    0  0.00000000000E+00  0.00000000000E+00  0.35403029905E+03  0.24287610198E+04  0.24028197266E+04 0.  0.
        2    1    3    3  502    0  0.66152351407E+03 -0.76718006466E+03 -0.47587394399E+03  0.11192116073E+04  0.25500000920E-02 0.  1.
       -2    1    3    3    0  502 -0.66152351407E+03  0.76718006466E+03  0.82990424303E+03  0.13095494125E+04  0.25500000920E-02 0. -1.
</event>
<event>
 5   0  0.6714629E-05  0.2342642E+04  0.7818609E-02  0.8461295E-01
       -2   -1    0    0    0  501  0.00000000000E+00  0.00000000000E+00  0.55133997704E+03  0.55133997705E+03  0.25500000920E-02 0. -1.
        2   -1    0    0  501    0  0.00000000000E+00  0.00000000000E+00 -0.24884689895E+04  0.24884689895E+04  0.25500000920E-02 0.  1.
    10030    2    1    2    0    0  0.00000000000E+00  0.00000000000E+00 -0.19371290125E+04  0.30398089666E+04  0.23426416163E+04 0.  0.
        3    1    3    3  502    0  0.88760964830E+03  0.40523896770E+03 -0.12770153949E+03  0.98406158450E+03  0.10100000352E+00 0. -1.
       -3    1    3    3    0  502 -0.88760964830E+03 -0.40523896770E+03 -0.18094274730E+04  0.20557473821E+04  0.10100000352E+00 0.  1.
</event>
<event>
 5   0  0.6978115E-05  0.2435287E+04  0.7818609E-02  0.8426409E-01
       -2   -1    0    0    0  501  0.00000000000E+00  0.00000000000E+00  0.14178172717E+04  0.14178172717E+04  0.25500000920E-02 0.  1.
        2   -1    0    0  501    0  0.00000000000E+00  0.00000000000E+00 -0.10457315176E+04  0.10457315176E+04  0.25500000920E-02 0. -1.
    10030    2    1    2    0    0  0.00000000000E+00  0.00000000000E+00  0.37208575414E+03  0.24635487893E+04  0.24352874223E+04 0.  0.
        4    1    3    3  502    0 -0.81968545629E+03 -0.87189931971E+03 -0.41426393601E+02  0.11974182352E+04  0.12699999809E+01 0. -1.
       -4    1    3    3    0  502  0.81968545629E+03  0.87189931971E+03  0.41351214774E+03  0.12661305542E+04  0.12699999809E+01 0.  1.
</event>
<event>
 5   0  0.6337926E-05  0.2082816E+04  0.7818609E-02  0.8568851E-01
        2   -1    0    0  501    0  0.00000000000E+00  0.00000000000E+00  0.78634085067E+03  0.78634085067E+03  0.25500000920E-02 0.  1.
       -2   -1    0    0    0  501  0.00000000000E+00  0.00000000000E+00 -0.13792121305E+04  0.13792121305E+04  0.25500000920E-02 0. -1.
    10030    2    1    2    0    0  0.00000000000E+00  0.00000000000E+00 -0.59287127982E+03  0.21655529812E+04  0.20828162088E+04 0.  0.
        1    1    3    3  502    0  0.35811032860E+03  0.32123980940E+03  0.66388443434E+03  0.81986618711E+03  0.50400001928E-02 0.  1.
       -1    1    3    3    0  502 -0.35811032860E+03 -0.32123980940E+03 -0.12567557142E+04  0.13456867940E+04  0.50400001928E-02 0. -1.
</event>
<event>
 5   0  0.6714629E-05  0.2382612E+04  0.7818609E-02  0.8446042E-01
       -2   -1    0    0    0  501  0.00000000000E+00  0.00000000000E+00  0.82767653680E+03  0.82767653681E+03  0.25500000920E-02 0.  1.
        2   -1    0    0  501    0  0.00000000000E+00  0.00000000000E+00 -0.17146917960E+04  0.17146917960E+04  0.25500000920E-02 0. -1.
    10030    2    1    2    0    0  0.00000000000E+00  0.00000000000E+00 -0.88701525918E+03  0.25423683328E+04  0.23826121526E+04 0.  0.
        3    1    3    3  502    0  0.54802247824E+03  0.37205855478E+03 -0.15000787082E+04  0.16398147291E+04  0.10100000352E+00 0. -1.
       -3    1    3    3    0  502 -0.54802247824E+03 -0.37205855478E+03  0.61306344900E+03  0.90255360369E+03  0.10100000352E+00 0.  1.
</event>
<event>
 5   0  0.2847158E-05  0.2423114E+04  0.7818609E-02  0.8430900E-01
        1   -1    0    0  501    0  0.00000000000E+00  0.00000000000E+00  0.12903756100E+04  0.12903756101E+04  0.50400001928E-02 0. -1.
       -1   -1    0    0    0  501  0.00000000000E+00  0.00000000000E+00 -0.11375527558E+04  0.11375527558E+04  0.50400001928E-02 0.  1.
    10030    2    1    2    0    0  0.00000000000E+00  0.00000000000E+00  0.15282285428E+03  0.24279283658E+04  0.24231139727E+04 0.  0.
        5    1    3    3  502    0 -0.11840684240E+04 -0.21535436752E+03  0.21616149500E+03  0.12227605727E+04  0.46999998093E+01 0. -1.
       -5    1    3    3    0  502  0.11840684240E+04  0.21535436752E+03 -0.63338640724E+02  0.12051677931E+04  0.46999998093E+01 0.  1.
</event>
<event>
 5   0  0.2901816E-05  0.2313272E+04  0.7818609E-02  0.8472707E-01
        1   -1    0    0  501    0  0.00000000000E+00  0.00000000000E+00  0.12577039949E+04  0.12577039949E+04  0.50400001928E-02 0.  1.
       -1   -1    0    0    0  501  0.00000000000E+00  0.00000000000E+00 -0.10636895339E+04  0.10636895339E+04  0.50400001928E-02 0. -1.
    10030    2    1    2    0    0  0.00000000000E+00  0.00000000000E+00  0.19401446105E+03  0.23213935288E+04  0.23132717749E+04 0.  0.
        4    1    3    3  502    0 -0.94370101238E+03  0.12469034715E+02  0.76799361054E+03  0.12167756064E+04  0.12699999809E+01 0.  1.
       -4    1    3    3    0  502  0.94370101238E+03 -0.12469034715E+02 -0.57397914949E+03  0.11046179224E+04  0.12699999809E+01 0. -1.
</event>
<event>
 5   0  0.2847158E-05  0.2386826E+04  0.7818609E-02  0.8444452E-01
        1   -1    0    0  501    0  0.00000000000E+00  0.00000000000E+00  0.13533942041E+04  0.13533942041E+04  0.50400001928E-02 0. -1.
       -1   -1    0    0    0  501  0.00000000000E+00  0.00000000000E+00 -0.10523427470E+04  0.10523427470E+04  0.50400001928E-02 0.  1.
    10030    2    1    2    0    0  0.00000000000E+00  0.00000000000E+00  0.30105145712E+03  0.24057369511E+04  0.23868259882E+04 0.  0.
        5    1    3    3  502    0 -0.11354153710E+04 -0.26313921888E+03  0.40907748519E+03  0.12352233775E+04  0.46999998093E+01 0. -1.
       -5    1    3    3    0  502  0.11354153710E+04  0.26313921888E+03 -0.10802602807E+03  0.11705135736E+04  0.46999998093E+01 0.  1.
</event>
<event>
 5   0  0.2943123E-05  0.2351959E+04  0.7818609E-02  0.8457712E-01
        1   -1    0    0  501    0  0.00000000000E+00  0.00000000000E+00  0.17159376320E+04  0.17159376320E+04  0.50400001928E-02 0. -1.
       -1   -1    0    0    0  501  0.00000000000E+00  0.00000000000E+00 -0.80593138497E+03  0.80593138498E+03  0.50400001928E-02 0.  1.
    10030    2    1    2    0    0  0.00000000000E+00  0.00000000000E+00  0.91000624701E+03  0.25218690170E+04  0.23519591768E+04 0.  0.
        1    1    3    3  502    0  0.86930898205E+03 -0.43133857351E+03  0.11671984827E+04  0.15179273267E+04  0.50400001928E-02 0. -1.
       -1    1    3    3    0  502 -0.86930898205E+03  0.43133857351E+03 -0.25719223567E+03  0.10039416902E+04  0.50400001928E-02 0.  1.
</event>
<event>
 5   0  0.6978115E-05  0.2657950E+04  0.7818609E-02  0.8348779E-01
       -2   -1    0    0    0  501  0.00000000000E+00  0.00000000000E+00  0.59788372963E+03  0.59788372964E+03  0.25500000920E-02 0. -1.
        2   -1    0    0  501    0  0.00000000000E+00  0.00000000000E+00 -0.29540424672E+04  0.29540424672E+04  0.25500000920E-02 0.  1.
    10030    2    1    2    0    0  0.00000000000E+00  0.00000000000E+00 -0.23561587376E+04  0.35519261968E+04  0.26579495313E+04 0.  0.
        4    1    3    3  502    0  0.54510100917E+03 -0.83841791488E+03 -0.84242173585E+01  0.10000761424E+04  0.12699999809E+01 0. -1.
       -4    1    3    3    0  502 -0.54510100917E+03  0.83841791488E+03 -0.23477345202E+04  0.25518500545E+04  0.12699999809E+01 0.  1.
</event>
<event>
 5   0  0.6337926E-05  0.2392785E+04  0.7818609E-02  0.8442210E-01
        2   -1    0    0  501    0  0.00000000000E+00  0.00000000000E+00  0.18808946349E+04  0.18808946349E+04  0.25500000920E-02 0. -1.
       -2   -1    0    0    0  501  0.00000000000E+00  0.00000000000E+00 -0.76099664556E+03  0.76099664556E+03  0.25500000920E-02 0.  1.
    10030    2    1    2    0    0  0.00000000000E+00  0.00000000000E+00  0.11198979894E+04  0.26418912805E+04  0.23927845769E+04 0.  0.
        1    1    3    3  502    0 -0.67753048225E+03  0.98600489669E+03  0.54883654297E+03  0.13162350708E+04  0.50400001928E-02 0.  1.
       -1    1    3    3    0  502  0.67753048225E+03 -0.98600489669E+03  0.57106144639E+03  0.13256562097E+04  0.50400001928E-02 0. -1.
</event>
<event>
 5   0  0.6703961E-05  0.2358655E+04  0.7818609E-02  0.8455147E-01
       -2   -1    0    0    0  501  0.00000000000E+00  0.00000000000E+00  0.59168229518E+03  0.59168229519E+03  0.25500000920E-02 0.  1.
        2   -1    0    0  501    0  0.00000000000E+00  0.00000000000E+00 -0.23506074867E+04  0.23506074867E+04  0.25500000920E-02 0. -1.
    10030    2    1    2    0    0  0.00000000000E+00  0.00000000000E+00 -0.17589251915E+04  0.29422897819E+04  0.23586545595E+04 0.  0.
        2    1    3    3  502    0 -0.15041138749E+03 -0.49451370695E+02  0.57836351187E+03  0.59964437412E+03  0.25500000920E-02 0.  1.
       -2    1    3    3    0  502  0.15041138749E+03  0.49451370695E+02 -0.23372887034E+04  0.23426454077E+04  0.25500000920E-02 0. -1.
</event>
<event>
 5   0  0.2943244E-05  0.2380544E+04  0.7818609E-02  0.8446824E-01
        1   -1    0    0  501    0  0.00000000000E+00  0.00000000000E+00  0.13686687570E+04  0.13686687570E+04  0.50400001928E-02 0.  1.
       -1   -1    0    0    0  501  0.00000000000E+00  0.00000000000E+00 -0.10351280499E+04  0.10351280499E+04  0.50400001928E-02 0. -1.
    10030    2    1    2    0    0  0.00000000000E+00  0.00000000000E+00  0.33354070710E+03  0.24037968068E+04  0.23805439894E+04 0.  0.
        3    1    3    3  502    0  0.18235586733E+03  0.11732114022E+04  0.81873226347E+02  0.11901184361E+04  0.10100000352E+00 0. -1.
       -3    1    3    3    0  502 -0.18235586733E+03 -0.11732114022E+04  0.25166748075E+03  0.12136783707E+04  0.10100000352E+00 0.  1.
</event>
<event>
 5   0  0.6714629E-05  0.2400973E+04  0.7818609E-02  0.8439139E-01
        2   -1    0    0  501    0  0.00000000000E+00  0.00000000000E+00  0.12090423084E+04  0.12090423084E+04  0.25500000920E-02 0. -1.
       -2   -1    0    0    0  501  0.00000000000E+00  0.00000000000E+00 -0.11919910411E+04  0.11919910411E+04  0.25500000920E-02 0.  1.
    10030    2    1    2    0    0  0.00000000000E+00  0.00000000000E+00  0.17051267364E+02  0.24010333495E+04  0.24009728028E+04 0.  0.
        3    1    3    3  502    0 -0.35648548034E+03 -0.11456601128E+04  0.47878854797E+02  0.12007961470E+04  0.10100000352E+00 0.  1.
       -3    1    3    3    0  502  0.35648548034E+03  0.11456601128E+04 -0.30827587433E+02  0.12002372025E+04  0.10100000352E+00 0. -1.
</event>
<event>
 5   0  0.6600166E-05  0.2390308E+04  0.7818609E-02  0.8443141E-01
       -2   -1    0    0    0  501  0.00000000000E+00  0.00000000000E+00  0.10708833250E+04  0.10708833250E+04  0.25500000920E-02 0. -1.
        2   -1    0    0  501    0  0.00000000000E+00  0.00000000000E+00 -0.13338456937E+04  0.13338456937E+04  0.25500000920E-02 0.  1.
    10030    2    1    2    0    0  0.00000000000E+00  0.00000000000E+00 -0.26296236865E+03  0.24047290187E+04  0.23903080232E+04 0.  0.
        5    1    3    3  502    0 -0.49635580991E+03  0.69509224864E+03  0.70953403487E+03  0.11103976589E+04  0.46999998093E+01 0. -1.
       -5    1    3    3    0  502  0.49635580991E+03 -0.69509224864E+03 -0.97249640352E+03  0.12943313598E+04  0.46999998093E+01 0.  1.
</event>
<event>
 5   0  0.6337926E-05  0.1987153E+04  0.7818609E-02  0.8612651E-01
        2   -1    0    0  501    0  0.00000000000E+00  0.00000000000E+00  0.19001625639E+04  0.19001625639E+04  0.25500000920E-02 0.  1.
       -2   -1    0    0    0  501  0.00000000000E+00  0.00000000000E+00 -0.51953141573E+03  0.51953141574E+03  0.25500000920E-02 0. -1.
    10030    2    1    2    0    0  0.00000000000E+00  0.00000000000E+00  0.13806311482E+04  0.24196939797E+04  0.19871528849E+04 0.  0.
        1    1    3    3  502    0  0.56875874641E+03  0.76757302374E+03  0.10227620886E+04  0.13995346185E+04  0.50400001928E-02 0.  1.
       -1    1    3    3    0  502 -0.56875874641E+03 -0.76757302374E+03  0.35786905959E+03  0.10201593612E+04  0.50400001928E-02 0. -1.
</event>
<event>
 5   0  0.2943244E-05  0.2420417E+04  0.7818609E-02  0.8431899E-01
       -1   -1    0    0    0  501  0.00000000000E+00  0.00000000000E+00  0.10543217145E+04  0.10543217145E+04  0.50400001928E-02 0. -1.
        1   -1    0    0  501    0  0.00000000000E+00  0.00000000000E+00 -0.13891438247E+04  0.13891438247E+04  0.50400001928E-02 0.  1.
    10030    2    1    2    0    0  0.00000000000E+00  0.00000000000E+00 -0.33482211017E+03  0.24434655392E+04  0.24204169054E+04 0.  0.
        3    1    3    3  502    0  0.18298008109E+03 -0.94877306626E+03 -0.90301466929E+03  0.13225307348E+04  0.10100000352E+00 0.  1.
       -3    1    3    3    0  502 -0.18298008109E+03  0.94877306626E+03  0.56819255912E+03  0.11209348044E+04  0.10100000352E+00 0. -1.
</event>
<event>
 5   0  0.2901816E-05  0.2197560E+04  0.7818609E-02  0.8519444E-01
        1   -1    0    0  501    0  0.00000000000E+00  0.00000000000E+00  0.14442364587E+04  0.14442364587E+04  0.50400001928E-02 0. -1.
       -1   -1    0    0    0  501  0.00000000000E+00  0.00000000000E+00 -0.83595550355E+03  0.83595550356E+03  0.50400001928E-02 0.  1.
    10030    2    1    2    0    0  0.00000000000E+00  0.00000000000E+00  0.60828095513E+03  0.22801919622E+04  0.21975599342E+04 0.  0.
        4    1    3    3  502    0 -0.54123090674E+03 -0.64591072961E+03  0.10357668605E+04  0.13352700728E+04  0.12699999809E+01 0. -1.
       -4    1    3    3    0  502  0.54123090674E+03  0.64591072961E+03 -0.42748590536E+03  0.94492188948E+03  0.12699999809E+01 0.  1.
</event>
<event>
 5   0  0.2943244E-05  0.2336343E+04  0.7818609E-02  0.8463728E-01
        1   -1    0    0  501    0  0.00000000000E+00  0.00000000000E+00  0.25441860116E+04  0.25441860116E+04  0.50400001928E-02 0.  1.
       -1   -1    0    0    0  501  0.00000000000E+00  0.00000000000E+00 -0.53636973626E+03  0.53636973628E+03  0.50400001928E-02 0. -1.
    10030    2    1    2    0    0  0.00000000000E+00  0.00000000000E+00  0.20078162753E+04  0.30805557479E+04  0.23363427660E+04 0.  0.
        3    1    3    3  502    0 -0.75551856117E+03  0.15095156922E+02  0.21785084644E+04  0.23058480652E+04  0.10100000352E+00 0.  1.
       -3    1    3    3    0  502  0.75551856117E+03 -0.15095156922E+02 -0.17069218906E+03  0.77470768270E+03  0.10100000352E+00 0. -1.
</event>
<event>
 5   0  0.6978115E-05  0.2419098E+04  0.7818609E-02  0.8432388E-01
       -2   -1    0    0    0  501  0.00000000000E+00  0.00000000000E+00  0.10196178846E+04  0.10196178846E+04  0.25500000920E-02 0.  1.
        2   -1    0    0  501    0  0.00000000000E+00  0.00000000000E+00 -0.14348596848E+04  0.14348596848E+04  0.25500000920E-02 0. -1.
    10030    2    1    2    0    0  0.00000000000E+00  0.00000000000E+00 -0.41524180026E+03  0.24544775694E+04  0.24190978455E+04 0.  0.
        4    1    3    3  502    0  0.12741058081E+03 -0.38387071304E+02  0.10121678631E+04  0.10208782588E+04  0.12699999809E+01 0.  1.
       -4    1    3    3    0  502 -0.12741058081E+03  0.38387071304E+02 -0.14274096634E+04  0.14335993106E+04  0.12699999809E+01 0. -1.
</event>
<event>
 5   0  0.6600166E-05  0.2390591E+04  0.7818609E-02  0.8443034E-01
        2   -1    0    0  501    0  0.00000000000E+00  0.00000000000E+00  0.15716409523E+04  0.15716409523E+04  0.25500000920E-02 0. -1.
       -2   -1    0    0    0  501  0.00000000000E+00  0.00000000000E+00 -0.90906999610E+03  0.90906999611E+03  0.25500000920E-02 0.  1.
    10030    2    1    2    0    0  0.00000000000E+00  0.00000000000E+00  0.66257095620E+03  0.24807109484E+04  0.23905912527E+04 0.  0.
        5    1    3    3  502    0  0.64922213677E+03  0.47313151729E+03 -0.58716003840E+03  0.99504865018E+03  0.46999998093E+01 0.  1.
       -5    1    3    3    0  502 -0.64922213677E+03 -0.47313151729E+03  0.12497309946E+04  0.14856622982E+04  0.46999998093E+01 0. -1.
</event>
<event>
 5   0  0.6703961E-05  0.2419905E+04  0.7818609E-02  0.8432089E-01
        2   -1    0    0  501    0  0.00000000000E+00  0.00000000000E+00  0.19140125066E+04  0.19140125066E+04  0.25500000920E-02 0. -1.
       -2   -1    0    0    0  501  0.00000000000E+00  0.00000000000E+00 -0.76487758890E+03  0.76487758890E+03  0.25500000920E-02 0.  1.
    10030    2    1    2    0    0  0.00000000000E+00  0.00000000000E+00  0.11491349177E+04  0.26788900955E+04  0.24199051809E+04 0.  0.
        2    1    3    3  502    0 -0.69249835428E+03 -0.23772715657E+03  0.16409453591E+04  0.17968778042E+04  0.25500000920E-02 0. -1.
       -2    1    3    3    0  502  0.69249835428E+03  0.23772715657E+03 -0.49181044143E+03  0.88201229127E+03  0.25500000920E-02 0.  1.
</event>
<event>
 5   0  0.6714629E-05  0.2424676E+04  0.7818609E-02  0.8430323E-01
       -2   -1    0    0    0  501  0.00000000000E+00  0.00000000000E+00  0.14852016649E+04  0.14852016649E+04  0.25500000920E-02 0.  1.
        2   -1    0    0  501    0  0.00000000000E+00  0.00000000000E+00 -0.98960502418E+03  0.98960502418E+03  0.25500000920E-02 0. -1.
    10030    2    1    2    0    0  0.00000000000E+00  0.00000000000E+00  0.49559664076E+03  0.24748066891E+04  0.24246756728E+04 0.  0.
        3    1    3    3  502    0 -0.20721104649E+03 -0.36644404496E+03  0.14082058098E+04  0.14697827285E+04  0.10100000352E+00 0.  1.
       -3    1    3    3    0  502  0.20721104649E+03  0.36644404496E+03 -0.91260916905E+03  0.10050239607E+04  0.10100000352E+00 0. -1.
</event>
<event>
 5   0  0.6703961E-05  0.2350547E+04  0.7818609E-02  0.8458254E-01
       -2   -1    0    0    0  501  0.00000000000E+00  0.00000000000E+00  0.69721151447E+03  0.69721151448E+03  0.25500000920E-02 0. -1.
        2   -1    0    0  501    0  0.00000000000E+00  0.00000000000E+00 -0.19811308392E+04  0.19811308392E+04  0.25500000920E-02 0.  1.
    10030    2    1    2    0    0  0.00000000000E+00  0.00000000000E+00 -0.12839193247E+04  0.26783423537E+04  0.23505465175E+04 0.  0.
        2    1    3    3  502    0 -0.35177220885E+03 -0.60812907932E+03 -0.17155311703E+04  0.18538100928E+04  0.25500000920E-02 0.  1.
       -2    1    3    3    0  502  0.35177220885E+03  0.60812907932E+03  0.43161184553E+03  0.82453226088E+03  0.25500000920E-02 0. -1.
</event>
<event>
 5   0  0.6714629E-05  0.2364031E+04  0.7818609E-02  0.8453094E-01
        2   -1    0    0  501    0  0.00000000000E+00  0.00000000000E+00  0.17301800250E+04  0.17301800250E+04  0.25500000920E-02 0.  1.
       -2   -1    0    0    0  501  0.00000000000E+00  0.00000000000E+00 -0.80752301101E+03  0.80752301102E+03  0.25500000920E-02 0. -1.
    10030    2    1    2    0    0  0.00000000000E+00  0.00000000000E+00  0.92265701403E+03  0.25377030361E+04  0.23640306118E+04 0.  0.
        3    1    3    3  502    0  0.15269791464E+02  0.10543217623E+04 -0.11207906250E+03  0.10603722325E+04  0.10100000352E+00 0. -1.
       -3    1    3    3    0  502 -0.15269791464E+02 -0.10543217623E+04  0.10347360765E+04  0.14773308036E+04  0.10100000352E+00 0.  1.
</event>
<event>
 5   0  0.6714629E-05  0.2395154E+04  0.7818609E-02  0.8441320E-01
       -2   -1    0    0    0  501  0.00000000000E+00  0.00000000000E+00  0.13260053748E+04  0.13260053748E+04  0.25500000920E-02 0. -1.
        2   -1    0    0  501    0  0.00000000000E+00  0.00000000000E+00 -0.10815877825E+04  0.10815877825E+04  0.25500000920E-02 0.  1.
    10030    2    1    2    0    0  0.00000000000E+00  0.00000000000E+00  0.24441759232E+03  0.24075931573E+04  0.23951544526E+04 0.  0.
        3    1    3    3  502    0  0.82967957670E+01 -0.37120091504E+03  0.12666875589E+04  0.13199834613E+04  0.10100000352E+00 0. -1.
       -3    1    3    3    0  502 -0.82967957670E+01  0.37120091504E+03 -0.10222699665E+04  0.10876096960E+04  0.10100000352E+00 0.  1.
</event>
<event>
 5   0  0.6978115E-05  0.2015373E+04  0.7818609E-02  0.8599467E-01
        2   -1    0    0  501    0  0.00000000000E+00  0.00000000000E+00  0.20204371158E+04  0.20204371158E+04  0.25500000920E-02 0. -1.
       -2   -1    0    0    0  501  0.00000000000E+00  0.00000000000E+00 -0.50258062431E+03  0.50258062432E+03  0.25500000920E-02 0.  1.
    10030    2    1    2    0    0  0.00000000000E+00  0.00000000000E+00  0.15178564914E+04  0.25230177401E+04  0.20153734612E+04 0.  0.
        4    1    3    3  502    0  0.52317719758E+02  0.20695180381E+03  0.19918069595E+04  0.20032131114E+04  0.12699999809E+01 0. -1.
       -4    1    3    3    0  502 -0.52317719758E+02 -0.20695180381E+03 -0.47395046806E+03  0.51980462866E+03  0.12699999809E+01 0.  1.
</event>
<event>
 5   0  0.2943244E-05  0.2002754E+04  0.7818609E-02  0.8605334E-01
        1   -1    0    0  501    0  0.00000000000E+00  0.00000000000E+00  0.85615064059E+03  0.85615064061E+03  0.50400001928E-02 0.  1.
       -1   -1    0    0    0  501  0.00000000000E+00  0.00000000000E+00 -0.11712377324E+04  0.11712377324E+04  0.50400001928E-02 0. -1.
    10030    2    1    2    0    0  0.00000000000E+00  0.00000000000E+00 -0.31508709180E+03  0.20273883730E+04  0.20027540387E+04 0.  0.
        3    1    3    3  502    0 -0.73189898513E+02 -0.67496221694E+03 -0.90268533965E+03  0.11295005924E+04  0.10100000352E+00 0. -1.
       -3    1    3    3    0  502  0.73189898513E+02  0.67496221694E+03  0.58759824785E+03  0.89788778064E+03  0.10100000352E+00 0.  1.
</event>
<event>
 5   0  0.2915546E-05  0.2456919E+04  0.7818609E-02  0.8418496E-01
       -1   -1    0    0    0  501  0.00000000000E+00  0.00000000000E+00  0.94107079708E+03  0.94107079710E+03  0.50400001928E-02 0.  1.
        1   -1    0    0  501    0  0.00000000000E+00  0.00000000000E+00 -0.16036118675E+04  0.16036118675E+04  0.50400001928E-02 0. -1.
    10030    2    1    2    0    0  0.00000000000E+00  0.00000000000E+00 -0.66254107046E+03  0.25446826646E+04  0.24569186380E+04 0.  0.
        2    1    3    3  502    0 -0.13292963207E+03 -0.51008108926E+03  0.81798768080E+03  0.97311707962E+03  0.25500000920E-02 0.  1.
       -2    1    3    3    0  502  0.13292963207E+03  0.51008108926E+03 -0.14805287513E+04  0.15715655850E+04  0.25500000920E-02 0. -1.
</event>
<event>
 5   0  0.2915546E-05  0.2378273E+04  0.7818609E-02  0.8447683E-01
        1   -1    0    0  501    0  0.00000000000E+00  0.00000000000E+00  0.24223884161E+04  0.24223884161E+04  0.50400001928E-02 0.  1.
       -1   -1    0    0    0  501  0.00000000000E+00  0.00000000000E+00 -0.58374001826E+03  0.58374001828E+03  0.50400001928E-02 0. -1.
    10030    2    1    2    0    0  0.00000000000E+00  0.00000000000E+00  0.18386483979E+04  0.30061284344E+04  0.23782725313E+04 0.  0.
        2    1    3    3  502    0  0.12570157704E+03 -0.74400591855E+03 -0.24238384230E+03  0.79252483893E+03  0.25500000920E-02 0. -1.
       -2    1    3    3    0  502 -0.12570157704E+03  0.74400591855E+03  0.20810322402E+04  0.22136035955E+04  0.25500000920E-02 0.  1.
</event>
<event>
 5   0  0.2943244E-05  0.2367872E+04  0.7818609E-02  0.8451631E-01
       -1   -1    0    0    0  501  0.00000000000E+00  0.00000000000E+00  0.75749253421E+03  0.75749253423E+03  0.50400001928E-02 0.  1.
        1   -1    0    0  501    0  0.00000000000E+00  0.00000000000E+00 -0.18504535784E+04  0.18504535784E+04  0.50400001928E-02 0. -1.
    10030    2    1    2    0    0  0.00000000000E+00  0.00000000000E+00 -0.10929610441E+04  0.26079461126E+04  0.23678722690E+04 0.  0.
        3    1    3    3  502    0 -0.11758401347E+04  0.88887423027E+02 -0.42990098701E+03  0.12551158772E+04  0.10100000352E+00 0. -1.
       -3    1    3    3    0  502  0.11758401347E+04 -0.88887423027E+02 -0.66306005713E+03  0.13528302354E+04  0.10100000352E+00 0.  1.
</event>
<event>
 5   0  0.6337926E-05  0.2409835E+04  0.7818609E-02  0.8435831E-01
        2   -1    0    0  501    0  0.00000000000E+00  0.00000000000E+00  0.13726663490E+04  0.13726663490E+04  0.25500000920E-02 0. -1.
       -2   -1    0    0    0  501  0.00000000000E+00  0.00000000000E+00 -0.10576684749E+04  0.10576684749E+04  0.25500000920E-02 0.  1.
    10030    2    1    2    0    0  0.00000000000E+00  0.00000000000E+00  0.31499787410E+03  0.24303348239E+04  0.24098347859E+04 0.  0.
        1    1    3    3  502    0  0.34104567663E+03  0.98802956687E+03  0.76202399295E+03  0.12935204461E+04  0.50400001928E-02 0. -1.
       -1    1    3    3    0  502 -0.34104567663E+03 -0.98802956687E+03 -0.44702611885E+03  0.11368143778E+04  0.50400001928E-02 0.  1.
</event>
<event>
 5   0  0.2943244E-05  0.2424955E+04  0.7818609E-02  0.8430219E-01
       -1   -1    0    0    0  501  0.00000000000E+00  0.00000000000E+00  0.17776458566E+04  0.17776458566E+04  0.50400001928E-02 0. -1.
        1   -1    0    0  501    0  0.00000000000E+00  0.00000000000E+00 -0.82699379868E+03  0.82699379869E+03  0.50400001928E-02 0.  1.
    10030    2    1    2    0    0  0.00000000000E+00  0.00000000000E+00  0.95065205795E+03  0.26046396553E+04  0.24249553395E+04 0.  0.
        3    1    3    3  502    0  0.29694098502E+03  0.22681929778E+03  0.17142602994E+04  0.17545111361E+04  0.10100000352E+00 0. -1.
       -3    1    3    3    0  502 -0.29694098502E+03 -0.22681929778E+03 -0.76360824150E+03  0.85012851917E+03  0.10100000352E+00 0.  1.
</event>
<event>
 5   0  0.6714629E-05  0.1675213E+04  0.7818609E-02  0.8775629E-01
        2   -1    0    0  501    0  0.00000000000E+00  0.00000000000E+00  0.10270806210E+04  0.10270806210E+04  0.25500000920E-02 0.  1.
       -2   -1    0    0    0  501  0.00000000000E+00  0.00000000000E+00 -0.68308592340E+03  0.68308592341E+03  0.25500000920E-02 0. -1.
    10030    2    1    2    0    0  0.00000000000E+00  0.00000000000E+00  0.34399469761E+03  0.17101665444E+04  0.16752126007E+04 0.  0.
        3    1    3    3  502    0 -0.53783823948E+03  0.63900752782E+03  0.23643095357E+03  0.86804389202E+03  0.10100000352E+00 0.  1.
       -3    1    3    3    0  502  0.53783823948E+03 -0.63900752782E+03  0.10756374404E+03  0.84212265240E+03  0.10100000352E+00 0. -1.
</event>
<event>
 5   0  0.2943123E-05  0.2390538E+04  0.7818609E-02  0.8443054E-01
       -1   -1    0    0    0  501  0.00000000000E+00  0.00000000000E+00  0.87378294425E+03  0.87378294427E+03  0.50400001928E-02 0. -1.
        1   -1    0    0  501    0  0.00000000000E+00  0.00000000000E+00 -0.16350382905E+04  0.16350382905E+04  0.50400001928E-02 0.  1.
    10030    2    1    2    0    0  0.00000000000E+00  0.00000000000E+00 -0.76125534625E+03  0.25088212348E+04  0.23905384929E+04 0.  0.
        1    1    3    3  502    0  0.23658273181E+03  0.16694908122E+03 -0.15976733916E+04  0.16237006038E+04  0.50400001928E-02 0.  1.
       -1    1    3    3    0  502 -0.23658273181E+03 -0.16694908122E+03  0.83641804534E+03  0.88512063093E+03  0.50400001928E-02 0. -1.
</event>
<event>
 5   0  0.6978115E-05  0.2401750E+04  0.7818609E-02  0.8438849E-01
       -2   -1    0    0    0  501  0.00000000000E+00  0.00000000000E+00  0.28081082159E+04  0.28081082159E+04  0.25500000920E-02 0. -1.
        2   -1    0    0  501    0  0.00000000000E+00  0.00000000000E+00 -0.51354893073E+03  0.51354893073E+03  0.25500000920E-02 0.  1.
    10030    2    1    2    0    0  0.00000000000E+00  0.00000000000E+00  0.22945592852E+04  0.33216571466E+04  0.24017501716E+04 0.  0.
        4    1    3    3  502    0  0.53720810278E+03  0.78487245407E+03  0.21612119309E+04  0.23612403389E+04  0.12699999809E+01 0. -1.
       -4    1    3    3    0  502 -0.53720810278E+03 -0.78487245407E+03  0.13334735430E+03  0.96041680777E+03  0.12699999809E+01 0.  1.
</event>
<event>
 5   0  0.6978115E-05  0.2375251E+04  0.7818609E-02  0.8448828E-01
       -2   -1    0    0    0  501  0.00000000000E+00  0.00000000000E+00  0.90247569840E+03  0.90247569841E+03  0.25500000920E-02 0.  1.
        2   -1    0    0  501    0  0.00000000000E+00  0.00000000000E+00 -0.15628721624E+04  0.15628721624E+04  0.25500000920E-02 0. -1.
    10030    2    1    2    0    0  0.00000000000E+00  0.00000000000E+00 -0.66039646399E+03  0.24653478608E+04  0.23752508468E+04 0.  0.
        4    1    3    3  502    0 -0.80488541429E+03  0.42540902515E+03  0.46138310494E+03  0.10206318392E+04  0.12699999809E+01 0.  1.
       -4    1    3    3    0  502  0.80488541429E+03 -0.42540902515E+03 -0.11217795689E+04  0.14447160216E+04  0.12699999809E+01 0. -1.
</event>
<event>
 5   0  0.2847158E-05  0.1530310E+04  0.7818609E-02  0.8864543E-01
        1   -1    0    0  501    0  0.00000000000E+00  0.00000000000E+00  0.67542346549E+03  0.67542346551E+03  0.50400001928E-02 0.  1.
       -1   -1    0    0    0  501  0.00000000000E+00  0.00000000000E+00 -0.86680784803E+03  0.86680784804E+03  0.50400001928E-02 0. -1.
    10030    2    1    2    0    0  0.00000000000E+00  0.00000000000E+00 -0.19138438253E+03  0.15422313136E+04  0.15303102439E+04 0.  0.
        5    1    3    3  502    0 -0.12951179021E+03 -0.66522938599E+03 -0.45361633038E+03  0.81553252846E+03  0.46999998093E+01 0.  1.
       -5    1    3    3    0  502  0.12951179021E+03  0.66522938599E+03  0.26223194785E+03  0.72669878509E+03  0.46999998093E+01 0. -1.
</event>
<event>
 5   0  0.2943244E-05  0.2429273E+04  0.7818609E-02  0.8428625E-01
        1   -1    0    0  501    0  0.00000000000E+00  0.00000000000E+00  0.90174083250E+03  0.90174083251E+03  0.50400001928E-02 0. -1.
       -1   -1    0    0    0  501  0.00000000000E+00  0.00000000000E+00 -0.16361035201E+04  0.16361035201E+04  0.50400001928E-02 0.  1.
    10030    2    1    2    0    0  0.00000000000E+00  0.00000000000E+00 -0.73436268758E+03  0.25378443526E+04  0.24292726074E+04 0.  0.
        3    1    3    3  502    0 -0.69880772358E+03 -0.64279390966E+03 -0.11585493687E+04  0.14979161842E+04  0.10100000352E+00 0.  1.
       -3    1    3    3    0  502  0.69880772358E+03  0.64279390966E+03  0.42418668113E+03  0.10399281684E+04  0.10100000352E+00 0. -1.
</event>
<event>
 5   0  0.2915546E-05  0.1652942E+04  0.7818609E-02  0.8788668E-01
       -1   -1    0    0    0  501  0.00000000000E+00  0.00000000000E+00  0.43278988502E+03  0.43278988505E+03  0.50400001928E-02 0. -1.
        1   -1    0    0  501    0  0.00000000000E+00  0.00000000000E+00 -0.15782575955E+04  0.15782575955E+04  0.50400001928E-02 0.  1.
    10030    2    1    2    0    0  0.00000000000E+00  0.00000000000E+00 -0.11454677104E+04  0.20110474805E+04  0.16529415275E+04 0.  0.
        2    1    3    3  502    0  0.10341965754E+03  0.71717275038E+03 -0.89092996260E+02  0.73004790353E+03  0.25500000920E-02 0. -1.
       -2    1    3    3    0  502 -0.10341965754E+03 -0.71717275038E+03 -0.10563747142E+04  0.12809995770E+04  0.25500000920E-02 0.  1.
</event>
<event>
 5   0  0.6978115E-05  0.1705957E+04  0.7818609E-02  0.8757974E-01
        2   -1    0    0  501    0  0.00000000000E+00  0.00000000000E+00  0.10629263161E+04  0.10629263161E+04  0.25500000920E-02 0.  1.
       -2   -1    0    0    0  501  0.00000000000E+00  0.00000000000E+00 -0.68449897468E+03  0.68449897469E+03  0.25500000920E-02 0. -1.
    10030    2    1    2    0    0  0.00000000000E+00  0.00000000000E+00  0.37842734138E+03  0.17474252908E+04  0.17059565921E+04 0.  0.
        4    1    3    3  502    0 -0.32126404233E+03 -0.30553195371E+03  0.93563147648E+03  0.10353589872E+04  0.12699999809E+01 0.  1.
       -4    1    3    3    0  502  0.32126404233E+03  0.30553195371E+03 -0.55720413510E+03  0.71206630359E+03  0.12699999809E+01 0. -1.
</event>
<event>
 5   0  0.2943244E-05  0.1496232E+04  0.7818609E-02  0.8886963E-01
        1   -1    0    0  501    0  0.00000000000E+00  0.00000000000E+00  0.15095364290E+04  0.15095364290E+04  0.50400001928E-02 0. -1.
       -1   -1    0    0    0  501  0.00000000000E+00  0.00000000000E+00 -0.37076102205E+03  0.37076102208E+03  0.50400001928E-02 0.  1.
    10030    2    1    2    0    0  0.00000000000E+00  0.00000000000E+00  0.11387754069E+04  0.18802974511E+04  0.14962316255E+04 0.  0.
        3    1    3    3  502    0  0.59762072668E+03  0.19176047421E+02  0.43541045807E+01  0.59794416310E+03  0.10100000352E+00 0. -1.
       -3    1    3    3    0  502 -0.59762072668E+03 -0.19176047421E+02  0.11344213024E+04  0.12823532880E+04  0.10100000352E+00 0.  1.
</event>
<event>
 5   0  0.6703961E-05  0.2406537E+04  0.7818609E-02  0.8437060E-01
       -2   -1    0    0    0  501  0.00000000000E+00  0.00000000000E+00  0.10108225741E+04  0.10108225741E+04  0.25500000920E-02 0.  1.
        2   -1    0    0  501    0  0.00000000000E+00  0.00000000000E+00 -0.14323535781E+04  0.14323535781E+04  0.25500000920E-02 0. -1.
    10030    2    1    2    0    0  0.00000000000E+00  0.00000000000E+00 -0.42153100400E+03  0.24431761521E+04  0.24065372058E+04 0.  0.
        2    1    3    3  502    0  0.61959241897E+03  0.76962443369E+03 -0.90798088611E+03  0.13418814494E+04  0.25500000920E-02 0. -1.
       -2    1    3    3    0  502 -0.61959241897E+03 -0.76962443369E+03  0.48644988210E+03  0.11012947028E+04  0.25500000920E-02 0.  1.
</event>
<event>
 5   0  0.6978115E-05  0.2450034E+04  0.7818609E-02  0.8421006E-01
        2   -1    0    0  501    0  0.00000000000E+00  0.00000000000E+00  0.11880115042E+04  0.11880115042E+04  0.25500000920E-02 0. -1.
       -2   -1    0    0    0  501  0.00000000000E+00  0.00000000000E+00 -0.12631747399E+04  0.12631747399E+04  0.25500000920E-02 0.  1.
    10030    2    1    2    0    0  0.00000000000E+00  0.00000000000E+00 -0.75163235687E+02  0.24511862441E+04  0.24500335694E+04 0.  0.
        4    1    3    3  502    0 -0.10742399015E+04  0.56615875112E+03 -0.19932837071E+03  0.12305529285E+04  0.12699999809E+01 0. -1.
       -4    1    3    3    0  502  0.10742399015E+04 -0.56615875112E+03  0.12416513502E+03  0.12206333156E+04  0.12699999809E+01 0.  1.
</event>
<event>
 5   0  0.2847158E-05  0.2412963E+04  0.7818609E-02  0.8434666E-01
        1   -1    0    0  501    0  0.00000000000E+00  0.00000000000E+00  0.11055771457E+04  0.11055771457E+04  0.50400001928E-02 0.  1.
       -1   -1    0    0    0  501  0.00000000000E+00  0.00000000000E+00 -0.13165955907E+04  0.13165955907E+04  0.50400001928E-02 0. -1.
    10030    2    1    2    0    0  0.00000000000E+00  0.00000000000E+00 -0.21101844501E+03  0.24221727365E+04  0.24129633195E+04 0.  0.
        5    1    3    3  502    0 -0.69586403190E+03 -0.48503432018E+03  0.75572267171E+03  0.11360562879E+04  0.46999998093E+01 0.  1.
       -5    1    3    3    0  502  0.69586403190E+03  0.48503432018E+03 -0.96674111673E+03  0.12861164486E+04  0.46999998093E+01 0. -1.
</event>
<event>
 5   0  0.2339125E-05  0.2437969E+04  0.7818609E-02  0.8425424E-01
       -4   -1    0    0    0  501  0.00000000000E+00  0.00000000000E+00  0.14518242829E+04  0.14518248383E+04  0.12699999809E+01 0. -1.
        4   -1    0    0  501    0  0.00000000000E+00  0.00000000000E+00 -0.10234858617E+04  0.10234866496E+04  0.12699999809E+01 0.  1.
    10030    2    1    2    0    0  0.00000000000E+00  0.00000000000E+00  0.42833842116E+03  0.24753114880E+04  0.24379690645E+04 0.  0.
        5    1    3    3  502    0 -0.15463200808E+03  0.26422518064E+03  0.14121465765E+04  0.14449588394E+04  0.46999998093E+01 0. -1.
       -5    1    3    3    0  502  0.15463200808E+03 -0.26422518064E+03 -0.98380815533E+03  0.10303526486E+04  0.46999998093E+01 0.  1.
</event>
<event>
 5   0  0.6703961E-05  0.2153257E+04  0.7818609E-02  0.8538139E-01
       -2   -1    0    0    0  501  0.00000000000E+00  0.00000000000E+00  0.72958745641E+03  0.72958745642E+03  0.25500000920E-02 0. -1.
        2   -1    0    0  501    0  0.00000000000E+00  0.00000000000E+00 -0.15887453943E+04  0.15887453943E+04  0.25500000920E-02 0.  1.
    10030    2    1    2    0    0  0.00000000000E+00  0.00000000000E+00 -0.85915793788E+03  0.23183328507E+04  0.21532567995E+04 0.  0.
        2    1    3    3  502    0 -0.88782218998E+03 -0.14792174922E+03 -0.10656489304E+04  0.13948895038E+04  0.25500000920E-02 0.  1.
       -2    1    3    3    0  502  0.88782218998E+03  0.14792174922E+03  0.20649099255E+03  0.92344334690E+03  0.25500000920E-02 0. -1.
</event>
<event>
 5   0  0.6714629E-05  0.2373062E+04  0.7818609E-02  0.8449658E-01
        2   -1    0    0  501    0  0.00000000000E+00  0.00000000000E+00  0.13592854587E+04  0.13592854587E+04  0.25500000920E-02 0. -1.
       -2   -1    0    0    0  501  0.00000000000E+00  0.00000000000E+00 -0.10357320692E+04  0.10357320692E+04  0.25500000920E-02 0.  1.
    10030    2    1    2    0    0  0.00000000000E+00  0.00000000000E+00  0.32355338949E+03  0.23950175279E+04  0.23730617697E+04 0.  0.
        3    1    3    3  502    0  0.70379562737E+03 -0.22989435706E+01 -0.80232160214E+03  0.10672645097E+04  0.10100000352E+00 0.  1.
       -3    1    3    3    0  502 -0.70379562737E+03  0.22989435706E+01  0.11258749916E+04  0.13277530182E+04  0.10100000352E+00 0. -1.
</event>
<event>
 5   0  0.6600166E-05  0.2440841E+04  0.7818609E-02  0.8424369E-01
        2   -1    0    0  501    0  0.00000000000E+00  0.00000000000E+00  0.23602703797E+04  0.23602703797E+04  0.25500000920E-02 0.  1.
       -2   -1    0    0    0  501  0.00000000000E+00  0.00000000000E+00 -0.63104075612E+03  0.63104075613E+03  0.25500000920E-02 0. -1.
    10030    2    1    2    0    0  0.00000000000E+00  0.00000000000E+00  0.17292296236E+04  0.29913111358E+04  0.24408414984E+04 0.  0.
        5    1    3    3  502    0  0.95838287943E+03 -0.46523154669E+03  0.13497309506E+03  0.10738612396E+04  0.46999998093E+01 0. -1.
       -5    1    3    3    0  502 -0.95838287943E+03  0.46523154669E+03  0.15942565285E+04  0.19174498962E+04  0.46999998093E+01 0.  1.
</event>
<event>
 5   0  0.2915546E-05  0.2399911E+04  0.7818609E-02  0.8439537E-01
        1   -1    0    0  501    0  0.00000000000E+00  0.00000000000E+00  0.13226562747E+04  0.13226562747E+04  0.50400001928E-02 0. -1.
       -1   -1    0    0    0  501  0.00000000000E+00  0.00000000000E+00 -0.10886374208E+04  0.10886374209E+04  0.50400001928E-02 0.  1.
    10030    2    1    2    0    0  0.00000000000E+00  0.00000000000E+00  0.23401885389E+03  0.24112936956E+04  0.23999109280E+04 0.  0.
        2    1    3    3  502    0 -0.95069375827E+03  0.35283281618E+02 -0.61777966127E+03  0.11343347133E+04  0.25500000920E-02 0.  1.
       -2    1    3    3    0  502  0.95069375827E+03 -0.35283281618E+02  0.85179851516E+03  0.12769589823E+04  0.25500000920E-02 0. -1.
</event>
<event>
 5   0  0.6703961E-05  0.2338351E+04  0.7818609E-02  0.8462952E-01
       -2   -1    0    0    0  501  0.00000000000E+00  0.00000000000E+00  0.10922426368E+04  0.10922426368E+04  0.25500000920E-02 0.  1.
        2   -1    0    0  501    0  0.00000000000E+00  0.00000000000E+00 -0.12515267417E+04  0.12515267417E+04  0.25500000920E-02 0. -1.
    10030    2    1    2    0    0  0.00000000000E+00  0.00000000000E+00 -0.15928410489E+03  0.23437693786E+04  0.23383505883E+04 0.  0.
        2    1    3    3  502    0  0.50354327812E+03  0.84125310609E+03 -0.71807040896E+03  0.12152726993E+04  0.25500000920E-02 0. -1.
       -2    1    3    3    0  502 -0.50354327812E+03 -0.84125310609E+03  0.55878630407E+03  0.11284966792E+04  0.25500000920E-02 0.  1.
</event>
<event>
 5   0  0.2915546E-05  0.2379880E+04  0.7818609E-02  0.8447075E-01
        1   -1    0    0  501    0  0.00000000000E+00  0.00000000000E+00  0.15945863037E+04  0.15945863037E+04  0.50400001928E-02 0.  1.
       -1   -1    0    0    0  501  0.00000000000E+00  0.00000000000E+00 -0.88797803497E+03  0.88797803498E+03  0.50400001928E-02 0. -1.
    10030    2    1    2    0    0  0.00000000000E+00  0.00000000000E+00  0.70660826869E+03  0.24825643386E+04  0.23798803437E+04 0.  0.
        2    1    3    3  502    0  0.66500876854E+03 -0.27942845254E+03 -0.63391212275E+03  0.96029240427E+03  0.25500000920E-02 0. -1.
       -2    1    3    3    0  502 -0.66500876854E+03  0.27942845254E+03  0.13405203914E+04  0.15222719344E+04  0.25500000920E-02 0.  1.
</event>
<event>
 5   0  0.6600166E-05  0.2427662E+04  0.7818609E-02  0.8429219E-01
       -2   -1    0    0    0  501  0.00000000000E+00  0.00000000000E+00  0.10207757535E+04  0.10207757535E+04  0.25500000920E-02 0. -1.
        2   -1    0    0  501    0  0.00000000000E+00  0.00000000000E+00 -0.14433980804E+04  0.14433980804E+04  0.25500000920E-02 0.  1.
    10030    2    1    2    0    0  0.00000000000E+00  0.00000000000E+00 -0.42262232698E+03  0.24641738339E+04  0.24276620548E+04 0.  0.
        5    1    3    3  502    0  0.26079471890E+03  0.79336303651E+03  0.68280295020E+03  0.10787403543E+04  0.46999998093E+01 0. -1.
       -5    1    3    3    0  502 -0.26079471890E+03 -0.79336303651E+03 -0.11054252772E+04  0.13854334797E+04  0.46999998093E+01 0.  1.
</event>
<event>
 5   0  0.2943123E-05  0.2414219E+04  0.7818609E-02  0.8434199E-01
       -1   -1    0    0    0  501  0.00000000000E+00  0.00000000000E+00  0.12843005416E+04  0.12843005416E+04  0.50400001928E-02 0. -1.
        1   -1    0    0  501    0  0.00000000000E+00  0.00000000000E+00 -0.11345575455E+04  0.11345575455E+04  0.50400001928E-02 0.  1.
    10030    2    1    2    0    0  0.00000000000E+00  0.00000000000E+00  0.14974299610E+03  0.24188580871E+04  0.24142186066E+04 0.  0.
        1    1    3    3  502    0 -0.47812285017E+03 -0.75175656349E+03 -0.74117113633E+03  0.11589107144E+04  0.50400001928E-02 0.  1.
       -1    1    3    3    0  502  0.47812285017E+03  0.75175656349E+03  0.89091413243E+03  0.12599473727E+04  0.50400001928E-02 0. -1.
</event>
<event>
 5   0  0.2915546E-05  0.2393412E+04  0.7818609E-02  0.8441974E-01
        1   -1    0    0  501    0  0.00000000000E+00  0.00000000000E+00  0.17583665942E+04  0.17583665942E+04  0.50400001928E-02 0. -1.
       -1   -1    0    0    0  501  0.00000000000E+00  0.00000000000E+00 -0.81445212348E+03  0.81445212350E+03  0.50400001928E-02 0.  1.
    10030    2    1    2    0    0  0.00000000000E+00  0.00000000000E+00  0.94391447069E+03  0.25728187177E+04  0.23934121304E+04 0.  0.
        2    1    3    3  502    0 -0.56919322841E+03  0.35173625715E+03  0.15385013969E+04  0.16777025583E+04  0.25500000920E-02 0. -1.
       -2    1    3    3    0  502  0.56919322841E+03 -0.35173625715E+03 -0.59458692624E+03  0.89511615935E+03  0.25500000920E-02 0.  1.
</event>
<event>
 5   0  0.2943123E-05  0.2108821E+04  0.7818609E-02  0.8557368E-01
        1   -1    0    0  501    0  0.00000000000E+00  0.00000000000E+00  0.11858630618E+04  0.11858630618E+04  0.50400001928E-02 0. -1.
       -1   -1    0    0    0  501  0.00000000000E+00  0.00000000000E+00 -0.93752941376E+03  0.93752941377E+03  0.50400001928E-02 0.  1.
    10030    2    1    2    0    0  0.00000000000E+00  0.00000000000E+00  0.24833364805E+03  0.21233924756E+04  0.21088209987E+04 0.  0.
        1    1    3    3  502    0  0.99591420760E+03 -0.34334495285E+03  0.78569978212E+02  0.10563636244E+04  0.50400001928E-02 0.  1.
       -1    1    3    3    0  502 -0.99591420760E+03  0.34334495285E+03  0.16976366984E+03  0.10670288511E+04  0.50400001928E-02 0. -1.
</event>
<event>
 5   0  0.6600166E-05  0.2409708E+04  0.7818609E-02  0.8435878E-01
        2   -1    0    0  501    0  0.00000000000E+00  0.00000000000E+00  0.11817898907E+04  0.11817898907E+04  0.25500000920E-02 0. -1.
       -2   -1    0    0    0  501  0.00000000000E+00  0.00000000000E+00 -0.12283685637E+04  0.12283685637E+04  0.25500000920E-02 0.  1.
    10030    2    1    2    0    0  0.00000000000E+00  0.00000000000E+00 -0.46578672997E+02  0.24101584544E+04  0.24097083232E+04 0.  0.
        5    1    3    3  502    0 -0.13940392452E+03 -0.10035931110E+04 -0.67534583333E+03  0.12176808577E+04  0.46999998093E+01 0.  1.
       -5    1    3    3    0  502  0.13940392452E+03  0.10035931110E+04  0.62876716034E+03  0.11924775967E+04  0.46999998093E+01 0. -1.
</event>
<event>
 5   0  0.2847158E-05  0.2416729E+04  0.7818609E-02  0.8433267E-01
        1   -1    0    0  501    0  0.00000000000E+00  0.00000000000E+00  0.17996413821E+04  0.17996413821E+04  0.50400001928E-02 0.  1.
       -1   -1    0    0    0  501  0.00000000000E+00  0.00000000000E+00 -0.81135307909E+03  0.81135307910E+03  0.50400001928E-02 0. -1.
    10030    2    1    2    0    0  0.00000000000E+00  0.00000000000E+00  0.98828830301E+03  0.26109944612E+04  0.24167288442E+04 0.  0.
        5    1    3    3  502    0 -0.60655887232E+03  0.50187200956E+03 -0.49624030038E+03  0.93062651225E+03  0.46999998093E+01 0. -1.
       -5    1    3    3    0  502  0.60655887232E+03 -0.50187200956E+03  0.14845286034E+04  0.16803679490E+04  0.46999998093E+01 0.  1.
</event>
<event>
 5   0  0.2943244E-05  0.2392392E+04  0.7818609E-02  0.8442357E-01
       -1   -1    0    0    0  501  0.00000000000E+00  0.00000000000E+00  0.75208286641E+03  0.75208286642E+03  0.50400001928E-02 0. -1.
        1   -1    0    0  501    0  0.00000000000E+00  0.00000000000E+00 -0.19025623862E+04  0.19025623862E+04  0.50400001928E-02 0.  1.
    10030    2    1    2    0    0  0.00000000000E+00  0.00000000000E+00 -0.11504795198E+04  0.26546452526E+04  0.23923917513E+04 0.  0.
        3    1    3    3  502    0  0.80066883512E+02  0.11653222867E+04 -0.28910019181E+03  0.12033144514E+04  0.10100000352E+00 0.  1.
       -3    1    3    3    0  502 -0.80066883512E+02 -0.11653222867E+04 -0.86137932794E+03  0.14513308012E+04  0.10100000352E+00 0. -1.
</event>
<event>
 5   0  0.6337926E-05  0.2428726E+04  0.7818609E-02  0.8428827E-01
        2   -1    0    0  501    0  0.00000000000E+00  0.00000000000E+00  0.14644356228E+04  0.14644356228E+04  0.25500000920E-02 0. -1.
       -2   -1    0    0    0  501  0.00000000000E+00  0.00000000000E+00 -0.10069933526E+04  0.10069933526E+04  0.25500000920E-02 0.  1.
    10030    2    1    2    0    0  0.00000000000E+00  0.00000000000E+00  0.45744227016E+03  0.24714289754E+04  0.24287255403E+04 0.  0.
        1    1    3    3  502    0  0.23525405787E+03  0.13209474604E+03  0.14335507878E+04  0.14587190802E+04  0.50400001928E-02 0. -1.
       -1    1    3    3    0  502 -0.23525405787E+03 -0.13209474604E+03 -0.97610851764E+03  0.10127098952E+04  0.50400001928E-02 0.  1.
</event>
<event>
 5   0  0.2943123E-05  0.2440464E+04  0.7818609E-02  0.8424508E-01
       -1   -1    0    0    0  501  0.00000000000E+00  0.00000000000E+00  0.78073345284E+03  0.78073345286E+03  0.50400001928E-02 0. -1.
        1   -1    0    0  501    0  0.00000000000E+00  0.00000000000E+00 -0.19071377843E+04  0.19071377843E+04  0.50400001928E-02 0.  1.
    10030    2    1    2    0    0  0.00000000000E+00  0.00000000000E+00 -0.11264043314E+04  0.26878712371E+04  0.24404641094E+04 0.  0.
        1    1    3    3  502    0  0.11287575235E+04  0.28525154847E+03 -0.96562593121E+03  0.15125790663E+04  0.50400001928E-02 0.  1.
       -1    1    3    3    0  502 -0.11287575235E+04 -0.28525154847E+03 -0.16077840021E+03  0.11752921708E+04  0.50400001928E-02 0. -1.
</event>
<event>
 5   0  0.6714629E-05  0.2063572E+04  0.7818609E-02  0.8577462E-01
        2   -1    0    0  501    0  0.00000000000E+00  0.00000000000E+00  0.83315809503E+03  0.83315809503E+03  0.25500000920E-02 0. -1.
       -2   -1    0    0    0  501  0.00000000000E+00  0.00000000000E+00 -0.12777671800E+04  0.12777671800E+04  0.25500000920E-02 0.  1.
    10030    2    1    2    0    0  0.00000000000E+00  0.00000000000E+00 -0.44460908501E+03  0.21109252751E+04  0.20635717284E+04 0.  0.
        3    1    3    3  502    0  0.31159643292E+03 -0.92107385760E+03  0.13074225212E+03  0.98110291757E+03  0.10100000352E+00 0. -1.
       -3    1    3    3    0  502 -0.31159643292E+03  0.92107385760E+03 -0.57535133713E+03  0.11298223575E+04  0.10100000352E+00 0.  1.
</event>
<event>
 5   0  0.2943123E-05  0.2643115E+04  0.7818609E-02  0.8353702E-01
       -1   -1    0    0    0  501  0.00000000000E+00  0.00000000000E+00  0.86467885514E+03  0.86467885516E+03  0.50400001928E-02 0.  1.
        1   -1    0    0  501    0  0.00000000000E+00  0.00000000000E+00 -0.20198417731E+04  0.20198417731E+04  0.50400001928E-02 0. -1.
    10030    2    1    2    0    0  0.00000000000E+00  0.00000000000E+00 -0.11551629179E+04  0.28845206283E+04  0.26431151863E+04 0.  0.
        1    1    3    3  502    0 -0.11976456036E+04  0.36903196269E+03 -0.11977395068E+03  0.12589223092E+04  0.50400001928E-02 0.  1.
       -1    1    3    3    0  502  0.11976456036E+04 -0.36903196269E+03 -0.10353889673E+04  0.16255983190E+04  0.50400001928E-02 0. -1.
</event>
<event>
 5   0  0.2901816E-05  0.2359504E+04  0.7818609E-02  0.8454822E-01
       -1   -1    0    0    0  501  0.00000000000E+00  0.00000000000E+00  0.85112457204E+03  0.85112457205E+03  0.50400001928E-02 0. -1.
        1   -1    0    0  501    0  0.00000000000E+00  0.00000000000E+00 -0.16352649997E+04  0.16352649997E+04  0.50400001928E-02 0.  1.
    10030    2    1    2    0    0  0.00000000000E+00  0.00000000000E+00 -0.78414042762E+03  0.24863895717E+04  0.23595035266E+04 0.  0.
        4    1    3    3  502    0 -0.79002027858E+02 -0.10792121979E+04 -0.88731417996E+03  0.13993814188E+04  0.12699999809E+01 0.  1.
       -4    1    3    3    0  502  0.79002027858E+02  0.10792121979E+04  0.10317375234E+03  0.10870081529E+04  0.12699999809E+01 0. -1.
</event>
<event>
 5   0  0.6337926E-05  0.2421449E+04  0.7818609E-02  0.8431517E-01
       -2   -1    0    0    0  501  0.00000000000E+00  0.00000000000E+00  0.10658619158E+04  0.10658619158E+04  0.25500000920E-02 0.  1.
        2   -1    0    0  501    0  0.00000000000E+00  0.00000000000E+00 -0.13752760002E+04  0.13752760002E+04  0.25500000920E-02 0. -1.
    10030    2    1    2    0    0  0.00000000000E+00  0.00000000000E+00 -0.30941408443E+03  0.24411379161E+04  0.24214494109E+04 0.  0.
        1    1    3    3  502    0  0.96572364055E+03  0.58416410747E+03  0.28701589583E+03  0.11645806021E+04  0.50400001928E-02 0.  1.
       -1    1    3    3    0  502 -0.96572364055E+03 -0.58416410747E+03 -0.59642998026E+03  0.12765573139E+04  0.50400001928E-02 0. -1.
</event>
<event>
 5   0  0.2943123E-05  0.2380258E+04  0.7818609E-02  0.8446932E-01
       -1   -1    0    0    0  501  0.00000000000E+00  0.00000000000E+00  0.64403225384E+03  0.64403225386E+03  0.50400001928E-02 0. -1.
        1   -1    0    0  501    0  0.00000000000E+00  0.00000000000E+00 -0.21992790564E+04  0.21992790564E+04  0.50400001928E-02 0.  1.
    10030    2    1    2    0    0  0.00000000000E+00  0.00000000000E+00 -0.15552468026E+04  0.28433113103E+04  0.23802576731E+04 0.  0.
        1    1    3    3  502    0  0.15706089295E+03 -0.94750692197E+03 -0.16171807258E+04  0.18808803766E+04  0.50400001928E-02 0.  1.
       -1    1    3    3    0  502 -0.15706089295E+03  0.94750692197E+03  0.61933923179E+02  0.96243093370E+03  0.50400001928E-02 0. -1.
</event>
<event>
 5   0  0.2943123E-05  0.2404213E+04  0.7818609E-02  0.8437928E-01
       -1   -1    0    0    0  501  0.00000000000E+00  0.00000000000E+00  0.85309049418E+03  0.85309049420E+03  0.50400001928E-02 0. -1.
        1   -1    0    0  501    0  0.00000000000E+00  0.00000000000E+00 -0.16939119618E+04  0.16939119618E+04  0.50400001928E-02 0.  1.
    10030    2    1    2    0    0  0.00000000000E+00  0.00000000000E+00 -0.84082146763E+03  0.25470024560E+04  0.24042131292E+04 0.  0.
        1    1    3    3  502    0  0.99073885570E+03 -0.68592335295E+02 -0.11379806532E+04  0.15103868232E+04  0.50400001928E-02 0.  1.
       -1    1    3    3    0  502 -0.99073885570E+03  0.68592335295E+02  0.29715918554E+03  0.10366156328E+04  0.50400001928E-02 0. -1.
</event>
<event>
 5   0  0.6714629E-05  0.1914189E+04  0.7818609E-02  0.8647825E-01
        2   -1    0    0  501    0  0.00000000000E+00  0.00000000000E+00  0.13986784239E+04  0.13986784239E+04  0.25500000920E-02 0.  1.
       -2   -1    0    0    0  501  0.00000000000E+00  0.00000000000E+00 -0.65492556455E+03  0.65492556455E+03  0.25500000920E-02 0. -1.
    10030    2    1    2    0    0  0.00000000000E+00  0.00000000000E+00  0.74375285939E+03  0.20536039885E+04  0.19141893913E+04 0.  0.
        3    1    3    3  502    0  0.91411473450E+03  0.18636403404E+03  0.60120405305E+03  0.11098574794E+04  0.10100000352E+00 0.  1.
       -3    1    3    3    0  502 -0.91411473450E+03 -0.18636403404E+03  0.14254880634E+03  0.94374650908E+03  0.10100000352E+00 0. -1.
</event>
<event>
 5   0  0.6600166E-05  0.2400999E+04  0.7818609E-02  0.8439130E-01
       -2   -1    0    0    0  501  0.00000000000E+00  0.00000000000E+00  0.98968966718E+03  0.98968966718E+03  0.25500000920E-02 0. -1.
        2   -1    0    0  501    0  0.00000000000E+00  0.00000000000E+00 -0.14562127176E+04  0.14562127176E+04  0.25500000920E-02 0.  1.
    10030    2    1    2    0    0  0.00000000000E+00  0.00000000000E+00 -0.46652305038E+03  0.24459023847E+04  0.24009986920E+04 0.  0.
        5    1    3    3  502    0  0.88105994977E+03  0.24151660536E+03  0.56013652214E+03  0.10716211640E+04  0.46999998093E+01 0. -1.
       -5    1    3    3    0  502 -0.88105994977E+03 -0.24151660536E+03 -0.10266595725E+04  0.13742812207E+04  0.46999998093E+01 0.  1.
</event>
<event>
 5   0  0.6703961E-05  0.1526200E+04  0.7818609E-02  0.8867215E-01
        2   -1    0    0  501    0  0.00000000000E+00  0.00000000000E+00  0.10934181691E+04  0.10934181691E+04  0.25500000920E-02 0.  1.
       -2   -1    0    0    0  501  0.00000000000E+00  0.00000000000E+00 -0.53256957706E+03  0.53256957706E+03  0.25500000920E-02 0. -1.
    10030    2    1    2    0    0  0.00000000000E+00  0.00000000000E+00  0.56084859204E+03  0.16259877462E+04  0.15261995307E+04 0.  0.
        2    1    3    3  502    0 -0.49782269691E+03  0.17152782444E+03  0.86887100909E+03  0.10159655814E+04  0.25500000920E-02 0.  1.
       -2    1    3    3    0  502  0.49782269691E+03 -0.17152782444E+03 -0.30802241705E+03  0.61002216478E+03  0.25500000920E-02 0. -1.
</event>
<event>
 5   0  0.6703961E-05  0.2337503E+04  0.7818609E-02  0.8463279E-01
       -2   -1    0    0    0  501  0.00000000000E+00  0.00000000000E+00  0.90956979100E+03  0.90956979100E+03  0.25500000920E-02 0.  1.
        2   -1    0    0  501    0  0.00000000000E+00  0.00000000000E+00 -0.15017868405E+04  0.15017868405E+04  0.25500000920E-02 0. -1.
    10030    2    1    2    0    0  0.00000000000E+00  0.00000000000E+00 -0.59221704951E+03  0.24113566315E+04  0.23375028921E+04 0.  0.
        2    1    3    3  502    0  0.19405278467E+03 -0.10846643105E+04  0.10585208671E+03  0.11069588131E+04  0.25500000920E-02 0.  1.
       -2    1    3    3    0  502 -0.19405278467E+03  0.10846643105E+04 -0.69806913622E+03  0.13043978184E+04  0.25500000920E-02 0. -1.
</event>
<event>
 5   0  0.6714629E-05  0.1901586E+04  0.7818609E-02  0.8654067E-01
       -2   -1    0    0    0  501  0.00000000000E+00  0.00000000000E+00  0.45049153454E+03  0.45049153455E+03  0.25500000920E-02 0. -1.
        2   -1    0    0  501    0  0.00000000000E+00  0.00000000000E+00 -0.20067136476E+04  0.20067136476E+04  0.25500000920E-02 0.  1.
    10030    2    1    2    0    0  0.00000000000E+00  0.00000000000E+00 -0.15562221130E+04  0.24572051821E+04  0.19015861910E+04 0.  0.
        3    1    3    3  502    0  0.68437534431E+03  0.19499392412E+03  0.36700027850E+02  0.71255816927E+03  0.10100000352E+00 0. -1.
       -3    1    3    3    0  502 -0.68437534431E+03 -0.19499392412E+03 -0.15929221409E+04  0.17446470129E+04  0.10100000352E+00 0.  1.
</event>
<event>
 5   0  0.2915546E-05  0.2353309E+04  0.7818609E-02  0.8457194E-01
        1   -1    0    0  501    0  0.00000000000E+00  0.00000000000E+00  0.16335117113E+04  0.16335117113E+04  0.50400001928E-02 0.  1.
       -1   -1    0    0    0  501  0.00000000000E+00  0.00000000000E+00 -0.84756982118E+03  0.84756982119E+03  0.50400001928E-02 0. -1.
    10030    2    1    2    0    0  0.00000000000E+00  0.00000000000E+00  0.78594189016E+03  0.24810815325E+04  0.23533085043E+04 0.  0.
        2    1    3    3  502    0 -0.33304073258E+03  0.11284190543E+04  0.37566195670E+03  0.12350577304E+04  0.25500000920E-02 0. -1.
       -2    1    3    3    0  502  0.33304073258E+03 -0.11284190543E+04  0.41027993346E+03  0.12460238021E+04  0.25500000920E-02 0.  1.
</event>
<event>
 5   0  0.6337926E-05  0.2388481E+04  0.7818609E-02  0.8443829E-01
       -2   -1    0    0    0  501  0.00000000000E+00  0.00000000000E+00  0.11144498734E+04  0.11144498734E+04  0.25500000920E-02 0. -1.
        2   -1    0    0  501    0  0.00000000000E+00  0.00000000000E+00 -0.12797439033E+04  0.12797439033E+04  0.25500000920E-02 0.  1.
    10030    2    1    2    0    0  0.00000000000E+00  0.00000000000E+00 -0.16529402987E+03  0.23941937768E+04  0.23884810496E+04 0.  0.
        1    1    3    3  502    0 -0.38942771857E+03  0.95704852993E+03 -0.68292370292E+03  0.12385397130E+04  0.50400001928E-02 0.  1.
       -1    1    3    3    0  502  0.38942771857E+03 -0.95704852993E+03  0.51762967305E+03  0.11556540638E+04  0.50400001928E-02 0. -1.
</event>
<event>
 5   0  0.2943244E-05  0.2413643E+04  0.7818609E-02  0.8434413E-01
        1   -1    0    0  501    0  0.00000000000E+00  0.00000000000E+00  0.15778212750E+04  0.15778212750E+04  0.50400001928E-02 0.  1.
       -1   -1    0    0    0  501  0.00000000000E+00  0.00000000000E+00 -0.92305671388E+03  0.92305671389E+03  0.50400001928E-02 0. -1.
    10030    2    1    2    0    0  0.00000000000E+00  0.00000000000E+00  0.65476456115E+03  0.25008779889E+04  0.24136433218E+04 0.  0.
        3    1    3    3  502    0  0.53262470417E+03  0.88975283708E+03 -0.31223679439E+03  0.10829778449E+04  0.10100000352E+00 0. -1.
       -3    1    3    3    0  502 -0.53262470417E+03 -0.88975283708E+03  0.96700135554E+03  0.14179001440E+04  0.10100000352E+00 0.  1.
</event>
<event>
 5   0  0.2943244E-05  0.1570576E+04  0.7818609E-02  0.8838831E-01
       -1   -1    0    0    0  501  0.00000000000E+00  0.00000000000E+00  0.53124373781E+03  0.53124373784E+03  0.50400001928E-02 0. -1.
        1   -1    0    0  501    0  0.00000000000E+00  0.00000000000E+00 -0.11608172258E+04  0.11608172259E+04  0.50400001928E-02 0.  1.
    10030    2    1    2    0    0  0.00000000000E+00  0.00000000000E+00 -0.62957348804E+03  0.16920609637E+04  0.15705755404E+04 0.  0.
        3    1    3    3  502    0  0.13254019497E+03  0.13338848976E+03  0.50663059794E+03  0.54040167047E+03  0.10100000352E+00 0. -1.
       -3    1    3    3    0  502 -0.13254019497E+03 -0.13338848976E+03 -0.11362040860E+04  0.11516592932E+04  0.10100000352E+00 0.  1.
</event>
<event>
 5   0  0.2901816E-05  0.2390649E+04  0.7818609E-02  0.8443013E-01
        1   -1    0    0  501    0  0.00000000000E+00  0.00000000000E+00  0.11157859058E+04  0.11157859058E+04  0.50400001928E-02 0. -1.
       -1   -1    0    0    0  501  0.00000000000E+00  0.00000000000E+00 -0.12805333549E+04  0.12805333549E+04  0.50400001928E-02 0.  1.
    10030    2    1    2    0    0  0.00000000000E+00  0.00000000000E+00 -0.16474744910E+03  0.23963192608E+04  0.23906493423E+04 0.  0.
        4    1    3    3  502    0 -0.53883965863E+03 -0.92764390636E+03  0.44606544195E+03  0.11618293274E+04  0.12699999809E+01 0. -1.
       -4    1    3    3    0  502  0.53883965863E+03  0.92764390636E+03 -0.61081289106E+03  0.12344899333E+04  0.12699999809E+01 0.  1.
</event>
<event>
 5   0  0.6978115E-05  0.2375854E+04  0.7818609E-02  0.8448599E-01
       -2   -1    0    0    0  501  0.00000000000E+00  0.00000000000E+00  0.10937352239E+04  0.10937352239E+04  0.25500000920E-02 0.  1.
        2   -1    0    0  501    0  0.00000000000E+00  0.00000000000E+00 -0.12902307865E+04  0.12902307865E+04  0.25500000920E-02 0. -1.
    10030    2    1    2    0    0  0.00000000000E+00  0.00000000000E+00 -0.19649556256E+03  0.23839660104E+04  0.23758542532E+04 0.  0.
        4    1    3    3  502    0 -0.86546612372E+03  0.95428666466E+02 -0.90911018418E+03  0.12588173742E+04  0.12699999809E+01 0. -1.
       -4    1    3    3    0  502  0.86546612372E+03 -0.95428666466E+02  0.71261462163E+03  0.11251486362E+04  0.12699999809E+01 0.  1.
</event>
<event>
 5   0  0.2943244E-05  0.1476378E+04  0.7818609E-02  0.8900315E-01
        1   -1    0    0  501    0  0.00000000000E+00  0.00000000000E+00  0.66141044199E+03  0.66141044201E+03  0.50400001928E-02 0. -1.
       -1   -1    0    0    0  501  0.00000000000E+00  0.00000000000E+00 -0.82388046434E+03  0.82388046436E+03  0.50400001928E-02 0.  1.
    10030    2    1    2    0    0  0.00000000000E+00  0.00000000000E+00 -0.16247002235E+03  0.14852909064E+04  0.14763781929E+04 0.  0.
        3    1    3    3  502    0 -0.27106211354E+03 -0.21774168877E+03  0.57387733922E+03  0.67098533747E+03  0.10100000352E+00 0. -1.
       -3    1    3    3    0  502  0.27106211354E+03  0.21774168877E+03 -0.73634736158E+03  0.81430556889E+03  0.10100000352E+00 0.  1.
</event>
<event>
 5   0  0.6600166E-05  0.2452116E+04  0.7818609E-02  0.8420246E-01
       -2   -1    0    0    0  501  0.00000000000E+00  0.00000000000E+00  0.67900027367E+03  0.67900027367E+03  0.25500000920E-02 0.  1.
        2   -1    0    0  501    0  0.00000000000E+00  0.00000000000E+00 -0.22138691370E+04  0.22138691370E+04  0.25500000920E-02 0. -1.
    10030    2    1    2    0    0  0.00000000000E+00  0.00000000000E+00 -0.15348688634E+04  0.28928694107E+04  0.24521156171E+04 0.  0.
        5    1    3    3  502    0  0.88173722412E+03  0.35437996058E+03 -0.16813746325E+04  0.19313436860E+04  0.46999998093E+01 0. -1.
       -5    1    3    3    0  502 -0.88173722412E+03 -0.35437996058E+03  0.14650576910E+03  0.96152572468E+03  0.46999998093E+01 0.  1.
</event>
<event>
 5   0  0.2943244E-05  0.2386290E+04  0.7818609E-02  0.8444654E-01
        1   -1    0    0  501    0  0.00000000000E+00  0.00000000000E+00  0.18549826514E+04  0.18549826514E+04  0.50400001928E-02 0.  1.
       -1   -1    0    0    0  501  0.00000000000E+00  0.00000000000E+00 -0.76744379001E+03  0.76744379002E+03  0.50400001928E-02 0. -1.
    10030    2    1    2    0    0  0.00000000000E+00  0.00000000000E+00  0.10875388614E+04  0.26224264414E+04  0.23862899375E+04 0.  0.
        3    1    3    3  502    0  0.40833153493E+02  0.54924286504E+03  0.17069295087E+04  0.17935839621E+04  0.10100000352E+00 0.  1.
       -3    1    3    3    0  502 -0.40833153493E+02 -0.54924286504E+03 -0.61939064736E+03  0.82884247928E+03  0.10100000352E+00 0. -1.
</event>
<event>
 5   0  0.6337926E-05  0.2330815E+04  0.7818609E-02  0.8465870E-01
       -2   -1    0    0    0  501  0.00000000000E+00  0.00000000000E+00  0.81849524630E+03  0.81849524630E+03  0.25500000920E-02 0.  1.
        2   -1    0    0  501    0  0.00000000000E+00  0.00000000000E+00 -0.16593549481E+04  0.16593549481E+04  0.25500000920E-02 0. -1.
    10030    2    1    2    0    0  0.00000000000E+00  0.00000000000E+00 -0.84085970181E+03  0.24778501944E+04  0.23308145674E+04 0.  0.
        1    1    3    3  502    0 -0.50364377762E+03 -0.63899904788E+03 -0.13074500091E+04  0.15399358312E+04  0.50400001928E-02 0. -1.
       -1    1    3    3    0  502  0.50364377762E+03  0.63899904788E+03  0.46659030724E+03  0.93791436324E+03  0.50400001928E-02 0.  1.
</event>
<event>
 5   0  0.2943244E-05  0.2287444E+04  0.7818609E-02  0.8482888E-01
       -1   -1    0    0    0  501  0.00000000000E+00  0.00000000000E+00  0.13375490621E+04  0.13375490621E+04  0.50400001928E-02 0. -1.
        1   -1    0    0  501    0  0.00000000000E+00  0.00000000000E+00 -0.97798308727E+03  0.97798308729E+03  0.50400001928E-02 0.  1.
    10030    2    1    2    0    0  0.00000000000E+00  0.00000000000E+00  0.35956597482E+03  0.23155321494E+04  0.22874443042E+04 0.  0.
        3    1    3    3  502    0  0.18998978777E+03  0.76768344584E+03  0.10161647175E+04  0.12876430933E+04  0.10100000352E+00 0. -1.
       -3    1    3    3    0  502 -0.18998978777E+03 -0.76768344584E+03 -0.65659874269E+03  0.10278890561E+04  0.10100000352E+00 0.  1.
</event>
<event>
 5   0  0.6600166E-05  0.2416527E+04  0.7818609E-02  0.8433342E-01
        2   -1    0    0  501    0  0.00000000000E+00  0.00000000000E+00  0.94021709769E+03  0.94021709769E+03  0.25500000920E-02 0.  1.
       -2   -1    0    0    0  501  0.00000000000E+00  0.00000000000E+00 -0.15527273968E+04  0.15527273968E+04  0.25500000920E-02 0. -1.
    10030    2    1    2    0    0  0.00000000000E+00  0.00000000000E+00 -0.61251029912E+03  0.24929444945E+04  0.24165271333E+04 0.  0.
        5    1    3    3  502    0 -0.29042422624E+03  0.95642708357E+03  0.39401825039E+03  0.10744168041E+04  0.46999998093E+01 0.  1.
       -5    1    3    3    0  502  0.29042422624E+03 -0.95642708357E+03 -0.10065285495E+04  0.14185276904E+04  0.46999998093E+01 0. -1.
</event>
<event>
 5   0  0.6714629E-05  0.2422023E+04  0.7818609E-02  0.8431304E-01
       -2   -1    0    0    0  501  0.00000000000E+00  0.00000000000E+00  0.75257736704E+03  0.75257736705E+03  0.25500000920E-02 0. -1.
        2   -1    0    0  501    0  0.00000000000E+00  0.00000000000E+00 -0.19487013782E+04  0.19487013782E+04  0.25500000920E-02 0.  1.
    10030    2    1    2    0    0  0.00000000000E+00  0.00000000000E+00 -0.11961240111E+04  0.27012787452E+04  0.24220227516E+04 0.  0.
        3    1    3    3  502    0 -0.15424621710E+03  0.45939476557E+03 -0.18358491347E+04  0.18987304974E+04  0.10100000352E+00 0.  1.
       -3    1    3    3    0  502  0.15424621710E+03 -0.45939476557E+03  0.63972512359E+03  0.80254824782E+03  0.10100000352E+00 0. -1.
</event>
<event>
 5   0  0.6714629E-05  0.2418563E+04  0.7818609E-02  0.8432586E-01
        2   -1    0    0  501    0  0.00000000000E+00  0.00000000000E+00  0.20413150489E+04  0.20413150489E+04  0.25500000920E-02 0.  1.
       -2   -1    0    0    0  501  0.00000000000E+00  0.00000000000E+00 -0.71638241834E+03  0.71638241834E+03  0.25500000920E-02 0. -1.
    10030    2    1    2    0    0  0.00000000000E+00  0.00000000000E+00  0.13249326306E+04  0.27576974673E+04  0.24185633846E+04 0.  0.
        3    1    3    3  502    0 -0.60118467736E+02 -0.22329578645E+03  0.20158695862E+04  0.20290898051E+04  0.10100000352E+00 0.  1.
       -3    1    3    3    0  502  0.60118467736E+02  0.22329578645E+03 -0.69093695566E+03  0.72860766212E+03  0.10100000352E+00 0. -1.
</event>
<event>
 5   0  0.2943123E-05  0.2404794E+04  0.7818609E-02  0.8437711E-01
       -1   -1    0    0    0  501  0.00000000000E+00  0.00000000000E+00  0.12677196768E+04  0.12677196768E+04  0.50400001928E-02 0.  1.
        1   -1    0    0  501    0  0.00000000000E+00  0.00000000000E+00 -0.11404405397E+04  0.11404405397E+04  0.50400001928E-02 0. -1.
    10030    2    1    2    0    0  0.00000000000E+00  0.00000000000E+00  0.12727913712E+03  0.24081602165E+04  0.24047943051E+04 0.  0.
        1    1    3    3  502    0 -0.43687184042E+03 -0.61392937761E+03 -0.87468454472E+03  0.11544866125E+04  0.50400001928E-02 0. -1.
       -1    1    3    3    0  502  0.43687184042E+03  0.61392937761E+03  0.10019636818E+04  0.12536736040E+04  0.50400001928E-02 0.  1.
</event>
<event>
 5   0  0.2901816E-05  0.2087311E+04  0.7818609E-02  0.8566854E-01
        1   -1    0    0  501    0  0.00000000000E+00  0.00000000000E+00  0.89097480704E+03  0.89097480705E+03  0.50400001928E-02 0. -1.
       -1   -1    0    0    0  501  0.00000000000E+00  0.00000000000E+00 -0.12224998666E+04  0.12224998666E+04  0.50400001928E-02 0.  1.
    10030    2    1    2    0    0  0.00000000000E+00  0.00000000000E+00 -0.33152505957E+03  0.21134746737E+04  0.20873107893E+04 0.  0.
        4    1    3    3  502    0 -0.28405853590E+03  0.84897365458E+03  0.37740309216E+03  0.97153498385E+03  0.12699999809E+01 0. -1.
       -4    1    3    3    0  502  0.28405853590E+03 -0.84897365458E+03 -0.70892815173E+03  0.11419396898E+04  0.12699999809E+01 0.  1.
</event>
<event>
 5   0  0.2943123E-05  0.2275603E+04  0.7818609E-02  0.8487603E-01
       -1   -1    0    0    0  501  0.00000000000E+00  0.00000000000E+00  0.10015383851E+04  0.10015383851E+04  0.50400001928E-02 0. -1.
        1   -1    0    0  501    0  0.00000000000E+00  0.00000000000E+00 -0.12926035640E+04  0.12926035640E+04  0.50400001928E-02 0.  1.
    10030    2    1    2    0    0  0.00000000000E+00  0.00000000000E+00 -0.29106517884E+03  0.22941419491E+04  0.22756028530E+04 0.  0.
        1    1    3    3  502    0 -0.44378815824E+03 -0.49834676888E+03 -0.10746123770E+04  0.12649463199E+04  0.50400001928E-02 0.  1.
       -1    1    3    3    0  502  0.44378815824E+03  0.49834676888E+03  0.78354719815E+03  0.10291956292E+04  0.50400001928E-02 0. -1.
</event>
<event>
 5   0  0.2847158E-05  0.2403125E+04  0.7818609E-02  0.8438335E-01
        1   -1    0    0  501    0  0.00000000000E+00  0.00000000000E+00  0.22171593919E+04  0.22171593919E+04  0.50400001928E-02 0. -1.
       -1   -1    0    0    0  501  0.00000000000E+00  0.00000000000E+00 -0.65117198739E+03  0.65117198741E+03  0.50400001928E-02 0.  1.
    10030    2    1    2    0    0  0.00000000000E+00  0.00000000000E+00  0.15659874045E+04  0.28683313793E+04  0.24031247055E+04 0.  0.
        5    1    3    3  502    0 -0.69241573967E+03 -0.42180090889E+03 -0.27544986720E+03  0.85630034603E+03  0.46999998093E+01 0.  1.
       -5    1    3    3    0  502  0.69241573967E+03  0.42180090889E+03  0.18414372717E+04  0.20120310333E+04  0.46999998093E+01 0. -1.
</event>
<event>
 5   0  0.2943244E-05  0.2173394E+04  0.7818609E-02  0.8529585E-01
        1   -1    0    0  501    0  0.00000000000E+00  0.00000000000E+00  0.61001853751E+03  0.61001853753E+03  0.50400001928E-02 0. -1.
       -1   -1    0    0    0  501  0.00000000000E+00  0.00000000000E+00 -0.19358592972E+04  0.19358592972E+04  0.50400001928E-02 0.  1.
    10030    2    1    2    0    0  0.00000000000E+00  0.00000000000E+00 -0.13258407597E+04  0.25458778347E+04  0.21733937125E+04 0.  0.
        3    1    3    3  502    0  0.43755693224E+03  0.38130181451E+02 -0.18272545439E+04  0.18793001777E+04  0.10100000352E+00 0.  1.
       -3    1    3    3    0  502 -0.43755693224E+03 -0.38130181451E+02  0.50141378417E+03  0.66657765703E+03  0.10100000352E+00 0. -1.
</event>
<event>
 5   0  0.2901816E-05  0.2359063E+04  0.7818609E-02  0.8454991E-01
        1   -1    0    0  501    0  0.00000000000E+00  0.00000000000E+00  0.12615207409E+04  0.12615207409E+04  0.50400001928E-02 0.  1.
       -1   -1    0    0    0  501  0.00000000000E+00  0.00000000000E+00 -0.11028708815E+04  0.11028708815E+04  0.50400001928E-02 0. -1.
    10030    2    1    2    0    0  0.00000000000E+00  0.00000000000E+00  0.15864985940E+03  0.23643916224E+04  0.23590629424E+04 0.  0.
        4    1    3    3  502    0  0.22833893284E+03  0.82596424532E+03  0.89167240676E+03  0.12367040457E+04  0.12699999809E+01 0.  1.
       -4    1    3    3    0  502 -0.22833893284E+03 -0.82596424532E+03 -0.73302254736E+03  0.11276875767E+04  0.12699999809E+01 0. -1.
</event>
<event>
 5   0  0.2915546E-05  0.2305787E+04  0.7818609E-02  0.8475643E-01
       -1   -1    0    0    0  501  0.00000000000E+00  0.00000000000E+00  0.10689846897E+04  0.10689846897E+04  0.50400001928E-02 0.  1.
        1   -1    0    0  501    0  0.00000000000E+00  0.00000000000E+00 -0.12433886606E+04  0.12433886606E+04  0.50400001928E-02 0. -1.
    10030    2    1    2    0    0  0.00000000000E+00  0.00000000000E+00 -0.17440397086E+03  0.23123733503E+04  0.23057870166E+04 0.  0.
        2    1    3    3  502    0  0.33737110863E+03 -0.11002335695E+04 -0.17503325798E+02  0.11509298584E+04  0.25500000920E-02 0.  1.
       -2    1    3    3    0  502 -0.33737110863E+03  0.11002335695E+04 -0.15690064506E+03  0.11614434919E+04  0.25500000920E-02 0. -1.
</event>
<event>
 5   0  0.6703961E-05  0.2503811E+04  0.7818609E-02  0.8401629E-01
       -2   -1    0    0    0  501  0.00000000000E+00  0.00000000000E+00  0.71795584425E+03  0.71795584425E+03  0.25500000920E-02 0. -1.
        2   -1    0    0  501    0  0.00000000000E+00  0.00000000000E+00 -0.21829572003E+04  0.21829572003E+04  0.25500000920E-02 0.  1.
    10030    2    1    2    0    0  0.00000000000E+00  0.00000000000E+00 -0.14650013561E+04  0.29009130446E+04  0.25038105997E+04 0.  0.
        2    1    3    3  502    0 -0.33587172065E+03  0.33567888495E+03 -0.20745651171E+04  0.21282176937E+04  0.25500000920E-02 0.  1.
       -2    1    3    3    0  502  0.33587172065E+03 -0.33567888495E+03  0.60956376103E+03  0.77269535090E+03  0.25500000920E-02 0. -1.
</event>
<event>
 5   0  0.2847158E-05  0.2031674E+04  0.7818609E-02  0.8591953E-01
       -1   -1    0    0    0  501  0.00000000000E+00  0.00000000000E+00  0.92390372781E+03  0.92390372782E+03  0.50400001928E-02 0. -1.
        1   -1    0    0  501    0  0.00000000000E+00  0.00000000000E+00 -0.11169183904E+04  0.11169183904E+04  0.50400001928E-02 0.  1.
    10030    2    1    2    0    0  0.00000000000E+00  0.00000000000E+00 -0.19301466261E+03  0.20408221183E+04  0.20316742501E+04 0.  0.
        5    1    3    3  502    0 -0.29342033167E+03  0.54716655671E+03 -0.90412759383E+03  0.10967932931E+04  0.46999998093E+01 0.  1.
       -5    1    3    3    0  502  0.29342033167E+03 -0.54716655671E+03  0.71111293122E+03  0.94402882518E+03  0.46999998093E+01 0. -1.
</event>
<event>
 5   0  0.2943244E-05  0.2405919E+04  0.7818609E-02  0.8437291E-01
        1   -1    0    0  501    0  0.00000000000E+00  0.00000000000E+00  0.70451356329E+03  0.70451356331E+03  0.50400001928E-02 0.  1.
       -1   -1    0    0    0  501  0.00000000000E+00  0.00000000000E+00 -0.20540585707E+04  0.20540585707E+04  0.50400001928E-02 0. -1.
    10030    2    1    2    0    0  0.00000000000E+00  0.00000000000E+00 -0.13495450074E+04  0.27585721340E+04  0.24059194690E+04 0.  0.
        3    1    3    3  502    0  0.93740222593E+03  0.74322912606E+03 -0.81980270193E+03  0.14502375486E+04  0.10100000352E+00 0.  1.
       -3    1    3    3    0  502 -0.93740222593E+03 -0.74322912606E+03 -0.52974230546E+03  0.13083345854E+04  0.10100000352E+00 0. -1.
</event>
<event>
 5   0  0.6703961E-05  0.2467320E+04  0.7818609E-02  0.8414721E-01
        2   -1    0    0  501    0  0.00000000000E+00  0.00000000000E+00  0.15067292985E+04  0.15067292985E+04  0.25500000920E-02 0. -1.
       -2   -1    0    0    0  501  0.00000000000E+00  0.00000000000E+00 -0.10100799740E+04  0.10100799740E+04  0.25500000920E-02 0.  1.
    10030    2    1    2    0    0  0.00000000000E+00  0.00000000000E+00  0.49664932451E+03  0.25168092725E+04  0.24673200771E+04 0.  0.
        2    1    3    3  502    0 -0.85104328961E+03 -0.73264521365E+03 -0.27267772410E+03  0.11555937137E+04  0.25500000920E-02 0.  1.
       -2    1    3    3    0  502  0.85104328961E+03  0.73264521365E+03  0.76932704861E+03  0.13612155588E+04  0.25500000920E-02 0. -1.
</event>
<event>
 5   0  0.2915546E-05  0.2387509E+04  0.7818609E-02  0.8444195E-01
       -1   -1    0    0    0  501  0.00000000000E+00  0.00000000000E+00  0.25810867122E+04  0.25810867122E+04  0.50400001928E-02 0.  1.
        1   -1    0    0  501    0  0.00000000000E+00  0.00000000000E+00 -0.55211218818E+03  0.55211218820E+03  0.50400001928E-02 0. -1.
    10030    2    1    2    0    0  0.00000000000E+00  0.00000000000E+00  0.20289745240E+04  0.31331989004E+04  0.23875086870E+04 0.  0.
        2    1    3    3  502    0 -0.11701030128E+04 -0.20445512311E+01  0.13247754133E+04  0.17675336309E+04  0.25500000920E-02 0.  1.
       -2    1    3    3    0  502  0.11701030128E+04  0.20445512311E+01  0.70419911074E+03  0.13656652695E+04  0.25500000920E-02 0. -1.
</event>
<event>
 5   0  0.2847158E-05  0.2271522E+04  0.7818609E-02  0.8489235E-01
       -1   -1    0    0    0  501  0.00000000000E+00  0.00000000000E+00  0.86866842301E+03  0.86866842302E+03  0.50400001928E-02 0.  1.
        1   -1    0    0  501    0  0.00000000000E+00  0.00000000000E+00 -0.14849774942E+04  0.14849774942E+04  0.50400001928E-02 0. -1.
    10030    2    1    2    0    0  0.00000000000E+00  0.00000000000E+00 -0.61630907115E+03  0.23536459172E+04  0.22715220079E+04 0.  0.
        5    1    3    3  502    0  0.10253978587E+04  0.23523483701E+03 -0.75159293423E+03  0.12929386010E+04  0.46999998093E+01 0. -1.
       -5    1    3    3    0  502 -0.10253978587E+04 -0.23523483701E+03  0.13528386308E+03  0.10607073162E+04  0.46999998093E+01 0.  1.
</event>
<event>
 5   0  0.6337926E-05  0.1789733E+04  0.7818609E-02  0.8711779E-01
        2   -1    0    0  501    0  0.00000000000E+00  0.00000000000E+00  0.86511297065E+03  0.86511297066E+03  0.25500000920E-02 0. -1.
       -2   -1    0    0    0  501  0.00000000000E+00  0.00000000000E+00 -0.92564290082E+03  0.92564290082E+03  0.25500000920E-02 0.  1.
    10030    2    1    2    0    0  0.00000000000E+00  0.00000000000E+00 -0.60529930167E+02  0.17907558715E+04  0.17897325830E+04 0.  0.
        1    1    3    3  502    0 -0.48145562242E+03  0.71600035270E+03 -0.26773936409E+03  0.90340488627E+03  0.50400001928E-02 0. -1.
       -1    1    3    3    0  502  0.48145562242E+03 -0.71600035270E+03  0.20720943392E+03  0.88735098521E+03  0.50400001928E-02 0.  1.
</event>
<event>
 5   0  0.6703961E-05  0.2366250E+04  0.7818609E-02  0.8452248E-01
       -2   -1    0    0    0  501  0.00000000000E+00  0.00000000000E+00  0.12129661248E+04  0.12129661248E+04  0.25500000920E-02 0. -1.
        2   -1    0    0  501    0  0.00000000000E+00  0.00000000000E+00 -0.11540179826E+04  0.11540179826E+04  0.25500000920E-02 0.  1.
    10030    2    1    2    0    0  0.00000000000E+00  0.00000000000E+00  0.58948142240E+02  0.23669841074E+04  0.23662499617E+04 0.  0.
        2    1    3    3  502    0  0.54979269352E+03 -0.46168305226E+03  0.97017079034E+03  0.12069194708E+04  0.25500000920E-02 0. -1.
       -2    1    3    3    0  502 -0.54979269352E+03  0.46168305226E+03 -0.91122264810E+03  0.11600646366E+04  0.25500000920E-02 0.  1.
</event>
<event>
 5   0  0.6978115E-05  0.2405249E+04  0.7818609E-02  0.8437541E-01
       -2   -1    0    0    0  501  0.00000000000E+00  0.00000000000E+00  0.13780461423E+04  0.13780461423E+04  0.25500000920E-02 0. -1.
        2   -1    0    0  501    0  0.00000000000E+00  0.00000000000E+00 -0.10495339900E+04  0.10495339900E+04  0.25500000920E-02 0.  1.
    10030    2    1    2    0    0  0.00000000000E+00  0.00000000000E+00  0.32851215230E+03  0.24275801323E+04  0.24052494807E+04 0.  0.
        4    1    3    3  502    0  0.67812014039E+03  0.15553771568E+03 -0.82580265582E+03  0.10798104209E+04  0.12699999809E+01 0.  1.
       -4    1    3    3    0  502 -0.67812014039E+03 -0.15553771568E+03  0.11543148081E+04  0.13477697114E+04  0.12699999809E+01 0. -1.
</event>
<event>
 5   0  0.6600166E-05  0.2363527E+04  0.7818609E-02  0.8453286E-01
        2   -1    0    0  501    0  0.00000000000E+00  0.00000000000E+00  0.14873806939E+04  0.14873806939E+04  0.25500000920E-02 0. -1.
       -2   -1    0    0    0  501  0.00000000000E+00  0.00000000000E+00 -0.93894222971E+03  0.93894222971E+03  0.25500000920E-02 0.  1.
    10030    2    1    2    0    0  0.00000000000E+00  0.00000000000E+00  0.54843846417E+03  0.24263229236E+04  0.23635266405E+04 0.  0.
        5    1    3    3  502    0  0.95019259564E+03  0.16440814495E+03  0.97548409967E+03  0.13716731847E+04  0.46999998093E+01 0. -1.
       -5    1    3    3    0  502 -0.95019259564E+03 -0.16440814495E+03 -0.42704563549E+03  0.10546497389E+04  0.46999998093E+01 0.  1.
</event>
<event>
 5   0  0.6978115E-05  0.2220691E+04  0.7818609E-02  0.8509865E-01
        2   -1    0    0  501    0  0.00000000000E+00  0.00000000000E+00  0.20329336797E+04  0.20329336797E+04  0.25500000920E-02 0. -1.
       -2   -1    0    0    0  501  0.00000000000E+00  0.00000000000E+00 -0.60644743315E+03  0.60644743315E+03  0.25500000920E-02 0.  1.
    10030    2    1    2    0    0  0.00000000000E+00  0.00000000000E+00  0.14264862466E+04  0.26393811129E+04  0.22206912544E+04 0.  0.
        4    1    3    3  502    0 -0.20626069775E+03  0.26020171544E+03  0.19725448686E+04  0.20002957980E+04  0.12699999809E+01 0. -1.
       -4    1    3    3    0  502  0.20626069775E+03 -0.26020171544E+03 -0.54605862198E+03  0.63908531487E+03  0.12699999809E+01 0.  1.
</event>
<event>
 5   0  0.6337926E-05  0.2378839E+04  0.7818609E-02  0.8447469E-01
        2   -1    0    0  501    0  0.00000000000E+00  0.00000000000E+00  0.11695798831E+04  0.11695798831E+04  0.25500000920E-02 0.  1.
       -2   -1    0    0    0  501  0.00000000000E+00  0.00000000000E+00 -0.12095959967E+04  0.12095959967E+04  0.25500000920E-02 0. -1.
    10030    2    1    2    0    0  0.00000000000E+00  0.00000000000E+00 -0.40016113677E+02  0.23791758798E+04  0.23788393341E+04 0.  0.
        1    1    3    3  502    0  0.62949057545E+03  0.10080023045E+04 -0.68924216912E+02  0.11904106763E+04  0.50400001928E-02 0. -1.
       -1    1    3    3    0  502 -0.62949057545E+03 -0.10080023045E+04  0.28908103235E+02  0.11887652035E+04  0.50400001928E-02 0.  1.
</event>
<event>
 5   0  0.2915546E-05  0.2397548E+04  0.7818609E-02  0.8440422E-01
       -1   -1    0    0    0  501  0.00000000000E+00  0.00000000000E+00  0.66324388541E+03  0.66324388542E+03  0.50400001928E-02 0. -1.
        1   -1    0    0  501    0  0.00000000000E+00  0.00000000000E+00 -0.21667134503E+04  0.21667134503E+04  0.50400001928E-02 0.  1.
    10030    2    1    2    0    0  0.00000000000E+00  0.00000000000E+00 -0.15034695649E+04  0.28299573357E+04  0.23975482872E+04 0.  0.
        2    1    3    3  502    0  0.24897779238E+03  0.68577426379E+03 -0.18744892223E+04  0.20114636777E+04  0.25500000920E-02 0.  1.
       -2    1    3    3    0  502 -0.24897779238E+03 -0.68577426379E+03  0.37101965748E+03  0.81849365802E+03  0.25500000920E-02 0. -1.
</event>
<event>
 5   0  0.6703961E-05  0.2451291E+04  0.7818609E-02  0.8420547E-01
        2   -1    0    0  501    0  0.00000000000E+00  0.00000000000E+00  0.14599237236E+04  0.14599237236E+04  0.25500000920E-02 0. -1.
       -2   -1    0    0    0  501  0.00000000000E+00  0.00000000000E+00 -0.10289627060E+04  0.10289627060E+04  0.25500000920E-02 0.  1.
    10030    2    1    2    0    0  0.00000000000E+00  0.00000000000E+00  0.43096101754E+03  0.24888864296E+04  0.24512911416E+04 0.  0.
        2    1    3    3  502    0  0.66381680311E+03  0.55909339298E+03 -0.66322242177E+03  0.10922921546E+04  0.25500000920E-02 0.  1.
       -2    1    3    3    0  502 -0.66381680311E+03 -0.55909339298E+03  0.10941834393E+04  0.13965942750E+04  0.25500000920E-02 0. -1.
</event>
<event>
 5   0  0.6714629E-05  0.2369445E+04  0.7818609E-02  0.8451032E-01
        2   -1    0    0  501    0  0.00000000000E+00  0.00000000000E+00  0.15798935846E+04  0.15798935846E+04  0.25500000920E-02 0. -1.
       -2   -1    0    0    0  501  0.00000000000E+00  0.00000000000E+00 -0.88839384458E+03  0.88839384458E+03  0.25500000920E-02 0.  1.
    10030    2    1    2    0    0  0.00000000000E+00  0.00000000000E+00  0.69149974004E+03  0.24682874292E+04  0.23694452816E+04 0.  0.
        3    1    3    3  502    0 -0.49231686320E+03  0.81836264467E+03 -0.38454710892E+03  0.10295483481E+04  0.10100000352E+00 0.  1.
       -3    1    3    3    0  502  0.49231686320E+03 -0.81836264467E+03  0.10760468490E+04  0.14387390811E+04  0.10100000352E+00 0. -1.
</event>
<event>
 5   0  0.6600166E-05  0.2417645E+04  0.7818609E-02  0.8432927E-01
        2   -1    0    0  501    0  0.00000000000E+00  0.00000000000E+00  0.14252400520E+04  0.14252400520E+04  0.25500000920E-02 0. -1.
       -2   -1    0    0    0  501  0.00000000000E+00  0.00000000000E+00 -0.10252672748E+04  0.10252672748E+04  0.25500000920E-02 0.  1.
    10030    2    1    2    0    0  0.00000000000E+00  0.00000000000E+00  0.39997277714E+03  0.24505073268E+04  0.24176451221E+04 0.  0.
        5    1    3    3  502    0 -0.11224676200E+04 -0.32354584254E+03  0.51503998178E+03  0.12766768358E+04  0.46999998093E+01 0.  1.
       -5    1    3    3    0  502  0.11224676200E+04  0.32354584254E+03 -0.11506720464E+03  0.11738304910E+04  0.46999998093E+01 0. -1.
</event>
<event>
 5   0  0.6337926E-05  0.2357208E+04  0.7818609E-02  0.8455700E-01
       -2   -1    0    0    0  501  0.00000000000E+00  0.00000000000E+00  0.62950319589E+03  0.62950319589E+03  0.25500000920E-02 0.  1.
        2   -1    0    0  501    0  0.00000000000E+00  0.00000000000E+00 -0.22066725470E+04  0.22066725470E+04  0.25500000920E-02 0. -1.
    10030    2    1    2    0    0  0.00000000000E+00  0.00000000000E+00 -0.15771693512E+04  0.28361757429E+04  0.23572080270E+04 0.  0.
        1    1    3    3  502    0 -0.24861428743E+03 -0.76060719205E+03  0.25255958925E+03  0.83911781691E+03  0.50400001928E-02 0.  1.
       -1    1    3    3    0  502  0.24861428743E+03  0.76060719205E+03 -0.18297289404E+04  0.19970579260E+04  0.50400001928E-02 0. -1.
</event>
<event>
 5   0  0.2943123E-05  0.2161703E+04  0.7818609E-02  0.8534539E-01
        1   -1    0    0  501    0  0.00000000000E+00  0.00000000000E+00  0.13615260139E+04  0.13615260139E+04  0.50400001928E-02 0. -1.
       -1   -1    0    0    0  501  0.00000000000E+00  0.00000000000E+00 -0.85803720614E+03  0.85803720616E+03  0.50400001928E-02 0.  1.
    10030    2    1    2    0    0  0.00000000000E+00  0.00000000000E+00  0.50348880773E+03  0.22195632200E+04  0.21617030111E+04 0.  0.
        1    1    3    3  502    0  0.21938937144E+03  0.15620005225E+03  0.13265236457E+04  0.13535860280E+04  0.50400001928E-02 0. -1.
       -1    1    3    3    0  502 -0.21938937144E+03 -0.15620005225E+03 -0.82303483795E+03  0.86597719204E+03  0.50400001928E-02 0.  1.
</event>
<event>
 5   0  0.6703961E-05  0.2382108E+04  0.7818609E-02  0.8446232E-01
       -2   -1    0    0    0  501  0.00000000000E+00  0.00000000000E+00  0.86119680076E+03  0.86119680077E+03  0.25500000920E-02 0.  1.
        2   -1    0    0  501    0  0.00000000000E+00  0.00000000000E+00 -0.16472540376E+04  0.16472540376E+04  0.25500000920E-02 0. -1.
    10030    2    1    2    0    0  0.00000000000E+00  0.00000000000E+00 -0.78605723681E+03  0.25084508383E+04  0.23821082320E+04 0.  0.
        2    1    3    3  502    0  0.10654585438E+04  0.37651983853E+03 -0.78934160576E+03  0.13784154918E+04  0.25500000920E-02 0. -1.
       -2    1    3    3    0  502 -0.10654585438E+04 -0.37651983853E+03  0.32843689422E+01  0.11300353466E+04  0.25500000920E-02 0.  1.
</event>
<event>
 5   0  0.2943244E-05  0.2421687E+04  0.7818609E-02  0.8431429E-01
       -1   -1    0    0    0  501  0.00000000000E+00  0.00000000000E+00  0.93805581428E+03  0.93805581429E+03  0.50400001928E-02 0.  1.
        1   -1    0    0  501    0  0.00000000000E+00  0.00000000000E+00 -0.15629586138E+04  0.15629586138E+04  0.50400001928E-02 0. -1.
    10030    2    1    2    0    0  0.00000000000E+00  0.00000000000E+00 -0.62490279949E+03  0.25010144281E+04  0.24216873581E+04 0.  0.
        3    1    3    3  502    0  0.78396339779E+03 -0.81883054326E+03 -0.75190171970E+03  0.13603081540E+04  0.10100000352E+00 0. -1.
       -3    1    3    3    0  502 -0.78396339779E+03  0.81883054326E+03  0.12699892021E+03  0.11407062740E+04  0.10100000352E+00 0.  1.
</event>
<event>
 5   0  0.6600166E-05  0.2375551E+04  0.7818609E-02  0.8448714E-01
       -2   -1    0    0    0  501  0.00000000000E+00  0.00000000000E+00  0.73663558899E+03  0.73663558899E+03  0.25500000920E-02 0. -1.
        2   -1    0    0  501    0  0.00000000000E+00  0.00000000000E+00 -0.19152080927E+04  0.19152080927E+04  0.25500000920E-02 0.  1.
    10030    2    1    2    0    0  0.00000000000E+00  0.00000000000E+00 -0.11785725037E+04  0.26518436817E+04  0.23755508341E+04 0.  0.
        5    1    3    3  502    0  0.21158277164E+03 -0.10205409488E+04  0.46633753991E+02  0.10432966474E+04  0.46999998093E+01 0. -1.
       -5    1    3    3    0  502 -0.21158277164E+03  0.10205409488E+04 -0.12252062577E+04  0.16085470342E+04  0.46999998093E+01 0.  1.
</event>
<event>
 5   0  0.2901816E-05  0.2722526E+04  0.7818609E-02  0.8327733E-01
        1   -1    0    0  501    0  0.00000000000E+00  0.00000000000E+00  0.16481516225E+04  0.16481516225E+04  0.50400001928E-02 0. -1.
       -1   -1    0    0    0  501  0.00000000000E+00  0.00000000000E+00 -0.11243118632E+04  0.11243118632E+04  0.50400001928E-02 0.  1.
    10030    2    1    2    0    0  0.00000000000E+00  0.00000000000E+00  0.52383975934E+03  0.27724634857E+04  0.27225256080E+04 0.  0.
        4    1    3    3  502    0 -0.92969315911E+03 -0.16965717308E+03  0.12596470693E+04  0.15747460997E+04  0.12699999809E+01 0. -1.
       -4    1    3    3    0  502  0.92969315911E+03  0.16965717308E+03 -0.73580730993E+03  0.11977173860E+04  0.12699999809E+01 0.  1.
</event>
<event>
 5   0  0.6978115E-05  0.2359802E+04  0.7818609E-02  0.8454708E-01
       -2   -1    0    0    0  501  0.00000000000E+00  0.00000000000E+00  0.15231463973E+04  0.15231463973E+04  0.25500000920E-02 0.  1.
        2   -1    0    0  501    0  0.00000000000E+00  0.00000000000E+00 -0.91400678790E+03  0.91400678790E+03  0.25500000920E-02 0. -1.
    10030    2    1    2    0    0  0.00000000000E+00  0.00000000000E+00  0.60913960942E+03  0.24371531852E+04  0.23598018104E+04 0.  0.
        4    1    3    3  502    0  0.25477638800E+03 -0.10965136800E+04  0.66958262462E+03  0.13098075287E+04  0.12699999809E+01 0.  1.
       -4    1    3    3    0  502 -0.25477638800E+03  0.10965136800E+04 -0.60443015202E+02  0.11273456565E+04  0.12699999809E+01 0. -1.
</event>
<event>
 5   0  0.2943123E-05  0.2382860E+04  0.7818609E-02  0.8445949E-01
        1   -1    0    0  501    0  0.00000000000E+00  0.00000000000E+00  0.16357701596E+04  0.16357701596E+04  0.50400001928E-02 0. -1.
       -1   -1    0    0    0  501  0.00000000000E+00  0.00000000000E+00 -0.86778996720E+03  0.86778996721E+03  0.50400001928E-02 0.  1.
    10030    2    1    2    0    0  0.00000000000E+00  0.00000000000E+00  0.76798019238E+03  0.25035601268E+04  0.23828595705E+04 0.  0.
        1    1    3    3  502    0  0.48462369533E+02 -0.36796315387E+03 -0.80550550752E+03  0.88689605171E+03  0.50400001928E-02 0.  1.
       -1    1    3    3    0  502 -0.48462369533E+02  0.36796315387E+03  0.15734856999E+04  0.16166640751E+04  0.50400001928E-02 0. -1.
</event>
<event>
 5   0  0.6337926E-05  0.2436928E+04  0.7818609E-02  0.8425806E-01
       -2   -1    0    0    0  501  0.00000000000E+00  0.00000000000E+00  0.88670368019E+03  0.88670368019E+03  0.25500000920E-02 0.  1.
        2   -1    0    0  501    0  0.00000000000E+00  0.00000000000E+00 -0.16743526924E+04  0.16743526924E+04  0.25500000920E-02 0. -1.
    10030    2    1    2    0    0  0.00000000000E+00  0.00000000000E+00 -0.78764901217E+03  0.25610563726E+04  0.24369281436E+04 0.  0.
        1    1    3    3  502    0  0.70282928969E+03 -0.37464592751E+03 -0.13629257979E+04  0.15785738222E+04  0.50400001928E-02 0. -1.
       -1    1    3    3    0  502 -0.70282928969E+03  0.37464592751E+03  0.57527678577E+03  0.98248255034E+03  0.50400001928E-02 0.  1.
</event>
<event>
 5   0  0.2901816E-05  0.2398056E+04  0.7818609E-02  0.8440232E-01
       -1   -1    0    0    0  501  0.00000000000E+00  0.00000000000E+00  0.10312440205E+04  0.10312440205E+04  0.50400001928E-02 0.  1.
        1   -1    0    0  501    0  0.00000000000E+00  0.00000000000E+00 -0.13941106811E+04  0.13941106811E+04  0.50400001928E-02 0. -1.
    10030    2    1    2    0    0  0.00000000000E+00  0.00000000000E+00 -0.36286666065E+03  0.24253547016E+04  0.23980561326E+04 0.  0.
        4    1    3    3  502    0  0.84432039304E+03 -0.72817422524E+03  0.26466832720E+03  0.11459343632E+04  0.12699999809E+01 0.  1.
       -4    1    3    3    0  502 -0.84432039304E+03  0.72817422524E+03 -0.62753498786E+03  0.12794203384E+04  0.12699999809E+01 0. -1.
</event>
<event>
 5   0  0.2339125E-05  0.2409848E+04  0.7818609E-02  0.8435826E-01
        3   -1    0    0  501    0  0.00000000000E+00  0.00000000000E+00  0.20624249157E+04  0.20624249182E+04  0.10100000352E+00 0.  1.
       -3   -1    0    0    0  501  0.00000000000E+00  0.00000000000E+00 -0.70394887347E+03  0.70394888071E+03  0.10100000352E+00 0. -1.
    10030    2    1    2    0    0  0.00000000000E+00  0.00000000000E+00  0.13584760423E+04  0.27663737989E+04  0.24098478869E+04 0.  0.
        5    1    3    3  502    0 -0.45125443208E+03 -0.28832518860E+02 -0.60284676337E+03  0.75359683301E+03  0.46999998093E+01 0. -1.
       -5    1    3    3    0  502  0.45125443208E+03  0.28832518860E+02  0.19613228056E+04  0.20127769659E+04  0.46999998093E+01 0.  1.
</event>
<event>
 5   0  0.6714629E-05  0.2411597E+04  0.7818609E-02  0.8435175E-01
        2   -1    0    0  501    0  0.00000000000E+00  0.00000000000E+00  0.87404376811E+03  0.87404376811E+03  0.25500000920E-02 0.  1.
       -2   -1    0    0    0  501  0.00000000000E+00  0.00000000000E+00 -0.16634752256E+04  0.16634752256E+04  0.25500000920E-02 0. -1.
    10030    2    1    2    0    0  0.00000000000E+00  0.00000000000E+00 -0.78943145745E+03  0.25375189937E+04  0.24115971092E+04 0.  0.
        3    1    3    3  502    0 -0.89233211597E+03  0.43435608124E+03 -0.11153320372E+04  0.14929458710E+04  0.10100000352E+00 0. -1.
       -3    1    3    3    0  502  0.89233211597E+03 -0.43435608124E+03  0.32590057971E+03  0.10445731226E+04  0.10100000352E+00 0.  1.
</event>
<event>
 5   0  0.2943244E-05  0.2475313E+04  0.7818609E-02  0.8411834E-01
        1   -1    0    0  501    0  0.00000000000E+00  0.00000000000E+00  0.23534543722E+04  0.23534543722E+04  0.50400001928E-02 0. -1.
       -1   -1    0    0    0  501  0.00000000000E+00  0.00000000000E+00 -0.65087008760E+03  0.65087008762E+03  0.50400001928E-02 0.  1.
    10030    2    1    2    0    0  0.00000000000E+00  0.00000000000E+00  0.17025842846E+04  0.30043244598E+04  0.24753125487E+04 0.  0.
        3    1    3    3  502    0 -0.84606357559E+03  0.22382410003E+03 -0.21088011674E+03  0.90021732683E+03  0.10100000352E+00 0.  1.
       -3    1    3    3    0  502  0.84606357559E+03 -0.22382410003E+03  0.19134644013E+04  0.21041071329E+04  0.10100000352E+00 0. -1.
</event>
<event>
 5   0  0.6337926E-05  0.2379054E+04  0.7818609E-02  0.8447387E-01
        2   -1    0    0  501    0  0.00000000000E+00  0.00000000000E+00  0.82211817444E+03  0.82211817445E+03  0.25500000920E-02 0. -1.
       -2   -1    0    0    0  501  0.00000000000E+00  0.00000000000E+00 -0.17211321692E+04  0.17211321692E+04  0.25500000920E-02 0.  1.
    10030    2    1    2    0    0  0.00000000000E+00  0.00000000000E+00 -0.89901399479E+03  0.25432503437E+04  0.23790536244E+04 0.  0.
        1    1    3    3  502    0  0.88848741601E+03  0.51370761950E+03  0.19338837732E+03  0.10443679769E+04  0.50400001928E-02 0. -1.
       -1    1    3    3    0  502 -0.88848741601E+03 -0.51370761950E+03 -0.10924023721E+04  0.14988823667E+04  0.50400001928E-02 0.  1.
</event>
<event>
 5   0  0.2901816E-05  0.2357499E+04  0.7818609E-02  0.8455589E-01
       -1   -1    0    0    0  501  0.00000000000E+00  0.00000000000E+00  0.21230026996E+04  0.21230026996E+04  0.50400001928E-02 0. -1.
        1   -1    0    0  501    0  0.00000000000E+00  0.00000000000E+00 -0.65447402618E+03  0.65447402620E+03  0.50400001928E-02 0.  1.
    10030    2    1    2    0    0  0.00000000000E+00  0.00000000000E+00  0.14685286734E+04  0.27774767258E+04  0.23574987800E+04 0.  0.
        4    1    3    3  502    0  0.38080816021E+03  0.74086948332E+03 -0.24830204515E+03  0.86922837317E+03  0.12699999809E+01 0.  1.
       -4    1    3    3    0  502 -0.38080816021E+03 -0.74086948332E+03  0.17168307185E+04  0.19082483526E+04  0.12699999809E+01 0. -1.
</event>
<event>
 5   0  0.6714629E-05  0.2416551E+04  0.7818609E-02  0.8433333E-01
        2   -1    0    0  501    0  0.00000000000E+00  0.00000000000E+00  0.16782402644E+04  0.16782402645E+04  0.25500000920E-02 0.  1.
       -2   -1    0    0    0  501  0.00000000000E+00  0.00000000000E+00 -0.86991674246E+03  0.86991674246E+03  0.25500000920E-02 0. -1.
    10030    2    1    2    0    0  0.00000000000E+00  0.00000000000E+00  0.80832352199E+03  0.25481570069E+04  0.24165506855E+04 0.  0.
        3    1    3    3  502    0 -0.59551778762E+03  0.81367272849E+03 -0.29784642896E+03  0.10513882489E+04  0.10100000352E+00 0. -1.
       -3    1    3    3    0  502  0.59551778762E+03 -0.81367272849E+03  0.11061699509E+04  0.14967687580E+04  0.10100000352E+00 0.  1.
</event>
<event>
 5   0  0.2901816E-05  0.1566496E+04  0.7818609E-02  0.8841399E-01
        1   -1    0    0  501    0  0.00000000000E+00  0.00000000000E+00  0.16441084408E+04  0.16441084409E+04  0.50400001928E-02 0. -1.
       -1   -1    0    0    0  501  0.00000000000E+00  0.00000000000E+00 -0.37313688112E+03  0.37313688115E+03  0.50400001928E-02 0.  1.
    10030    2    1    2    0    0  0.00000000000E+00  0.00000000000E+00  0.12709715597E+04  0.20172453220E+04  0.15664960847E+04 0.  0.
        4    1    3    3  502    0 -0.20109084400E+03 -0.62825712296E+03  0.91680721208E+02  0.66599662735E+03  0.12699999809E+01 0.  1.
       -4    1    3    3    0  502  0.20109084400E+03  0.62825712296E+03  0.11792908385E+04  0.13512486947E+04  0.12699999809E+01 0. -1.
</event>
<event>
 5   0  0.2847158E-05  0.2187396E+04  0.7818609E-02  0.8523693E-01
        1   -1    0    0  501    0  0.00000000000E+00  0.00000000000E+00  0.21294363650E+04  0.21294363650E+04  0.50400001928E-02 0.  1.
       -1   -1    0    0    0  501  0.00000000000E+00  0.00000000000E+00 -0.56173306694E+03  0.56173306696E+03  0.50400001928E-02 0. -1.
    10030    2    1    2    0    0  0.00000000000E+00  0.00000000000E+00  0.15677032981E+04  0.26911694320E+04  0.21873955474E+04 0.  0.
        5    1    3    3  502    0  0.33547205576E+03 -0.86166751600E+03  0.15024401196E+04  0.17641884285E+04  0.46999998093E+01 0.  1.
       -5    1    3    3    0  502 -0.33547205576E+03  0.86166751600E+03  0.65263178487E+02  0.92698100347E+03  0.46999998093E+01 0. -1.
</event>
<event>
 5   0  0.2901816E-05  0.2409453E+04  0.7818609E-02  0.8435973E-01
       -1   -1    0    0    0  501  0.00000000000E+00  0.00000000000E+00  0.10233561801E+04  0.10233561801E+04  0.50400001928E-02 0. -1.
        1   -1    0    0  501    0  0.00000000000E+00  0.00000000000E+00 -0.14182416028E+04  0.14182416028E+04  0.50400001928E-02 0.  1.
    10030    2    1    2    0    0  0.00000000000E+00  0.00000000000E+00 -0.39488542269E+03  0.24415977830E+04  0.24094533066E+04 0.  0.
        4    1    3    3  502    0 -0.10747749075E+04 -0.46268299914E+03  0.92995800038E+02  0.11738255795E+04  0.12699999809E+01 0. -1.
       -4    1    3    3    0  502  0.10747749075E+04  0.46268299914E+03 -0.48788122273E+03  0.12677722034E+04  0.12699999809E+01 0.  1.
</event>
<event>
 5   0  0.2847158E-05  0.2550259E+04  0.7818609E-02  0.8385296E-01
       -1   -1    0    0    0  501  0.00000000000E+00  0.00000000000E+00  0.97678239239E+03  0.97678239240E+03  0.50400001928E-02 0. -1.
        1   -1    0    0  501    0  0.00000000000E+00  0.00000000000E+00 -0.16646033044E+04  0.16646033044E+04  0.50400001928E-02 0.  1.
    10030    2    1    2    0    0  0.00000000000E+00  0.00000000000E+00 -0.68782091198E+03  0.26413856968E+04  0.25502589657E+04 0.  0.
        5    1    3    3  502    0  0.64528311392E+03  0.10956410236E+04 -0.44278660138E+03  0.13464403492E+04  0.46999998093E+01 0. -1.
       -5    1    3    3    0  502 -0.64528311392E+03 -0.10956410236E+04 -0.24503431059E+03  0.12949453475E+04  0.46999998093E+01 0.  1.
</event>
<event>
 5   0  0.6703961E-05  0.2391616E+04  0.7818609E-02  0.8442649E-01
       -2   -1    0    0    0  501  0.00000000000E+00  0.00000000000E+00  0.86618674370E+03  0.86618674370E+03  0.25500000920E-02 0. -1.
        2   -1    0    0  501    0  0.00000000000E+00  0.00000000000E+00 -0.16508648746E+04  0.16508648746E+04  0.25500000920E-02 0.  1.
    10030    2    1    2    0    0  0.00000000000E+00  0.00000000000E+00 -0.78467813087E+03  0.25170516183E+04  0.23916164157E+04 0.  0.
        2    1    3    3  502    0  0.95833765873E+03  0.71520635953E+03 -0.39771223476E+03  0.12602008675E+04  0.25500000920E-02 0.  1.
       -2    1    3    3    0  502 -0.95833765873E+03 -0.71520635953E+03 -0.38696589610E+03  0.12568507507E+04  0.25500000920E-02 0. -1.
</event>
<event>
 5   0  0.6978115E-05  0.2464725E+04  0.7818609E-02  0.8415661E-01
        2   -1    0    0  501    0  0.00000000000E+00  0.00000000000E+00  0.70254206183E+03  0.70254206184E+03  0.25500000920E-02 0. -1.
       -2   -1    0    0    0  501  0.00000000000E+00  0.00000000000E+00 -0.21617462298E+04  0.21617462298E+04  0.25500000920E-02 0.  1.
    10030    2    1    2    0    0  0.00000000000E+00  0.00000000000E+00 -0.14592041679E+04  0.28642882916E+04  0.24647252613E+04 0.  0.
        4    1    3    3  502    0 -0.80498002202E+03 -0.42769228678E+02 -0.18128593482E+04  0.19840067218E+04  0.12699999809E+01 0.  1.
       -4    1    3    3    0  502  0.80498002202E+03  0.42769228678E+02  0.35365518026E+03  0.88028156984E+03  0.12699999809E+01 0. -1.
</event>
<event>
 5   0  0.6600166E-05  0.2384481E+04  0.7818609E-02  0.8445336E-01
       -2   -1    0    0    0  501  0.00000000000E+00  0.00000000000E+00  0.49636377181E+03  0.49636377182E+03  0.25500000920E-02 0.  1.
        2   -1    0    0  501    0  0.00000000000E+00  0.00000000000E+00 -0.28637016136E+04  0.28637016136E+04  0.25500000920E-02 0. -1.
    10030    2    1    2    0    0  0.00000000000E+00  0.00000000000E+00 -0.23673378418E+04  0.33600653854E+04  0.23844812721E+04 0.  0.
        5    1    3    3  502    0  0.84627598189E+02 -0.53451101193E+02 -0.28577572784E+04  0.28595135256E+04  0.46999998093E+01 0. -1.
       -5    1    3    3    0  502 -0.84627598189E+02  0.53451101193E+02  0.49041943662E+03  0.50055185986E+03  0.46999998093E+01 0.  1.
</event>
<event>
 5   0  0.6600166E-05  0.2422486E+04  0.7818609E-02  0.8431133E-01
       -2   -1    0    0    0  501  0.00000000000E+00  0.00000000000E+00  0.65782414014E+03  0.65782414014E+03  0.25500000920E-02 0.  1.
        2   -1    0    0  501    0  0.00000000000E+00  0.00000000000E+00 -0.22302461404E+04  0.22302461404E+04  0.25500000920E-02 0. -1.
    10030    2    1    2    0    0  0.00000000000E+00  0.00000000000E+00 -0.15724220002E+04  0.28880702805E+04  0.24224861193E+04 0.  0.
        5    1    3    3  502    0  0.96184409232E+03 -0.47439018701E+03 -0.11508215921E+03  0.10786362227E+04  0.46999998093E+01 0.  1.
       -5    1    3    3    0  502 -0.96184409232E+03  0.47439018701E+03 -0.14573398410E+04  0.18094340578E+04  0.46999998093E+01 0. -1.
</event>
<event>
 5   0  0.2901816E-05  0.1877283E+04  0.7818609E-02  0.8666247E-01
       -1   -1    0    0    0  501  0.00000000000E+00  0.00000000000E+00  0.36867549084E+03  0.36867549088E+03  0.50400001928E-02 0. -1.
        1   -1    0    0  501    0  0.00000000000E+00  0.00000000000E+00 -0.23897664351E+04  0.23897664351E+04  0.50400001928E-02 0.  1.
    10030    2    1    2    0    0  0.00000000000E+00  0.00000000000E+00 -0.20210909442E+04  0.27584419260E+04  0.18772834773E+04 0.  0.
        4    1    3    3  502    0 -0.41921190848E+03 -0.40037374382E+02 -0.22431658179E+04  0.22823531968E+04  0.12699999809E+01 0.  1.
       -4    1    3    3    0  502  0.41921190848E+03  0.40037374382E+02  0.22207487370E+03  0.47608872911E+03  0.12699999809E+01 0. -1.
</event>
<event>
 5   0  0.2943123E-05  0.2200503E+04  0.7818609E-02  0.8518219E-01
       -1   -1    0    0    0  501  0.00000000000E+00  0.00000000000E+00  0.66280916962E+03  0.66280916963E+03  0.50400001928E-02 0. -1.
        1   -1    0    0  501    0  0.00000000000E+00  0.00000000000E+00 -0.18263984116E+04  0.18263984116E+04  0.50400001928E-02 0.  1.
    10030    2    1    2    0    0  0.00000000000E+00  0.00000000000E+00 -0.11635892420E+04  0.24892075813E+04  0.22005032285E+04 0.  0.
        1    1    3    3  502    0  0.82370199277E+03  0.24231431476E+03 -0.13600666161E+04  0.16084098981E+04  0.50400001928E-02 0.  1.
       -1    1    3    3    0  502 -0.82370199277E+03 -0.24231431476E+03  0.19647737414E+03  0.88079768313E+03  0.50400001928E-02 0. -1.
</event>
<event>
 5   0  0.6714629E-05  0.2075953E+04  0.7818609E-02  0.8571911E-01
        2   -1    0    0  501    0  0.00000000000E+00  0.00000000000E+00  0.14956965730E+04  0.14956965730E+04  0.25500000920E-02 0. -1.
       -2   -1    0    0    0  501  0.00000000000E+00  0.00000000000E+00 -0.72033028096E+03  0.72033028096E+03  0.25500000920E-02 0.  1.
    10030    2    1    2    0    0  0.00000000000E+00  0.00000000000E+00  0.77536629206E+03  0.22160268540E+04  0.20759533065E+04 0.  0.
        3    1    3    3  502    0 -0.23539563386E+02  0.92155471370E+03  0.89692358356E+03  0.12861917145E+04  0.10100000352E+00 0. -1.
       -3    1    3    3    0  502  0.23539563386E+02 -0.92155471370E+03 -0.12155729150E+03  0.92983513953E+03  0.10100000352E+00 0.  1.
</event>
<event>
 5   0  0.6337926E-05  0.2378181E+04  0.7818609E-02  0.8447718E-01
        2   -1    0    0  501    0  0.00000000000E+00  0.00000000000E+00  0.11437831398E+04  0.11437831398E+04  0.25500000920E-02 0. -1.
       -2   -1    0    0    0  501  0.00000000000E+00  0.00000000000E+00 -0.12361928787E+04  0.12361928787E+04  0.25500000920E-02 0.  1.
    10030    2    1    2    0    0  0.00000000000E+00  0.00000000000E+00 -0.92409738947E+02  0.23799760185E+04  0.23781812986E+04 0.  0.
        1    1    3    3  502    0  0.61140618977E+03  0.95713914395E+03 -0.39861221114E+03  0.12036712860E+04  0.50400001928E-02 0.  1.
       -1    1    3    3    0  502 -0.61140618977E+03 -0.95713914395E+03  0.30620247220E+03  0.11763047325E+04  0.50400001928E-02 0. -1.
</event>
<event>
 5   0  0.2339125E-05  0.2410480E+04  0.7818609E-02  0.8435590E-01
       -3   -1    0    0    0  501  0.00000000000E+00  0.00000000000E+00  0.77014422924E+03  0.77014423587E+03  0.10100000352E+00 0. -1.
        3   -1    0    0  501    0  0.00000000000E+00  0.00000000000E+00 -0.18861445997E+04  0.18861446024E+04  0.10100000352E+00 0.  1.
    10030    2    1    2    0    0  0.00000000000E+00  0.00000000000E+00 -0.11160003705E+04  0.26562888383E+04  0.24104799451E+04 0.  0.
        3    1    3    3  502    0 -0.70961622417E+03 -0.96385202786E+03 -0.40201148042E+03  0.12626080777E+04  0.10100000352E+00 0. -1.
       -3    1    3    3    0  502  0.70961622417E+03  0.96385202786E+03 -0.71398889008E+03  0.13936807606E+04  0.10100000352E+00 0.  1.
</event>
<event>
 5   0  0.6600166E-05  0.2449356E+04  0.7818609E-02  0.8421253E-01
        2   -1    0    0  501    0  0.00000000000E+00  0.00000000000E+00  0.24358054337E+04  0.24358054337E+04  0.25500000920E-02 0.  1.
       -2   -1    0    0    0  501  0.00000000000E+00  0.00000000000E+00 -0.61574538864E+03  0.61574538865E+03  0.25500000920E-02 0. -1.
    10030    2    1    2    0    0  0.00000000000E+00  0.00000000000E+00  0.18200600451E+04  0.30515508224E+04  0.24493558038E+04 0.  0.
        5    1    3    3  502    0 -0.25124958705E+02  0.76518826597E+03 -0.28083708656E+03  0.81549733605E+03  0.46999998093E+01 0. -1.
       -5    1    3    3    0  502  0.25124958705E+02 -0.76518826597E+03  0.21008971316E+04  0.22360534863E+04  0.46999998093E+01 0.  1.
</event>
<event>
 5   0  0.2943244E-05  0.2392102E+04  0.7818609E-02  0.8442467E-01
       -1   -1    0    0    0  501  0.00000000000E+00  0.00000000000E+00  0.14064200732E+04  0.14064200732E+04  0.50400001928E-02 0. -1.
        1   -1    0    0  501    0  0.00000000000E+00  0.00000000000E+00 -0.10171481046E+04  0.10171481046E+04  0.50400001928E-02 0.  1.
    10030    2    1    2    0    0  0.00000000000E+00  0.00000000000E+00  0.38927196867E+03  0.24235681778E+04  0.23921015963E+04 0.  0.
        3    1    3    3  502    0  0.92175629446E+03 -0.54747234913E+03 -0.34260039126E+03  0.11254935263E+04  0.10100000352E+00 0.  1.
       -3    1    3    3    0  502 -0.92175629446E+03  0.54747234913E+03  0.73187235992E+03  0.12980746515E+04  0.10100000352E+00 0. -1.
</event>
<event>
 5   0  0.6703961E-05  0.2537787E+04  0.7818609E-02  0.8389646E-01
        2   -1    0    0  501    0  0.00000000000E+00  0.00000000000E+00  0.16584820332E+04  0.16584820332E+04  0.25500000920E-02 0.  1.
       -2   -1    0    0    0  501  0.00000000000E+00  0.00000000000E+00 -0.97082163545E+03  0.97082163545E+03  0.25500000920E-02 0. -1.
    10030    2    1    2    0    0  0.00000000000E+00  0.00000000000E+00  0.68766039780E+03  0.26293036687E+04  0.25377866261E+04 0.  0.
        2    1    3    3  502    0 -0.64773895716E+02  0.69006876522E+03 -0.75737219341E+03  0.10266465788E+04  0.25500000920E-02 0. -1.
       -2    1    3    3    0  502  0.64773895716E+02 -0.69006876522E+03  0.14450325912E+04  0.16026570899E+04  0.25500000920E-02 0.  1.
</event>
<event>
 5   0  0.2943123E-05  0.2411681E+04  0.7818609E-02  0.8435143E-01
        1   -1    0    0  501    0  0.00000000000E+00  0.00000000000E+00  0.13554845458E+04  0.13554845458E+04  0.50400001928E-02 0. -1.
       -1   -1    0    0    0  501  0.00000000000E+00  0.00000000000E+00 -0.10727171528E+04  0.10727171528E+04  0.50400001928E-02 0.  1.
    10030    2    1    2    0    0  0.00000000000E+00  0.00000000000E+00  0.28276739292E+03  0.24282016986E+04  0.24116811752E+04 0.  0.
        1    1    3    3  502    0 -0.42966947101E+03 -0.10521977285E+04  0.54702765046E+03  0.12613386399E+04  0.50400001928E-02 0. -1.
       -1    1    3    3    0  502  0.42966947101E+03  0.10521977285E+04 -0.26426025754E+03  0.11668630587E+04  0.50400001928E-02 0.  1.
</event>
<event>
 5   0  0.6714629E-05  0.2305668E+04  0.7818609E-02  0.8475690E-01
        2   -1    0    0  501    0  0.00000000000E+00  0.00000000000E+00  0.69521444258E+03  0.69521444258E+03  0.25500000920E-02 0. -1.
       -2   -1    0    0    0  501  0.00000000000E+00  0.00000000000E+00 -0.19116786865E+04  0.19116786865E+04  0.25500000920E-02 0.  1.
    10030    2    1    2    0    0  0.00000000000E+00  0.00000000000E+00 -0.12164642439E+04  0.26068931291E+04  0.23056683477E+04 0.  0.
        3    1    3    3  502    0 -0.33127497073E+03 -0.28690154441E+03 -0.18138261482E+04  0.18660173923E+04  0.10100000352E+00 0.  1.
       -3    1    3    3    0  502  0.33127497073E+03  0.28690154441E+03  0.59736190428E+03  0.74087573675E+03  0.10100000352E+00 0. -1.
</event>
<event>
 5   0  0.6703961E-05  0.2171927E+04  0.7818609E-02  0.8530204E-01
       -2   -1    0    0    0  501  0.00000000000E+00  0.00000000000E+00  0.87777775748E+03  0.87777775749E+03  0.25500000920E-02 0.  1.
        2   -1    0    0  501    0  0.00000000000E+00  0.00000000000E+00 -0.13435251190E+04  0.13435251190E+04  0.25500000920E-02 0. -1.
    10030    2    1    2    0    0  0.00000000000E+00  0.00000000000E+00 -0.46574736150E+03  0.22213028765E+04  0.21719267631E+04 0.  0.
        2    1    3    3  502    0 -0.70928697038E+02 -0.95139403746E+03 -0.76344976354E+03  0.12218989467E+04  0.25500000920E-02 0. -1.
       -2    1    3    3    0  502  0.70928697038E+02  0.95139403746E+03  0.29770240204E+03  0.99940392973E+03  0.25500000920E-02 0.  1.
</event>
<event>
 5   0  0.2943123E-05  0.1975271E+04  0.7818609E-02  0.8618270E-01
       -1   -1    0    0    0  501  0.00000000000E+00  0.00000000000E+00  0.12164359184E+04  0.12164359184E+04  0.50400001928E-02 0.  1.
        1   -1    0    0  501    0  0.00000000000E+00  0.00000000000E+00 -0.80187004309E+03  0.80187004311E+03  0.50400001928E-02 0. -1.
    10030    2    1    2    0    0  0.00000000000E+00  0.00000000000E+00  0.41456587533E+03  0.20183059615E+04  0.19752706370E+04 0.  0.
        1    1    3    3  502    0 -0.53560959559E+03  0.23691172616E+03  0.10198566208E+04  0.11760579628E+04  0.50400001928E-02 0. -1.
       -1    1    3    3    0  502  0.53560959559E+03 -0.23691172616E+03 -0.60529074543E+03  0.84224799876E+03  0.50400001928E-02 0.  1.
</event>
<event>
 5   0  0.6600166E-05  0.2431228E+04  0.7818609E-02  0.8427904E-01
       -2   -1    0    0    0  501  0.00000000000E+00  0.00000000000E+00  0.15536724922E+04  0.15536724922E+04  0.25500000920E-02 0. -1.
        2   -1    0    0  501    0  0.00000000000E+00  0.00000000000E+00 -0.95111260147E+03  0.95111260147E+03  0.25500000920E-02 0.  1.
    10030    2    1    2    0    0  0.00000000000E+00  0.00000000000E+00  0.60255989076E+03  0.25047850937E+04  0.24312280732E+04 0.  0.
        5    1    3    3  502    0 -0.91824570188E+03  0.78505694207E+03  0.44029119440E+03  0.12858335807E+04  0.46999998093E+01 0. -1.
       -5    1    3    3    0  502  0.91824570188E+03 -0.78505694207E+03  0.16226869636E+03  0.12189515130E+04  0.46999998093E+01 0.  1.
</event>
<event>
 5   0  0.6703961E-05  0.2453568E+04  0.7818609E-02  0.8419717E-01
        2   -1    0    0  501    0  0.00000000000E+00  0.00000000000E+00  0.16946305776E+04  0.16946305776E+04  0.25500000920E-02 0. -1.
       -2   -1    0    0    0  501  0.00000000000E+00  0.00000000000E+00 -0.88809838277E+03  0.88809838277E+03  0.25500000920E-02 0.  1.
    10030    2    1    2    0    0  0.00000000000E+00  0.00000000000E+00  0.80653219485E+03  0.25827289604E+04  0.24535677495E+04 0.  0.
        2    1    3    3  502    0  0.40235235298E+03 -0.70918081154E+03  0.13681284346E+04  0.15926707924E+04  0.25500000920E-02 0. -1.
       -2    1    3    3    0  502 -0.40235235298E+03  0.70918081154E+03 -0.56159623978E+03  0.99005816796E+03  0.25500000920E-02 0.  1.
</event>
<event>
 5   0  0.6600166E-05  0.2414241E+04  0.7818609E-02  0.8434191E-01
       -2   -1    0    0    0  501  0.00000000000E+00  0.00000000000E+00  0.89473694139E+03  0.89473694139E+03  0.25500000920E-02 0.  1.
        2   -1    0    0  501    0  0.00000000000E+00  0.00000000000E+00 -0.16285672811E+04  0.16285672811E+04  0.25500000920E-02 0. -1.
    10030    2    1    2    0    0  0.00000000000E+00  0.00000000000E+00 -0.73383033967E+03  0.25233042225E+04  0.24142405082E+04 0.  0.
        5    1    3    3  502    0  0.43565286631E+03 -0.95917369818E+02  0.80541717118E+03  0.92071302336E+03  0.46999998093E+01 0.  1.
       -5    1    3    3    0  502 -0.43565286631E+03  0.95917369818E+02 -0.15392475109E+04  0.16025911991E+04  0.46999998093E+01 0. -1.
</event>
<event>
 5   0  0.2943123E-05  0.2396591E+04  0.7818609E-02  0.8440781E-01
       -1   -1    0    0    0  501  0.00000000000E+00  0.00000000000E+00  0.13782867068E+04  0.13782867068E+04  0.50400001928E-02 0.  1.
        1   -1    0    0  501    0  0.00000000000E+00  0.00000000000E+00 -0.10418094735E+04  0.10418094736E+04  0.50400001928E-02 0. -1.
    10030    2    1    2    0    0  0.00000000000E+00  0.00000000000E+00  0.33647723322E+03  0.24200961803E+04  0.23965910359E+04 0.  0.
        1    1    3    3  502    0 -0.10233827454E+04 -0.45615954210E+03  0.59728021871E+03  0.12696997405E+04  0.50400001928E-02 0.  1.
       -1    1    3    3    0  502  0.10233827454E+04  0.45615954210E+03 -0.26080298548E+03  0.11503964398E+04  0.50400001928E-02 0. -1.
</event>
<event>
 5   0  0.6978115E-05  0.2398190E+04  0.7818609E-02  0.8440181E-01
        2   -1    0    0  501    0  0.00000000000E+00  0.00000000000E+00  0.11466397019E+04  0.11466397019E+04  0.25500000920E-02 0.  1.
       -2   -1    0    0    0  501  0.00000000000E+00  0.00000000000E+00 -0.12539504161E+04  0.12539504161E+04  0.25500000920E-02 0. -1.
    10030    2    1    2    0    0  0.00000000000E+00  0.00000000000E+00 -0.10731071420E+03  0.24005901179E+04  0.23981904272E+04 0.  0.
        4    1    3    3  502    0  0.41026368502E+03 -0.86321338870E+03  0.67120601030E+03  0.11678924466E+04  0.12699999809E+01 0.  1.
       -4    1    3    3    0  502 -0.41026368502E+03  0.86321338870E+03 -0.77851672450E+03  0.12326976713E+04  0.12699999809E+01 0. -1.
</event>
<event>
 5   0  0.6714629E-05  0.1834453E+04  0.7818609E-02  0.8688190E-01
       -2   -1    0    0    0  501  0.00000000000E+00  0.00000000000E+00  0.39439144115E+03  0.39439144116E+03  0.25500000920E-02 0. -1.
        2   -1    0    0  501    0  0.00000000000E+00  0.00000000000E+00 -0.21331703097E+04  0.21331703097E+04  0.25500000920E-02 0.  1.
    10030    2    1    2    0    0  0.00000000000E+00  0.00000000000E+00 -0.17387788686E+04  0.25275617509E+04  0.18344526297E+04 0.  0.
        3    1    3    3  502    0  0.61536900687E+03 -0.13098808855E+03 -0.17889982867E+04  0.18964049604E+04  0.10100000352E+00 0.  1.
       -3    1    3    3    0  502 -0.61536900687E+03  0.13098808855E+03  0.50219418135E+02  0.63115679044E+03  0.10100000352E+00 0. -1.
</event>
<event>
 5   0  0.6600166E-05  0.2335612E+04  0.7818609E-02  0.8464011E-01
       -2   -1    0    0    0  501  0.00000000000E+00  0.00000000000E+00  0.12183739869E+04  0.12183739869E+04  0.25500000920E-02 0. -1.
        2   -1    0    0  501    0  0.00000000000E+00  0.00000000000E+00 -0.11193368411E+04  0.11193368411E+04  0.25500000920E-02 0.  1.
    10030    2    1    2    0    0  0.00000000000E+00  0.00000000000E+00  0.99037145732E+02  0.23377108280E+04  0.23356120309E+04 0.  0.
        5    1    3    3  502    0 -0.50613575452E+03  0.10497311409E+04 -0.25648376703E+02  0.11656709653E+04  0.46999998093E+01 0.  1.
       -5    1    3    3    0  502  0.50613575452E+03 -0.10497311409E+04  0.12468552244E+03  0.11720398627E+04  0.46999998093E+01 0. -1.
</event>
<event>
 5   0  0.6714629E-05  0.2408794E+04  0.7818609E-02  0.8436219E-01
        2   -1    0    0  501    0  0.00000000000E+00  0.00000000000E+00  0.19702715093E+04  0.19702715093E+04  0.25500000920E-02 0. -1.
       -2   -1    0    0    0  501  0.00000000000E+00  0.00000000000E+00 -0.73622956335E+03  0.73622956336E+03  0.25500000920E-02 0.  1.
    10030    2    1    2    0    0  0.00000000000E+00  0.00000000000E+00  0.12340419459E+04  0.27065010727E+04  0.24087939995E+04 0.  0.
        3    1    3    3  502    0  0.11655407732E+04 -0.19992800487E+03  0.87352400539E+03  0.14702043053E+04  0.10100000352E+00 0. -1.
       -3    1    3    3    0  502 -0.11655407732E+04  0.19992800487E+03  0.36051794055E+03  0.12362967673E+04  0.10100000352E+00 0.  1.
</event>
<event>
 5   0  0.2943244E-05  0.2399308E+04  0.7818609E-02  0.8439763E-01
       -1   -1    0    0    0  501  0.00000000000E+00  0.00000000000E+00  0.12936348210E+04  0.12936348210E+04  0.50400001928E-02 0.  1.
        1   -1    0    0  501    0  0.00000000000E+00  0.00000000000E+00 -0.11125004376E+04  0.11125004377E+04  0.50400001928E-02 0. -1.
    10030    2    1    2    0    0  0.00000000000E+00  0.00000000000E+00  0.18113438331E+03  0.24061352586E+04  0.23993076539E+04 0.  0.
        3    1    3    3  502    0 -0.58955436995E+03 -0.20394467812E+03  0.11181789358E+04  0.12804264639E+04  0.10100000352E+00 0.  1.
       -3    1    3    3    0  502  0.58955436995E+03  0.20394467812E+03 -0.93704455250E+03  0.11257087947E+04  0.10100000352E+00 0. -1.
</event>
<event>
 5   0  0.2943244E-05  0.2548528E+04  0.7818609E-02  0.8385898E-01
       -1   -1    0    0    0  501  0.00000000000E+00  0.00000000000E+00  0.13560866241E+04  0.13560866241E+04  0.50400001928E-02 0.  1.
        1   -1    0    0  501    0  0.00000000000E+00  0.00000000000E+00 -0.11973782082E+04  0.11973782082E+04  0.50400001928E-02 0. -1.
    10030    2    1    2    0    0  0.00000000000E+00  0.00000000000E+00  0.15870841586E+03  0.25534648323E+04  0.25485278670E+04 0.  0.
        3    1    3    3  502    0  0.37066158339E+03 -0.11772167793E+04 -0.23830761303E+03  0.12569884182E+04  0.10100000352E+00 0. -1.
       -3    1    3    3    0  502 -0.37066158339E+03  0.11772167793E+04  0.39701602889E+03  0.12964764141E+04  0.10100000352E+00 0.  1.
</event>
<event>
 5   0  0.6978115E-05  0.2399069E+04  0.7818609E-02  0.8439852E-01
       -2   -1    0    0    0  501  0.00000000000E+00  0.00000000000E+00  0.68589700479E+03  0.68589700479E+03  0.25500000920E-02 0.  1.
        2   -1    0    0  501    0  0.00000000000E+00  0.00000000000E+00 -0.20978123469E+04  0.20978123469E+04  0.25500000920E-02 0. -1.
    10030    2    1    2    0    0  0.00000000000E+00  0.00000000000E+00 -0.14119153421E+04  0.27837093516E+04  0.23990691573E+04 0.  0.
        4    1    3    3  502    0  0.33056515006E+03  0.11514599031E+04 -0.77699753000E+03  0.14278865506E+04  0.12699999809E+01 0. -1.
       -4    1    3    3    0  502 -0.33056515006E+03 -0.11514599031E+04 -0.63491781206E+03  0.13558228010E+04  0.12699999809E+01 0.  1.
</event>
<event>
 5   0  0.2847158E-05  0.2689678E+04  0.7818609E-02  0.8338362E-01
       -1   -1    0    0    0  501  0.00000000000E+00  0.00000000000E+00  0.11716535290E+04  0.11716535290E+04  0.50400001928E-02 0.  1.
        1   -1    0    0  501    0  0.00000000000E+00  0.00000000000E+00 -0.15436240464E+04  0.15436240464E+04  0.50400001928E-02 0. -1.
    10030    2    1    2    0    0  0.00000000000E+00  0.00000000000E+00 -0.37197051742E+03  0.27152775755E+04  0.26896784652E+04 0.  0.
        5    1    3    3  502    0  0.36020248657E+03  0.82433119715E+03  0.82318025603E+03  0.12193914785E+04  0.46999998093E+01 0.  1.
       -5    1    3    3    0  502 -0.36020248657E+03 -0.82433119715E+03 -0.11951507734E+04  0.14958860970E+04  0.46999998093E+01 0. -1.
</event>
<event>
 5   0  0.2339125E-05  0.2191828E+04  0.7818609E-02  0.8521837E-01
        3   -1    0    0  501    0  0.00000000000E+00  0.00000000000E+00  0.17022598374E+04  0.17022598404E+04  0.10100000352E+00 0.  1.
       -3   -1    0    0    0  501  0.00000000000E+00  0.00000000000E+00 -0.70554860284E+03  0.70554861006E+03  0.10100000352E+00 0. -1.
    10030    2    1    2    0    0  0.00000000000E+00  0.00000000000E+00  0.99671123459E+03  0.24078084505E+04  0.21918276048E+04 0.  0.
        1    1    3    3  502    0 -0.98554871916E+03 -0.30178679557E+03  0.90739813585E+03  0.13732271934E+04  0.50400001928E-02 0. -1.
       -1    1    3    3    0  502  0.98554871916E+03  0.30178679557E+03  0.89313098738E+02  0.10345812571E+04  0.50400001928E-02 0.  1.
</event>
<event>
 5   0  0.2943244E-05  0.2128719E+04  0.7818609E-02  0.8548697E-01
       -1   -1    0    0    0  501  0.00000000000E+00  0.00000000000E+00  0.15675135121E+04  0.15675135121E+04  0.50400001928E-02 0. -1.
        1   -1    0    0  501    0  0.00000000000E+00  0.00000000000E+00 -0.72271207600E+03  0.72271207602E+03  0.50400001928E-02 0.  1.
    10030    2    1    2    0    0  0.00000000000E+00  0.00000000000E+00  0.84480143606E+03  0.22902255881E+04  0.21287188114E+04 0.  0.
        3    1    3    3  502    0  0.42455158542E+03  0.83950373513E+03 -0.11321676633E+03  0.94753818728E+03  0.10100000352E+00 0.  1.
       -3    1    3    3    0  502 -0.42455158542E+03 -0.83950373513E+03  0.95801820239E+03  0.13426874008E+04  0.10100000352E+00 0. -1.
</event>
<event>
 5   0  0.2339125E-05  0.2404660E+04  0.7818609E-02  0.8437761E-01
        3   -1    0    0  501    0  0.00000000000E+00  0.00000000000E+00  0.10290652043E+04  0.10290652092E+04  0.10100000352E+00 0. -1.
       -3   -1    0    0    0  501  0.00000000000E+00  0.00000000000E+00 -0.14047674450E+04  0.14047674486E+04  0.10100000352E+00 0.  1.
    10030    2    1    2    0    0  0.00000000000E+00  0.00000000000E+00 -0.37570224070E+03  0.24338326578E+04  0.24046598995E+04 0.  0.
        2    1    3    3  502    0 -0.96333082008E+03 -0.71564044946E-02 -0.91601717227E+03  0.13293207773E+04  0.25500000920E-02 0. -1.
       -2    1    3    3    0  502  0.96333082008E+03  0.71564044946E-02  0.54031493157E+03  0.11045118805E+04  0.25500000920E-02 0.  1.
</event>
<event>
 5   0  0.2943244E-05  0.2024726E+04  0.7818609E-02  0.8595147E-01
       -1   -1    0    0    0  501  0.00000000000E+00  0.00000000000E+00  0.56113238588E+03  0.56113238591E+03  0.50400001928E-02 0. -1.
        1   -1    0    0  501    0  0.00000000000E+00  0.00000000000E+00 -0.18264477251E+04  0.18264477251E+04  0.50400001928E-02 0.  1.
    10030    2    1    2    0    0  0.00000000000E+00  0.00000000000E+00 -0.12653153392E+04  0.23875801110E+04  0.20247261244E+04 0.  0.
        3    1    3    3  502    0  0.69068823244E+03 -0.73384301712E+03 -0.74639596298E+03  0.12540664863E+04  0.10100000352E+00 0. -1.
       -3    1    3    3    0  502 -0.69068823244E+03  0.73384301712E+03 -0.51891937620E+03  0.11335136247E+04  0.10100000352E+00 0.  1.
</event>
<event>
 5   0  0.6337926E-05  0.2509509E+04  0.7818609E-02  0.8399606E-01
       -2   -1    0    0    0  501  0.00000000000E+00  0.00000000000E+00  0.10265185104E+04  0.10265185104E+04  0.25500000920E-02 0. -1.
        2   -1    0    0  501    0  0.00000000000E+00  0.00000000000E+00 -0.15337369837E+04  0.15337369837E+04  0.25500000920E-02 0.  1.
    10030    2    1    2    0    0  0.00000000000E+00  0.00000000000E+00 -0.50721847327E+03  0.25602554941E+04  0.25095094372E+04 0.  0.
        1    1    3    3  502    0 -0.54533375520E+03 -0.31452135705E+03  0.85374090246E+03  0.10607479046E+04  0.50400001928E-02 0. -1.
       -1    1    3    3    0  502  0.54533375520E+03  0.31452135705E+03 -0.13609593757E+04  0.14995075895E+04  0.50400001928E-02 0.  1.
</event>
<event>
 5   0  0.2915546E-05  0.2380090E+04  0.7818609E-02  0.8446996E-01
        1   -1    0    0  501    0  0.00000000000E+00  0.00000000000E+00  0.11230796870E+04  0.11230796870E+04  0.50400001928E-02 0.  1.
       -1   -1    0    0    0  501  0.00000000000E+00  0.00000000000E+00 -0.12610027947E+04  0.12610027947E+04  0.50400001928E-02 0. -1.
    10030    2    1    2    0    0  0.00000000000E+00  0.00000000000E+00 -0.13792310761E+03  0.23840824817E+04  0.23800895983E+04 0.  0.
        2    1    3    3  502    0  0.75805920894E+03 -0.55261126982E+03 -0.80242876052E+03  0.12344735297E+04  0.25500000920E-02 0. -1.
       -2    1    3    3    0  502 -0.75805920894E+03  0.55261126982E+03  0.66450565291E+03  0.11496089520E+04  0.25500000920E-02 0.  1.
</event>
<event>
 5   0  0.2943244E-05  0.2381777E+04  0.7818609E-02  0.8446358E-01
        1   -1    0    0  501    0  0.00000000000E+00  0.00000000000E+00  0.16243462677E+04  0.16243462677E+04  0.50400001928E-02 0. -1.
       -1   -1    0    0    0  501  0.00000000000E+00  0.00000000000E+00 -0.87309896572E+03  0.87309896574E+03  0.50400001928E-02 0.  1.
    10030    2    1    2    0    0  0.00000000000E+00  0.00000000000E+00  0.75124730197E+03  0.24974452334E+04  0.23817766867E+04 0.  0.
        3    1    3    3  502    0  0.51732494905E+03 -0.10105294708E+04  0.75284462803E+03  0.13621930694E+04  0.10100000352E+00 0. -1.
       -3    1    3    3    0  502 -0.51732494905E+03  0.10105294708E+04 -0.15973260608E+01  0.11352521640E+04  0.10100000352E+00 0.  1.
</event>
<event>
 5   0  0.2915546E-05  0.2380067E+04  0.7818609E-02  0.8447004E-01
        1   -1    0    0  501    0  0.00000000000E+00  0.00000000000E+00  0.13121679514E+04  0.13121679514E+04  0.50400001928E-02 0. -1.
       -1   -1    0    0    0  501  0.00000000000E+00  0.00000000000E+00 -0.10792670079E+04  0.10792670079E+04  0.50400001928E-02 0.  1.
    10030    2    1    2    0    0  0.00000000000E+00  0.00000000000E+00  0.23290094349E+03  0.23914349593E+04  0.23800668720E+04 0.  0.
        2    1    3    3  502    0 -0.44579026132E+03  0.31083641548E+03  0.11802004105E+04  0.12993156827E+04  0.25500000920E-02 0. -1.
       -2    1    3    3    0  502  0.44579026132E+03 -0.31083641548E+03 -0.94729946701E+03  0.10921192767E+04  0.25500000920E-02 0.  1.
</event>
<event>
 5   0  0.2943244E-05  0.2395811E+04  0.7818609E-02  0.8441074E-01
       -1   -1    0    0    0  501  0.00000000000E+00  0.00000000000E+00  0.11244427631E+04  0.11244427631E+04  0.50400001928E-02 0. -1.
        1   -1    0    0  501    0  0.00000000000E+00  0.00000000000E+00 -0.12761672722E+04  0.12761672722E+04  0.50400001928E-02 0.  1.
    10030    2    1    2    0    0  0.00000000000E+00  0.00000000000E+00 -0.15172450911E+03  0.24006100354E+04  0.23958105550E+04 0.  0.
        3    1    3    3  502    0 -0.80075954921E+03  0.86473624067E+03 -0.29075031395E+03  0.12138864761E+04  0.10100000352E+00 0. -1.
       -3    1    3    3    0  502  0.80075954921E+03 -0.86473624067E+03  0.13902580484E+03  0.11867235593E+04  0.10100000352E+00 0.  1.
</event>
<event>
 5   0  0.6600166E-05  0.2329553E+04  0.7818609E-02  0.8466359E-01
        2   -1    0    0  501    0  0.00000000000E+00  0.00000000000E+00  0.40905428875E+03  0.40905428876E+03  0.25500000920E-02 0. -1.
       -2   -1    0    0    0  501  0.00000000000E+00  0.00000000000E+00 -0.33166863377E+04  0.33166863377E+04  0.25500000920E-02 0.  1.
    10030    2    1    2    0    0  0.00000000000E+00  0.00000000000E+00 -0.29076320489E+04  0.37257406264E+04  0.23295534086E+04 0.  0.
        5    1    3    3  502    0  0.42402119301E+03  0.37569159127E+03 -0.30814856962E+04  0.31331317128E+04  0.46999998093E+01 0.  1.
       -5    1    3    3    0  502 -0.42402119301E+03 -0.37569159127E+03  0.17385364726E+03  0.59260891365E+03  0.46999998093E+01 0. -1.
</event>
<event>
 5   0  0.6337926E-05  0.2455504E+04  0.7818609E-02  0.8419011E-01
        2   -1    0    0  501    0  0.00000000000E+00  0.00000000000E+00  0.16407893413E+04  0.16407893413E+04  0.25500000920E-02 0. -1.
       -2   -1    0    0    0  501  0.00000000000E+00  0.00000000000E+00 -0.91868888912E+03  0.91868888912E+03  0.25500000920E-02 0.  1.
    10030    2    1    2    0    0  0.00000000000E+00  0.00000000000E+00  0.72210045222E+03  0.25594782305E+04  0.24555039705E+04 0.  0.
        1    1    3    3  502    0  0.32025391575E+03 -0.11846238142E+04  0.32096693330E+03  0.12684304963E+04  0.50400001928E-02 0.  1.
       -1    1    3    3    0  502 -0.32025391575E+03  0.11846238142E+04  0.40113351892E+03  0.12910477341E+04  0.50400001928E-02 0. -1.
</event>
<event>
 5   0  0.2943123E-05  0.2838440E+04  0.7818609E-02  0.8291433E-01
       -1   -1    0    0    0  501  0.00000000000E+00  0.00000000000E+00  0.10547033172E+04  0.10547033172E+04  0.50400001928E-02 0. -1.
        1   -1    0    0  501    0  0.00000000000E+00  0.00000000000E+00 -0.19097178516E+04  0.19097178516E+04  0.50400001928E-02 0.  1.
    10030    2    1    2    0    0  0.00000000000E+00  0.00000000000E+00 -0.85501453440E+03  0.29644211688E+04  0.28384402429E+04 0.  0.
        1    1    3    3  502    0 -0.12150620177E+04  0.26798678393E+03  0.28542768572E+03  0.12765819938E+04  0.50400001928E-02 0. -1.
       -1    1    3    3    0  502  0.12150620177E+04 -0.26798678393E+03 -0.11404422201E+04  0.16878391750E+04  0.50400001928E-02 0.  1.
</event>
<event>
 5   0  0.6703961E-05  0.2428028E+04  0.7818609E-02  0.8429084E-01
       -2   -1    0    0    0  501  0.00000000000E+00  0.00000000000E+00  0.92469940881E+03  0.92469940882E+03  0.25500000920E-02 0. -1.
        2   -1    0    0  501    0  0.00000000000E+00  0.00000000000E+00 -0.15938478460E+04  0.15938478460E+04  0.25500000920E-02 0.  1.
    10030    2    1    2    0    0  0.00000000000E+00  0.00000000000E+00 -0.66914843714E+03  0.25185472548E+04  0.24280281390E+04 0.  0.
        2    1    3    3  502    0 -0.97783120102E+03  0.38175299067E+03  0.29803190353E+03  0.10911976077E+04  0.25500000920E-02 0.  1.
       -2    1    3    3    0  502  0.97783120102E+03 -0.38175299067E+03 -0.96718034067E+03  0.14273496471E+04  0.25500000920E-02 0. -1.
</event>
<event>
 5   0  0.6600166E-05  0.2458013E+04  0.7818609E-02  0.8418098E-01
       -2   -1    0    0    0  501  0.00000000000E+00  0.00000000000E+00  0.57564796976E+03  0.57564796977E+03  0.25500000920E-02 0.  1.
        2   -1    0    0  501    0  0.00000000000E+00  0.00000000000E+00 -0.26239245849E+04  0.26239245849E+04  0.25500000920E-02 0. -1.
    10030    2    1    2    0    0  0.00000000000E+00  0.00000000000E+00 -0.20482766151E+04  0.31995725547E+04  0.24580129049E+04 0.  0.
        5    1    3    3  502    0 -0.48958682741E+03 -0.24792752332E+01 -0.24914927127E+04  0.25391454145E+04  0.46999998093E+01 0. -1.
       -5    1    3    3    0  502  0.48958682741E+03  0.24792752332E+01  0.44321609756E+03  0.66042714020E+03  0.46999998093E+01 0.  1.
</event>
<event>
 5   0  0.2915546E-05  0.2406482E+04  0.7818609E-02  0.8437081E-01
       -1   -1    0    0    0  501  0.00000000000E+00  0.00000000000E+00  0.21862907658E+04  0.21862907658E+04  0.50400001928E-02 0.  1.
        1   -1    0    0  501    0  0.00000000000E+00  0.00000000000E+00 -0.66221219810E+03  0.66221219812E+03  0.50400001928E-02 0. -1.
    10030    2    1    2    0    0  0.00000000000E+00  0.00000000000E+00  0.15240785677E+04  0.28485029639E+04  0.24064815925E+04 0.  0.
        2    1    3    3  502    0  0.10361263366E+04 -0.28387479149E+03  0.14034644235E+04  0.17674430884E+04  0.25500000920E-02 0.  1.
       -2    1    3    3    0  502 -0.10361263366E+04  0.28387479149E+03  0.12061414420E+03  0.10810598755E+04  0.25500000920E-02 0. -1.
</event>
<event>
 5   0  0.6703961E-05  0.2269360E+04  0.7818609E-02  0.8490101E-01
        2   -1    0    0  501    0  0.00000000000E+00  0.00000000000E+00  0.12725007610E+04  0.12725007610E+04  0.25500000920E-02 0.  1.
       -2   -1    0    0    0  501  0.00000000000E+00  0.00000000000E+00 -0.10117865003E+04  0.10117865003E+04  0.25500000920E-02 0. -1.
    10030    2    1    2    0    0  0.00000000000E+00  0.00000000000E+00  0.26071426064E+03  0.22842872613E+04  0.22693603430E+04 0.  0.
        2    1    3    3  502    0  0.87131306694E+03  0.51521552645E+03 -0.38571942252E+03  0.10832418808E+04  0.25500000920E-02 0. -1.
       -2    1    3    3    0  502 -0.87131306694E+03 -0.51521552645E+03  0.64643368317E+03  0.12010453805E+04  0.25500000920E-02 0.  1.
</event>
<event>
 5   0  0.6714629E-05  0.2035493E+04  0.7818609E-02  0.8590204E-01
       -2   -1    0    0    0  501  0.00000000000E+00  0.00000000000E+00  0.94700480466E+03  0.94700480466E+03  0.25500000920E-02 0. -1.
        2   -1    0    0  501    0  0.00000000000E+00  0.00000000000E+00 -0.10937729221E+04  0.10937729221E+04  0.25500000920E-02 0.  1.
    10030    2    1    2    0    0  0.00000000000E+00  0.00000000000E+00 -0.14676811749E+03  0.20407777268E+04  0.20354932694E+04 0.  0.
        3    1    3    3  502    0 -0.65804104909E+03  0.57954607865E+03 -0.59136498060E+03  0.10576408795E+04  0.10100000352E+00 0.  1.
       -3    1    3    3    0  502  0.65804104909E+03 -0.57954607865E+03  0.44459686312E+03  0.98313684727E+03  0.10100000352E+00 0. -1.
</event>
<event>
 5   0  0.2847158E-05  0.2064093E+04  0.7818609E-02  0.8577228E-01
       -1   -1    0    0    0  501  0.00000000000E+00  0.00000000000E+00  0.80045310691E+03  0.80045310692E+03  0.50400001928E-02 0.  1.
        1   -1    0    0  501    0  0.00000000000E+00  0.00000000000E+00 -0.13306464237E+04  0.13306464237E+04  0.50400001928E-02 0. -1.
    10030    2    1    2    0    0  0.00000000000E+00  0.00000000000E+00 -0.53019331677E+03  0.21310995306E+04  0.20640930832E+04 0.  0.
        5    1    3    3  502    0 -0.69813151280E+03 -0.31709869054E+02  0.51896687690E+03  0.87048367836E+03  0.46999998093E+01 0.  1.
       -5    1    3    3    0  502  0.69813151280E+03  0.31709869054E+02 -0.10491601937E+04  0.12606158523E+04  0.46999998093E+01 0. -1.
</event>
<event>
 5   0  0.2847158E-05  0.2317715E+04  0.7818609E-02  0.8470969E-01
       -1   -1    0    0    0  501  0.00000000000E+00  0.00000000000E+00  0.70623783538E+03  0.70623783540E+03  0.50400001928E-02 0.  1.
        1   -1    0    0  501    0  0.00000000000E+00  0.00000000000E+00 -0.19015563950E+04  0.19015563950E+04  0.50400001928E-02 0. -1.
    10030    2    1    2    0    0  0.00000000000E+00  0.00000000000E+00 -0.11953185596E+04  0.26077942304E+04  0.23177153167E+04 0.  0.
        5    1    3    3  502    0 -0.22484103950E+00 -0.11185820621E+04 -0.93838525487E+03  0.14600735792E+04  0.46999998093E+01 0. -1.
       -5    1    3    3    0  502  0.22484103950E+00  0.11185820621E+04 -0.25693330476E+03  0.11477206512E+04  0.46999998093E+01 0.  1.
</event>
<event>
 5   0  0.6337926E-05  0.2391103E+04  0.7818609E-02  0.8442842E-01
       -2   -1    0    0    0  501  0.00000000000E+00  0.00000000000E+00  0.50209860948E+03  0.50209860949E+03  0.25500000920E-02 0. -1.
        2   -1    0    0  501    0  0.00000000000E+00  0.00000000000E+00 -0.28467392752E+04  0.28467392752E+04  0.25500000920E-02 0.  1.
    10030    2    1    2    0    0  0.00000000000E+00  0.00000000000E+00 -0.23446406657E+04  0.33488378847E+04  0.23911033701E+04 0.  0.
        1    1    3    3  502    0  0.32493287486E+03  0.47642352032E+03  0.29442982987E+03  0.64749491783E+03  0.50400001928E-02 0. -1.
       -1    1    3    3    0  502 -0.32493287486E+03 -0.47642352032E+03 -0.26390704956E+04  0.27013429669E+04  0.50400001928E-02 0.  1.
</event>
<event>
 5   0  0.2901816E-05  0.2407823E+04  0.7818609E-02  0.8436580E-01
       -1   -1    0    0    0  501  0.00000000000E+00  0.00000000000E+00  0.11342683881E+04  0.11342683881E+04  0.50400001928E-02 0.  1.
        1   -1    0    0  501    0  0.00000000000E+00  0.00000000000E+00 -0.12778310985E+04  0.12778310985E+04  0.50400001928E-02 0. -1.
    10030    2    1    2    0    0  0.00000000000E+00  0.00000000000E+00 -0.14356271047E+03  0.24120994866E+04  0.24078234324E+04 0.  0.
        4    1    3    3  502    0  0.35229636251E+03  0.94228209926E+03 -0.73431319586E+03  0.12454821412E+04  0.12699999809E+01 0. -1.
       -4    1    3    3    0  502 -0.35229636251E+03 -0.94228209926E+03  0.59075048539E+03  0.11666173454E+04  0.12699999809E+01 0.  1.
</event>
<event>
 5   0  0.2915546E-05  0.1920235E+04  0.7818609E-02  0.8644849E-01
       -1   -1    0    0    0  501  0.00000000000E+00  0.00000000000E+00  0.63239476394E+03  0.63239476396E+03  0.50400001928E-02 0.  1.
        1   -1    0    0  501    0  0.00000000000E+00  0.00000000000E+00 -0.14576749813E+04  0.14576749813E+04  0.50400001928E-02 0. -1.
    10030    2    1    2    0    0  0.00000000000E+00  0.00000000000E+00 -0.82528021738E+03  0.20900697453E+04  0.19202354291E+04 0.  0.
        2    1    3    3  502    0 -0.95159967839E+03 -0.12707808036E+03 -0.39998232091E+03  0.10400368472E+04  0.25500000920E-02 0.  1.
       -2    1    3    3    0  502  0.95159967839E+03  0.12707808036E+03 -0.42529789646E+03  0.10500328981E+04  0.25500000920E-02 0. -1.
</event>
<event>
 5   0  0.6978115E-05  0.2476096E+04  0.7818609E-02  0.8411551E-01
       -2   -1    0    0    0  501  0.00000000000E+00  0.00000000000E+00  0.74958120413E+03  0.74958120413E+03  0.25500000920E-02 0. -1.
        2   -1    0    0  501    0  0.00000000000E+00  0.00000000000E+00 -0.20448258640E+04  0.20448258640E+04  0.25500000920E-02 0.  1.
    10030    2    1    2    0    0  0.00000000000E+00  0.00000000000E+00 -0.12952446599E+04  0.27944070682E+04  0.24760961479E+04 0.  0.
        4    1    3    3  502    0 -0.50673007983E+03  0.40699169401E+03 -0.18368113867E+04  0.19484084007E+04  0.12699999809E+01 0.  1.
       -4    1    3    3    0  502  0.50673007983E+03 -0.40699169401E+03  0.54156672681E+03  0.84599866743E+03  0.12699999809E+01 0. -1.
</event>
<event>
 5   0  0.6703961E-05  0.2310617E+04  0.7818609E-02  0.8473747E-01
        2   -1    0    0  501    0  0.00000000000E+00  0.00000000000E+00  0.15171708478E+04  0.15171708478E+04  0.25500000920E-02 0. -1.
       -2   -1    0    0    0  501  0.00000000000E+00  0.00000000000E+00 -0.87975406969E+03  0.87975406969E+03  0.25500000920E-02 0.  1.
    10030    2    1    2    0    0  0.00000000000E+00  0.00000000000E+00  0.63741677808E+03  0.23969249175E+04  0.23106165651E+04 0.  0.
        2    1    3    3  502    0 -0.22124859322E+03 -0.11316046137E+04  0.24349288800E+03  0.11784603210E+04  0.25500000920E-02 0.  1.
       -2    1    3    3    0  502  0.22124859322E+03  0.11316046137E+04  0.39392389008E+03  0.12184645965E+04  0.25500000920E-02 0. -1.
</event>
<event>
 5   0  0.6714629E-05  0.2356351E+04  0.7818609E-02  0.8456028E-01
        2   -1    0    0  501    0  0.00000000000E+00  0.00000000000E+00  0.14492860377E+04  0.14492860377E+04  0.25500000920E-02 0. -1.
       -2   -1    0    0    0  501  0.00000000000E+00  0.00000000000E+00 -0.95777996862E+03  0.95777996862E+03  0.25500000920E-02 0.  1.
    10030    2    1    2    0    0  0.00000000000E+00  0.00000000000E+00  0.49150606904E+03  0.24070660063E+04  0.23563506833E+04 0.  0.
        3    1    3    3  502    0 -0.11721171048E+04 -0.99344993468E+02  0.31327554154E+03  0.12173206275E+04  0.10100000352E+00 0. -1.
       -3    1    3    3    0  502  0.11721171048E+04  0.99344993468E+02  0.17823052751E+03  0.11897453787E+04  0.10100000352E+00 0.  1.
</event>
<event>
 5   0  0.2339125E-05  0.2418477E+04  0.7818609E-02  0.8432618E-01
        4   -1    0    0  501    0  0.00000000000E+00  0.00000000000E+00  0.98024009693E+03  0.98024091964E+03  0.12699999809E+01 0.  1.
       -4   -1    0    0    0  501  0.00000000000E+00  0.00000000000E+00 -0.14917324790E+04  0.14917330196E+04  0.12699999809E+01 0. -1.
    10030    2    1    2    0    0  0.00000000000E+00  0.00000000000E+00 -0.51149238208E+03  0.24719739393E+04  0.24184769380E+04 0.  0.
        1    1    3    3  502    0  0.42288633747E+02 -0.80066728692E+03  0.66948496018E+03  0.10445413083E+04  0.50400001928E-02 0.  1.
       -1    1    3    3    0  502 -0.42288633747E+02  0.80066728692E+03 -0.11809773423E+04  0.14274326309E+04  0.50400001928E-02 0. -1.
</event>
<event>
 5   0  0.6978115E-05  0.2344439E+04  0.7818609E-02  0.8460603E-01
       -2   -1    0    0    0  501  0.00000000000E+00  0.00000000000E+00  0.59871905683E+03  0.59871905684E+03  0.25500000920E-02 0.  1.
        2   -1    0    0  501    0  0.00000000000E+00  0.00000000000E+00 -0.22950630989E+04  0.22950630989E+04  0.25500000920E-02 0. -1.
    10030    2    1    2    0    0  0.00000000000E+00  0.00000000000E+00 -0.16963440421E+04  0.28937821558E+04  0.23444385375E+04 0.  0.
        4    1    3    3  502    0 -0.10225909398E+04 -0.36181760873E+03 -0.13967039908E+04  0.17684422136E+04  0.12699999809E+01 0. -1.
       -4    1    3    3    0  502  0.10225909398E+04  0.36181760873E+03 -0.29964005130E+03  0.11253399421E+04  0.12699999809E+01 0.  1.
</event>
<event>
 5   0  0.6714629E-05  0.2386017E+04  0.7818609E-02  0.8444757E-01
       -2   -1    0    0    0  501  0.00000000000E+00  0.00000000000E+00  0.66863699119E+03  0.66863699120E+03  0.25500000920E-02 0.  1.
        2   -1    0    0  501    0  0.00000000000E+00  0.00000000000E+00 -0.21286128955E+04  0.21286128955E+04  0.25500000920E-02 0. -1.
    10030    2    1    2    0    0  0.00000000000E+00  0.00000000000E+00 -0.14599759043E+04  0.27972498867E+04  0.23860170342E+04 0.  0.
        3    1    3    3  502    0 -0.74713432356E+03 -0.67386188845E+03 -0.14815462315E+04  0.17908877096E+04  0.10100000352E+00 0. -1.
       -3    1    3    3    0  502  0.74713432356E+03  0.67386188845E+03  0.21570327256E+02  0.10063621770E+04  0.10100000352E+00 0.  1.
</event>
<event>
 5   0  0.2943244E-05  0.2425305E+04  0.7818609E-02  0.8430090E-01
        1   -1    0    0  501    0  0.00000000000E+00  0.00000000000E+00  0.10912745436E+04  0.10912745436E+04  0.50400001928E-02 0.  1.
       -1   -1    0    0    0  501  0.00000000000E+00  0.00000000000E+00 -0.13475312127E+04  0.13475312128E+04  0.50400001928E-02 0. -1.
    10030    2    1    2    0    0  0.00000000000E+00  0.00000000000E+00 -0.25625666917E+03  0.24388057563E+04  0.24253053491E+04 0.  0.
        3    1    3    3  502    0 -0.10880087093E+04  0.48313800380E+03 -0.36037112755E+03  0.12438057091E+04  0.10100000352E+00 0. -1.
       -3    1    3    3    0  502  0.10880087093E+04 -0.48313800380E+03  0.10411445838E+03  0.11950000472E+04  0.10100000352E+00 0.  1.
</event>
<event>
 5   0  0.6337926E-05  0.2223293E+04  0.7818609E-02  0.8508795E-01
        2   -1    0    0  501    0  0.00000000000E+00  0.00000000000E+00  0.10990393421E+04  0.10990393421E+04  0.25500000920E-02 0.  1.
       -2   -1    0    0    0  501  0.00000000000E+00  0.00000000000E+00 -0.11243982366E+04  0.11243982366E+04  0.25500000920E-02 0. -1.
    10030    2    1    2    0    0  0.00000000000E+00  0.00000000000E+00 -0.25358894523E+02  0.22234375787E+04  0.22232929616E+04 0.  0.
        1    1    3    3  502    0 -0.44669814344E+03  0.36679644796E+03  0.93695013227E+03  0.11008880125E+04  0.50400001928E-02 0.  1.
       -1    1    3    3    0  502  0.44669814344E+03 -0.36679644796E+03 -0.96230902680E+03  0.11225495662E+04  0.50400001928E-02 0. -1.
</event>
<event>
 5   0  0.2915546E-05  0.2418398E+04  0.7818609E-02  0.8432647E-01
        1   -1    0    0  501    0  0.00000000000E+00  0.00000000000E+00  0.19930646977E+04  0.19930646977E+04  0.50400001928E-02 0. -1.
       -1   -1    0    0    0  501  0.00000000000E+00  0.00000000000E+00 -0.73362522336E+03  0.73362522338E+03  0.50400001928E-02 0.  1.
    10030    2    1    2    0    0  0.00000000000E+00  0.00000000000E+00  0.12594394743E+04  0.27266899211E+04  0.24183982584E+04 0.  0.
        2    1    3    3  502    0 -0.23559479734E+03 -0.26046140701E+03 -0.67485396163E+03  0.76077126826E+03  0.25500000920E-02 0.  1.
       -2    1    3    3    0  502  0.23559479734E+03  0.26046140701E+03  0.19342934360E+04  0.19659186528E+04  0.25500000920E-02 0. -1.
</event>
<event>
 5   0  0.2943123E-05  0.2345536E+04  0.7818609E-02  0.8460180E-01
       -1   -1    0    0    0  501  0.00000000000E+00  0.00000000000E+00  0.12671101952E+04  0.12671101952E+04  0.50400001928E-02 0.  1.
        1   -1    0    0  501    0  0.00000000000E+00  0.00000000000E+00 -0.10854501913E+04  0.10854501913E+04  0.50400001928E-02 0. -1.
    10030    2    1    2    0    0  0.00000000000E+00  0.00000000000E+00  0.18166000388E+03  0.23525603866E+04  0.23455361893E+04 0.  0.
        1    1    3    3  502    0  0.10295804495E+04  0.46188794767E+03  0.41117436779E+03  0.12010165440E+04  0.50400001928E-02 0. -1.
       -1    1    3    3    0  502 -0.10295804495E+04 -0.46188794767E+03 -0.22951436391E+03  0.11515438426E+04  0.50400001928E-02 0.  1.
</event>
<event>
 5   0  0.6978115E-05  0.2387566E+04  0.7818609E-02  0.8444174E-01
        2   -1    0    0  501    0  0.00000000000E+00  0.00000000000E+00  0.25337152553E+04  0.25337152553E+04  0.25500000920E-02 0.  1.
       -2   -1    0    0    0  501  0.00000000000E+00  0.00000000000E+00 -0.56246153742E+03  0.56246153743E+03  0.25500000920E-02 0. -1.
    10030    2    1    2    0    0  0.00000000000E+00  0.00000000000E+00  0.19712537179E+04  0.30961767927E+04  0.23875656036E+04 0.  0.
        4    1    3    3  502    0  0.62004564587E+03  0.92063550045E+03  0.15554626138E+04  0.19108877213E+04  0.12699999809E+01 0.  1.
       -4    1    3    3    0  502 -0.62004564587E+03 -0.92063550045E+03  0.41579110406E+03  0.11852890714E+04  0.12699999809E+01 0. -1.
</event>
<event>
 5   0  0.6978115E-05  0.2073080E+04  0.7818609E-02  0.8573195E-01
        2   -1    0    0  501    0  0.00000000000E+00  0.00000000000E+00  0.92011515778E+03  0.92011515778E+03  0.25500000920E-02 0.  1.
       -2   -1    0    0    0  501  0.00000000000E+00  0.00000000000E+00 -0.11676969641E+04  0.11676969641E+04  0.25500000920E-02 0. -1.
    10030    2    1    2    0    0  0.00000000000E+00  0.00000000000E+00 -0.24758180631E+03  0.20878121219E+04  0.20730804870E+04 0.  0.
        4    1    3    3  502    0  0.10552388090E+02  0.90794340767E+03  0.37970323494E+03  0.98419954478E+03  0.12699999809E+01 0.  1.
       -4    1    3    3    0  502 -0.10552388090E+02 -0.90794340767E+03 -0.62728504125E+03  0.11036125771E+04  0.12699999809E+01 0. -1.
</event>
<event>
 5   0  0.6978115E-05  0.2392572E+04  0.7818609E-02  0.8442290E-01
        2   -1    0    0  501    0  0.00000000000E+00  0.00000000000E+00  0.94407758960E+03  0.94407758960E+03  0.25500000920E-02 0. -1.
       -2   -1    0    0    0  501  0.00000000000E+00  0.00000000000E+00 -0.15158712774E+04  0.15158712774E+04  0.25500000920E-02 0.  1.
    10030    2    1    2    0    0  0.00000000000E+00  0.00000000000E+00 -0.57179368778E+03  0.24599488670E+04  0.23925719230E+04 0.  0.
        4    1    3    3  502    0 -0.69678906662E+03  0.85472080894E+03  0.19088146274E+03  0.11191514689E+04  0.12699999809E+01 0. -1.
       -4    1    3    3    0  502  0.69678906662E+03 -0.85472080894E+03 -0.76267515052E+03  0.13407973981E+04  0.12699999809E+01 0.  1.
</event>
<event>
 5   0  0.2339125E-05  0.2400534E+04  0.7818609E-02  0.8439304E-01
       -3   -1    0    0    0  501  0.00000000000E+00  0.00000000000E+00  0.80249871413E+03  0.80249872049E+03  0.10100000352E+00 0. -1.
        3   -1    0    0  501    0  0.00000000000E+00  0.00000000000E+00 -0.17951944850E+04  0.17951944878E+04  0.10100000352E+00 0.  1.
    10030    2    1    2    0    0  0.00000000000E+00  0.00000000000E+00 -0.99269577084E+03  0.25976932083E+04  0.24005343386E+04 0.  0.
        3    1    3    3  502    0  0.66417678983E+03  0.68967908466E+03  0.28687387463E+03  0.99954223428E+03  0.10100000352E+00 0. -1.
       -3    1    3    3    0  502 -0.66417678983E+03 -0.68967908466E+03 -0.12795696455E+04  0.15981509740E+04  0.10100000352E+00 0.  1.
</event>
<event>
 5   0  0.2943123E-05  0.2379417E+04  0.7818609E-02  0.8447250E-01
        1   -1    0    0  501    0  0.00000000000E+00  0.00000000000E+00  0.11728087110E+04  0.11728087110E+04  0.50400001928E-02 0.  1.
       -1   -1    0    0    0  501  0.00000000000E+00  0.00000000000E+00 -0.12068517057E+04  0.12068517057E+04  0.50400001928E-02 0. -1.
    10030    2    1    2    0    0  0.00000000000E+00  0.00000000000E+00 -0.34042994705E+02  0.23796604167E+04  0.23794168977E+04 0.  0.
        1    1    3    3  502    0 -0.25002582444E+02  0.98635573491E+03  0.64778966468E+03  0.11803195392E+04  0.50400001928E-02 0.  1.
       -1    1    3    3    0  502  0.25002582444E+02 -0.98635573491E+03 -0.68183265938E+03  0.11993408775E+04  0.50400001928E-02 0. -1.
</event>
<event>
 5   0  0.2339125E-05  0.2420141E+04  0.7818609E-02  0.8432001E-01
       -3   -1    0    0    0  501  0.00000000000E+00  0.00000000000E+00  0.14221523175E+04  0.14221523211E+04  0.10100000352E+00 0. -1.
        3   -1    0    0  501    0  0.00000000000E+00  0.00000000000E+00 -0.10296161210E+04  0.10296161260E+04  0.10100000352E+00 0.  1.
    10030    2    1    2    0    0  0.00000000000E+00  0.00000000000E+00  0.39253619647E+03  0.24517684471E+04  0.24201412877E+04 0.  0.
        5    1    3    3  502    0 -0.32741060964E+03 -0.23371869050E+03 -0.95988509435E+03  0.10407802928E+04  0.46999998093E+01 0.  1.
       -5    1    3    3    0  502  0.32741060964E+03  0.23371869050E+03  0.13524212908E+04  0.14109881543E+04  0.46999998093E+01 0. -1.
</event>
<event>
 5   0  0.6714629E-05  0.2340351E+04  0.7818609E-02  0.8462179E-01
        2   -1    0    0  501    0  0.00000000000E+00  0.00000000000E+00  0.12891385795E+04  0.12891385795E+04  0.25500000920E-02 0. -1.
       -2   -1    0    0    0  501  0.00000000000E+00  0.00000000000E+00 -0.10621901200E+04  0.10621901200E+04  0.25500000920E-02 0.  1.
    10030    2    1    2    0    0  0.00000000000E+00  0.00000000000E+00  0.22694845948E+03  0.23513286995E+04  0.23403506254E+04 0.  0.
        3    1    3    3  502    0 -0.98842541179E+03  0.62635347202E+03  0.11609138135E+03  0.11759169552E+04  0.10100000352E+00 0.  1.
       -3    1    3    3    0  502  0.98842541179E+03 -0.62635347202E+03  0.11085707812E+03  0.11754117443E+04  0.10100000352E+00 0. -1.
</event>
<event>
 5   0  0.6337926E-05  0.2362536E+04  0.7818609E-02  0.8453664E-01
        2   -1    0    0  501    0  0.00000000000E+00  0.00000000000E+00  0.80578747561E+03  0.80578747562E+03  0.25500000920E-02 0.  1.
       -2   -1    0    0    0  501  0.00000000000E+00  0.00000000000E+00 -0.17317141728E+04  0.17317141728E+04  0.25500000920E-02 0. -1.
    10030    2    1    2    0    0  0.00000000000E+00  0.00000000000E+00 -0.92592669718E+03  0.25375016484E+04  0.23625355801E+04 0.  0.
        1    1    3    3  502    0 -0.95666808989E+03  0.48893353289E+03  0.64446186377E+02  0.10763006758E+04  0.50400001928E-02 0.  1.
       -1    1    3    3    0  502  0.95666808989E+03 -0.48893353289E+03 -0.99037288355E+03  0.14612009726E+04  0.50400001928E-02 0. -1.
</event>
<event>
 5   0  0.2339125E-05  0.2195291E+04  0.7818609E-02  0.8520391E-01
        4   -1    0    0  501    0  0.00000000000E+00  0.00000000000E+00  0.11045584083E+04  0.11045591384E+04  0.12699999809E+01 0.  1.
       -4   -1    0    0    0  501  0.00000000000E+00  0.00000000000E+00 -0.10907741621E+04  0.10907749015E+04  0.12699999809E+01 0. -1.
    10030    2    1    2    0    0  0.00000000000E+00  0.00000000000E+00  0.13784246209E+02  0.21953340399E+04  0.21952907646E+04 0.  0.
        5    1    3    3  502    0 -0.27886947972E+03 -0.89865519766E+03  0.57210583409E+03  0.11012159309E+04  0.46999998093E+01 0.  1.
       -5    1    3    3    0  502  0.27886947972E+03  0.89865519766E+03 -0.55832158788E+03  0.10941181090E+04  0.46999998093E+01 0. -1.
</event>
<event>
 5   0  0.2943123E-05  0.2370851E+04  0.7818609E-02  0.8450498E-01
       -1   -1    0    0    0  501  0.00000000000E+00  0.00000000000E+00  0.14060928150E+04  0.14060928150E+04  0.50400001928E-02 0. -1.
        1   -1    0    0  501    0  0.00000000000E+00  0.00000000000E+00 -0.99938888386E+03  0.99938888387E+03  0.50400001928E-02 0.  1.
    10030    2    1    2    0    0  0.00000000000E+00  0.00000000000E+00  0.40670393116E+03  0.24054816989E+04  0.23708509266E+04 0.  0.
        1    1    3    3  502    0 -0.26296104479E+03 -0.11551433172E+04  0.16116414384E+03  0.11956079941E+04  0.50400001928E-02 0. -1.
       -1    1    3    3    0  502  0.26296104479E+03  0.11551433172E+04  0.24553978732E+03  0.12098737048E+04  0.50400001928E-02 0.  1.
</event>
<event>
 5   0  0.2915546E-05  0.2370749E+04  0.7818609E-02  0.8450536E-01
        1   -1    0    0  501    0  0.00000000000E+00  0.00000000000E+00  0.20463382774E+04  0.20463382774E+04  0.50400001928E-02 0.  1.
       -1   -1    0    0    0  501  0.00000000000E+00  0.00000000000E+00 -0.68664760642E+03  0.68664760644E+03  0.50400001928E-02 0. -1.
    10030    2    1    2    0    0  0.00000000000E+00  0.00000000000E+00  0.13596906710E+04  0.27329858839E+04  0.23707494850E+04 0.  0.
        2    1    3    3  502    0  0.12190387887E+03  0.50438946584E+03  0.19084469058E+04  0.19777357967E+04  0.25500000920E-02 0.  1.
       -2    1    3    3    0  502 -0.12190387887E+03 -0.50438946584E+03 -0.54875623485E+03  0.75525008720E+03  0.25500000920E-02 0. -1.
</event>
<event>
 5   0  0.6714629E-05  0.2306061E+04  0.7818609E-02  0.8475535E-01
        2   -1    0    0  501    0  0.00000000000E+00  0.00000000000E+00  0.11955941324E+04  0.11955941324E+04  0.25500000920E-02 0. -1.
       -2   -1    0    0    0  501  0.00000000000E+00  0.00000000000E+00 -0.11119823552E+04  0.11119823552E+04  0.25500000920E-02 0.  1.
    10030    2    1    2    0    0  0.00000000000E+00  0.00000000000E+00  0.83611777137E+02  0.23075764876E+04  0.23060612127E+04 0.  0.
        3    1    3    3  502    0  0.11255427087E+04 -0.21755481585E+03  0.16559279969E+03  0.11582734878E+04  0.10100000352E+00 0. -1.
       -3    1    3    3    0  502 -0.11255427087E+04  0.21755481585E+03 -0.81981022555E+02  0.11493029998E+04  0.10100000352E+00 0.  1.
</event>
<event>
 5   0  0.2915546E-05  0.2458524E+04  0.7818609E-02  0.8417912E-01
        1   -1    0    0  501    0  0.00000000000E+00  0.00000000000E+00  0.14655832054E+04  0.14655832054E+04  0.50400001928E-02 0. -1.
       -1   -1    0    0    0  501  0.00000000000E+00  0.00000000000E+00 -0.10310469035E+04  0.10310469035E+04  0.50400001928E-02 0.  1.
    10030    2    1    2    0    0  0.00000000000E+00  0.00000000000E+00  0.43453630190E+03  0.24966301089E+04  0.24585239684E+04 0.  0.
        2    1    3    3  502    0  0.73198844971E+03 -0.94998265260E+03  0.49128542518E+03  0.12960075230E+04  0.25500000920E-02 0.  1.
       -2    1    3    3    0  502 -0.73198844971E+03  0.94998265260E+03 -0.56749123284E+02  0.12006225859E+04  0.25500000920E-02 0. -1.
</event>
<event>
 5   0  0.6703961E-05  0.2294977E+04  0.7818609E-02  0.8479904E-01
        2   -1    0    0  501    0  0.00000000000E+00  0.00000000000E+00  0.14972005267E+04  0.14972005267E+04  0.25500000920E-02 0.  1.
       -2   -1    0    0    0  501  0.00000000000E+00  0.00000000000E+00 -0.87946160308E+03  0.87946160309E+03  0.25500000920E-02 0. -1.
    10030    2    1    2    0    0  0.00000000000E+00  0.00000000000E+00  0.61773892366E+03  0.23766621298E+04  0.22949774512E+04 0.  0.
        2    1    3    3  502    0  0.26473140898E+03 -0.78988331123E+03  0.11260906512E+04  0.14007421315E+04  0.25500000920E-02 0.  1.
       -2    1    3    3    0  502 -0.26473140898E+03  0.78988331123E+03 -0.50835172753E+03  0.97591999833E+03  0.25500000920E-02 0. -1.
</event>
<event>
 5   0  0.2943244E-05  0.2368193E+04  0.7818609E-02  0.8451508E-01
       -1   -1    0    0    0  501  0.00000000000E+00  0.00000000000E+00  0.11109440887E+04  0.11109440887E+04  0.50400001928E-02 0.  1.
        1   -1    0    0  501    0  0.00000000000E+00  0.00000000000E+00 -0.12620662566E+04  0.12620662566E+04  0.50400001928E-02 0. -1.
    10030    2    1    2    0    0  0.00000000000E+00  0.00000000000E+00 -0.15112216790E+03  0.23730103453E+04  0.23681934442E+04 0.  0.
        3    1    3    3  502    0  0.16798612227E+02 -0.18334273517E+02 -0.12618045908E+04  0.12620495927E+04  0.10100000352E+00 0. -1.
       -3    1    3    3    0  502 -0.16798612227E+02  0.18334273517E+02  0.11106824229E+04  0.11109607525E+04  0.10100000352E+00 0.  1.
</event>
<event>
 5   0  0.2943123E-05  0.2413351E+04  0.7818609E-02  0.8434522E-01
        1   -1    0    0  501    0  0.00000000000E+00  0.00000000000E+00  0.98630482576E+03  0.98630482577E+03  0.50400001928E-02 0.  1.
       -1   -1    0    0    0  501  0.00000000000E+00  0.00000000000E+00 -0.14762838255E+04  0.14762838255E+04  0.50400001928E-02 0. -1.
    10030    2    1    2    0    0  0.00000000000E+00  0.00000000000E+00 -0.48997899975E+03  0.24625886513E+04  0.24133510821E+04 0.  0.
        1    1    3    3  502    0  0.10115041341E+04  0.50052907528E+03 -0.68078114080E+03  0.13180033878E+04  0.50400001928E-02 0. -1.
       -1    1    3    3    0  502 -0.10115041341E+04 -0.50052907528E+03  0.19080214104E+03  0.11445852635E+04  0.50400001928E-02 0.  1.
</event>
<event>
 5   0  0.6978115E-05  0.2585525E+04  0.7818609E-02  0.8373135E-01
       -2   -1    0    0    0  501  0.00000000000E+00  0.00000000000E+00  0.12905809916E+04  0.12905809916E+04  0.25500000920E-02 0.  1.
        2   -1    0    0  501    0  0.00000000000E+00  0.00000000000E+00 -0.12949478066E+04  0.12949478066E+04  0.25500000920E-02 0. -1.
    10030    2    1    2    0    0  0.00000000000E+00  0.00000000000E+00 -0.43668150473E+01  0.25855287982E+04  0.25855251105E+04 0.  0.
        4    1    3    3  502    0 -0.34305473048E+03 -0.69569483448E+03 -0.10363780756E+04  0.12945110967E+04  0.12699999809E+01 0. -1.
       -4    1    3    3    0  502  0.34305473048E+03  0.69569483448E+03  0.10320112606E+04  0.12910177015E+04  0.12699999809E+01 0.  1.
</event>
<event>
 5   0  0.6600166E-05  0.2386523E+04  0.7818609E-02  0.8444566E-01
       -2   -1    0    0    0  501  0.00000000000E+00  0.00000000000E+00  0.10523585078E+04  0.10523585078E+04  0.25500000920E-02 0.  1.
        2   -1    0    0  501    0  0.00000000000E+00  0.00000000000E+00 -0.13530306774E+04  0.13530306774E+04  0.25500000920E-02 0. -1.
    10030    2    1    2    0    0  0.00000000000E+00  0.00000000000E+00 -0.30067216951E+03  0.24053891852E+04  0.23865232827E+04 0.  0.
        5    1    3    3  502    0  0.95424205229E+03 -0.19421916827E+03  0.54471833643E+03  0.11158132172E+04  0.46999998093E+01 0.  1.
       -5    1    3    3    0  502 -0.95424205229E+03  0.19421916827E+03 -0.84539050594E+03  0.12895759680E+04  0.46999998093E+01 0. -1.
</event>
<event>
 5   0  0.2915546E-05  0.2375261E+04  0.7818609E-02  0.8448824E-01
       -1   -1    0    0    0  501  0.00000000000E+00  0.00000000000E+00  0.65084082629E+03  0.65084082631E+03  0.50400001928E-02 0. -1.
        1   -1    0    0  501    0  0.00000000000E+00  0.00000000000E+00 -0.21671450903E+04  0.21671450903E+04  0.50400001928E-02 0.  1.
    10030    2    1    2    0    0  0.00000000000E+00  0.00000000000E+00 -0.15163042640E+04  0.28179859166E+04  0.23752612499E+04 0.  0.
        2    1    3    3  502    0  0.61601118759E+03  0.20310075174E+03  0.42213993553E+03  0.77390039655E+03  0.25500000920E-02 0. -1.
       -2    1    3    3    0  502 -0.61601118759E+03 -0.20310075174E+03 -0.19384441995E+04  0.20440855201E+04  0.25500000920E-02 0.  1.
</event>
<event>
 5   0  0.2915546E-05  0.2400983E+04  0.7818609E-02  0.8439136E-01
        1   -1    0    0  501    0  0.00000000000E+00  0.00000000000E+00  0.78227266641E+03  0.78227266642E+03  0.50400001928E-02 0.  1.
       -1   -1    0    0    0  501  0.00000000000E+00  0.00000000000E+00 -0.18422988679E+04  0.18422988679E+04  0.50400001928E-02 0. -1.
    10030    2    1    2    0    0  0.00000000000E+00  0.00000000000E+00 -0.10600262015E+04  0.26245715344E+04  0.24009831718E+04 0.  0.
        2    1    3    3  502    0  0.81836883786E+02 -0.11961520359E+04 -0.46349332122E+03  0.12854193974E+04  0.25500000920E-02 0.  1.
       -2    1    3    3    0  502 -0.81836883786E+02  0.11961520359E+04 -0.59653288031E+03  0.13391521369E+04  0.25500000920E-02 0. -1.
</event>
<event>
 5   0  0.2943123E-05  0.2092766E+04  0.7818609E-02  0.8564437E-01
       -1   -1    0    0    0  501  0.00000000000E+00  0.00000000000E+00  0.63199001346E+03  0.63199001348E+03  0.50400001928E-02 0.  1.
        1   -1    0    0  501    0  0.00000000000E+00  0.00000000000E+00 -0.17324914472E+04  0.17324914472E+04  0.50400001928E-02 0. -1.
    10030    2    1    2    0    0  0.00000000000E+00  0.00000000000E+00 -0.11005014337E+04  0.23644814607E+04  0.20927659144E+04 0.  0.
        1    1    3    3  502    0  0.11974503755E+03  0.40361970935E+03 -0.16325775370E+04  0.16859884810E+04  0.50400001928E-02 0. -1.
       -1    1    3    3    0  502 -0.11974503755E+03 -0.40361970935E+03  0.53207610325E+03  0.67849297968E+03  0.50400001928E-02 0.  1.
</event>
<event>
 5   0  0.2847158E-05  0.2369001E+04  0.7818609E-02  0.8451201E-01
        1   -1    0    0  501    0  0.00000000000E+00  0.00000000000E+00  0.23274939135E+04  0.23274939135E+04  0.50400001928E-02 0. -1.
       -1   -1    0    0    0  501  0.00000000000E+00  0.00000000000E+00 -0.60281204119E+03  0.60281204121E+03  0.50400001928E-02 0.  1.
    10030    2    1    2    0    0  0.00000000000E+00  0.00000000000E+00  0.17246818723E+04  0.29303059547E+04  0.23690009345E+04 0.  0.
        5    1    3    3  502    0  0.42637523023E+02 -0.81154551466E+03 -0.20357707429E+03  0.83778863438E+03  0.46999998093E+01 0.  1.
       -5    1    3    3    0  502 -0.42637523023E+02  0.81154551466E+03  0.19282589466E+04  0.20925173203E+04  0.46999998093E+01 0. -1.
</event>
<event>
 5   0  0.2943244E-05  0.2336374E+04  0.7818609E-02  0.8463716E-01
        1   -1    0    0  501    0  0.00000000000E+00  0.00000000000E+00  0.11029869567E+04  0.11029869567E+04  0.50400001928E-02 0. -1.
       -1   -1    0    0    0  501  0.00000000000E+00  0.00000000000E+00 -0.12372412656E+04  0.12372412656E+04  0.50400001928E-02 0.  1.
    10030    2    1    2    0    0  0.00000000000E+00  0.00000000000E+00 -0.13425430893E+03  0.23402282223E+04  0.23363740952E+04 0.  0.
        3    1    3    3  502    0  0.87279427780E+03 -0.65093163337E+02  0.70787654088E+03  0.11256536673E+04  0.10100000352E+00 0. -1.
       -3    1    3    3    0  502 -0.87279427780E+03  0.65093163337E+02 -0.84213084981E+03  0.12145745550E+04  0.10100000352E+00 0.  1.
</event>
<event>
 5   0  0.6337926E-05  0.2381105E+04  0.7818609E-02  0.8446612E-01
        2   -1    0    0  501    0  0.00000000000E+00  0.00000000000E+00  0.18967788880E+04  0.18967788880E+04  0.25500000920E-02 0. -1.
       -2   -1    0    0    0  501  0.00000000000E+00  0.00000000000E+00 -0.74727472002E+03  0.74727472002E+03  0.25500000920E-02 0.  1.
    10030    2    1    2    0    0  0.00000000000E+00  0.00000000000E+00  0.11495041680E+04  0.26440536080E+04  0.23811047121E+04 0.  0.
        1    1    3    3  502    0 -0.49089763265E+03  0.42796711085E+03 -0.53194125617E+03  0.84089109506E+03  0.50400001928E-02 0.  1.
       -1    1    3    3    0  502  0.49089763265E+03 -0.42796711085E+03  0.16814454241E+04  0.18031625129E+04  0.50400001928E-02 0. -1.
</event>
<event>
 5   0  0.2847158E-05  0.2524779E+04  0.7818609E-02  0.8394211E-01
        1   -1    0    0  501    0  0.00000000000E+00  0.00000000000E+00  0.15724290661E+04  0.15724290661E+04  0.50400001928E-02 0.  1.
       -1   -1    0    0    0  501  0.00000000000E+00  0.00000000000E+00 -0.10134811024E+04  0.10134811024E+04  0.50400001928E-02 0. -1.
    10030    2    1    2    0    0  0.00000000000E+00  0.00000000000E+00  0.55894796373E+03  0.25859101685E+04  0.25247789157E+04 0.  0.
        5    1    3    3  502    0  0.42380905206E+03 -0.10911096042E+04 -0.20469888088E+03  0.11883004682E+04  0.46999998093E+01 0. -1.
       -5    1    3    3    0  502 -0.42380905206E+03  0.10911096042E+04  0.76364684461E+03  0.13976097003E+04  0.46999998093E+01 0.  1.
</event>
<event>
 5   0  0.2943123E-05  0.2388294E+04  0.7818609E-02  0.8443899E-01
       -1   -1    0    0    0  501  0.00000000000E+00  0.00000000000E+00  0.57638678669E+03  0.57638678672E+03  0.50400001928E-02 0. -1.
        1   -1    0    0  501    0  0.00000000000E+00  0.00000000000E+00 -0.24740098262E+04  0.24740098262E+04  0.50400001928E-02 0.  1.
    10030    2    1    2    0    0  0.00000000000E+00  0.00000000000E+00 -0.18976230395E+04  0.30503966129E+04  0.23882935950E+04 0.  0.
        1    1    3    3  502    0 -0.37964306152E+03  0.66484700337E+03 -0.21192966117E+04  0.22533460721E+04  0.50400001928E-02 0.  1.
       -1    1    3    3    0  502  0.37964306152E+03 -0.66484700337E+03  0.22167357220E+03  0.79705054086E+03  0.50400001928E-02 0. -1.
</event>
<event>
 5   0  0.2943123E-05  0.2338179E+04  0.7818609E-02  0.8463018E-01
       -1   -1    0    0    0  501  0.00000000000E+00  0.00000000000E+00  0.11322107710E+04  0.11322107710E+04  0.50400001928E-02 0. -1.
        1   -1    0    0  501    0  0.00000000000E+00  0.00000000000E+00 -0.12071696915E+04  0.12071696915E+04  0.50400001928E-02 0.  1.
    10030    2    1    2    0    0  0.00000000000E+00  0.00000000000E+00 -0.74958920443E+02  0.23393804625E+04  0.23381792294E+04 0.  0.
        1    1    3    3  502    0 -0.93524445367E+03 -0.63604027064E+03  0.25854601882E+03  0.11602049206E+04  0.50400001928E-02 0. -1.
       -1    1    3    3    0  502  0.93524445367E+03  0.63604027064E+03 -0.33350493927E+03  0.11791755419E+04  0.50400001928E-02 0.  1.
</event>
<event>
 5   0  0.2915546E-05  0.2364077E+04  0.7818609E-02  0.8453076E-01
        1   -1    0    0  501    0  0.00000000000E+00  0.00000000000E+00  0.84586872972E+03  0.84586872974E+03  0.50400001928E-02 0.  1.
       -1   -1    0    0    0  501  0.00000000000E+00  0.00000000000E+00 -0.16518102310E+04  0.16518102310E+04  0.50400001928E-02 0. -1.
    10030    2    1    2    0    0  0.00000000000E+00  0.00000000000E+00 -0.80594150126E+03  0.24976789607E+04  0.23640766670E+04 0.  0.
        2    1    3    3  502    0  0.63760247504E+03  0.98111551300E+01 -0.14544970854E+04  0.15881419793E+04  0.25500000920E-02 0. -1.
       -2    1    3    3    0  502 -0.63760247504E+03 -0.98111551300E+01  0.64855558412E+03  0.90953698146E+03  0.25500000920E-02 0.  1.
</event>
<event>
 5   0  0.2943244E-05  0.2335454E+04  0.7818609E-02  0.8464072E-01
       -1   -1    0    0    0  501  0.00000000000E+00  0.00000000000E+00  0.10029969802E+04  0.10029969802E+04  0.50400001928E-02 0.  1.
        1   -1    0    0  501    0  0.00000000000E+00  0.00000000000E+00 -0.13595122433E+04  0.13595122433E+04  0.50400001928E-02 0. -1.
    10030    2    1    2    0    0  0.00000000000E+00  0.00000000000E+00 -0.35651526305E+03  0.23625092235E+04  0.23354542809E+04 0.  0.
        3    1    3    3  502    0  0.31995183735E+03 -0.57739371622E+03 -0.11526576426E+04  0.13282967789E+04  0.10100000352E+00 0. -1.
       -3    1    3    3    0  502 -0.31995183735E+03  0.57739371622E+03  0.79614237953E+03  0.10342124445E+04  0.10100000352E+00 0.  1.
</event>
<event>
 5   0  0.6337926E-05  0.2431371E+04  0.7818609E-02  0.8427851E-01
       -2   -1    0    0    0  501  0.00000000000E+00  0.00000000000E+00  0.84572517566E+03  0.84572517566E+03  0.25500000920E-02 0. -1.
        2   -1    0    0  501    0  0.00000000000E+00  0.00000000000E+00 -0.17474841711E+04  0.17474841711E+04  0.25500000920E-02 0.  1.
    10030    2    1    2    0    0  0.00000000000E+00  0.00000000000E+00 -0.90175899543E+03  0.25932093467E+04  0.24313711009E+04 0.  0.
        1    1    3    3  502    0  0.13160829385E+03  0.12082516476E+04 -0.42268973159E+03  0.12868020035E+04  0.50400001928E-02 0. -1.
       -1    1    3    3    0  502 -0.13160829385E+03 -0.12082516476E+04 -0.47906926383E+03  0.13064073433E+04  0.50400001928E-02 0.  1.
</event>
<event>
 5   0  0.6714629E-05  0.2405602E+04  0.7818609E-02  0.8437409E-01
        2   -1    0    0  501    0  0.00000000000E+00  0.00000000000E+00  0.81604256234E+03  0.81604256234E+03  0.25500000920E-02 0. -1.
       -2   -1    0    0    0  501  0.00000000000E+00  0.00000000000E+00 -0.17728612742E+04  0.17728612742E+04  0.25500000920E-02 0.  1.
    10030    2    1    2    0    0  0.00000000000E+00  0.00000000000E+00 -0.95681871183E+03  0.25889038365E+04  0.24056020093E+04 0.  0.
        3    1    3    3  502    0  0.14917066109E+03 -0.11454104248E+04 -0.83939847364E+03  0.14278678983E+04  0.10100000352E+00 0. -1.
       -3    1    3    3    0  502 -0.14917066109E+03  0.11454104248E+04 -0.11742023819E+03  0.11610359382E+04  0.10100000352E+00 0.  1.
</event>
<event>
 5   0  0.2943244E-05  0.2380950E+04  0.7818609E-02  0.8446670E-01
       -1   -1    0    0    0  501  0.00000000000E+00  0.00000000000E+00  0.16771614847E+04  0.16771614847E+04  0.50400001928E-02 0. -1.
        1   -1    0    0  501    0  0.00000000000E+00  0.00000000000E+00 -0.84501760214E+03  0.84501760216E+03  0.50400001928E-02 0.  1.
    10030    2    1    2    0    0  0.00000000000E+00  0.00000000000E+00  0.83214388256E+03  0.25221790869E+04  0.23809502105E+04 0.  0.
        3    1    3    3  502    0 -0.62892807687E+03 -0.84705355911E+03 -0.16816826363E+03  0.10683308631E+04  0.10100000352E+00 0.  1.
       -3    1    3    3    0  502  0.62892807687E+03  0.84705355911E+03  0.10003121462E+04  0.14538482238E+04  0.10100000352E+00 0. -1.
</event>
<event>
 5   0  0.6600166E-05  0.1951497E+04  0.7818609E-02  0.8629639E-01
        2   -1    0    0  501    0  0.00000000000E+00  0.00000000000E+00  0.13015881304E+04  0.13015881304E+04  0.25500000920E-02 0. -1.
       -2   -1    0    0    0  501  0.00000000000E+00  0.00000000000E+00 -0.73147983139E+03  0.73147983139E+03  0.25500000920E-02 0.  1.
    10030    2    1    2    0    0  0.00000000000E+00  0.00000000000E+00  0.57010829898E+03  0.20330679618E+04  0.19514973391E+04 0.  0.
        5    1    3    3  502    0 -0.90951278404E+02 -0.56807156555E+03 -0.53597727761E+03  0.78630221337E+03  0.46999998093E+01 0.  1.
       -5    1    3    3    0  502  0.90951278404E+02  0.56807156555E+03  0.11060855766E+04  0.12467657484E+04  0.46999998093E+01 0. -1.
</event>
<event>
 5   0  0.2901816E-05  0.2522069E+04  0.7818609E-02  0.8395165E-01
       -1   -1    0    0    0  501  0.00000000000E+00  0.00000000000E+00  0.10052500674E+04  0.10052500674E+04  0.50400001928E-02 0.  1.
        1   -1    0    0  501    0  0.00000000000E+00  0.00000000000E+00 -0.15819029905E+04  0.15819029905E+04  0.50400001928E-02 0. -1.
    10030    2    1    2    0    0  0.00000000000E+00  0.00000000000E+00 -0.57665292309E+03  0.25871530580E+04  0.25220690616E+04 0.  0.
        4    1    3    3  502    0  0.58306636701E+03 -0.10749959112E+04  0.27221601450E+02  0.12232437312E+04  0.12699999809E+01 0.  1.
       -4    1    3    3    0  502 -0.58306636701E+03  0.10749959112E+04 -0.60387452454E+03  0.13639093268E+04  0.12699999809E+01 0. -1.
</event>
<event>
 5   0  0.2915546E-05  0.2059234E+04  0.7818609E-02  0.8579417E-01
       -1   -1    0    0    0  501  0.00000000000E+00  0.00000000000E+00  0.64876076735E+03  0.64876076737E+03  0.50400001928E-02 0. -1.
        1   -1    0    0  501    0  0.00000000000E+00  0.00000000000E+00 -0.16340556466E+04  0.16340556466E+04  0.50400001928E-02 0.  1.
    10030    2    1    2    0    0  0.00000000000E+00  0.00000000000E+00 -0.98529487928E+03  0.22828164140E+04  0.20592340277E+04 0.  0.
        2    1    3    3  502    0  0.10149841588E+04  0.14423068646E+03 -0.38680395109E+03  0.10957247054E+04  0.25500000920E-02 0.  1.
       -2    1    3    3    0  502 -0.10149841588E+04 -0.14423068646E+03 -0.59849092819E+03  0.11870917086E+04  0.25500000920E-02 0. -1.
</event>
<event>
 5   0  0.2943123E-05  0.2382512E+04  0.7818609E-02  0.8446080E-01
       -1   -1    0    0    0  501  0.00000000000E+00  0.00000000000E+00  0.10530223941E+04  0.10530223941E+04  0.50400001928E-02 0. -1.
        1   -1    0    0  501    0  0.00000000000E+00  0.00000000000E+00 -0.13476365199E+04  0.13476365199E+04  0.50400001928E-02 0.  1.
    10030    2    1    2    0    0  0.00000000000E+00  0.00000000000E+00 -0.29461412579E+03  0.24006589141E+04  0.23825124845E+04 0.  0.
        1    1    3    3  502    0 -0.40318025614E+03 -0.45976869919E+03  0.88280520166E+03  0.10739118212E+04  0.50400001928E-02 0. -1.
       -1    1    3    3    0  502  0.40318025614E+03  0.45976869919E+03 -0.11774193274E+04  0.13267470928E+04  0.50400001928E-02 0.  1.
</event>
<event>
 5   0  0.2847158E-05  0.2426830E+04  0.7818609E-02  0.8429527E-01
       -1   -1    0    0    0  501  0.00000000000E+00  0.00000000000E+00  0.11161015825E+04  0.11161015825E+04  0.50400001928E-02 0.  1.
        1   -1    0    0  501    0  0.00000000000E+00  0.00000000000E+00 -0.13192127714E+04  0.13192127714E+04  0.50400001928E-02 0. -1.
    10030    2    1    2    0    0  0.00000000000E+00  0.00000000000E+00 -0.20311118895E+03  0.24353143539E+04  0.24268295876E+04 0.  0.
        5    1    3    3  502    0 -0.10742872155E+04 -0.31170342979E+03  0.37030250833E+03  0.11783030541E+04  0.46999998093E+01 0. -1.
       -5    1    3    3    0  502  0.10742872155E+04  0.31170342979E+03 -0.57341369728E+03  0.12570112998E+04  0.46999998093E+01 0.  1.
</event>
<event>
 5   0  0.6600166E-05  0.2352488E+04  0.7818609E-02  0.8457509E-01
        2   -1    0    0  501    0  0.00000000000E+00  0.00000000000E+00  0.23006640647E+04  0.23006640647E+04  0.25500000920E-02 0.  1.
       -2   -1    0    0    0  501  0.00000000000E+00  0.00000000000E+00 -0.60136972133E+03  0.60136972133E+03  0.25500000920E-02 0. -1.
    10030    2    1    2    0    0  0.00000000000E+00  0.00000000000E+00  0.16992943434E+04  0.29020337860E+04  0.23524877959E+04 0.  0.
        5    1    3    3  502    0 -0.10196153213E+04  0.28808424044E+03  0.14797747790E+04  0.18199899504E+04  0.46999998093E+01 0. -1.
       -5    1    3    3    0  502  0.10196153213E+04 -0.28808424044E+03  0.21951956442E+03  0.10820438356E+04  0.46999998093E+01 0.  1.
</event>
<event>
 5   0  0.6978115E-05  0.2289713E+04  0.7818609E-02  0.8481988E-01
       -2   -1    0    0    0  501  0.00000000000E+00  0.00000000000E+00  0.67667865847E+03  0.67667865847E+03  0.25500000920E-02 0.  1.
        2   -1    0    0  501    0  0.00000000000E+00  0.00000000000E+00 -0.19369549833E+04  0.19369549833E+04  0.25500000920E-02 0. -1.
    10030    2    1    2    0    0  0.00000000000E+00  0.00000000000E+00 -0.12602763249E+04  0.26136336418E+04  0.22897127328E+04 0.  0.
        4    1    3    3  502    0  0.34958094124E+03  0.94791379006E+03 -0.15494941195E+02  0.10104400497E+04  0.12699999809E+01 0.  1.
       -4    1    3    3    0  502 -0.34958094124E+03 -0.94791379006E+03 -0.12447813837E+04  0.16031935921E+04  0.12699999809E+01 0. -1.
</event>
<event>
 5   0  0.2847158E-05  0.2411891E+04  0.7818609E-02  0.8435065E-01
       -1   -1    0    0    0  501  0.00000000000E+00  0.00000000000E+00  0.20046457841E+04  0.20046457841E+04  0.50400001928E-02 0.  1.
        1   -1    0    0  501    0  0.00000000000E+00  0.00000000000E+00 -0.72546703749E+03  0.72546703750E+03  0.50400001928E-02 0. -1.
    10030    2    1    2    0    0  0.00000000000E+00  0.00000000000E+00  0.12791787466E+04  0.27301128216E+04  0.24118909082E+04 0.  0.
        5    1    3    3  502    0 -0.84512806749E+03  0.85546493601E+03  0.53695903109E+03  0.13169695510E+04  0.46999998093E+01 0.  1.
       -5    1    3    3    0  502  0.84512806749E+03 -0.85546493601E+03  0.74221971556E+03  0.14131432706E+04  0.46999998093E+01 0. -1.
</event>
<event>
 5   0  0.2847158E-05  0.2359972E+04  0.7818609E-02  0.8454643E-01
       -1   -1    0    0    0  501  0.00000000000E+00  0.00000000000E+00  0.20236389594E+04  0.20236389594E+04  0.50400001928E-02 0. -1.
        1   -1    0    0  501    0  0.00000000000E+00  0.00000000000E+00 -0.68805113990E+03  0.68805113991E+03  0.50400001928E-02 0.  1.
    10030    2    1    2    0    0  0.00000000000E+00  0.00000000000E+00  0.13355878195E+04  0.27116900993E+04  0.23599721123E+04 0.  0.
        5    1    3    3  502    0  0.34879333246E+03 -0.10224687698E+04  0.12131266384E+04  0.16244375965E+04  0.46999998093E+01 0. -1.
       -5    1    3    3    0  502 -0.34879333246E+03  0.10224687698E+04  0.12246118101E+03  0.10872525028E+04  0.46999998093E+01 0.  1.
</event>
<event>
 5   0  0.6337926E-05  0.2373036E+04  0.7818609E-02  0.8449668E-01
        2   -1    0    0  501    0  0.00000000000E+00  0.00000000000E+00  0.10245717007E+04  0.10245717008E+04  0.25500000920E-02 0.  1.
       -2   -1    0    0    0  501  0.00000000000E+00  0.00000000000E+00 -0.13740619709E+04  0.13740619709E+04  0.25500000920E-02 0. -1.
    10030    2    1    2    0    0  0.00000000000E+00  0.00000000000E+00 -0.34949027017E+03  0.23986336717E+04  0.23730360389E+04 0.  0.
        1    1    3    3  502    0 -0.79563018768E+03 -0.85666664115E+03  0.29723535038E+02  0.11695249541E+04  0.50400001928E-02 0. -1.
       -1    1    3    3    0  502  0.79563018768E+03  0.85666664115E+03 -0.37921380521E+03  0.12291087176E+04  0.50400001928E-02 0.  1.
</event>
<event>
 5   0  0.6978115E-05  0.2420965E+04  0.7818609E-02  0.8431696E-01
       -2   -1    0    0    0  501  0.00000000000E+00  0.00000000000E+00  0.85481760157E+03  0.85481760157E+03  0.25500000920E-02 0. -1.
        2   -1    0    0  501    0  0.00000000000E+00  0.00000000000E+00 -0.17141289538E+04  0.17141289538E+04  0.25500000920E-02 0.  1.
    10030    2    1    2    0    0  0.00000000000E+00  0.00000000000E+00 -0.85931135220E+03  0.25689465553E+04  0.24209647672E+04 0.  0.
        4    1    3    3  502    0 -0.45660997839E+03 -0.98196552005E+00  0.75992776181E+03  0.88655820604E+03  0.12699999809E+01 0. -1.
       -4    1    3    3    0  502  0.45660997839E+03  0.98196552005E+00 -0.16192391140E+04  0.16823883493E+04  0.12699999809E+01 0.  1.
</event>
<event>
 5   0  0.6978115E-05  0.2401943E+04  0.7818609E-02  0.8438776E-01
       -2   -1    0    0    0  501  0.00000000000E+00  0.00000000000E+00  0.21835593375E+04  0.21835593375E+04  0.25500000920E-02 0.  1.
        2   -1    0    0  501    0  0.00000000000E+00  0.00000000000E+00 -0.66054197106E+03  0.66054197106E+03  0.25500000920E-02 0. -1.
    10030    2    1    2    0    0  0.00000000000E+00  0.00000000000E+00  0.15230173664E+04  0.28441013085E+04  0.24019430374E+04 0.  0.
        4    1    3    3  502    0 -0.39026896587E+03  0.33903506775E+03  0.20450663880E+04  0.21093963087E+04  0.12699999809E+01 0.  1.
       -4    1    3    3    0  502  0.39026896587E+03 -0.33903506775E+03 -0.52204902161E+03  0.73470499982E+03  0.12699999809E+01 0. -1.
</event>
<event>
 5   0  0.2901816E-05  0.2564808E+04  0.7818609E-02  0.8380254E-01
       -1   -1    0    0    0  501  0.00000000000E+00  0.00000000000E+00  0.65275537172E+03  0.65275537174E+03  0.50400001928E-02 0.  1.
        1   -1    0    0  501    0  0.00000000000E+00  0.00000000000E+00 -0.25194124484E+04  0.25194124484E+04  0.50400001928E-02 0. -1.
    10030    2    1    2    0    0  0.00000000000E+00  0.00000000000E+00 -0.18666570767E+04  0.31721678201E+04  0.25648079923E+04 0.  0.
        4    1    3    3  502    0  0.30505061681E+03  0.12430140716E+04 -0.10324161280E+04  0.16443918436E+04  0.12699999809E+01 0.  1.
       -4    1    3    3    0  502 -0.30505061681E+03 -0.12430140716E+04 -0.83424094866E+03  0.15277759765E+04  0.12699999809E+01 0. -1.
</event>
<event>
 5   0  0.2943244E-05  0.1555756E+04  0.7818609E-02  0.8848200E-01
        1   -1    0    0  501    0  0.00000000000E+00  0.00000000000E+00  0.17846736202E+04  0.17846736202E+04  0.50400001928E-02 0. -1.
       -1   -1    0    0    0  501  0.00000000000E+00  0.00000000000E+00 -0.33905028442E+03  0.33905028446E+03  0.50400001928E-02 0.  1.
    10030    2    1    2    0    0  0.00000000000E+00  0.00000000000E+00  0.14456233357E+04  0.21237239046E+04  0.15557558916E+04 0.  0.
        3    1    3    3  502    0 -0.68813034330E+03 -0.35947013108E+03  0.78901351029E+03  0.11069256859E+04  0.10100000352E+00 0. -1.
       -3    1    3    3    0  502  0.68813034330E+03  0.35947013108E+03  0.65660982544E+03  0.10167982187E+04  0.10100000352E+00 0.  1.
</event>
<event>
 5   0  0.2943244E-05  0.2353596E+04  0.7818609E-02  0.8457084E-01
        1   -1    0    0  501    0  0.00000000000E+00  0.00000000000E+00  0.12978124239E+04  0.12978124239E+04  0.50400001928E-02 0.  1.
       -1   -1    0    0    0  501  0.00000000000E+00  0.00000000000E+00 -0.10670671506E+04  0.10670671506E+04  0.50400001928E-02 0. -1.
    10030    2    1    2    0    0  0.00000000000E+00  0.00000000000E+00  0.23074527333E+03  0.23648795745E+04  0.23535955517E+04 0.  0.
        3    1    3    3  502    0 -0.52148539924E+03 -0.46033149120E+03 -0.83838890418E+03  0.10893796713E+04  0.10100000352E+00 0. -1.
       -3    1    3    3    0  502  0.52148539924E+03  0.46033149120E+03  0.10691341775E+04  0.12754999032E+04  0.10100000352E+00 0.  1.
</event>
<event>
 5   0  0.6337926E-05  0.2388232E+04  0.7818609E-02  0.8443922E-01
        2   -1    0    0  501    0  0.00000000000E+00  0.00000000000E+00  0.19255328674E+04  0.19255328674E+04  0.25500000920E-02 0. -1.
       -2   -1    0    0    0  501  0.00000000000E+00  0.00000000000E+00 -0.74052903175E+03  0.74052903175E+03  0.25500000920E-02 0.  1.
    10030    2    1    2    0    0  0.00000000000E+00  0.00000000000E+00  0.11850038357E+04  0.26660618992E+04  0.23882319736E+04 0.  0.
        1    1    3    3  502    0 -0.44480305256E+03  0.45094949647E+03  0.17225417139E+04  0.18353079197E+04  0.50400001928E-02 0. -1.
       -1    1    3    3    0  502  0.44480305256E+03 -0.45094949647E+03 -0.53753787821E+03  0.83075397950E+03  0.50400001928E-02 0.  1.
</event>
<event>
 5   0  0.2901816E-05  0.2391330E+04  0.7818609E-02  0.8442756E-01
       -1   -1    0    0    0  501  0.00000000000E+00  0.00000000000E+00  0.13190903752E+04  0.13190903752E+04  0.50400001928E-02 0.  1.
        1   -1    0    0  501    0  0.00000000000E+00  0.00000000000E+00 -0.10837887491E+04  0.10837887491E+04  0.50400001928E-02 0. -1.
    10030    2    1    2    0    0  0.00000000000E+00  0.00000000000E+00  0.23530162604E+03  0.24028791243E+04  0.23913304311E+04 0.  0.
        4    1    3    3  502    0  0.11102367627E+04  0.41875841494E+03 -0.30128868619E+02  0.11869682560E+04  0.12699999809E+01 0. -1.
       -4    1    3    3    0  502 -0.11102367627E+04 -0.41875841494E+03  0.26543049466E+03  0.12159108683E+04  0.12699999809E+01 0.  1.
</event>
<event>
 5   0  0.6337926E-05  0.2400144E+04  0.7818609E-02  0.8439450E-01
        2   -1    0    0  501    0  0.00000000000E+00  0.00000000000E+00  0.19778696525E+04  0.19778696525E+04  0.25500000920E-02 0.  1.
       -2   -1    0    0    0  501  0.00000000000E+00  0.00000000000E+00 -0.72814319239E+03  0.72814319239E+03  0.25500000920E-02 0. -1.
    10030    2    1    2    0    0  0.00000000000E+00  0.00000000000E+00  0.12497264601E+04  0.27060128449E+04  0.24001435981E+04 0.  0.
        1    1    3    3  502    0  0.17733615966E+02  0.83443874929E+03 -0.34733203980E+03  0.90401440992E+03  0.50400001928E-02 0. -1.
       -1    1    3    3    0  502 -0.17733615966E+02 -0.83443874929E+03  0.15970584999E+04  0.18019984350E+04  0.50400001928E-02 0.  1.
</event>
<event>
 5   0  0.2847158E-05  0.2464715E+04  0.7818609E-02  0.8415665E-01
       -1   -1    0    0    0  501  0.00000000000E+00  0.00000000000E+00  0.78015447363E+03  0.78015447365E+03  0.50400001928E-02 0. -1.
        1   -1    0    0  501    0  0.00000000000E+00  0.00000000000E+00 -0.19466721220E+04  0.19466721220E+04  0.50400001928E-02 0.  1.
    10030    2    1    2    0    0  0.00000000000E+00  0.00000000000E+00 -0.11665176483E+04  0.27268265956E+04  0.24647149650E+04 0.  0.
        5    1    3    3  502    0  0.61694694302E+03  0.69417173988E+03 -0.14794567789E+04  0.17468006142E+04  0.46999998093E+01 0.  1.
       -5    1    3    3    0  502 -0.61694694302E+03 -0.69417173988E+03  0.31293913056E+03  0.98002598148E+03  0.46999998093E+01 0. -1.
</event>
<event>
 5   0  0.6714629E-05  0.2406715E+04  0.7818609E-02  0.8436994E-01
       -2   -1    0    0    0  501  0.00000000000E+00  0.00000000000E+00  0.88313349276E+03  0.88313349276E+03  0.25500000920E-02 0. -1.
        2   -1    0    0  501    0  0.00000000000E+00  0.00000000000E+00 -0.16396947817E+04  0.16396947817E+04  0.25500000920E-02 0.  1.
    10030    2    1    2    0    0  0.00000000000E+00  0.00000000000E+00 -0.75656128893E+03  0.25228282745E+04  0.24067150888E+04 0.  0.
        3    1    3    3  502    0 -0.78589096428E+03 -0.89094907462E+03 -0.17759019438E+03  0.12012298484E+04  0.10100000352E+00 0. -1.
       -3    1    3    3    0  502  0.78589096428E+03  0.89094907462E+03 -0.57897109455E+03  0.13215984261E+04  0.10100000352E+00 0.  1.
</event>
<event>
 5   0  0.6337926E-05  0.2413549E+04  0.7818609E-02  0.8434448E-01
       -2   -1    0    0    0  501  0.00000000000E+00  0.00000000000E+00  0.72777509166E+03  0.72777509166E+03  0.25500000920E-02 0.  1.
        2   -1    0    0  501    0  0.00000000000E+00  0.00000000000E+00 -0.20010365032E+04  0.20010365032E+04  0.25500000920E-02 0. -1.
    10030    2    1    2    0    0  0.00000000000E+00  0.00000000000E+00 -0.12732614116E+04  0.27288115949E+04  0.24135488597E+04 0.  0.
        1    1    3    3  502    0 -0.58620290246E+03 -0.59593997684E+03  0.34741731700E+03  0.90524973959E+03  0.50400001928E-02 0.  1.
       -1    1    3    3    0  502  0.58620290246E+03  0.59593997684E+03 -0.16206787286E+04  0.18235618553E+04  0.50400001928E-02 0. -1.
</event>
<event>
 5   0  0.2847158E-05  0.2415602E+04  0.7818609E-02  0.8433685E-01
        1   -1    0    0  501    0  0.00000000000E+00  0.00000000000E+00  0.97885116654E+03  0.97885116656E+03  0.50400001928E-02 0. -1.
       -1   -1    0    0    0  501  0.00000000000E+00  0.00000000000E+00 -0.14903019215E+04  0.14903019215E+04  0.50400001928E-02 0.  1.
    10030    2    1    2    0    0  0.00000000000E+00  0.00000000000E+00 -0.51145075496E+03  0.24691530881E+04  0.24156024295E+04 0.  0.
        5    1    3    3  502    0 -0.71139218580E+03 -0.96190139708E+03 -0.86438247609E+02  0.11995110672E+04  0.46999998093E+01 0.  1.
       -5    1    3    3    0  502  0.71139218580E+03  0.96190139708E+03 -0.42501250736E+03  0.12696420209E+04  0.46999998093E+01 0. -1.
</event>
<event>
 5   0  0.2915546E-05  0.2424891E+04  0.7818609E-02  0.8430243E-01
        1   -1    0    0  501    0  0.00000000000E+00  0.00000000000E+00  0.15205337831E+04  0.15205337831E+04  0.50400001928E-02 0.  1.
       -1   -1    0    0    0  501  0.00000000000E+00  0.00000000000E+00 -0.96678166710E+03  0.96678166711E+03  0.50400001928E-02 0. -1.
    10030    2    1    2    0    0  0.00000000000E+00  0.00000000000E+00  0.55375211596E+03  0.24873154502E+04  0.24248910785E+04 0.  0.
        2    1    3    3  502    0  0.26664234641E+02 -0.91459768193E+03  0.10928573470E+04  0.14253199929E+04  0.25500000920E-02 0.  1.
       -2    1    3    3    0  502 -0.26664234641E+02  0.91459768193E+03 -0.53910523104E+03  0.10619954573E+04  0.25500000920E-02 0. -1.
</event>
<event>
 5   0  0.6703961E-05  0.2413786E+04  0.7818609E-02  0.8434360E-01
        2   -1    0    0  501    0  0.00000000000E+00  0.00000000000E+00  0.15366101707E+04  0.15366101707E+04  0.25500000920E-02 0. -1.
       -2   -1    0    0    0  501  0.00000000000E+00  0.00000000000E+00 -0.94792471515E+03  0.94792471516E+03  0.25500000920E-02 0.  1.
    10030    2    1    2    0    0  0.00000000000E+00  0.00000000000E+00  0.58868545558E+03  0.24845348859E+04  0.24137860372E+04 0.  0.
        2    1    3    3  502    0  0.50340771177E+03 -0.99567885741E+03  0.76804364780E+03  0.13545060931E+04  0.25500000920E-02 0.  1.
       -2    1    3    3    0  502 -0.50340771177E+03  0.99567885741E+03 -0.17935819222E+03  0.11300287928E+04  0.25500000920E-02 0. -1.
</event>
<event>
 5   0  0.6703961E-05  0.2108390E+04  0.7818609E-02  0.8557556E-01
       -2   -1    0    0    0  501  0.00000000000E+00  0.00000000000E+00  0.13906443266E+04  0.13906443266E+04  0.25500000920E-02 0. -1.
        2   -1    0    0  501    0  0.00000000000E+00  0.00000000000E+00 -0.79914575700E+03  0.79914575701E+03  0.25500000920E-02 0.  1.
    10030    2    1    2    0    0  0.00000000000E+00  0.00000000000E+00  0.59149856955E+03  0.21897900836E+04  0.21083903937E+04 0.  0.
        2    1    3    3  502    0 -0.10362867218E+03  0.17278455906E+02 -0.79369506786E+03  0.80061807842E+03  0.25500000920E-02 0.  1.
       -2    1    3    3    0  502  0.10362867218E+03 -0.17278455906E+02  0.13851936374E+04  0.13891720051E+04  0.25500000920E-02 0. -1.
</event>
<event>
 5   0  0.2943244E-05  0.1923685E+04  0.7818609E-02  0.8643156E-01
        1   -1    0    0  501    0  0.00000000000E+00  0.00000000000E+00  0.12103259514E+04  0.12103259515E+04  0.50400001928E-02 0. -1.
       -1   -1    0    0    0  501  0.00000000000E+00  0.00000000000E+00 -0.76437378622E+03  0.76437378624E+03  0.50400001928E-02 0.  1.
    10030    2    1    2    0    0  0.00000000000E+00  0.00000000000E+00  0.44595216523E+03  0.19746997377E+04  0.19236854526E+04 0.  0.
        3    1    3    3  502    0  0.73443473863E+03 -0.31656040112E+03 -0.32555072768E+03  0.86347446943E+03  0.10100000352E+00 0.  1.
       -3    1    3    3    0  502 -0.73443473863E+03  0.31656040112E+03  0.77150289291E+03  0.11112252683E+04  0.10100000352E+00 0. -1.
</event>
<event>
 5   0  0.2915546E-05  0.2370479E+04  0.7818609E-02  0.8450639E-01
        1   -1    0    0  501    0  0.00000000000E+00  0.00000000000E+00  0.73196759875E+03  0.73196759877E+03  0.50400001928E-02 0.  1.
       -1   -1    0    0    0  501  0.00000000000E+00  0.00000000000E+00 -0.19191998770E+04  0.19191998770E+04  0.50400001928E-02 0. -1.
    10030    2    1    2    0    0  0.00000000000E+00  0.00000000000E+00 -0.11872322782E+04  0.26511674758E+04  0.23704785386E+04 0.  0.
        2    1    3    3  502    0  0.57865553676E+02  0.40635823352E+03  0.64994173405E+03  0.76870000255E+03  0.25500000920E-02 0.  1.
       -2    1    3    3    0  502 -0.57865553676E+02 -0.40635823352E+03 -0.18371740123E+04  0.18824674732E+04  0.25500000920E-02 0. -1.
</event>
<event>
 5   0  0.6337926E-05  0.2426472E+04  0.7818609E-02  0.8429659E-01
        2   -1    0    0  501    0  0.00000000000E+00  0.00000000000E+00  0.17595160286E+04  0.17595160286E+04  0.25500000920E-02 0.  1.
       -2   -1    0    0    0  501  0.00000000000E+00  0.00000000000E+00 -0.83656028480E+03  0.83656028480E+03  0.25500000920E-02 0. -1.
    10030    2    1    2    0    0  0.00000000000E+00  0.00000000000E+00  0.92295574382E+03  0.25960763134E+04  0.24264717019E+04 0.  0.
        1    1    3    3  502    0 -0.72892557837E+02 -0.46911723940E+03  0.16560112266E+04  0.17227180535E+04  0.50400001928E-02 0.  1.
       -1    1    3    3    0  502  0.72892557837E+02  0.46911723940E+03 -0.73305548278E+03  0.87335825990E+03  0.50400001928E-02 0. -1.
</event>
<event>
 5   0  0.2901816E-05  0.2346124E+04  0.7818609E-02  0.8459954E-01
        1   -1    0    0  501    0  0.00000000000E+00  0.00000000000E+00  0.91520457995E+03  0.91520457996E+03  0.50400001928E-02 0. -1.
       -1   -1    0    0    0  501  0.00000000000E+00  0.00000000000E+00 -0.15035700393E+04  0.15035700393E+04  0.50400001928E-02 0.  1.
    10030    2    1    2    0    0  0.00000000000E+00  0.00000000000E+00 -0.58836545939E+03  0.24187746193E+04  0.23461237702E+04 0.  0.
        4    1    3    3  502    0 -0.53003793222E+03  0.10330978836E+04 -0.46620627228E+03  0.12512319321E+04  0.12699999809E+01 0.  1.
       -4    1    3    3    0  502  0.53003793222E+03 -0.10330978836E+04 -0.12215918711E+03  0.11675426872E+04  0.12699999809E+01 0. -1.
</event>
<event>
 5   0  0.6337926E-05  0.2396664E+04  0.7818609E-02  0.8440754E-01
       -2   -1    0    0    0  501  0.00000000000E+00  0.00000000000E+00  0.62741052192E+03  0.62741052193E+03  0.25500000920E-02 0. -1.
        2   -1    0    0  501    0  0.00000000000E+00  0.00000000000E+00 -0.22887719861E+04  0.22887719861E+04  0.25500000920E-02 0.  1.
    10030    2    1    2    0    0  0.00000000000E+00  0.00000000000E+00 -0.16613614642E+04  0.29161825081E+04  0.23966640369E+04 0.  0.
        1    1    3    3  502    0 -0.78655907572E+03  0.87576134546E+03 -0.55760790790E+03  0.13025205153E+04  0.50400001928E-02 0. -1.
       -1    1    3    3    0  502  0.78655907572E+03 -0.87576134546E+03 -0.11037535563E+04  0.16136619928E+04  0.50400001928E-02 0.  1.
</event>
<event>
 5   0  0.2943123E-05  0.2338958E+04  0.7818609E-02  0.8462717E-01
        1   -1    0    0  501    0  0.00000000000E+00  0.00000000000E+00  0.15819817133E+04  0.15819817133E+04  0.50400001928E-02 0. -1.
       -1   -1    0    0    0  501  0.00000000000E+00  0.00000000000E+00 -0.86453656183E+03  0.86453656184E+03  0.50400001928E-02 0.  1.
    10030    2    1    2    0    0  0.00000000000E+00  0.00000000000E+00  0.71744515145E+03  0.24465182751E+04  0.23389579144E+04 0.  0.
        1    1    3    3  502    0 -0.50849375032E+03  0.10527892073E+04  0.38736851677E+03  0.12316596027E+04  0.50400001928E-02 0. -1.
       -1    1    3    3    0  502  0.50849375032E+03 -0.10527892073E+04  0.33007663468E+03  0.12148586724E+04  0.50400001928E-02 0.  1.
</event>
<event>
 5   0  0.6978115E-05  0.2272941E+04  0.7818609E-02  0.8488667E-01
       -2   -1    0    0    0  501  0.00000000000E+00  0.00000000000E+00  0.74865114882E+03  0.74865114883E+03  0.25500000920E-02 0. -1.
        2   -1    0    0  501    0  0.00000000000E+00  0.00000000000E+00 -0.17251900360E+04  0.17251900360E+04  0.25500000920E-02 0.  1.
    10030    2    1    2    0    0  0.00000000000E+00  0.00000000000E+00 -0.97653888715E+03  0.24738411848E+04  0.22729412684E+04 0.  0.
        4    1    3    3  502    0  0.51924822403E+03 -0.79275678741E+03  0.19445578628E+03  0.96741754577E+03  0.12699999809E+01 0. -1.
       -4    1    3    3    0  502 -0.51924822403E+03  0.79275678741E+03 -0.11709946734E+04  0.15064236390E+04  0.12699999809E+01 0.  1.
</event>
<event>
 5   0  0.2847158E-05  0.2392996E+04  0.7818609E-02  0.8442131E-01
       -1   -1    0    0    0  501  0.00000000000E+00  0.00000000000E+00  0.11674580847E+04  0.11674580847E+04  0.50400001928E-02 0. -1.
        1   -1    0    0  501    0  0.00000000000E+00  0.00000000000E+00 -0.12262598359E+04  0.12262598360E+04  0.50400001928E-02 0.  1.
    10030    2    1    2    0    0  0.00000000000E+00  0.00000000000E+00 -0.58801751293E+02  0.23937179206E+04  0.23929955783E+04 0.  0.
        5    1    3    3  502    0 -0.28895906467E+03 -0.15500553944E+03 -0.11804266293E+04  0.12251339419E+04  0.46999998093E+01 0.  1.
       -5    1    3    3    0  502  0.28895906467E+03  0.15500553944E+03  0.11216248780E+04  0.11685839787E+04  0.46999998093E+01 0. -1.
</event>
<event>
 5   0  0.6714629E-05  0.2442481E+04  0.7818609E-02  0.8423768E-01
       -2   -1    0    0    0  501  0.00000000000E+00  0.00000000000E+00  0.12515059635E+04  0.12515059635E+04  0.25500000920E-02 0.  1.
        2   -1    0    0  501    0  0.00000000000E+00  0.00000000000E+00 -0.11917068114E+04  0.11917068114E+04  0.25500000920E-02 0. -1.
    10030    2    1    2    0    0  0.00000000000E+00  0.00000000000E+00  0.59799152134E+02  0.24432127749E+04  0.24424808546E+04 0.  0.
        3    1    3    3  502    0  0.73725374997E+03 -0.66948866020E+03 -0.67718565416E+03  0.12043000367E+04  0.10100000352E+00 0. -1.
       -3    1    3    3    0  502 -0.73725374997E+03  0.66948866020E+03  0.73698480629E+03  0.12389127382E+04  0.10100000352E+00 0.  1.
</event>
<event>
 5   0  0.6703961E-05  0.2359675E+04  0.7818609E-02  0.8454757E-01
        2   -1    0    0  501    0  0.00000000000E+00  0.00000000000E+00  0.25757325106E+04  0.25757325106E+04  0.25500000920E-02 0. -1.
       -2   -1    0    0    0  501  0.00000000000E+00  0.00000000000E+00 -0.54043542231E+03  0.54043542232E+03  0.25500000920E-02 0.  1.
    10030    2    1    2    0    0  0.00000000000E+00  0.00000000000E+00  0.20352970883E+04  0.31161679330E+04  0.23596754753E+04 0.  0.
        2    1    3    3  502    0  0.87027305430E+02 -0.11761157838E+04  0.10632997458E+04  0.15879006387E+04  0.25500000920E-02 0. -1.
       -2    1    3    3    0  502 -0.87027305430E+02  0.11761157838E+04  0.97199734250E+03  0.15282672943E+04  0.25500000920E-02 0.  1.
</event>
<event>
 5   0  0.6337926E-05  0.2000662E+04  0.7818609E-02  0.8606311E-01
       -2   -1    0    0    0  501  0.00000000000E+00  0.00000000000E+00  0.89277979924E+03  0.89277979924E+03  0.25500000920E-02 0. -1.
        2   -1    0    0  501    0  0.00000000000E+00  0.00000000000E+00 -0.11208382662E+04  0.11208382662E+04  0.25500000920E-02 0.  1.
    10030    2    1    2    0    0  0.00000000000E+00  0.00000000000E+00 -0.22805846700E+03  0.20136180655E+04  0.20006616529E+04 0.  0.
        1    1    3    3  502    0 -0.95785554598E+03 -0.27503034734E+03 -0.26675324702E+02  0.99691549888E+03  0.50400001928E-02 0. -1.
       -1    1    3    3    0  502  0.95785554598E+03  0.27503034734E+03 -0.20138314230E+03  0.10167025666E+04  0.50400001928E-02 0.  1.
</event>
<event>
 5   0  0.2915546E-05  0.2403894E+04  0.7818609E-02  0.8438047E-01
       -1   -1    0    0    0  501  0.00000000000E+00  0.00000000000E+00  0.16578731617E+04  0.16578731617E+04  0.50400001928E-02 0. -1.
        1   -1    0    0  501    0  0.00000000000E+00  0.00000000000E+00 -0.87140378753E+03  0.87140378755E+03  0.50400001928E-02 0.  1.
    10030    2    1    2    0    0  0.00000000000E+00  0.00000000000E+00  0.78646937414E+03  0.25292769492E+04  0.24038943008E+04 0.  0.
        2    1    3    3  502    0  0.91934911559E+03  0.77161068921E+03  0.32593685371E+03  0.12437124606E+04  0.25500000920E-02 0. -1.
       -2    1    3    3    0  502 -0.91934911559E+03 -0.77161068921E+03  0.46053252043E+03  0.12855644886E+04  0.25500000920E-02 0.  1.
</event>
<event>
 5   0  0.6703961E-05  0.2434433E+04  0.7818609E-02  0.8426724E-01
       -2   -1    0    0    0  501  0.00000000000E+00  0.00000000000E+00  0.65527355691E+03  0.65527355692E+03  0.25500000920E-02 0. -1.
        2   -1    0    0  501    0  0.00000000000E+00  0.00000000000E+00 -0.22610653060E+04  0.22610653060E+04  0.25500000920E-02 0.  1.
    10030    2    1    2    0    0  0.00000000000E+00  0.00000000000E+00 -0.16057917491E+04  0.29163388629E+04  0.24344332445E+04 0.  0.
        2    1    3    3  502    0 -0.15579380271E+03 -0.10431643242E+04 -0.75043685898E+02  0.10574001471E+04  0.25500000920E-02 0.  1.
       -2    1    3    3    0  502  0.15579380271E+03  0.10431643242E+04 -0.15307480632E+04  0.18589387158E+04  0.25500000920E-02 0. -1.
</event>
<event>
 5   0  0.2943244E-05  0.2235321E+04  0.7818609E-02  0.8503869E-01
       -1   -1    0    0    0  501  0.00000000000E+00  0.00000000000E+00  0.94752184605E+03  0.94752184607E+03  0.50400001928E-02 0.  1.
        1   -1    0    0  501    0  0.00000000000E+00  0.00000000000E+00 -0.13183496698E+04  0.13183496698E+04  0.50400001928E-02 0. -1.
    10030    2    1    2    0    0  0.00000000000E+00  0.00000000000E+00 -0.37082782370E+03  0.22658715158E+04  0.22353211070E+04 0.  0.
        3    1    3    3  502    0  0.36818381163E+03  0.58654297003E+03 -0.10746566110E+04  0.12784673702E+04  0.10100000352E+00 0. -1.
       -3    1    3    3    0  502 -0.36818381163E+03 -0.58654297003E+03  0.70382878729E+03  0.98740414566E+03  0.10100000352E+00 0.  1.
</event>
<event>
 5   0  0.2901816E-05  0.2339644E+04  0.7818609E-02  0.8462452E-01
        1   -1    0    0  501    0  0.00000000000E+00  0.00000000000E+00  0.12142760395E+04  0.12142760395E+04  0.50400001928E-02 0. -1.
       -1   -1    0    0    0  501  0.00000000000E+00  0.00000000000E+00 -0.11269958816E+04  0.11269958816E+04  0.50400001928E-02 0.  1.
    10030    2    1    2    0    0  0.00000000000E+00  0.00000000000E+00  0.87280157831E+02  0.23412719211E+04  0.23396444992E+04 0.  0.
        4    1    3    3  502    0  0.55141409499E+03 -0.58356550042E+02  0.10744145760E+04  0.12090621510E+04  0.12699999809E+01 0. -1.
       -4    1    3    3    0  502 -0.55141409499E+03  0.58356550042E+02 -0.98713441814E+03  0.11322097701E+04  0.12699999809E+01 0.  1.
</event>
<event>
 5   0  0.2915546E-05  0.1834009E+04  0.7818609E-02  0.8688420E-01
       -1   -1    0    0    0  501  0.00000000000E+00  0.00000000000E+00  0.67295761451E+03  0.67295761452E+03  0.50400001928E-02 0. -1.
        1   -1    0    0  501    0  0.00000000000E+00  0.00000000000E+00 -0.12495540455E+04  0.12495540455E+04  0.50400001928E-02 0.  1.
    10030    2    1    2    0    0  0.00000000000E+00  0.00000000000E+00 -0.57659643100E+03  0.19225116600E+04  0.18340086256E+04 0.  0.
        2    1    3    3  502    0 -0.66805856590E+03  0.59852130647E+03 -0.88394531860E+02  0.90130105683E+03  0.25500000920E-02 0. -1.
       -2    1    3    3    0  502  0.66805856590E+03 -0.59852130647E+03 -0.48820189914E+03  0.10212106032E+04  0.25500000920E-02 0.  1.
</event>
<event>
 5   0  0.2847158E-05  0.2058225E+04  0.7818609E-02  0.8579872E-01
       -1   -1    0    0    0  501  0.00000000000E+00  0.00000000000E+00  0.73395809374E+03  0.73395809376E+03  0.50400001928E-02 0. -1.
        1   -1    0    0  501    0  0.00000000000E+00  0.00000000000E+00 -0.14429611992E+04  0.14429611992E+04  0.50400001928E-02 0.  1.
    10030    2    1    2    0    0  0.00000000000E+00  0.00000000000E+00 -0.70900310546E+03  0.21769192930E+04  0.20582254990E+04 0.  0.
        5    1    3    3  502    0  0.85990395932E+03  0.54766978874E+03 -0.20614897609E+03  0.10401425417E+04  0.46999998093E+01 0.  1.
       -5    1    3    3    0  502 -0.85990395932E+03 -0.54766978874E+03 -0.50285412937E+03  0.11367767512E+04  0.46999998093E+01 0. -1.
</event>
<event>
 5   0  0.6337926E-05  0.2328465E+04  0.7818609E-02  0.8466782E-01
        2   -1    0    0  501    0  0.00000000000E+00  0.00000000000E+00  0.10216887115E+04  0.10216887115E+04  0.25500000920E-02 0. -1.
       -2   -1    0    0    0  501  0.00000000000E+00  0.00000000000E+00 -0.13266636522E+04  0.13266636522E+04  0.25500000920E-02 0.  1.
    10030    2    1    2    0    0  0.00000000000E+00  0.00000000000E+00 -0.30497494068E+03  0.23483523637E+04  0.23284649686E+04 0.  0.
        1    1    3    3  502    0 -0.88147064992E+03  0.49900425188E+03 -0.73135971271E+03  0.12493529443E+04  0.50400001928E-02 0.  1.
       -1    1    3    3    0  502  0.88147064992E+03 -0.49900425188E+03  0.42638477204E+03  0.10989994194E+04  0.50400001928E-02 0. -1.
</event>
<event>
 5   0  0.6978115E-05  0.2351338E+04  0.7818609E-02  0.8457950E-01
       -2   -1    0    0    0  501  0.00000000000E+00  0.00000000000E+00  0.78664305889E+03  0.78664305889E+03  0.25500000920E-02 0.  1.
        2   -1    0    0  501    0  0.00000000000E+00  0.00000000000E+00 -0.17570835464E+04  0.17570835464E+04  0.25500000920E-02 0. -1.
    10030    2    1    2    0    0  0.00000000000E+00  0.00000000000E+00 -0.97044048749E+03  0.25437266053E+04  0.23513379814E+04 0.  0.
        4    1    3    3  502    0  0.47307045494E+03  0.78216046194E+03 -0.12850549504E+04  0.15770030063E+04  0.12699999809E+01 0. -1.
       -4    1    3    3    0  502 -0.47307045494E+03 -0.78216046194E+03  0.31461446290E+03  0.96672359893E+03  0.12699999809E+01 0.  1.
</event>
<event>
 5   0  0.6714629E-05  0.2354692E+04  0.7818609E-02  0.8456664E-01
        2   -1    0    0  501    0  0.00000000000E+00  0.00000000000E+00  0.12348812660E+04  0.12348812660E+04  0.25500000920E-02 0. -1.
       -2   -1    0    0    0  501  0.00000000000E+00  0.00000000000E+00 -0.11224916705E+04  0.11224916705E+04  0.25500000920E-02 0.  1.
    10030    2    1    2    0    0  0.00000000000E+00  0.00000000000E+00  0.11238959550E+03  0.23573729366E+04  0.23546922816E+04 0.  0.
        3    1    3    3  502    0 -0.47570993426E+02  0.20020175480E+02  0.12337481532E+04  0.12348272440E+04  0.10100000352E+00 0. -1.
       -3    1    3    3    0  502  0.47570993426E+02 -0.20020175480E+02 -0.11213585577E+04  0.11225456926E+04  0.10100000352E+00 0.  1.
</event>
<event>
 5   0  0.2915546E-05  0.2410414E+04  0.7818609E-02  0.8435615E-01
        1   -1    0    0  501    0  0.00000000000E+00  0.00000000000E+00  0.10568532750E+04  0.10568532750E+04  0.50400001928E-02 0. -1.
       -1   -1    0    0    0  501  0.00000000000E+00  0.00000000000E+00 -0.13743852108E+04  0.13743852108E+04  0.50400001928E-02 0.  1.
    10030    2    1    2    0    0  0.00000000000E+00  0.00000000000E+00 -0.31753193577E+03  0.24312384858E+04  0.24104136667E+04 0.  0.
        2    1    3    3  502    0  0.72475348090E+03  0.93914108787E+03  0.55839530665E+02  0.11875906888E+04  0.25500000920E-02 0. -1.
       -2    1    3    3    0  502 -0.72475348090E+03 -0.93914108787E+03 -0.37337146643E+03  0.12436477970E+04  0.25500000920E-02 0.  1.
</event>
<event>
 5   0  0.2339125E-05  0.2414847E+04  0.7818609E-02  0.8433966E-01
        4   -1    0    0  501    0  0.00000000000E+00  0.00000000000E+00  0.98239556034E+03  0.98239638124E+03  0.12699999809E+01 0.  1.
       -4   -1    0    0    0  501  0.00000000000E+00  0.00000000000E+00 -0.14839946629E+04  0.14839952063E+04  0.12699999809E+01 0. -1.
    10030    2    1    2    0    0  0.00000000000E+00  0.00000000000E+00 -0.50159910251E+03  0.24663915875E+04  0.24148469524E+04 0.  0.
        3    1    3    3  502    0  0.24640514237E+03 -0.10328971488E+04 -0.83776586810E+03  0.13525692863E+04  0.10100000352E+00 0. -1.
       -3    1    3    3    0  502 -0.24640514237E+03  0.10328971488E+04  0.33616676559E+03  0.11138223012E+04  0.10100000352E+00 0.  1.
</event>
<event>
 5   0  0.2339125E-05  0.2529970E+04  0.7818609E-02  0.8392386E-01
       -3   -1    0    0    0  501  0.00000000000E+00  0.00000000000E+00  0.80586236935E+03  0.80586237568E+03  0.10100000352E+00 0. -1.
        3   -1    0    0  501    0  0.00000000000E+00  0.00000000000E+00 -0.19856823997E+04  0.19856824023E+04  0.10100000352E+00 0.  1.
    10030    2    1    2    0    0  0.00000000000E+00  0.00000000000E+00 -0.11798200304E+04  0.27915447780E+04  0.25299697515E+04 0.  0.
        4    1    3    3  502    0 -0.57453889351E+03  0.86820387169E+03  0.20292983685E+03  0.10606861150E+04  0.12699999809E+01 0. -1.
       -4    1    3    3    0  502  0.57453889351E+03 -0.86820387169E+03 -0.13827498672E+04  0.17308586630E+04  0.12699999809E+01 0.  1.
</event>
<event>
 5   0  0.2847158E-05  0.2423311E+04  0.7818609E-02  0.8430827E-01
        1   -1    0    0  501    0  0.00000000000E+00  0.00000000000E+00  0.55378361027E+03  0.55378361029E+03  0.50400001928E-02 0. -1.
       -1   -1    0    0    0  501  0.00000000000E+00  0.00000000000E+00 -0.26510522870E+04  0.26510522870E+04  0.50400001928E-02 0.  1.
    10030    2    1    2    0    0  0.00000000000E+00  0.00000000000E+00 -0.20972686767E+04  0.32048358972E+04  0.24233112111E+04 0.  0.
        5    1    3    3  502    0  0.71434461412E+03  0.97817312597E+03 -0.10899575132E+04  0.16294601445E+04  0.46999998093E+01 0.  1.
       -5    1    3    3    0  502 -0.71434461412E+03 -0.97817312597E+03 -0.10073111635E+04  0.15753757527E+04  0.46999998093E+01 0. -1.
</event>
<event>
 5   0  0.2901816E-05  0.2116809E+04  0.7818609E-02  0.8553875E-01
       -1   -1    0    0    0  501  0.00000000000E+00  0.00000000000E+00  0.54445257643E+03  0.54445257645E+03  0.50400001928E-02 0. -1.
        1   -1    0    0  501    0  0.00000000000E+00  0.00000000000E+00 -0.20575172110E+04  0.20575172110E+04  0.50400001928E-02 0.  1.
    10030    2    1    2    0    0  0.00000000000E+00  0.00000000000E+00 -0.15130646346E+04  0.26019697875E+04  0.21168094356E+04 0.  0.
        4    1    3    3  502    0  0.64162026313E+03 -0.39025231114E+03 -0.16732882817E+04  0.18340852529E+04  0.12699999809E+01 0.  1.
       -4    1    3    3    0  502 -0.64162026313E+03  0.39025231114E+03  0.16022364712E+03  0.76788453455E+03  0.12699999809E+01 0. -1.
</event>
<event>
 5   0  0.2943123E-05  0.2281086E+04  0.7818609E-02  0.8485416E-01
        1   -1    0    0  501    0  0.00000000000E+00  0.00000000000E+00  0.85837562952E+03  0.85837562953E+03  0.50400001928E-02 0.  1.
       -1   -1    0    0    0  501  0.00000000000E+00  0.00000000000E+00 -0.15154648965E+04  0.15154648965E+04  0.50400001928E-02 0. -1.
    10030    2    1    2    0    0  0.00000000000E+00  0.00000000000E+00 -0.65708926702E+03  0.23738405261E+04  0.22810858244E+04 0.  0.
        1    1    3    3  502    0  0.52089500201E+03 -0.85088860910E+03  0.24664631489E+03  0.10277049347E+04  0.50400001928E-02 0.  1.
       -1    1    3    3    0  502 -0.52089500201E+03  0.85088860910E+03 -0.90373558191E+03  0.13461355913E+04  0.50400001928E-02 0. -1.
</event>
<event>
 5   0  0.6978115E-05  0.2344595E+04  0.7818609E-02  0.8460543E-01
       -2   -1    0    0    0  501  0.00000000000E+00  0.00000000000E+00  0.73929332040E+03  0.73929332041E+03  0.25500000920E-02 0.  1.
        2   -1    0    0  501    0  0.00000000000E+00  0.00000000000E+00 -0.18589115209E+04  0.18589115209E+04  0.25500000920E-02 0. -1.
    10030    2    1    2    0    0  0.00000000000E+00  0.00000000000E+00 -0.11196182005E+04  0.25982048413E+04  0.23445945241E+04 0.  0.
        4    1    3    3  502    0 -0.85408929780E+02  0.26555200631E+03  0.70197870337E+03  0.75537293188E+03  0.12699999809E+01 0.  1.
       -4    1    3    3    0  502  0.85408929780E+02 -0.26555200631E+03 -0.18215969038E+04  0.18428319094E+04  0.12699999809E+01 0. -1.
</event>
<event>
 5   0  0.6600166E-05  0.2527266E+04  0.7818609E-02  0.8393336E-01
        2   -1    0    0  501    0  0.00000000000E+00  0.00000000000E+00  0.10108072549E+04  0.10108072549E+04  0.25500000920E-02 0.  1.
       -2   -1    0    0    0  501  0.00000000000E+00  0.00000000000E+00 -0.15796960795E+04  0.15796960795E+04  0.25500000920E-02 0. -1.
    10030    2    1    2    0    0  0.00000000000E+00  0.00000000000E+00 -0.56888882465E+03  0.25905033344E+04  0.25272659200E+04 0.  0.
        5    1    3    3  502    0 -0.56244801190E+03  0.81050901992E+01  0.87538638094E+03  0.10405464259E+04  0.46999998093E+01 0.  1.
       -5    1    3    3    0  502  0.56244801190E+03 -0.81050901992E+01 -0.14442752056E+04  0.15499569085E+04  0.46999998093E+01 0. -1.
</event>
<event>
 5   0  0.2847158E-05  0.1600858E+04  0.7818609E-02  0.8820021E-01
       -1   -1    0    0    0  501  0.00000000000E+00  0.00000000000E+00  0.64404260501E+03  0.64404260503E+03  0.50400001928E-02 0.  1.
        1   -1    0    0  501    0  0.00000000000E+00  0.00000000000E+00 -0.99478941537E+03  0.99478941538E+03  0.50400001928E-02 0. -1.
    10030    2    1    2    0    0  0.00000000000E+00  0.00000000000E+00 -0.35074681036E+03  0.16388320204E+04  0.16008582280E+04 0.  0.
        5    1    3    3  502    0 -0.74327311361E+03 -0.12908452410E+03  0.98454120878E+02  0.76081077785E+03  0.46999998093E+01 0. -1.
       -5    1    3    3    0  502  0.74327311361E+03  0.12908452410E+03 -0.44920093124E+03  0.87802124256E+03  0.46999998093E+01 0.  1.
</event>
<event>
 5   0  0.6337926E-05  0.2382389E+04  0.7818609E-02  0.8446126E-01
        2   -1    0    0  501    0  0.00000000000E+00  0.00000000000E+00  0.13826856420E+04  0.13826856420E+04  0.25500000920E-02 0.  1.
       -2   -1    0    0    0  501  0.00000000000E+00  0.00000000000E+00 -0.10262233221E+04  0.10262233221E+04  0.25500000920E-02 0. -1.
    10030    2    1    2    0    0  0.00000000000E+00  0.00000000000E+00  0.35646231989E+03  0.24089089642E+04  0.23823889297E+04 0.  0.
        1    1    3    3  502    0  0.81079946714E+03 -0.88851892232E+02  0.10560273213E+04  0.13343478324E+04  0.50400001928E-02 0.  1.
       -1    1    3    3    0  502 -0.81079946714E+03  0.88851892232E+02 -0.69956500137E+03  0.10745611317E+04  0.50400001928E-02 0. -1.
</event>
<event>
 5   0  0.6703961E-05  0.2393242E+04  0.7818609E-02  0.8442038E-01
        2   -1    0    0  501    0  0.00000000000E+00  0.00000000000E+00  0.93124232415E+03  0.93124232415E+03  0.25500000920E-02 0.  1.
       -2   -1    0    0    0  501  0.00000000000E+00  0.00000000000E+00 -0.15376254709E+04  0.15376254709E+04  0.25500000920E-02 0. -1.
    10030    2    1    2    0    0  0.00000000000E+00  0.00000000000E+00 -0.60638314671E+03  0.24688677950E+04  0.23932420832E+04 0.  0.
        2    1    3    3  502    0 -0.40883769610E+03  0.11240181526E+04 -0.26547326208E+03  0.12251698339E+04  0.25500000920E-02 0.  1.
       -2    1    3    3    0  502  0.40883769610E+03 -0.11240181526E+04 -0.34090988463E+03  0.12436979611E+04  0.25500000920E-02 0. -1.
</event>
<event>
 5   0  0.6703961E-05  0.2287334E+04  0.7818609E-02  0.8482932E-01
       -2   -1    0    0    0  501  0.00000000000E+00  0.00000000000E+00  0.20974970032E+04  0.20974970032E+04  0.25500000920E-02 0. -1.
        2   -1    0    0  501    0  0.00000000000E+00  0.00000000000E+00 -0.62358829145E+03  0.62358829145E+03  0.25500000920E-02 0.  1.
    10030    2    1    2    0    0  0.00000000000E+00  0.00000000000E+00  0.14739087118E+04  0.27210852947E+04  0.22873343197E+04 0.  0.
        2    1    3    3  502    0  0.22138817361E+03 -0.61066608405E+03  0.18567565799E+04  0.19670970456E+04  0.25500000920E-02 0. -1.
       -2    1    3    3    0  502 -0.22138817361E+03  0.61066608405E+03 -0.38284786815E+03  0.75398824910E+03  0.25500000920E-02 0.  1.
</event>
<event>
 5   0  0.2901816E-05  0.2366219E+04  0.7818609E-02  0.8452260E-01
        1   -1    0    0  501    0  0.00000000000E+00  0.00000000000E+00  0.15476149985E+04  0.15476149985E+04  0.50400001928E-02 0.  1.
       -1   -1    0    0    0  501  0.00000000000E+00  0.00000000000E+00 -0.90445491546E+03  0.90445491547E+03  0.50400001928E-02 0. -1.
    10030    2    1    2    0    0  0.00000000000E+00  0.00000000000E+00  0.64316008304E+03  0.24520699140E+04  0.23662189186E+04 0.  0.
        4    1    3    3  502    0 -0.11444077558E+04 -0.22550891378E+03  0.52681357339E+03  0.12798662179E+04  0.12699999809E+01 0. -1.
       -4    1    3    3    0  502  0.11444077558E+04  0.22550891378E+03  0.11634650965E+03  0.11722036960E+04  0.12699999809E+01 0.  1.
</event>
<event>
 5   0  0.2943123E-05  0.2399973E+04  0.7818609E-02  0.8439514E-01
        1   -1    0    0  501    0  0.00000000000E+00  0.00000000000E+00  0.13144431049E+04  0.13144431049E+04  0.50400001928E-02 0. -1.
       -1   -1    0    0    0  501  0.00000000000E+00  0.00000000000E+00 -0.10954963471E+04  0.10954963471E+04  0.50400001928E-02 0.  1.
    10030    2    1    2    0    0  0.00000000000E+00  0.00000000000E+00  0.21894675782E+03  0.24099394519E+04  0.23999730164E+04 0.  0.
        1    1    3    3  502    0 -0.79403529058E+03  0.89168467003E+03 -0.10916226405E+02  0.11940321426E+04  0.50400001928E-02 0. -1.
       -1    1    3    3    0  502  0.79403529058E+03 -0.89168467003E+03  0.22986298422E+03  0.12159073094E+04  0.50400001928E-02 0.  1.
</event>
<event>
 5   0  0.6600166E-05  0.2337608E+04  0.7818609E-02  0.8463239E-01
       -2   -1    0    0    0  501  0.00000000000E+00  0.00000000000E+00  0.10115855986E+04  0.10115855986E+04  0.25500000920E-02 0. -1.
        2   -1    0    0  501    0  0.00000000000E+00  0.00000000000E+00 -0.13504564609E+04  0.13504564609E+04  0.25500000920E-02 0.  1.
    10030    2    1    2    0    0  0.00000000000E+00  0.00000000000E+00 -0.33887086224E+03  0.23620420595E+04  0.23376075867E+04 0.  0.
        5    1    3    3  502    0  0.59361435042E+03  0.94633321007E+03 -0.51676624415E+03  0.12308509181E+04  0.46999998093E+01 0.  1.
       -5    1    3    3    0  502 -0.59361435042E+03 -0.94633321007E+03  0.17789538191E+03  0.11311911414E+04  0.46999998093E+01 0. -1.
</event>
<event>
 5   0  0.2847158E-05  0.2332550E+04  0.7818609E-02  0.8465197E-01
        1   -1    0    0  501    0  0.00000000000E+00  0.00000000000E+00  0.13372923359E+04  0.13372923359E+04  0.50400001928E-02 0.  1.
       -1   -1    0    0    0  501  0.00000000000E+00  0.00000000000E+00 -0.10171278238E+04  0.10171278238E+04  0.50400001928E-02 0. -1.
    10030    2    1    2    0    0  0.00000000000E+00  0.00000000000E+00  0.32016451212E+03  0.23544201597E+04  0.23325498867E+04 0.  0.
        5    1    3    3  502    0  0.74429886414E+03  0.85540007753E+03 -0.11539618564E+03  0.11397492976E+04  0.46999998093E+01 0. -1.
       -5    1    3    3    0  502 -0.74429886414E+03 -0.85540007753E+03  0.43556069776E+03  0.12146708621E+04  0.46999998093E+01 0.  1.
</event>
<event>
 5   0  0.6703961E-05  0.2417290E+04  0.7818609E-02  0.8433059E-01
       -2   -1    0    0    0  501  0.00000000000E+00  0.00000000000E+00  0.64839215152E+03  0.64839215152E+03  0.25500000920E-02 0.  1.
        2   -1    0    0  501    0  0.00000000000E+00  0.00000000000E+00 -0.22529928740E+04  0.22529928740E+04  0.25500000920E-02 0. -1.
    10030    2    1    2    0    0  0.00000000000E+00  0.00000000000E+00 -0.16046007224E+04  0.29013850255E+04  0.24172901331E+04 0.  0.
        2    1    3    3  502    0 -0.28261710631E+03  0.10041170232E+04 -0.15350506099E+04  0.18559374451E+04  0.25500000920E-02 0. -1.
       -2    1    3    3    0  502  0.28261710631E+03 -0.10041170232E+04 -0.69550112513E+02  0.10454475804E+04  0.25500000920E-02 0.  1.
</event>
<event>
 5   0  0.6978115E-05  0.2377769E+04  0.7818609E-02  0.8447874E-01
        2   -1    0    0  501    0  0.00000000000E+00  0.00000000000E+00  0.15029702425E+04  0.15029702425E+04  0.25500000920E-02 0.  1.
       -2   -1    0    0    0  501  0.00000000000E+00  0.00000000000E+00 -0.94043534798E+03  0.94043534799E+03  0.25500000920E-02 0. -1.
    10030    2    1    2    0    0  0.00000000000E+00  0.00000000000E+00  0.56253489449E+03  0.24434055905E+04  0.23777689905E+04 0.  0.
        4    1    3    3  502    0 -0.47604554635E+03  0.36927443424E+03 -0.77194510883E+03  0.97922614034E+03  0.12699999809E+01 0. -1.
       -4    1    3    3    0  502  0.47604554635E+03 -0.36927443424E+03  0.13344800033E+04  0.14641794501E+04  0.12699999809E+01 0.  1.
</event>
<event>
 5   0  0.2901816E-05  0.2323178E+04  0.7818609E-02  0.8468838E-01
       -1   -1    0    0    0  501  0.00000000000E+00  0.00000000000E+00  0.72129873328E+03  0.72129873330E+03  0.50400001928E-02 0. -1.
        1   -1    0    0  501    0  0.00000000000E+00  0.00000000000E+00 -0.18706379208E+04  0.18706379208E+04  0.50400001928E-02 0.  1.
    10030    2    1    2    0    0  0.00000000000E+00  0.00000000000E+00 -0.11493391876E+04  0.25919366541E+04  0.23231777915E+04 0.  0.
        4    1    3    3  502    0  0.40882649473E+03  0.37607783189E+03  0.56350144981E+03  0.79127058284E+03  0.12699999809E+01 0. -1.
       -4    1    3    3    0  502 -0.40882649473E+03 -0.37607783189E+03 -0.17128406374E+04  0.18006660713E+04  0.12699999809E+01 0.  1.
</event>
<event>
 5   0  0.6600166E-05  0.2380595E+04  0.7818609E-02  0.8446804E-01
        2   -1    0    0  501    0  0.00000000000E+00  0.00000000000E+00  0.20497708300E+04  0.20497708300E+04  0.25500000920E-02 0.  1.
       -2   -1    0    0    0  501  0.00000000000E+00  0.00000000000E+00 -0.69120312186E+03  0.69120312186E+03  0.25500000920E-02 0. -1.
    10030    2    1    2    0    0  0.00000000000E+00  0.00000000000E+00  0.13585677081E+04  0.27409739518E+04  0.23805948809E+04 0.  0.
        5    1    3    3  502    0  0.28145181605E+03  0.85720599276E+03  0.15731958137E+04  0.18135557331E+04  0.46999998093E+01 0.  1.
       -5    1    3    3    0  502 -0.28145181605E+03 -0.85720599276E+03 -0.21462810557E+03  0.92741821876E+03  0.46999998093E+01 0. -1.
</event>
<event>
 5   0  0.6714629E-05  0.2399860E+04  0.7818609E-02  0.8439556E-01
        2   -1    0    0  501    0  0.00000000000E+00  0.00000000000E+00  0.12999400729E+04  0.12999400729E+04  0.25500000920E-02 0. -1.
       -2   -1    0    0    0  501  0.00000000000E+00  0.00000000000E+00 -0.11076141370E+04  0.11076141370E+04  0.25500000920E-02 0.  1.
    10030    2    1    2    0    0  0.00000000000E+00  0.00000000000E+00  0.19232593586E+03  0.24075542100E+04  0.23998599976E+04 0.  0.
        3    1    3    3  502    0  0.55678744138E+03  0.24478606602E+03 -0.94151277385E+03  0.11208830387E+04  0.10100000352E+00 0.  1.
       -3    1    3    3    0  502 -0.55678744138E+03 -0.24478606602E+03  0.11338387097E+04  0.12866711712E+04  0.10100000352E+00 0. -1.
</event>
<event>
 5   0  0.6978115E-05  0.2429911E+04  0.7818609E-02  0.8428389E-01
        2   -1    0    0  501    0  0.00000000000E+00  0.00000000000E+00  0.97498380501E+03  0.97498380501E+03  0.25500000920E-02 0.  1.
       -2   -1    0    0    0  501  0.00000000000E+00  0.00000000000E+00 -0.15139912910E+04  0.15139912910E+04  0.25500000920E-02 0. -1.
    10030    2    1    2    0    0  0.00000000000E+00  0.00000000000E+00 -0.53900748604E+03  0.24889750961E+04  0.24299111010E+04 0.  0.
        4    1    3    3  502    0 -0.19260835523E+03 -0.79943747120E+03 -0.11856243753E+04  0.14428808062E+04  0.12699999809E+01 0. -1.
       -4    1    3    3    0  502  0.19260835523E+03  0.79943747120E+03  0.64661688924E+03  0.10460942898E+04  0.12699999809E+01 0.  1.
</event>
<event>
 5   0  0.2915546E-05  0.1742300E+04  0.7818609E-02  0.8737600E-01
       -1   -1    0    0    0  501  0.00000000000E+00  0.00000000000E+00  0.92426329222E+03  0.92426329223E+03  0.50400001928E-02 0.  1.
        1   -1    0    0  501    0  0.00000000000E+00  0.00000000000E+00 -0.82108903540E+03  0.82108903542E+03  0.50400001928E-02 0. -1.
    10030    2    1    2    0    0  0.00000000000E+00  0.00000000000E+00  0.10317425682E+03  0.17453523276E+04  0.17423001522E+04 0.  0.
        2    1    3    3  502    0  0.89762624230E+02  0.16698868575E+03  0.90334712854E+03  0.92302686013E+03  0.25500000920E-02 0.  1.
       -2    1    3    3    0  502 -0.89762624230E+02 -0.16698868575E+03 -0.80017287172E+03  0.82232546751E+03  0.25500000920E-02 0. -1.
</event>
<event>
 5   0  0.6714629E-05  0.2437811E+04  0.7818609E-02  0.8425482E-01
        2   -1    0    0  501    0  0.00000000000E+00  0.00000000000E+00  0.17213127029E+04  0.17213127029E+04  0.25500000920E-02 0.  1.
       -2   -1    0    0    0  501  0.00000000000E+00  0.00000000000E+00 -0.86313845094E+03  0.86313845094E+03  0.25500000920E-02 0. -1.
    10030    2    1    2    0    0  0.00000000000E+00  0.00000000000E+00  0.85817425193E+03  0.25844511538E+04  0.24378114611E+04 0.  0.
        3    1    3    3  502    0 -0.62590008318E+03 -0.28228560993E+03  0.14967899109E+04  0.16467592803E+04  0.10100000352E+00 0.  1.
       -3    1    3    3    0  502  0.62590008318E+03  0.28228560993E+03 -0.63861565892E+03  0.93769187355E+03  0.10100000352E+00 0. -1.
</event>
<event>
 5   0  0.2943244E-05  0.2308513E+04  0.7818609E-02  0.8474572E-01
       -1   -1    0    0    0  501  0.00000000000E+00  0.00000000000E+00  0.86001925226E+03  0.86001925228E+03  0.50400001928E-02 0. -1.
        1   -1    0    0  501    0  0.00000000000E+00  0.00000000000E+00 -0.15491607339E+04  0.15491607339E+04  0.50400001928E-02 0.  1.
    10030    2    1    2    0    0  0.00000000000E+00  0.00000000000E+00 -0.68914148159E+03  0.24091799861E+04  0.23085129898E+04 0.  0.
        3    1    3    3  502    0  0.56309987086E+03 -0.76062872302E+03 -0.10341971178E+04  0.14018563434E+04  0.10100000352E+00 0.  1.
       -3    1    3    3    0  502 -0.56309987086E+03  0.76062872302E+03  0.34505563626E+03  0.10073236427E+04  0.10100000352E+00 0. -1.
</event>
<event>
 5   0  0.6978115E-05  0.2372212E+04  0.7818609E-02  0.8449981E-01
        2   -1    0    0  501    0  0.00000000000E+00  0.00000000000E+00  0.17581338972E+04  0.17581338972E+04  0.25500000920E-02 0.  1.
       -2   -1    0    0    0  501  0.00000000000E+00  0.00000000000E+00 -0.80019358994E+03  0.80019358995E+03  0.25500000920E-02 0. -1.
    10030    2    1    2    0    0  0.00000000000E+00  0.00000000000E+00  0.95794030722E+03  0.25583274871E+04  0.23722120266E+04 0.  0.
        4    1    3    3  502    0 -0.35461350419E+03 -0.10587333313E+04  0.47346506684E+02  0.11175465577E+04  0.12699999809E+01 0. -1.
       -4    1    3    3    0  502  0.35461350419E+03  0.10587333313E+04  0.91059380054E+03  0.14407809294E+04  0.12699999809E+01 0.  1.
</event>
<event>
 5   0  0.2943123E-05  0.2415282E+04  0.7818609E-02  0.8433804E-01
        1   -1    0    0  501    0  0.00000000000E+00  0.00000000000E+00  0.22971934659E+04  0.22971934659E+04  0.50400001928E-02 0. -1.
       -1   -1    0    0    0  501  0.00000000000E+00  0.00000000000E+00 -0.63486037168E+03  0.63486037170E+03  0.50400001928E-02 0.  1.
    10030    2    1    2    0    0  0.00000000000E+00  0.00000000000E+00  0.16623330942E+04  0.29320538376E+04  0.24152822590E+04 0.  0.
        1    1    3    3  502    0 -0.71550541824E+03  0.76641383742E+03  0.15585893510E+04  0.18784405603E+04  0.50400001928E-02 0. -1.
       -1    1    3    3    0  502  0.71550541824E+03 -0.76641383742E+03  0.10374374322E+03  0.10536132773E+04  0.50400001928E-02 0.  1.
</event>
<event>
 5   0  0.6600166E-05  0.2398427E+04  0.7818609E-02  0.8440093E-01
       -2   -1    0    0    0  501  0.00000000000E+00  0.00000000000E+00  0.20630786901E+04  0.20630786901E+04  0.25500000920E-02 0.  1.
        2   -1    0    0  501    0  0.00000000000E+00  0.00000000000E+00 -0.69707115762E+03  0.69707115763E+03  0.25500000920E-02 0. -1.
    10030    2    1    2    0    0  0.00000000000E+00  0.00000000000E+00  0.13660075325E+04  0.27601498477E+04  0.23984266933E+04 0.  0.
        5    1    3    3  502    0 -0.73120176190E+03 -0.81430536468E+03  0.12471873302E+04  0.16592912855E+04  0.46999998093E+01 0. -1.
       -5    1    3    3    0  502  0.73120176190E+03  0.81430536468E+03  0.11882020229E+03  0.11008585622E+04  0.46999998093E+01 0.  1.
</event>
<event>
 5   0  0.2847158E-05  0.2429146E+04  0.7818609E-02  0.8428672E-01
       -1   -1    0    0    0  501  0.00000000000E+00  0.00000000000E+00  0.16805236669E+04  0.16805236669E+04  0.50400001928E-02 0. -1.
        1   -1    0    0  501    0  0.00000000000E+00  0.00000000000E+00 -0.87781390746E+03  0.87781390747E+03  0.50400001928E-02 0.  1.
    10030    2    1    2    0    0  0.00000000000E+00  0.00000000000E+00  0.80270975940E+03  0.25583375743E+04  0.24291455672E+04 0.  0.
        5    1    3    3  502    0 -0.70993599577E+03  0.85401902115E+02 -0.63262435649E+03  0.95474513322E+03  0.46999998093E+01 0.  1.
       -5    1    3    3    0  502  0.70993599577E+03 -0.85401902115E+02  0.14353341159E+04  0.16035924411E+04  0.46999998093E+01 0. -1.
</event>
<event>
 5   0  0.2847158E-05  0.2402131E+04  0.7818609E-02  0.8438706E-01
       -1   -1    0    0    0  501  0.00000000000E+00  0.00000000000E+00  0.14280950114E+04  0.14280950114E+04  0.50400001928E-02 0. -1.
        1   -1    0    0  501    0  0.00000000000E+00  0.00000000000E+00 -0.10101280926E+04  0.10101280926E+04  0.50400001928E-02 0.  1.
    10030    2    1    2    0    0  0.00000000000E+00  0.00000000000E+00  0.41796691884E+03  0.24382231040E+04  0.24021314617E+04 0.  0.
        5    1    3    3  502    0  0.73725264144E+03 -0.85919150697E+02 -0.74945653019E+03  0.10548131296E+04  0.46999998093E+01 0.  1.
       -5    1    3    3    0  502 -0.73725264144E+03  0.85919150697E+02  0.11674234490E+04  0.13834099743E+04  0.46999998093E+01 0. -1.
</event>
<event>
 5   0  0.6600166E-05  0.1800333E+04  0.7818609E-02  0.8706122E-01
        2   -1    0    0  501    0  0.00000000000E+00  0.00000000000E+00  0.11718281993E+04  0.11718281993E+04  0.25500000920E-02 0.  1.
       -2   -1    0    0    0  501  0.00000000000E+00  0.00000000000E+00 -0.69148356255E+03  0.69148356256E+03  0.25500000920E-02 0. -1.
    10030    2    1    2    0    0  0.00000000000E+00  0.00000000000E+00  0.48034463678E+03  0.18633117619E+04  0.18003332336E+04 0.  0.
        5    1    3    3  502    0 -0.22320713073E+03  0.23142154589E+03  0.11103576717E+04  0.11559816626E+04  0.46999998093E+01 0.  1.
       -5    1    3    3    0  502  0.22320713073E+03 -0.23142154589E+03 -0.63001303497E+03  0.70733009927E+03  0.46999998093E+01 0. -1.
</event>
<event>
 5   0  0.2901816E-05  0.2416293E+04  0.7818609E-02  0.8433429E-01
        1   -1    0    0  501    0  0.00000000000E+00  0.00000000000E+00  0.15588736278E+04  0.15588736278E+04  0.50400001928E-02 0.  1.
       -1   -1    0    0    0  501  0.00000000000E+00  0.00000000000E+00 -0.93632843955E+03  0.93632843956E+03  0.50400001928E-02 0. -1.
    10030    2    1    2    0    0  0.00000000000E+00  0.00000000000E+00  0.62254518825E+03  0.24952020674E+04  0.24162927897E+04 0.  0.
        4    1    3    3  502    0  0.45279096614E+03  0.61769324981E+03  0.12761587878E+04  0.14883371508E+04  0.12699999809E+01 0.  1.
       -4    1    3    3    0  502 -0.45279096614E+03 -0.61769324981E+03 -0.65361359953E+03  0.10068649166E+04  0.12699999809E+01 0. -1.
</event>
<event>
 5   0  0.2901816E-05  0.2387735E+04  0.7818609E-02  0.8444110E-01
       -1   -1    0    0    0  501  0.00000000000E+00  0.00000000000E+00  0.17429960587E+04  0.17429960587E+04  0.50400001928E-02 0. -1.
        1   -1    0    0  501    0  0.00000000000E+00  0.00000000000E+00 -0.81774133775E+03  0.81774133776E+03  0.50400001928E-02 0.  1.
    10030    2    1    2    0    0  0.00000000000E+00  0.00000000000E+00  0.92525472096E+03  0.25607373965E+04  0.23877352690E+04 0.  0.
        4    1    3    3  502    0  0.37879901744E+03 -0.67560308135E+03 -0.51170807213E+03  0.92831836303E+03  0.12699999809E+01 0.  1.
       -4    1    3    3    0  502 -0.37879901744E+03  0.67560308135E+03  0.14369627931E+04  0.16324190335E+04  0.12699999809E+01 0. -1.
</event>
<event>
 5   0  0.2847158E-05  0.2417085E+04  0.7818609E-02  0.8433135E-01
       -1   -1    0    0    0  501  0.00000000000E+00  0.00000000000E+00  0.72174238495E+03  0.72174238496E+03  0.50400001928E-02 0.  1.
        1   -1    0    0  501    0  0.00000000000E+00  0.00000000000E+00 -0.20236789372E+04  0.20236789372E+04  0.50400001928E-02 0. -1.
    10030    2    1    2    0    0  0.00000000000E+00  0.00000000000E+00 -0.13019365523E+04  0.27454213222E+04  0.24170849075E+04 0.  0.
        5    1    3    3  502    0 -0.80547393226E+03 -0.32762582192E+03  0.30234300926E+03  0.92063039272E+03  0.46999998093E+01 0.  1.
       -5    1    3    3    0  502  0.80547393226E+03  0.32762582192E+03 -0.16042795615E+04  0.18247909295E+04  0.46999998093E+01 0. -1.
</event>
<event>
 5   0  0.2901816E-05  0.2415045E+04  0.7818609E-02  0.8433892E-01
       -1   -1    0    0    0  501  0.00000000000E+00  0.00000000000E+00  0.75004497473E+03  0.75004497475E+03  0.50400001928E-02 0. -1.
        1   -1    0    0  501    0  0.00000000000E+00  0.00000000000E+00 -0.19440310369E+04  0.19440310369E+04  0.50400001928E-02 0.  1.
    10030    2    1    2    0    0  0.00000000000E+00  0.00000000000E+00 -0.11939860622E+04  0.26940760117E+04  0.24150451010E+04 0.  0.
        4    1    3    3  502    0  0.82720243182E+03 -0.56811082244E+03  0.15224318787E+03  0.10149844191E+04  0.12699999809E+01 0. -1.
       -4    1    3    3    0  502 -0.82720243182E+03  0.56811082244E+03 -0.13462292500E+04  0.16790915926E+04  0.12699999809E+01 0.  1.
</event>
<event>
 5   0  0.2901816E-05  0.1993083E+04  0.7818609E-02  0.8609861E-01
       -1   -1    0    0    0  501  0.00000000000E+00  0.00000000000E+00  0.73319009863E+03  0.73319009864E+03  0.50400001928E-02 0. -1.
        1   -1    0    0  501    0  0.00000000000E+00  0.00000000000E+00 -0.13544851844E+04  0.13544851844E+04  0.50400001928E-02 0.  1.
    10030    2    1    2    0    0  0.00000000000E+00  0.00000000000E+00 -0.62129508573E+03  0.20876752830E+04  0.19930831653E+04 0.  0.
        4    1    3    3  502    0 -0.82843566001E+03 -0.29732711028E+03  0.17884760806E+03  0.89816319959E+03  0.12699999809E+01 0. -1.
       -4    1    3    3    0  502  0.82843566001E+03  0.29732711028E+03 -0.80014269378E+03  0.11895120834E+04  0.12699999809E+01 0.  1.
</event>
<event>
 5   0  0.2901816E-05  0.2436964E+04  0.7818609E-02  0.8425793E-01
       -1   -1    0    0    0  501  0.00000000000E+00  0.00000000000E+00  0.88658467252E+03  0.88658467254E+03  0.50400001928E-02 0.  1.
        1   -1    0    0  501    0  0.00000000000E+00  0.00000000000E+00 -0.16746266119E+04  0.16746266119E+04  0.50400001928E-02 0. -1.
    10030    2    1    2    0    0  0.00000000000E+00  0.00000000000E+00 -0.78804193937E+03  0.25612112844E+04  0.24369639196E+04 0.  0.
        4    1    3    3  502    0 -0.11344373501E+04 -0.17234791029E+03  0.36811878150E+02  0.11480455700E+04  0.12699999809E+01 0. -1.
       -4    1    3    3    0  502  0.11344373501E+04  0.17234791029E+03 -0.82485381752E+03  0.14131657145E+04  0.12699999809E+01 0.  1.
</event>
<event>
 5   0  0.2943123E-05  0.2360990E+04  0.7818609E-02  0.8454254E-01
       -1   -1    0    0    0  501  0.00000000000E+00  0.00000000000E+00  0.77966208289E+03  0.77966208290E+03  0.50400001928E-02 0.  1.
        1   -1    0    0  501    0  0.00000000000E+00  0.00000000000E+00 -0.17874004526E+04  0.17874004526E+04  0.50400001928E-02 0. -1.
    10030    2    1    2    0    0  0.00000000000E+00  0.00000000000E+00 -0.10077383697E+04  0.25670625355E+04  0.23609899278E+04 0.  0.
        1    1    3    3  502    0 -0.29560282419E+03  0.29261064897E+03 -0.17050904404E+04  0.17550884398E+04  0.50400001928E-02 0. -1.
       -1    1    3    3    0  502  0.29560282419E+03 -0.29261064897E+03  0.69735207069E+03  0.81197409570E+03  0.50400001928E-02 0.  1.
</event>
<event>
 5   0  0.6703961E-05  0.2221800E+04  0.7818609E-02  0.8509409E-01
        2   -1    0    0  501    0  0.00000000000E+00  0.00000000000E+00  0.19771525116E+04  0.19771525116E+04  0.25500000920E-02 0.  1.
       -2   -1    0    0    0  501  0.00000000000E+00  0.00000000000E+00 -0.62417981324E+03  0.62417981325E+03  0.25500000920E-02 0. -1.
    10030    2    1    2    0    0  0.00000000000E+00  0.00000000000E+00  0.13529726983E+04  0.26013323248E+04  0.22217998879E+04 0.  0.
        2    1    3    3  502    0 -0.83556543225E+03 -0.55916538561E+03  0.12326435729E+03  0.10129312029E+04  0.25500000920E-02 0. -1.
       -2    1    3    3    0  502  0.83556543225E+03  0.55916538561E+03  0.12297083410E+04  0.15884011219E+04  0.25500000920E-02 0.  1.
</event>
<event>
 5   0  0.2943123E-05  0.2317267E+04  0.7818609E-02  0.8471144E-01
       -1   -1    0    0    0  501  0.00000000000E+00  0.00000000000E+00  0.97008039690E+03  0.97008039691E+03  0.50400001928E-02 0.  1.
        1   -1    0    0  501    0  0.00000000000E+00  0.00000000000E+00 -0.13838354683E+04  0.13838354683E+04  0.50400001928E-02 0. -1.
    10030    2    1    2    0    0  0.00000000000E+00  0.00000000000E+00 -0.41375507139E+03  0.23539158652E+04  0.23172670630E+04 0.  0.
        1    1    3    3  502    0  0.10682150962E+04  0.43603719980E+03 -0.31447598976E+03  0.11958708456E+04  0.50400001928E-02 0. -1.
       -1    1    3    3    0  502 -0.10682150962E+04 -0.43603719980E+03 -0.99279081634E+02  0.11580450196E+04  0.50400001928E-02 0.  1.
</event>
<event>
 5   0  0.2901816E-05  0.2355165E+04  0.7818609E-02  0.8456482E-01
        1   -1    0    0  501    0  0.00000000000E+00  0.00000000000E+00  0.24080081648E+04  0.24080081648E+04  0.50400001928E-02 0. -1.
       -1   -1    0    0    0  501  0.00000000000E+00  0.00000000000E+00 -0.57587059038E+03  0.57587059041E+03  0.50400001928E-02 0.  1.
    10030    2    1    2    0    0  0.00000000000E+00  0.00000000000E+00  0.18321375744E+04  0.29838787552E+04  0.23551654579E+04 0.  0.
        4    1    3    3  502    0 -0.10603423584E+04  0.51193522621E+03  0.93786173193E+03  0.15053205087E+04  0.12699999809E+01 0.  1.
       -4    1    3    3    0  502  0.10603423584E+04 -0.51193522621E+03  0.89427584250E+03  0.14785582465E+04  0.12699999809E+01 0. -1.
</event>
<event>
 5   0  0.6600166E-05  0.2346532E+04  0.7818609E-02  0.8459797E-01
       -2   -1    0    0    0  501  0.00000000000E+00  0.00000000000E+00  0.12358962476E+04  0.12358962476E+04  0.25500000920E-02 0. -1.
        2   -1    0    0  501    0  0.00000000000E+00  0.00000000000E+00 -0.11138096728E+04  0.11138096728E+04  0.25500000920E-02 0.  1.
    10030    2    1    2    0    0  0.00000000000E+00  0.00000000000E+00  0.12208657475E+03  0.23497059204E+04  0.23465320753E+04 0.  0.
        5    1    3    3  502    0  0.38464375858E+03  0.11063386192E+04 -0.68358898698E+01  0.11713260779E+04  0.46999998093E+01 0. -1.
       -5    1    3    3    0  502 -0.38464375858E+03 -0.11063386192E+04  0.12892246462E+03  0.11783798425E+04  0.46999998093E+01 0.  1.
</event>
<event>
 5   0  0.6600166E-05  0.2386298E+04  0.7818609E-02  0.8444651E-01
        2   -1    0    0  501    0  0.00000000000E+00  0.00000000000E+00  0.10697970312E+04  0.10697970312E+04  0.25500000920E-02 0.  1.
       -2   -1    0    0    0  501  0.00000000000E+00  0.00000000000E+00 -0.13307236328E+04  0.13307236328E+04  0.25500000920E-02 0. -1.
    10030    2    1    2    0    0  0.00000000000E+00  0.00000000000E+00 -0.26092660166E+03  0.24005206640E+04  0.23862977113E+04 0.  0.
        5    1    3    3  502    0 -0.85354601937E+03  0.38770242735E+03 -0.87291930304E+03  0.12809622083E+04  0.46999998093E+01 0. -1.
       -5    1    3    3    0  502  0.85354601937E+03 -0.38770242735E+03  0.61199270138E+03  0.11195584558E+04  0.46999998093E+01 0.  1.
</event>
<event>
 5   0  0.2943244E-05  0.2377678E+04  0.7818609E-02  0.8447908E-01
        1   -1    0    0  501    0  0.00000000000E+00  0.00000000000E+00  0.14538065341E+04  0.14538065341E+04  0.50400001928E-02 0. -1.
       -1   -1    0    0    0  501  0.00000000000E+00  0.00000000000E+00 -0.97216347833E+03  0.97216347835E+03  0.50400001928E-02 0.  1.
    10030    2    1    2    0    0  0.00000000000E+00  0.00000000000E+00  0.48164305580E+03  0.24259700125E+04  0.23776775366E+04 0.  0.
        3    1    3    3  502    0 -0.99066095866E+03  0.58553086697E+03  0.54534981338E+03  0.12734449185E+04  0.10100000352E+00 0.  1.
       -3    1    3    3    0  502  0.99066095866E+03 -0.58553086697E+03 -0.63706757583E+02  0.11525250940E+04  0.10100000352E+00 0. -1.
</event>
<event>
 5   0  0.2901816E-05  0.2368112E+04  0.7818609E-02  0.8451539E-01
        1   -1    0    0  501    0  0.00000000000E+00  0.00000000000E+00  0.14600601301E+04  0.14600601301E+04  0.50400001928E-02 0. -1.
       -1   -1    0    0    0  501  0.00000000000E+00  0.00000000000E+00 -0.96022677269E+03  0.96022677270E+03  0.50400001928E-02 0.  1.
    10030    2    1    2    0    0  0.00000000000E+00  0.00000000000E+00  0.49983335742E+03  0.24202869028E+04  0.23681121820E+04 0.  0.
        4    1    3    3  502    0 -0.69366517189E+03  0.55122469139E+03  0.10526949532E+04  0.13759317965E+04  0.12699999809E+01 0. -1.
       -4    1    3    3    0  502  0.69366517189E+03 -0.55122469139E+03 -0.55286159583E+03  0.10443551063E+04  0.12699999809E+01 0.  1.
</event>
<event>
 5   0  0.2901816E-05  0.2359536E+04  0.7818609E-02  0.8454810E-01
        1   -1    0    0  501    0  0.00000000000E+00  0.00000000000E+00  0.14416716350E+04  0.14416716350E+04  0.50400001928E-02 0.  1.
       -1   -1    0    0    0  501  0.00000000000E+00  0.00000000000E+00 -0.96544338358E+03  0.96544338359E+03  0.50400001928E-02 0. -1.
    10030    2    1    2    0    0  0.00000000000E+00  0.00000000000E+00  0.47622825146E+03  0.24071150186E+04  0.23595358369E+04 0.  0.
        4    1    3    3  502    0  0.55590005136E+03 -0.98231247618E+02  0.12949458423E+04  0.14126431228E+04  0.12699999809E+01 0.  1.
       -4    1    3    3    0  502 -0.55590005136E+03  0.98231247618E+02 -0.81871759083E+03  0.99447189581E+03  0.12699999809E+01 0. -1.
</event>
<event>
 5   0  0.6978115E-05  0.2339811E+04  0.7818609E-02  0.8462387E-01
        2   -1    0    0  501    0  0.00000000000E+00  0.00000000000E+00  0.76513996928E+03  0.76513996929E+03  0.25500000920E-02 0.  1.
       -2   -1    0    0    0  501  0.00000000000E+00  0.00000000000E+00 -0.17887961271E+04  0.17887961271E+04  0.25500000920E-02 0. -1.
    10030    2    1    2    0    0  0.00000000000E+00  0.00000000000E+00 -0.10236561578E+04  0.25539360964E+04  0.23398114571E+04 0.  0.
        4    1    3    3  502    0  0.74385828842E+03 -0.10359137716E+03  0.46726723649E+03  0.88453185916E+03  0.12699999809E+01 0.  1.
       -4    1    3    3    0  502 -0.74385828842E+03  0.10359137716E+03 -0.14909233943E+04  0.16694042372E+04  0.12699999809E+01 0. -1.
</event>
<event>
 5   0  0.2339125E-05  0.1744461E+04  0.7818609E-02  0.8736405E-01
       -3   -1    0    0    0  501  0.00000000000E+00  0.00000000000E+00  0.11690753077E+04  0.11690753121E+04  0.10100000352E+00 0. -1.
        3   -1    0    0  501    0  0.00000000000E+00  0.00000000000E+00 -0.65075903791E+03  0.65075904575E+03  0.10100000352E+00 0.  1.
    10030    2    1    2    0    0  0.00000000000E+00  0.00000000000E+00  0.51831626981E+03  0.18198343578E+04  0.17444613307E+04 0.  0.
        2    1    3    3  502    0 -0.35645229449E+03  0.10243937926E+02 -0.57123936640E+03  0.67340744742E+03  0.25500000920E-02 0.  1.
       -2    1    3    3    0  502  0.35645229449E+03 -0.10243937926E+02  0.10895556362E+04  0.11464269104E+04  0.25500000920E-02 0. -1.
</event>
<event>
 5   0  0.2943244E-05  0.2391285E+04  0.7818609E-02  0.8442774E-01
       -1   -1    0    0    0  501  0.00000000000E+00  0.00000000000E+00  0.12259703966E+04  0.12259703966E+04  0.50400001928E-02 0.  1.
        1   -1    0    0  501    0  0.00000000000E+00  0.00000000000E+00 -0.11660644113E+04  0.11660644113E+04  0.50400001928E-02 0. -1.
    10030    2    1    2    0    0  0.00000000000E+00  0.00000000000E+00  0.59905985314E+02  0.23920348080E+04  0.23912845492E+04 0.  0.
        3    1    3    3  502    0 -0.11853255426E+04  0.10105230391E+03  0.14979136731E+03  0.11990186295E+04  0.10100000352E+00 0. -1.
       -3    1    3    3    0  502  0.11853255426E+04 -0.10105230391E+03 -0.89885381997E+02  0.11930161785E+04  0.10100000352E+00 0.  1.
</event>
<event>
 5   0  0.6703961E-05  0.2387648E+04  0.7818609E-02  0.8444143E-01
        2   -1    0    0  501    0  0.00000000000E+00  0.00000000000E+00  0.25478621924E+04  0.25478621924E+04  0.25500000920E-02 0.  1.
       -2   -1    0    0    0  501  0.00000000000E+00  0.00000000000E+00 -0.55937689830E+03  0.55937689830E+03  0.25500000920E-02 0. -1.
    10030    2    1    2    0    0  0.00000000000E+00  0.00000000000E+00  0.19884852941E+04  0.31072390907E+04  0.23876475875E+04 0.  0.
        2    1    3    3  502    0  0.89584596723E+03 -0.39639453872E+03  0.10629770805E+03  0.98537699896E+03  0.25500000920E-02 0. -1.
       -2    1    3    3    0  502 -0.89584596723E+03  0.39639453872E+03  0.18821875861E+04  0.21218620918E+04  0.25500000920E-02 0.  1.
</event>
<event>
 5   0  0.6600166E-05  0.2739504E+04  0.7818609E-02  0.8322300E-01
       -2   -1    0    0    0  501  0.00000000000E+00  0.00000000000E+00  0.92316763772E+03  0.92316763772E+03  0.25500000920E-02 0. -1.
        2   -1    0    0  501    0  0.00000000000E+00  0.00000000000E+00 -0.20323727089E+04  0.20323727089E+04  0.25500000920E-02 0.  1.
    10030    2    1    2    0    0  0.00000000000E+00  0.00000000000E+00 -0.11092050712E+04  0.29555403467E+04  0.27395041250E+04 0.  0.
        5    1    3    3  502    0 -0.10448230316E+04 -0.67931696920E+03  0.58614955252E+02  0.12476315622E+04  0.46999998093E+01 0.  1.
       -5    1    3    3    0  502  0.10448230316E+04  0.67931696920E+03 -0.11678200265E+04  0.17079087845E+04  0.46999998093E+01 0. -1.
</event>
<event>
 5   0  0.6714629E-05  0.2421100E+04  0.7818609E-02  0.8431646E-01
        2   -1    0    0  501    0  0.00000000000E+00  0.00000000000E+00  0.17465303658E+04  0.17465303658E+04  0.25500000920E-02 0.  1.
       -2   -1    0    0    0  501  0.00000000000E+00  0.00000000000E+00 -0.83905254462E+03  0.83905254462E+03  0.25500000920E-02 0. -1.
    10030    2    1    2    0    0  0.00000000000E+00  0.00000000000E+00  0.90747782119E+03  0.25855829104E+04  0.24210995417E+04 0.  0.
        3    1    3    3  502    0 -0.19540868864E+03  0.93122685464E+03 -0.34547706875E+03  0.10122857431E+04  0.10100000352E+00 0. -1.
       -3    1    3    3    0  502  0.19540868864E+03 -0.93122685464E+03  0.12529548899E+04  0.15732971674E+04  0.10100000352E+00 0.  1.
</event>
<event>
 5   0  0.2915546E-05  0.2394550E+04  0.7818609E-02  0.8441547E-01
       -1   -1    0    0    0  501  0.00000000000E+00  0.00000000000E+00  0.11542630966E+04  0.11542630966E+04  0.50400001928E-02 0.  1.
        1   -1    0    0  501    0  0.00000000000E+00  0.00000000000E+00 -0.12418896773E+04  0.12418896773E+04  0.50400001928E-02 0. -1.
    10030    2    1    2    0    0  0.00000000000E+00  0.00000000000E+00 -0.87626580685E+02  0.23961527739E+04  0.23945499991E+04 0.  0.
        2    1    3    3  502    0  0.53841730119E+03 -0.10277410369E+04 -0.33951505220E+03  0.12088901108E+04  0.25500000920E-02 0. -1.
       -2    1    3    3    0  502 -0.53841730119E+03  0.10277410369E+04  0.25188847151E+03  0.11872626632E+04  0.25500000920E-02 0.  1.
</event>
<event>
 5   0  0.6714629E-05  0.2378459E+04  0.7818609E-02  0.8447613E-01
       -2   -1    0    0    0  501  0.00000000000E+00  0.00000000000E+00  0.10231210201E+04  0.10231210201E+04  0.25500000920E-02 0. -1.
        2   -1    0    0  501    0  0.00000000000E+00  0.00000000000E+00 -0.13823060201E+04  0.13823060201E+04  0.25500000920E-02 0.  1.
    10030    2    1    2    0    0  0.00000000000E+00  0.00000000000E+00 -0.35918499993E+03  0.24054270402E+04  0.23784586146E+04 0.  0.
        3    1    3    3  502    0 -0.11415439835E+04  0.32637176525E+03 -0.11081299877E+03  0.11924431753E+04  0.10100000352E+00 0.  1.
       -3    1    3    3    0  502  0.11415439835E+04 -0.32637176525E+03 -0.24837200116E+03  0.12129838649E+04  0.10100000352E+00 0. -1.
</event>
<event>
 5   0  0.2847158E-05  0.2397107E+04  0.7818609E-02  0.8440587E-01
        1   -1    0    0  501    0  0.00000000000E+00  0.00000000000E+00  0.64097093089E+03  0.64097093091E+03  0.50400001928E-02 0.  1.
       -1   -1    0    0    0  501  0.00000000000E+00  0.00000000000E+00 -0.22411795001E+04  0.22411795001E+04  0.50400001928E-02 0. -1.
    10030    2    1    2    0    0  0.00000000000E+00  0.00000000000E+00 -0.16002085692E+04  0.28821504310E+04  0.23971073489E+04 0.  0.
        5    1    3    3  502    0  0.72071815380E+03 -0.83208000908E+03 -0.13700679182E+04  0.17575266681E+04  0.46999998093E+01 0. -1.
       -5    1    3    3    0  502 -0.72071815380E+03  0.83208000908E+03 -0.23014065097E+03  0.11246237628E+04  0.46999998093E+01 0.  1.
</event>
<event>
 5   0  0.2943244E-05  0.2352203E+04  0.7818609E-02  0.8457618E-01
        1   -1    0    0  501    0  0.00000000000E+00  0.00000000000E+00  0.21422631125E+04  0.21422631126E+04  0.50400001928E-02 0. -1.
       -1   -1    0    0    0  501  0.00000000000E+00  0.00000000000E+00 -0.64567914749E+03  0.64567914751E+03  0.50400001928E-02 0.  1.
    10030    2    1    2    0    0  0.00000000000E+00  0.00000000000E+00  0.14965839651E+04  0.27879422601E+04  0.23522028996E+04 0.  0.
        3    1    3    3  502    0 -0.97750956535E+03  0.65251355114E+03  0.69641489245E+03  0.13661231999E+04  0.10100000352E+00 0. -1.
       -3    1    3    3    0  502  0.97750956535E+03 -0.65251355114E+03  0.80016907261E+03  0.14218190601E+04  0.10100000352E+00 0.  1.
</event>
<event>
 5   0  0.2901816E-05  0.2404724E+04  0.7818609E-02  0.8437737E-01
        1   -1    0    0  501    0  0.00000000000E+00  0.00000000000E+00  0.11067352892E+04  0.11067352892E+04  0.50400001928E-02 0.  1.
       -1   -1    0    0    0  501  0.00000000000E+00  0.00000000000E+00 -0.13062513811E+04  0.13062513811E+04  0.50400001928E-02 0. -1.
    10030    2    1    2    0    0  0.00000000000E+00  0.00000000000E+00 -0.19951609188E+03  0.24129866703E+04  0.24047241006E+04 0.  0.
        4    1    3    3  502    0  0.29769708068E+03  0.86526476258E+03 -0.88241638096E+03  0.12712068846E+04  0.12699999809E+01 0. -1.
       -4    1    3    3    0  502 -0.29769708068E+03 -0.86526476258E+03  0.68290028908E+03  0.11417797857E+04  0.12699999809E+01 0.  1.
</event>
<event>
 5   0  0.6978115E-05  0.2427340E+04  0.7818609E-02  0.8429338E-01
       -2   -1    0    0    0  501  0.00000000000E+00  0.00000000000E+00  0.56062089303E+03  0.56062089303E+03  0.25500000920E-02 0. -1.
        2   -1    0    0  501    0  0.00000000000E+00  0.00000000000E+00 -0.26274346532E+04  0.26274346532E+04  0.25500000920E-02 0.  1.
    10030    2    1    2    0    0  0.00000000000E+00  0.00000000000E+00 -0.20668137602E+04  0.31880555463E+04  0.24273399117E+04 0.  0.
        4    1    3    3  502    0  0.72215104181E+03  0.25356025517E+03 -0.22705091772E+04  0.23960401638E+04  0.12699999809E+01 0.  1.
       -4    1    3    3    0  502 -0.72215104181E+03 -0.25356025517E+03  0.20369541698E+03  0.79201538242E+03  0.12699999809E+01 0. -1.
</event>
<event>
 5   0  0.2901816E-05  0.2422215E+04  0.7818609E-02  0.8431233E-01
        1   -1    0    0  501    0  0.00000000000E+00  0.00000000000E+00  0.12975055896E+04  0.12975055896E+04  0.50400001928E-02 0.  1.
       -1   -1    0    0    0  501  0.00000000000E+00  0.00000000000E+00 -0.11304622824E+04  0.11304622824E+04  0.50400001928E-02 0. -1.
    10030    2    1    2    0    0  0.00000000000E+00  0.00000000000E+00  0.16704330720E+03  0.24279678719E+04  0.24222147966E+04 0.  0.
        4    1    3    3  502    0 -0.85312381769E+03 -0.84620322824E+03  0.23520643397E+03  0.12244197937E+04  0.12699999809E+01 0. -1.
       -4    1    3    3    0  502  0.85312381769E+03  0.84620322824E+03 -0.68163126771E+02  0.12035480782E+04  0.12699999809E+01 0.  1.
</event>
<event>
 5   0  0.6600166E-05  0.2367179E+04  0.7818609E-02  0.8451894E-01
        2   -1    0    0  501    0  0.00000000000E+00  0.00000000000E+00  0.69110030197E+03  0.69110030198E+03  0.25500000920E-02 0.  1.
       -2   -1    0    0    0  501  0.00000000000E+00  0.00000000000E+00 -0.20270342708E+04  0.20270342708E+04  0.25500000920E-02 0. -1.
    10030    2    1    2    0    0  0.00000000000E+00  0.00000000000E+00 -0.13359339688E+04  0.27181345728E+04  0.23671789089E+04 0.  0.
        5    1    3    3  502    0 -0.10812516197E+04 -0.13373246891E+03 -0.13693911703E+03  0.10980727891E+04  0.46999998093E+01 0. -1.
       -5    1    3    3    0  502  0.10812516197E+04  0.13373246891E+03 -0.11989948518E+04  0.16200617837E+04  0.46999998093E+01 0.  1.
</event>
<event>
 5   0  0.2943244E-05  0.2388818E+04  0.7818609E-02  0.8443702E-01
       -1   -1    0    0    0  501  0.00000000000E+00  0.00000000000E+00  0.16397126408E+04  0.16397126408E+04  0.50400001928E-02 0.  1.
        1   -1    0    0  501    0  0.00000000000E+00  0.00000000000E+00 -0.87003817276E+03  0.87003817277E+03  0.50400001928E-02 0. -1.
    10030    2    1    2    0    0  0.00000000000E+00  0.00000000000E+00  0.76967446802E+03  0.25097508136E+04  0.23888177744E+04 0.  0.
        3    1    3    3  502    0  0.11643187724E+04  0.20467987470E+03  0.56400038870E+03  0.13098200272E+04  0.10100000352E+00 0.  1.
       -3    1    3    3    0  502 -0.11643187724E+04 -0.20467987470E+03  0.20567407931E+03  0.11999307864E+04  0.10100000352E+00 0. -1.
</event>
<event>
 5   0  0.6703961E-05  0.2369886E+04  0.7818609E-02  0.8450865E-01
       -2   -1    0    0    0  501  0.00000000000E+00  0.00000000000E+00  0.98409611002E+03  0.98409611002E+03  0.25500000920E-02 0. -1.
        2   -1    0    0  501    0  0.00000000000E+00  0.00000000000E+00 -0.14267810100E+04  0.14267810100E+04  0.25500000920E-02 0.  1.
    10030    2    1    2    0    0  0.00000000000E+00  0.00000000000E+00 -0.44268489993E+03  0.24108771200E+04  0.23698857709E+04 0.  0.
        2    1    3    3  502    0  0.29855655504E+03  0.22511596308E+03 -0.13651914120E+04  0.14154719371E+04  0.25500000920E-02 0.  1.
       -2    1    3    3    0  502 -0.29855655504E+03 -0.22511596308E+03  0.92250651202E+03  0.99540518289E+03  0.25500000920E-02 0. -1.
</event>
<event>
 5   0  0.6978115E-05  0.2398944E+04  0.7818609E-02  0.8439899E-01
        2   -1    0    0  501    0  0.00000000000E+00  0.00000000000E+00  0.89337178894E+03  0.89337178894E+03  0.25500000920E-02 0. -1.
       -2   -1    0    0    0  501  0.00000000000E+00  0.00000000000E+00 -0.16104533877E+04  0.16104533877E+04  0.25500000920E-02 0.  1.
    10030    2    1    2    0    0  0.00000000000E+00  0.00000000000E+00 -0.71708159873E+03  0.25038251766E+04  0.23989444545E+04 0.  0.
        4    1    3    3  502    0 -0.80836314682E+03  0.74095005109E+03  0.14879069999E+03  0.11066156698E+04  0.12699999809E+01 0. -1.
       -4    1    3    3    0  502  0.80836314682E+03 -0.74095005109E+03 -0.86587229872E+03  0.13972095068E+04  0.12699999809E+01 0.  1.
</event>
<event>
 5   0  0.6703961E-05  0.2053422E+04  0.7818609E-02  0.8582043E-01
        2   -1    0    0  501    0  0.00000000000E+00  0.00000000000E+00  0.20850163462E+04  0.20850163462E+04  0.25500000920E-02 0. -1.
       -2   -1    0    0    0  501  0.00000000000E+00  0.00000000000E+00 -0.50557683332E+03  0.50557683333E+03  0.25500000920E-02 0.  1.
    10030    2    1    2    0    0  0.00000000000E+00  0.00000000000E+00  0.15794395129E+04  0.25905931795E+04  0.20534224716E+04 0.  0.
        2    1    3    3  502    0 -0.32846323840E+03 -0.77536993670E+03  0.15307936220E+04  0.17471164102E+04  0.25500000920E-02 0. -1.
       -2    1    3    3    0  502  0.32846323840E+03  0.77536993670E+03  0.48645890926E+02  0.84347676935E+03  0.25500000920E-02 0.  1.
</event>
<event>
 5   0  0.2901816E-05  0.2409936E+04  0.7818609E-02  0.8435793E-01
        1   -1    0    0  501    0  0.00000000000E+00  0.00000000000E+00  0.20384511031E+04  0.20384511031E+04  0.50400001928E-02 0.  1.
       -1   -1    0    0    0  501  0.00000000000E+00  0.00000000000E+00 -0.71227972052E+03  0.71227972053E+03  0.50400001928E-02 0. -1.
    10030    2    1    2    0    0  0.00000000000E+00  0.00000000000E+00  0.13261713826E+04  0.27507308236E+04  0.24099355859E+04 0.  0.
        4    1    3    3  502    0 -0.43429034492E+03 -0.88985542250E+02 -0.61581566875E+03  0.75878658475E+03  0.12699999809E+01 0. -1.
       -4    1    3    3    0  502  0.43429034492E+03  0.88985542250E+02  0.19419870513E+04  0.19919442389E+04  0.12699999809E+01 0.  1.
</event>
<event>
 5   0  0.6600166E-05  0.2442510E+04  0.7818609E-02  0.8423758E-01
        2   -1    0    0  501    0  0.00000000000E+00  0.00000000000E+00  0.26015251161E+04  0.26015251161E+04  0.25500000920E-02 0.  1.
       -2   -1    0    0    0  501  0.00000000000E+00  0.00000000000E+00 -0.57330369839E+03  0.57330369840E+03  0.25500000920E-02 0. -1.
    10030    2    1    2    0    0  0.00000000000E+00  0.00000000000E+00  0.20282214177E+04  0.31748288145E+04  0.24425101601E+04 0.  0.
        5    1    3    3  502    0 -0.55655811170E+03 -0.80606156704E+03  0.66086957513E+02  0.98177479979E+03  0.46999998093E+01 0. -1.
       -5    1    3    3    0  502  0.55655811170E+03  0.80606156704E+03  0.19621344602E+04  0.21930540147E+04  0.46999998093E+01 0.  1.
</event>
<event>
 5   0  0.2915546E-05  0.2424744E+04  0.7818609E-02  0.8430298E-01
       -1   -1    0    0    0  501  0.00000000000E+00  0.00000000000E+00  0.12856246417E+04  0.12856246417E+04  0.50400001928E-02 0. -1.
        1   -1    0    0  501    0  0.00000000000E+00  0.00000000000E+00 -0.11432930040E+04  0.11432930040E+04  0.50400001928E-02 0.  1.
    10030    2    1    2    0    0  0.00000000000E+00  0.00000000000E+00  0.14233163766E+03  0.24289176457E+04  0.24247438286E+04 0.  0.
        2    1    3    3  502    0  0.10407068896E+04  0.60485974822E+02 -0.54886350297E+03  0.11781258541E+04  0.25500000920E-02 0. -1.
       -2    1    3    3    0  502 -0.10407068896E+04 -0.60485974822E+02  0.69119514062E+03  0.12507917915E+04  0.25500000920E-02 0.  1.
</event>
<event>
 5   0  0.2943123E-05  0.2378605E+04  0.7818609E-02  0.8447557E-01
       -1   -1    0    0    0  501  0.00000000000E+00  0.00000000000E+00  0.84726631301E+03  0.84726631303E+03  0.50400001928E-02 0.  1.
        1   -1    0    0  501    0  0.00000000000E+00  0.00000000000E+00 -0.16694161719E+04  0.16694161719E+04  0.50400001928E-02 0. -1.
    10030    2    1    2    0    0  0.00000000000E+00  0.00000000000E+00 -0.82214985887E+03  0.25166824849E+04  0.23786047043E+04 0.  0.
        1    1    3    3  502    0  0.41001244303E+03  0.64611306642E+03 -0.13743465908E+04  0.15730228382E+04  0.50400001928E-02 0. -1.
       -1    1    3    3    0  502 -0.41001244303E+03 -0.64611306642E+03  0.55219673189E+03  0.94365964668E+03  0.50400001928E-02 0.  1.
</event>
<event>
 5   0  0.2847158E-05  0.2108285E+04  0.7818609E-02  0.8557603E-01
        1   -1    0    0  501    0  0.00000000000E+00  0.00000000000E+00  0.14733986807E+04  0.14733986807E+04  0.50400001928E-02 0.  1.
       -1   -1    0    0    0  501  0.00000000000E+00  0.00000000000E+00 -0.75418548030E+03  0.75418548032E+03  0.50400001928E-02 0. -1.
    10030    2    1    2    0    0  0.00000000000E+00  0.00000000000E+00  0.71921320044E+03  0.22275841611E+04  0.21082845081E+04 0.  0.
        5    1    3    3  502    0 -0.64333892711E+03  0.63054668676E+03 -0.21883903729E+03  0.92703112869E+03  0.46999998093E+01 0. -1.
       -5    1    3    3    0  502  0.64333892711E+03 -0.63054668676E+03  0.93805223773E+03  0.13005530324E+04  0.46999998093E+01 0.  1.
</event>
<event>
 5   0  0.2901816E-05  0.2365352E+04  0.7818609E-02  0.8452590E-01
        1   -1    0    0  501    0  0.00000000000E+00  0.00000000000E+00  0.21672773617E+04  0.21672773617E+04  0.50400001928E-02 0.  1.
       -1   -1    0    0    0  501  0.00000000000E+00  0.00000000000E+00 -0.64538231547E+03  0.64538231549E+03  0.50400001928E-02 0. -1.
    10030    2    1    2    0    0  0.00000000000E+00  0.00000000000E+00  0.15218950462E+04  0.28126596772E+04  0.23653519670E+04 0.  0.
        4    1    3    3  502    0 -0.10913006132E+04 -0.35118684306E+02  0.22052360883E+03  0.11139132037E+04  0.12699999809E+01 0. -1.
       -4    1    3    3    0  502  0.10913006132E+04  0.35118684306E+02  0.13013714374E+04  0.16987464735E+04  0.12699999809E+01 0.  1.
</event>
<event>
 5   0  0.6337926E-05  0.2398158E+04  0.7818609E-02  0.8440193E-01
       -2   -1    0    0    0  501  0.00000000000E+00  0.00000000000E+00  0.72241851930E+03  0.72241851931E+03  0.25500000920E-02 0.  1.
        2   -1    0    0  501    0  0.00000000000E+00  0.00000000000E+00 -0.19902465962E+04  0.19902465962E+04  0.25500000920E-02 0. -1.
    10030    2    1    2    0    0  0.00000000000E+00  0.00000000000E+00 -0.12678280769E+04  0.27126651155E+04  0.23981584594E+04 0.  0.
        1    1    3    3  502    0 -0.76314910039E+03 -0.40370893183E+03 -0.15751555768E+04  0.17962440096E+04  0.50400001928E-02 0. -1.
       -1    1    3    3    0  502  0.76314910039E+03  0.40370893183E+03  0.30732749989E+03  0.91642110587E+03  0.50400001928E-02 0.  1.
</event>
<event>
 5   0  0.2943123E-05  0.2507860E+04  0.7818609E-02  0.8400191E-01
       -1   -1    0    0    0  501  0.00000000000E+00  0.00000000000E+00  0.11497811622E+04  0.11497811622E+04  0.50400001928E-02 0.  1.
        1   -1    0    0  501    0  0.00000000000E+00  0.00000000000E+00 -0.13675132443E+04  0.13675132443E+04  0.50400001928E-02 0. -1.
    10030    2    1    2    0    0  0.00000000000E+00  0.00000000000E+00 -0.21773208213E+03  0.25172944065E+04  0.25078604166E+04 0.  0.
        1    1    3    3  502    0  0.10259250917E+04 -0.70687614057E+03 -0.25133231990E+03  0.12709697506E+04  0.50400001928E-02 0.  1.
       -1    1    3    3    0  502 -0.10259250917E+04  0.70687614057E+03  0.33600237777E+02  0.12463246559E+04  0.50400001928E-02 0. -1.
</event>
<event>
 5   0  0.6714629E-05  0.2292399E+04  0.7818609E-02  0.8480924E-01
       -2   -1    0    0    0  501  0.00000000000E+00  0.00000000000E+00  0.80298901902E+03  0.80298901903E+03  0.25500000920E-02 0. -1.
        2   -1    0    0  501    0  0.00000000000E+00  0.00000000000E+00 -0.16361038635E+04  0.16361038635E+04  0.25500000920E-02 0.  1.
    10030    2    1    2    0    0  0.00000000000E+00  0.00000000000E+00 -0.83311484443E+03  0.24390928825E+04  0.22923991244E+04 0.  0.
        3    1    3    3  502    0  0.10195820246E+04 -0.39240772250E+03 -0.47608384128E+02  0.10935254427E+04  0.10100000352E+00 0.  1.
       -3    1    3    3    0  502 -0.10195820246E+04  0.39240772250E+03 -0.78550646030E+03  0.13455674397E+04  0.10100000352E+00 0. -1.
</event>
<event>
 5   0  0.6337926E-05  0.2473297E+04  0.7818609E-02  0.8412561E-01
       -2   -1    0    0    0  501  0.00000000000E+00  0.00000000000E+00  0.61812347019E+03  0.61812347019E+03  0.25500000920E-02 0. -1.
        2   -1    0    0  501    0  0.00000000000E+00  0.00000000000E+00 -0.24741005884E+04  0.24741005884E+04  0.25500000920E-02 0.  1.
    10030    2    1    2    0    0  0.00000000000E+00  0.00000000000E+00 -0.18559771182E+04  0.30922240586E+04  0.24732971041E+04 0.  0.
        1    1    3    3  502    0 -0.59021053185E+03 -0.57767927074E+03 -0.20787818871E+04  0.22368272052E+04  0.50400001928E-02 0.  1.
       -1    1    3    3    0  502  0.59021053185E+03  0.57767927074E+03  0.22280476889E+03  0.85539685340E+03  0.50400001928E-02 0. -1.
</event>
<event>
 5   0  0.6337926E-05  0.2233621E+04  0.7818609E-02  0.8504563E-01
        2   -1    0    0  501    0  0.00000000000E+00  0.00000000000E+00  0.15190345510E+04  0.15190345510E+04  0.25500000920E-02 0. -1.
       -2   -1    0    0    0  501  0.00000000000E+00  0.00000000000E+00 -0.82109136781E+03  0.82109136781E+03  0.25500000920E-02 0.  1.
    10030    2    1    2    0    0  0.00000000000E+00  0.00000000000E+00  0.69794318315E+03  0.23401259188E+04  0.22336214157E+04 0.  0.
        1    1    3    3  502    0 -0.11143613031E+04  0.73650331502E+02  0.35565314463E+03  0.11720557344E+04  0.50400001928E-02 0. -1.
       -1    1    3    3    0  502  0.11143613031E+04 -0.73650331502E+02  0.34229003853E+03  0.11680701844E+04  0.50400001928E-02 0.  1.
</event>
<event>
 5   0  0.6600166E-05  0.1514907E+04  0.7818609E-02  0.8874600E-01
        2   -1    0    0  501    0  0.00000000000E+00  0.00000000000E+00  0.23449547109E+04  0.23449547109E+04  0.25500000920E-02 0.  1.
       -2   -1    0    0    0  501  0.00000000000E+00  0.00000000000E+00 -0.24466824089E+03  0.24466824090E+03  0.25500000920E-02 0. -1.
    10030    2    1    2    0    0  0.00000000000E+00  0.00000000000E+00  0.21002864700E+04  0.25896229518E+04  0.15149071841E+04 0.  0.
        5    1    3    3  502    0 -0.38134703576E+03  0.61094884023E+02  0.21639705196E+04  0.21981693853E+04  0.46999998093E+01 0.  1.
       -5    1    3    3    0  502  0.38134703576E+03 -0.61094884023E+02 -0.63684049650E+02  0.39145356649E+03  0.46999998093E+01 0. -1.
</event>
<event>
 5   0  0.2847158E-05  0.2060345E+04  0.7818609E-02  0.8578916E-01
       -1   -1    0    0    0  501  0.00000000000E+00  0.00000000000E+00  0.61288378889E+03  0.61288378891E+03  0.50400001928E-02 0.  1.
        1   -1    0    0  501    0  0.00000000000E+00  0.00000000000E+00 -0.17315772675E+04  0.17315772675E+04  0.50400001928E-02 0. -1.
    10030    2    1    2    0    0  0.00000000000E+00  0.00000000000E+00 -0.11186934786E+04  0.23444610564E+04  0.20603452492E+04 0.  0.
        5    1    3    3  502    0  0.78615747217E+03  0.31892998219E+03  0.10559196948E+03  0.85494541265E+03  0.46999998093E+01 0.  1.
       -5    1    3    3    0  502 -0.78615747217E+03 -0.31892998219E+03 -0.12242854480E+04  0.14895156437E+04  0.46999998093E+01 0. -1.
</event>
<event>
 5   0  0.6714629E-05  0.2227317E+04  0.7818609E-02  0.8507143E-01
        2   -1    0    0  501    0  0.00000000000E+00  0.00000000000E+00  0.25789718055E+04  0.25789718055E+04  0.25500000920E-02 0. -1.
       -2   -1    0    0    0  501  0.00000000000E+00  0.00000000000E+00 -0.48090299563E+03  0.48090299564E+03  0.25500000920E-02 0.  1.
    10030    2    1    2    0    0  0.00000000000E+00  0.00000000000E+00  0.20980688099E+04  0.30598748011E+04  0.22273170110E+04 0.  0.
        3    1    3    3  502    0 -0.11035185549E+04 -0.23352265286E+02  0.84556105119E+03  0.13904215299E+04  0.10100000352E+00 0. -1.
       -3    1    3    3    0  502  0.11035185549E+04  0.23352265286E+02  0.12525077587E+04  0.16694532713E+04  0.10100000352E+00 0.  1.
</event>
<event>
 5   0  0.2915546E-05  0.2453381E+04  0.7818609E-02  0.8419785E-01
       -1   -1    0    0    0  501  0.00000000000E+00  0.00000000000E+00  0.12703220720E+04  0.12703220720E+04  0.50400001928E-02 0.  1.
        1   -1    0    0  501    0  0.00000000000E+00  0.00000000000E+00 -0.11845574213E+04  0.11845574213E+04  0.50400001928E-02 0. -1.
    10030    2    1    2    0    0  0.00000000000E+00  0.00000000000E+00  0.85764650758E+02  0.24548794933E+04  0.24533808818E+04 0.  0.
        2    1    3    3  502    0  0.98370656603E+03 -0.49931283771E+03 -0.49389434749E+03  0.12086867024E+04  0.25500000920E-02 0. -1.
       -2    1    3    3    0  502 -0.98370656603E+03  0.49931283771E+03  0.57965899825E+03  0.12461927909E+04  0.25500000920E-02 0.  1.
</event>
<event>
 5   0  0.2943123E-05  0.2365102E+04  0.7818609E-02  0.8452686E-01
        1   -1    0    0  501    0  0.00000000000E+00  0.00000000000E+00  0.20624301731E+04  0.20624301731E+04  0.50400001928E-02 0.  1.
       -1   -1    0    0    0  501  0.00000000000E+00  0.00000000000E+00 -0.67804807533E+03  0.67804807534E+03  0.50400001928E-02 0. -1.
    10030    2    1    2    0    0  0.00000000000E+00  0.00000000000E+00  0.13843820978E+04  0.27404782485E+04  0.23651019508E+04 0.  0.
        1    1    3    3  502    0 -0.80914461477E+03  0.79985612073E+03  0.31862104038E+03  0.11815262117E+04  0.50400001928E-02 0. -1.
       -1    1    3    3    0  502  0.80914461477E+03 -0.79985612073E+03  0.10657610574E+04  0.15589520368E+04  0.50400001928E-02 0.  1.
</event>
<event>
 5   0  0.2943244E-05  0.2398285E+04  0.7818609E-02  0.8440146E-01
        1   -1    0    0  501    0  0.00000000000E+00  0.00000000000E+00  0.15852430712E+04  0.15852430712E+04  0.50400001928E-02 0.  1.
       -1   -1    0    0    0  501  0.00000000000E+00  0.00000000000E+00 -0.90707992219E+03  0.90707992220E+03  0.50400001928E-02 0. -1.
    10030    2    1    2    0    0  0.00000000000E+00  0.00000000000E+00  0.67816314899E+03  0.24923229934E+04  0.23982845216E+04 0.  0.
        3    1    3    3  502    0  0.41201584000E+02  0.11973250356E+04  0.28551089122E+03  0.12315848694E+04  0.10100000352E+00 0. -1.
       -3    1    3    3    0  502 -0.41201584000E+02 -0.11973250356E+04  0.39265225777E+03  0.12607381239E+04  0.10100000352E+00 0.  1.
</event>
<event>
 5   0  0.2943244E-05  0.2451056E+04  0.7818609E-02  0.8420632E-01
        1   -1    0    0  501    0  0.00000000000E+00  0.00000000000E+00  0.24530666672E+04  0.24530666672E+04  0.50400001928E-02 0.  1.
       -1   -1    0    0    0  501  0.00000000000E+00  0.00000000000E+00 -0.61226179514E+03  0.61226179516E+03  0.50400001928E-02 0. -1.
    10030    2    1    2    0    0  0.00000000000E+00  0.00000000000E+00  0.18408048720E+04  0.30653284623E+04  0.24510561000E+04 0.  0.
        3    1    3    3  502    0 -0.77500985837E+03 -0.24000551686E+03 -0.22831081192E+03  0.84283377112E+03  0.10100000352E+00 0. -1.
       -3    1    3    3    0  502  0.77500985837E+03  0.24000551686E+03  0.20691156840E+04  0.22224946912E+04  0.10100000352E+00 0.  1.
</event>
<event>
 5   0  0.6703961E-05  0.2429831E+04  0.7818609E-02  0.8428419E-01
       -2   -1    0    0    0  501  0.00000000000E+00  0.00000000000E+00  0.99998615360E+03  0.99998615360E+03  0.25500000920E-02 0.  1.
        2   -1    0    0  501    0  0.00000000000E+00  0.00000000000E+00 -0.14760400017E+04  0.14760400017E+04  0.25500000920E-02 0. -1.
    10030    2    1    2    0    0  0.00000000000E+00  0.00000000000E+00 -0.47605384811E+03  0.24760261553E+04  0.24298309109E+04 0.  0.
        2    1    3    3  502    0  0.46702074703E+03 -0.35158107885E+03  0.84725735250E+03  0.10293505985E+04  0.25500000920E-02 0.  1.
       -2    1    3    3    0  502 -0.46702074703E+03  0.35158107885E+03 -0.13233112006E+04  0.14466755569E+04  0.25500000920E-02 0. -1.
</event>
<event>
 5   0  0.2847158E-05  0.2359382E+04  0.7818609E-02  0.8454869E-01
        1   -1    0    0  501    0  0.00000000000E+00  0.00000000000E+00  0.10443948222E+04  0.10443948222E+04  0.50400001928E-02 0. -1.
       -1   -1    0    0    0  501  0.00000000000E+00  0.00000000000E+00 -0.13325144303E+04  0.13325144304E+04  0.50400001928E-02 0.  1.
    10030    2    1    2    0    0  0.00000000000E+00  0.00000000000E+00 -0.28811960813E+03  0.23769092526E+04  0.23593822680E+04 0.  0.
        5    1    3    3  502    0 -0.29788453456E+03  0.70024393553E+03  0.76406450499E+03  0.10783753627E+04  0.46999998093E+01 0. -1.
       -5    1    3    3    0  502  0.29788453456E+03 -0.70024393553E+03 -0.10521841131E+04  0.12985338898E+04  0.46999998093E+01 0.  1.
</event>
<event>
 5   0  0.6600166E-05  0.2401083E+04  0.7818609E-02  0.8439098E-01
        2   -1    0    0  501    0  0.00000000000E+00  0.00000000000E+00  0.12940673050E+04  0.12940673050E+04  0.25500000920E-02 0. -1.
       -2   -1    0    0    0  501  0.00000000000E+00  0.00000000000E+00 -0.11137754748E+04  0.11137754748E+04  0.25500000920E-02 0.  1.
    10030    2    1    2    0    0  0.00000000000E+00  0.00000000000E+00  0.18029183020E+03  0.24078427799E+04  0.24010834447E+04 0.  0.
        5    1    3    3  502    0  0.10333499285E+04 -0.39823023763E+03  0.55500122883E+03  0.12387283200E+04  0.46999998093E+01 0.  1.
       -5    1    3    3    0  502 -0.10333499285E+04  0.39823023763E+03 -0.37470939864E+03  0.11691144599E+04  0.46999998093E+01 0. -1.
</event>
<event>
 5   0  0.2915546E-05  0.2422374E+04  0.7818609E-02  0.8431174E-01
       -1   -1    0    0    0  501  0.00000000000E+00  0.00000000000E+00  0.93864658030E+03  0.93864658032E+03  0.50400001928E-02 0.  1.
        1   -1    0    0  501    0  0.00000000000E+00  0.00000000000E+00 -0.15628612534E+04  0.15628612534E+04  0.50400001928E-02 0. -1.
    10030    2    1    2    0    0  0.00000000000E+00  0.00000000000E+00 -0.62421467310E+03  0.25015078337E+04  0.24223743485E+04 0.  0.
        2    1    3    3  502    0 -0.40400359992E+03 -0.53794562476E+03 -0.13521683076E+04  0.15102859121E+04  0.25500000920E-02 0. -1.
       -2    1    3    3    0  502  0.40400359992E+03  0.53794562476E+03  0.72795363455E+03  0.99122192167E+03  0.25500000920E-02 0.  1.
</event>
<event>
 5   0  0.2339125E-05  0.2073170E+04  0.7818609E-02  0.8573155E-01
        4   -1    0    0  501    0  0.00000000000E+00  0.00000000000E+00  0.13797648736E+04  0.13797654581E+04  0.12699999809E+01 0.  1.
       -4   -1    0    0    0  501  0.00000000000E+00  0.00000000000E+00 -0.77876097095E+03  0.77876200651E+03  0.12699999809E+01 0. -1.
    10030    2    1    2    0    0  0.00000000000E+00  0.00000000000E+00  0.60100390269E+03  0.21585274646E+04  0.20731703077E+04 0.  0.
        2    1    3    3  502    0 -0.89278518584E+03 -0.58786837250E+02  0.84549124953E+03  0.12310063905E+04  0.25500000920E-02 0.  1.
       -2    1    3    3    0  502  0.89278518584E+03  0.58786837250E+02 -0.24448734684E+03  0.92752107419E+03  0.25500000920E-02 0. -1.
</event>
<event>
 5   0  0.2943123E-05  0.2423259E+04  0.7818609E-02  0.8430847E-01
        1   -1    0    0  501    0  0.00000000000E+00  0.00000000000E+00  0.90773948250E+03  0.90773948251E+03  0.50400001928E-02 0.  1.
       -1   -1    0    0    0  501  0.00000000000E+00  0.00000000000E+00 -0.16172541991E+04  0.16172541991E+04  0.50400001928E-02 0. -1.
    10030    2    1    2    0    0  0.00000000000E+00  0.00000000000E+00 -0.70951471656E+03  0.25249936816E+04  0.24232585415E+04 0.  0.
        1    1    3    3  502    0 -0.61012413097E+03  0.64788082950E+03  0.50198092607E+03  0.10217562697E+04  0.50400001928E-02 0.  1.
       -1    1    3    3    0  502  0.61012413097E+03 -0.64788082950E+03 -0.12114956426E+04  0.15032374119E+04  0.50400001928E-02 0. -1.
</event>
<event>
 5   0  0.2915546E-05  0.2377409E+04  0.7818609E-02  0.8448010E-01
        1   -1    0    0  501    0  0.00000000000E+00  0.00000000000E+00  0.15668712990E+04  0.15668712990E+04  0.50400001928E-02 0.  1.
       -1   -1    0    0    0  501  0.00000000000E+00  0.00000000000E+00 -0.90180847377E+03  0.90180847379E+03  0.50400001928E-02 0. -1.
    10030    2    1    2    0    0  0.00000000000E+00  0.00000000000E+00  0.66506282525E+03  0.24686797728E+04  0.23774085175E+04 0.  0.
        2    1    3    3  502    0  0.43658542950E+03  0.10316188493E+04 -0.80447469406E+02  0.11230832929E+04  0.25500000920E-02 0. -1.
       -2    1    3    3    0  502 -0.43658542950E+03 -0.10316188493E+04  0.74551029466E+03  0.13455964799E+04  0.25500000920E-02 0.  1.
</event>
<event>
 5   0  0.6337926E-05  0.2383094E+04  0.7818609E-02  0.8445860E-01
        2   -1    0    0  501    0  0.00000000000E+00  0.00000000000E+00  0.10805017648E+04  0.10805017648E+04  0.25500000920E-02 0.  1.
       -2   -1    0    0    0  501  0.00000000000E+00  0.00000000000E+00 -0.13140043257E+04  0.13140043257E+04  0.25500000920E-02 0. -1.
    10030    2    1    2    0    0  0.00000000000E+00  0.00000000000E+00 -0.23350256093E+03  0.23945060905E+04  0.23830937815E+04 0.  0.
        1    1    3    3  502    0  0.41152839292E+03  0.10943361114E+04  0.11425588492E+03  0.11747261597E+04  0.50400001928E-02 0. -1.
       -1    1    3    3    0  502 -0.41152839292E+03 -0.10943361114E+04 -0.34775844585E+03  0.12197799308E+04  0.50400001928E-02 0.  1.
</event>
<event>
 5   0  0.6337926E-05  0.1508444E+04  0.7818609E-02  0.8878857E-01
       -2   -1    0    0    0  501  0.00000000000E+00  0.00000000000E+00  0.32688027119E+03  0.32688027120E+03  0.25500000920E-02 0.  1.
        2   -1    0    0  501    0  0.00000000000E+00  0.00000000000E+00 -0.17402428313E+04  0.17402428313E+04  0.25500000920E-02 0. -1.
    10030    2    1    2    0    0  0.00000000000E+00  0.00000000000E+00 -0.14133625601E+04  0.20671231025E+04  0.15084442962E+04 0.  0.
        1    1    3    3  502    0  0.62234138316E+03  0.20554796289E+03 -0.12181282349E+04  0.13832552761E+04  0.50400001928E-02 0. -1.
       -1    1    3    3    0  502 -0.62234138316E+03 -0.20554796289E+03 -0.19523432528E+03  0.68386782644E+03  0.50400001928E-02 0.  1.
</event>
<event>
 5   0  0.2339125E-05  0.2422155E+04  0.7818609E-02  0.8431255E-01
        3   -1    0    0  501    0  0.00000000000E+00  0.00000000000E+00  0.68521484697E+03  0.68521485441E+03  0.10100000352E+00 0.  1.
       -3   -1    0    0    0  501  0.00000000000E+00  0.00000000000E+00 -0.21405089234E+04  0.21405089258E+04  0.10100000352E+00 0. -1.
    10030    2    1    2    0    0  0.00000000000E+00  0.00000000000E+00 -0.14552940764E+04  0.28257237802E+04  0.24221548326E+04 0.  0.
        4    1    3    3  502    0  0.10084992398E+04  0.18656889191E+03 -0.14790310598E+04  0.17998369807E+04  0.12699999809E+01 0. -1.
       -4    1    3    3    0  502 -0.10084992398E+04 -0.18656889191E+03  0.23736983360E+02  0.10258867995E+04  0.12699999809E+01 0.  1.
</event>
<event>
 5   0  0.2901816E-05  0.2401874E+04  0.7818609E-02  0.8438802E-01
       -1   -1    0    0    0  501  0.00000000000E+00  0.00000000000E+00  0.83516016353E+03  0.83516016354E+03  0.50400001928E-02 0. -1.
        1   -1    0    0  501    0  0.00000000000E+00  0.00000000000E+00 -0.17269136443E+04  0.17269136443E+04  0.50400001928E-02 0.  1.
    10030    2    1    2    0    0  0.00000000000E+00  0.00000000000E+00 -0.89175348077E+03  0.25620738078E+04  0.24018738365E+04 0.  0.
        4    1    3    3  502    0  0.30995917528E+03  0.63311436281E+03  0.59125833120E+03  0.92005245169E+03  0.12699999809E+01 0. -1.
       -4    1    3    3    0  502 -0.30995917528E+03 -0.63311436281E+03 -0.14830118120E+04  0.16420213562E+04  0.12699999809E+01 0.  1.
</event>
<event>
 5   0  0.6600166E-05  0.2431438E+04  0.7818609E-02  0.8427827E-01
        2   -1    0    0  501    0  0.00000000000E+00  0.00000000000E+00  0.13869612857E+04  0.13869612857E+04  0.25500000920E-02 0. -1.
       -2   -1    0    0    0  501  0.00000000000E+00  0.00000000000E+00 -0.10656193303E+04  0.10656193303E+04  0.25500000920E-02 0.  1.
    10030    2    1    2    0    0  0.00000000000E+00  0.00000000000E+00  0.32134195539E+03  0.24525806160E+04  0.24314380571E+04 0.  0.
        5    1    3    3  502    0 -0.64834519569E+03 -0.11668684020E+03 -0.86996872539E+03  0.10912538589E+04  0.46999998093E+01 0.  1.
       -5    1    3    3    0  502  0.64834519569E+03  0.11668684020E+03  0.11913106808E+04  0.13613267571E+04  0.46999998093E+01 0. -1.
</event>
<event>
 5   0  0.2847158E-05  0.2078466E+04  0.7818609E-02  0.8570789E-01
       -1   -1    0    0    0  501  0.00000000000E+00  0.00000000000E+00  0.47460754531E+03  0.47460754534E+03  0.50400001928E-02 0. -1.
        1   -1    0    0  501    0  0.00000000000E+00  0.00000000000E+00 -0.22755748942E+04  0.22755748942E+04  0.50400001928E-02 0.  1.
    10030    2    1    2    0    0  0.00000000000E+00  0.00000000000E+00 -0.18009673488E+04  0.27501824395E+04  0.20784657945E+04 0.  0.
        5    1    3    3  502    0 -0.74825175302E+03  0.48001759269E+03 -0.18831660351E+03  0.90872592587E+03  0.46999998093E+01 0. -1.
       -5    1    3    3    0  502  0.74825175302E+03 -0.48001759269E+03 -0.16126507453E+04  0.18414565136E+04  0.46999998093E+01 0.  1.
</event>
<event>
 5   0  0.2915546E-05  0.2421502E+04  0.7818609E-02  0.8431497E-01
       -1   -1    0    0    0  501  0.00000000000E+00  0.00000000000E+00  0.17935954378E+04  0.17935954378E+04  0.50400001928E-02 0. -1.
        1   -1    0    0  501    0  0.00000000000E+00  0.00000000000E+00 -0.81730664617E+03  0.81730664618E+03  0.50400001928E-02 0.  1.
    10030    2    1    2    0    0  0.00000000000E+00  0.00000000000E+00  0.97628879164E+03  0.26109020840E+04  0.24215015770E+04 0.  0.
        2    1    3    3  502    0  0.36892950346E+01  0.11317555053E+04  0.95194447625E+03  0.14788787714E+04  0.25500000920E-02 0.  1.
       -2    1    3    3    0  502 -0.36892950346E+01 -0.11317555053E+04  0.24344315390E+02  0.11320233126E+04  0.25500000920E-02 0. -1.
</event>
<event>
 5   0  0.6600166E-05  0.2428739E+04  0.7818609E-02  0.8428822E-01
        2   -1    0    0  501    0  0.00000000000E+00  0.00000000000E+00  0.26539987054E+04  0.26539987054E+04  0.25500000920E-02 0. -1.
       -2   -1    0    0    0  501  0.00000000000E+00  0.00000000000E+00 -0.55564950653E+03  0.55564950653E+03  0.25500000920E-02 0.  1.
    10030    2    1    2    0    0  0.00000000000E+00  0.00000000000E+00  0.20983491989E+04  0.32096482119E+04  0.24287388258E+04 0.  0.
        5    1    3    3  502    0  0.33663275836E+03  0.98986441062E+03  0.23290423207E+03  0.10711767533E+04  0.46999998093E+01 0.  1.
       -5    1    3    3    0  502 -0.33663275836E+03 -0.98986441062E+03  0.18654449668E+04  0.21384714587E+04  0.46999998093E+01 0. -1.
</event>
<event>
 5   0  0.6337926E-05  0.2364733E+04  0.7818609E-02  0.8452826E-01
       -2   -1    0    0    0  501  0.00000000000E+00  0.00000000000E+00  0.69834867798E+03  0.69834867799E+03  0.25500000920E-02 0. -1.
        2   -1    0    0  501    0  0.00000000000E+00  0.00000000000E+00 -0.20018525807E+04  0.20018525807E+04  0.25500000920E-02 0.  1.
    10030    2    1    2    0    0  0.00000000000E+00  0.00000000000E+00 -0.13035039027E+04  0.27002012587E+04  0.23647334761E+04 0.  0.
        1    1    3    3  502    0 -0.67206941405E+02  0.92321120924E+03 -0.14917435289E+04  0.17556008846E+04  0.50400001928E-02 0. -1.
       -1    1    3    3    0  502  0.67206941405E+02 -0.92321120924E+03  0.18823962622E+03  0.94460037410E+03  0.50400001928E-02 0.  1.
</event>
<event>
 5   0  0.2915546E-05  0.2380313E+04  0.7818609E-02  0.8446911E-01
        1   -1    0    0  501    0  0.00000000000E+00  0.00000000000E+00  0.31745877731E+04  0.31745877731E+04  0.50400001928E-02 0.  1.
       -1   -1    0    0    0  501  0.00000000000E+00  0.00000000000E+00 -0.44619097865E+03  0.44619097868E+03  0.50400001928E-02 0. -1.
    10030    2    1    2    0    0  0.00000000000E+00  0.00000000000E+00  0.27283967944E+04  0.36207787518E+04  0.23803129419E+04 0.  0.
        2    1    3    3  502    0 -0.11825165597E+04  0.73256305612E+02  0.15360296685E+04  0.19398708830E+04  0.25500000920E-02 0.  1.
       -2    1    3    3    0  502  0.11825165597E+04 -0.73256305612E+02  0.11923671259E+04  0.16809078687E+04  0.25500000920E-02 0. -1.
</event>
<event>
 5   0  0.2847158E-05  0.2195256E+04  0.7818609E-02  0.8520405E-01
       -1   -1    0    0    0  501  0.00000000000E+00  0.00000000000E+00  0.73924418064E+03  0.73924418065E+03  0.50400001928E-02 0. -1.
        1   -1    0    0  501    0  0.00000000000E+00  0.00000000000E+00 -0.16297558386E+04  0.16297558386E+04  0.50400001928E-02 0.  1.
    10030    2    1    2    0    0  0.00000000000E+00  0.00000000000E+00 -0.89051165795E+03  0.23690000193E+04  0.21952562671E+04 0.  0.
        5    1    3    3  502    0  0.36485528528E+03  0.68986309583E+03 -0.12781817578E+04  0.14975984663E+04  0.46999998093E+01 0.  1.
       -5    1    3    3    0  502 -0.36485528528E+03 -0.68986309583E+03  0.38767009987E+03  0.87140155297E+03  0.46999998093E+01 0. -1.
</event>
<event>
 5   0  0.2943244E-05  0.2405403E+04  0.7818609E-02  0.8437483E-01
       -1   -1    0    0    0  501  0.00000000000E+00  0.00000000000E+00  0.10138366159E+04  0.10138366159E+04  0.50400001928E-02 0. -1.
        1   -1    0    0  501    0  0.00000000000E+00  0.00000000000E+00 -0.14267498137E+04  0.14267498137E+04  0.50400001928E-02 0.  1.
    10030    2    1    2    0    0  0.00000000000E+00  0.00000000000E+00 -0.41291319779E+03  0.24405864296E+04  0.24054032534E+04 0.  0.
        3    1    3    3  502    0 -0.11291644987E+04 -0.41348651263E+03 -0.22931682630E+03  0.12241608466E+04  0.10100000352E+00 0.  1.
       -3    1    3    3    0  502  0.11291644987E+04  0.41348651263E+03 -0.18359637149E+03  0.12164255830E+04  0.10100000352E+00 0. -1.
</event>
<event>
 5   0  0.2943244E-05  0.2414683E+04  0.7818609E-02  0.8434027E-01
        1   -1    0    0  501    0  0.00000000000E+00  0.00000000000E+00  0.10038631881E+04  0.10038631881E+04  0.50400001928E-02 0. -1.
       -1   -1    0    0    0  501  0.00000000000E+00  0.00000000000E+00 -0.14520642703E+04  0.14520642703E+04  0.50400001928E-02 0.  1.
    10030    2    1    2    0    0  0.00000000000E+00  0.00000000000E+00 -0.44820108226E+03  0.24559274584E+04  0.24146833065E+04 0.  0.
        3    1    3    3  502    0 -0.10212698580E+04 -0.46407427457E+03 -0.67817524735E+03  0.13108313131E+04  0.10100000352E+00 0.  1.
       -3    1    3    3    0  502  0.10212698580E+04  0.46407427457E+03  0.22997416509E+03  0.11450961453E+04  0.10100000352E+00 0. -1.
</event>
<event>
 5   0  0.2847158E-05  0.2303217E+04  0.7818609E-02  0.8476654E-01
       -1   -1    0    0    0  501  0.00000000000E+00  0.00000000000E+00  0.10042836081E+04  0.10042836081E+04  0.50400001928E-02 0. -1.
        1   -1    0    0  501    0  0.00000000000E+00  0.00000000000E+00 -0.13205459588E+04  0.13205459588E+04  0.50400001928E-02 0.  1.
    10030    2    1    2    0    0  0.00000000000E+00  0.00000000000E+00 -0.31626235069E+03  0.23248295669E+04  0.23032174540E+04 0.  0.
        5    1    3    3  502    0  0.19318074450E+03 -0.41376761636E+03  0.90898245694E+03  0.10172480707E+04  0.46999998093E+01 0. -1.
       -5    1    3    3    0  502 -0.19318074450E+03  0.41376761636E+03 -0.12252448076E+04  0.13075814961E+04  0.46999998093E+01 0.  1.
</event>
<event>
 5   0  0.2901816E-05  0.2407592E+04  0.7818609E-02  0.8436667E-01
       -1   -1    0    0    0  501  0.00000000000E+00  0.00000000000E+00  0.15990468859E+04  0.15990468859E+04  0.50400001928E-02 0. -1.
        1   -1    0    0  501    0  0.00000000000E+00  0.00000000000E+00 -0.90624257793E+03  0.90624257794E+03  0.50400001928E-02 0.  1.
    10030    2    1    2    0    0  0.00000000000E+00  0.00000000000E+00  0.69280430801E+03  0.25052894639E+04  0.24075916366E+04 0.  0.
        4    1    3    3  502    0 -0.10385753020E+04  0.56062596008E+03  0.99754984952E+02  0.11844377548E+04  0.12699999809E+01 0.  1.
       -4    1    3    3    0  502  0.10385753020E+04 -0.56062596008E+03  0.59304932306E+03  0.13208517091E+04  0.12699999809E+01 0. -1.
</event>
<event>
 5   0  0.2847158E-05  0.1698729E+04  0.7818609E-02  0.8762089E-01
        1   -1    0    0  501    0  0.00000000000E+00  0.00000000000E+00  0.74400566461E+03  0.74400566462E+03  0.50400001928E-02 0.  1.
       -1   -1    0    0    0  501  0.00000000000E+00  0.00000000000E+00 -0.96964344015E+03  0.96964344016E+03  0.50400001928E-02 0. -1.
    10030    2    1    2    0    0  0.00000000000E+00  0.00000000000E+00 -0.22563777554E+03  0.17136491048E+04  0.16987291864E+04 0.  0.
        5    1    3    3  502    0  0.62837431729E+03 -0.16108085044E+03  0.44026362301E+03  0.78399966247E+03  0.46999998093E+01 0.  1.
       -5    1    3    3    0  502 -0.62837431729E+03  0.16108085044E+03 -0.66590139855E+03  0.92964944232E+03  0.46999998093E+01 0. -1.
</event>
<event>
 5   0  0.6978115E-05  0.1830296E+04  0.7818609E-02  0.8690352E-01
       -2   -1    0    0    0  501  0.00000000000E+00  0.00000000000E+00  0.49184339422E+03  0.49184339422E+03  0.25500000920E-02 0.  1.
        2   -1    0    0  501    0  0.00000000000E+00  0.00000000000E+00 -0.17027687593E+04  0.17027687593E+04  0.25500000920E-02 0. -1.
    10030    2    1    2    0    0  0.00000000000E+00  0.00000000000E+00 -0.12109253651E+04  0.21946121535E+04  0.18302956768E+04 0.  0.
        4    1    3    3  502    0  0.31207956854E+03  0.76030477482E+03 -0.12280019146E+03  0.83098646658E+03  0.12699999809E+01 0. -1.
       -4    1    3    3    0  502 -0.31207956854E+03 -0.76030477482E+03 -0.10881251736E+04  0.13636256869E+04  0.12699999809E+01 0.  1.
</event>
<event>
 5   0  0.2943244E-05  0.2383294E+04  0.7818609E-02  0.8445785E-01
        1   -1    0    0  501    0  0.00000000000E+00  0.00000000000E+00  0.17829221292E+04  0.17829221292E+04  0.50400001928E-02 0. -1.
       -1   -1    0    0    0  501  0.00000000000E+00  0.00000000000E+00 -0.79645800077E+03  0.79645800079E+03  0.50400001928E-02 0.  1.
    10030    2    1    2    0    0  0.00000000000E+00  0.00000000000E+00  0.98646412846E+03  0.25793801300E+04  0.23832940185E+04 0.  0.
        3    1    3    3  502    0  0.44477330973E+03 -0.79336101626E+03  0.13264979722E+04  0.16083662144E+04  0.10100000352E+00 0. -1.
       -3    1    3    3    0  502 -0.44477330973E+03  0.79336101626E+03 -0.34003384377E+03  0.97101391560E+03  0.10100000352E+00 0.  1.
</event>
<event>
 5   0  0.6714629E-05  0.1863283E+04  0.7818609E-02  0.8673352E-01
       -2   -1    0    0    0  501  0.00000000000E+00  0.00000000000E+00  0.66022670821E+03  0.66022670821E+03  0.25500000920E-02 0. -1.
        2   -1    0    0  501    0  0.00000000000E+00  0.00000000000E+00 -0.13146328474E+04  0.13146328474E+04  0.25500000920E-02 0.  1.
    10030    2    1    2    0    0  0.00000000000E+00  0.00000000000E+00 -0.65440613921E+03  0.19748595556E+04  0.18632828206E+04 0.  0.
        3    1    3    3  502    0 -0.34069223871E+03 -0.22787032691E+03  0.55953209070E+03  0.69359372699E+03  0.10100000352E+00 0. -1.
       -3    1    3    3    0  502  0.34069223871E+03  0.22787032691E+03 -0.12139382299E+04  0.12812658286E+04  0.10100000352E+00 0.  1.
</event>
<event>
 5   0  0.6714629E-05  0.2384311E+04  0.7818609E-02  0.8445401E-01
       -2   -1    0    0    0  501  0.00000000000E+00  0.00000000000E+00  0.19730289680E+04  0.19730289680E+04  0.25500000920E-02 0. -1.
        2   -1    0    0  501    0  0.00000000000E+00  0.00000000000E+00 -0.72033119685E+03  0.72033119686E+03  0.25500000920E-02 0.  1.
    10030    2    1    2    0    0  0.00000000000E+00  0.00000000000E+00  0.12526977711E+04  0.26933601648E+04  0.23843106492E+04 0.  0.
        3    1    3    3  502    0 -0.76349568637E+03  0.61253120207E+03 -0.14238429944E+03  0.98913772324E+03  0.10100000352E+00 0.  1.
       -3    1    3    3    0  502  0.76349568637E+03 -0.61253120207E+03  0.13950820706E+04  0.17042224416E+04  0.10100000352E+00 0. -1.
</event>
<event>
 5   0  0.2339125E-05  0.2309633E+04  0.7818609E-02  0.8474133E-01
       -4   -1    0    0    0  501  0.00000000000E+00  0.00000000000E+00  0.14629394161E+04  0.14629399673E+04  0.12699999809E+01 0.  1.
        4   -1    0    0  501    0  0.00000000000E+00  0.00000000000E+00 -0.91158888703E+03  0.91158977170E+03  0.12699999809E+01 0. -1.
    10030    2    1    2    0    0  0.00000000000E+00  0.00000000000E+00  0.55135052905E+03  0.23745297390E+04  0.23096328876E+04 0.  0.
        4    1    3    3  502    0  0.10306793106E+04  0.55899329937E+02  0.80808215166E+03  0.13108863235E+04  0.12699999809E+01 0.  1.
       -4    1    3    3    0  502 -0.10306793106E+04 -0.55899329937E+02 -0.25673162262E+03  0.10636434155E+04  0.12699999809E+01 0. -1.
</event>
<event>
 5   0  0.6600166E-05  0.2399719E+04  0.7818609E-02  0.8439609E-01
       -2   -1    0    0    0  501  0.00000000000E+00  0.00000000000E+00  0.84703613382E+03  0.84703613383E+03  0.25500000920E-02 0. -1.
        2   -1    0    0  501    0  0.00000000000E+00  0.00000000000E+00 -0.16996468538E+04  0.16996468538E+04  0.25500000920E-02 0.  1.
    10030    2    1    2    0    0  0.00000000000E+00  0.00000000000E+00 -0.85261072001E+03  0.25466829877E+04  0.23997185668E+04 0.  0.
        5    1    3    3  502    0  0.69011193449E+03 -0.95820658643E+03 -0.65199312676E+03  0.13489000970E+04  0.46999998093E+01 0.  1.
       -5    1    3    3    0  502 -0.69011193449E+03  0.95820658643E+03 -0.20061759326E+03  0.11977828906E+04  0.46999998093E+01 0. -1.
</event>
<event>
 5   0  0.2847158E-05  0.2542228E+04  0.7818609E-02  0.8388094E-01
        1   -1    0    0  501    0  0.00000000000E+00  0.00000000000E+00  0.14503592286E+04  0.14503592286E+04  0.50400001928E-02 0. -1.
       -1   -1    0    0    0  501  0.00000000000E+00  0.00000000000E+00 -0.11140208078E+04  0.11140208078E+04  0.50400001928E-02 0.  1.
    10030    2    1    2    0    0  0.00000000000E+00  0.00000000000E+00  0.33633842082E+03  0.25643800364E+04  0.25422276526E+04 0.  0.
        5    1    3    3  502    0 -0.13087569746E+02 -0.11477124983E+04 -0.38275198904E+03  0.12099324107E+04  0.46999998093E+01 0.  1.
       -5    1    3    3    0  502  0.13087569746E+02  0.11477124983E+04  0.71909040986E+03  0.13544476257E+04  0.46999998093E+01 0. -1.
</event>
<event>
 5   0  0.2915546E-05  0.2175101E+04  0.7818609E-02  0.8528864E-01
        1   -1    0    0  501    0  0.00000000000E+00  0.00000000000E+00  0.85610106956E+03  0.85610106957E+03  0.50400001928E-02 0.  1.
       -1   -1    0    0    0  501  0.00000000000E+00  0.00000000000E+00 -0.13815725944E+04  0.13815725944E+04  0.50400001928E-02 0. -1.
    10030    2    1    2    0    0  0.00000000000E+00  0.00000000000E+00 -0.52547152488E+03  0.22376736640E+04  0.21751007110E+04 0.  0.
        2    1    3    3  502    0  0.68107510651E+03 -0.13992894427E+03 -0.11230479774E+04  0.13208634182E+04  0.25500000920E-02 0. -1.
       -2    1    3    3    0  502 -0.68107510651E+03  0.13992894427E+03  0.59757645251E+03  0.91681024577E+03  0.25500000920E-02 0.  1.
</event>
<event>
 5   0  0.6600166E-05  0.2331729E+04  0.7818609E-02  0.8465515E-01
        2   -1    0    0  501    0  0.00000000000E+00  0.00000000000E+00  0.13246746129E+04  0.13246746129E+04  0.25500000920E-02 0.  1.
       -2   -1    0    0    0  501  0.00000000000E+00  0.00000000000E+00 -0.10260936415E+04  0.10260936415E+04  0.25500000920E-02 0. -1.
    10030    2    1    2    0    0  0.00000000000E+00  0.00000000000E+00  0.29858097133E+03  0.23507682544E+04  0.23317291415E+04 0.  0.
        5    1    3    3  502    0  0.10415810016E+04 -0.13863109143E+03 -0.35991634357E+03  0.11107076244E+04  0.46999998093E+01 0.  1.
       -5    1    3    3    0  502 -0.10415810016E+04  0.13863109143E+03  0.65849731490E+03  0.12400606300E+04  0.46999998093E+01 0. -1.
</event>
<event>
 5   0  0.6337926E-05  0.2227363E+04  0.7818609E-02  0.8507125E-01
        2   -1    0    0  501    0  0.00000000000E+00  0.00000000000E+00  0.11412965421E+04  0.11412965421E+04  0.25500000920E-02 0.  1.
       -2   -1    0    0    0  501  0.00000000000E+00  0.00000000000E+00 -0.10867345234E+04  0.10867345234E+04  0.25500000920E-02 0. -1.
    10030    2    1    2    0    0  0.00000000000E+00  0.00000000000E+00  0.54562018772E+02  0.22280310655E+04  0.22273628835E+04 0.  0.
        1    1    3    3  502    0  0.68637206064E+03 -0.16089780247E+03  0.88968327583E+03  0.11351348113E+04  0.50400001928E-02 0.  1.
       -1    1    3    3    0  502 -0.68637206064E+03  0.16089780247E+03 -0.83512125706E+03  0.10928962542E+04  0.50400001928E-02 0. -1.
</event>
<event>
 5   0  0.2915546E-05  0.1843086E+04  0.7818609E-02  0.8683716E-01
       -1   -1    0    0    0  501  0.00000000000E+00  0.00000000000E+00  0.67653109959E+03  0.67653109961E+03  0.50400001928E-02 0.  1.
        1   -1    0    0  501    0  0.00000000000E+00  0.00000000000E+00 -0.12552885709E+04  0.12552885709E+04  0.50400001928E-02 0. -1.
    10030    2    1    2    0    0  0.00000000000E+00  0.00000000000E+00 -0.57875747134E+03  0.19318196706E+04  0.18430862782E+04 0.  0.
        2    1    3    3  502    0 -0.52267491418E+03  0.50915777636E+03  0.30057924250E+03  0.78916322024E+03  0.25500000920E-02 0.  1.
       -2    1    3    3    0  502  0.52267491418E+03 -0.50915777636E+03 -0.87933671384E+03  0.11426564503E+04  0.25500000920E-02 0. -1.
</event>
<event>
 5   0  0.6337926E-05  0.2372424E+04  0.7818609E-02  0.8449900E-01
       -2   -1    0    0    0  501  0.00000000000E+00  0.00000000000E+00  0.63260241503E+03  0.63260241503E+03  0.25500000920E-02 0. -1.
        2   -1    0    0  501    0  0.00000000000E+00  0.00000000000E+00 -0.22243013354E+04  0.22243013354E+04  0.25500000920E-02 0.  1.
    10030    2    1    2    0    0  0.00000000000E+00  0.00000000000E+00 -0.15916989204E+04  0.28569037505E+04  0.23724235680E+04 0.  0.
        1    1    3    3  502    0 -0.46760973104E+03 -0.83166099534E+02 -0.21048036807E+04  0.21577242630E+04  0.50400001928E-02 0.  1.
       -1    1    3    3    0  502  0.46760973104E+03  0.83166099534E+02  0.51310476030E+03  0.69917948750E+03  0.50400001928E-02 0. -1.
</event>
<event>
 5   0  0.2901816E-05  0.2369047E+04  0.7818609E-02  0.8451183E-01
        1   -1    0    0  501    0  0.00000000000E+00  0.00000000000E+00  0.10321109091E+04  0.10321109091E+04  0.50400001928E-02 0. -1.
       -1   -1    0    0    0  501  0.00000000000E+00  0.00000000000E+00 -0.13594433895E+04  0.13594433895E+04  0.50400001928E-02 0.  1.
    10030    2    1    2    0    0  0.00000000000E+00  0.00000000000E+00 -0.32733248044E+03  0.23915542986E+04  0.23690473635E+04 0.  0.
        4    1    3    3  502    0 -0.88852100326E+02  0.69389700285E+03 -0.11286277190E+04  0.13278516059E+04  0.12699999809E+01 0.  1.
       -4    1    3    3    0  502  0.88852100326E+02 -0.69389700285E+03  0.80129523856E+03  0.10637026927E+04  0.12699999809E+01 0. -1.
</event>
<event>
 5   0  0.6714629E-05  0.2430119E+04  0.7818609E-02  0.8428313E-01
        2   -1    0    0  501    0  0.00000000000E+00  0.00000000000E+00  0.17786598991E+04  0.17786598991E+04  0.25500000920E-02 0.  1.
       -2   -1    0    0    0  501  0.00000000000E+00  0.00000000000E+00 -0.83004596697E+03  0.83004596697E+03  0.25500000920E-02 0. -1.
    10030    2    1    2    0    0  0.00000000000E+00  0.00000000000E+00  0.94861393212E+03  0.26087058661E+04  0.24301189073E+04 0.  0.
        3    1    3    3  502    0 -0.11104123755E+04 -0.20998498537E+03  0.95349701734E+03  0.14786026883E+04  0.10100000352E+00 0.  1.
       -3    1    3    3    0  502  0.11104123755E+04  0.20998498537E+03 -0.48830852135E+01  0.11301031777E+04  0.10100000352E+00 0. -1.
</event>
<event>
 5   0  0.2901816E-05  0.2444650E+04  0.7818609E-02  0.8422974E-01
       -1   -1    0    0    0  501  0.00000000000E+00  0.00000000000E+00  0.13985429484E+04  0.13985429484E+04  0.50400001928E-02 0. -1.
        1   -1    0    0  501    0  0.00000000000E+00  0.00000000000E+00 -0.10683102906E+04  0.10683102906E+04  0.50400001928E-02 0.  1.
    10030    2    1    2    0    0  0.00000000000E+00  0.00000000000E+00  0.33023265779E+03  0.24668532389E+04  0.24446495238E+04 0.  0.
        4    1    3    3  502    0  0.64106205285E+03 -0.10380067988E+04  0.89216542844E+02  0.12232660685E+04  0.12699999809E+01 0. -1.
       -4    1    3    3    0  502 -0.64106205285E+03  0.10380067988E+04  0.24101611495E+03  0.12435871704E+04  0.12699999809E+01 0.  1.
</event>
<event>
 5   0  0.6714629E-05  0.2450068E+04  0.7818609E-02  0.8420993E-01
       -2   -1    0    0    0  501  0.00000000000E+00  0.00000000000E+00  0.10732271116E+04  0.10732271116E+04  0.25500000920E-02 0. -1.
        2   -1    0    0  501    0  0.00000000000E+00  0.00000000000E+00 -0.13983133754E+04  0.13983133754E+04  0.25500000920E-02 0.  1.
    10030    2    1    2    0    0  0.00000000000E+00  0.00000000000E+00 -0.32508626379E+03  0.24715404870E+04  0.24500676114E+04 0.  0.
        3    1    3    3  502    0  0.44291211236E+03  0.62224924397E+03 -0.11287173181E+04  0.13628529104E+04  0.10100000352E+00 0.  1.
       -3    1    3    3    0  502 -0.44291211236E+03 -0.62224924397E+03  0.80363105435E+03  0.11086875767E+04  0.10100000352E+00 0. -1.
</event>
<event>
 5   0  0.6978115E-05  0.2437768E+04  0.7818609E-02  0.8425498E-01
       -2   -1    0    0    0  501  0.00000000000E+00  0.00000000000E+00  0.66107690513E+03  0.66107690513E+03  0.25500000920E-02 0. -1.
        2   -1    0    0  501    0  0.00000000000E+00  0.00000000000E+00 -0.22473599789E+04  0.22473599789E+04  0.25500000920E-02 0.  1.
    10030    2    1    2    0    0  0.00000000000E+00  0.00000000000E+00 -0.15862830738E+04  0.29084368841E+04  0.24377676506E+04 0.  0.
        4    1    3    3  502    0 -0.90879575103E+03  0.21237630415E+03 -0.17285165905E+04  0.19643789421E+04  0.12699999809E+01 0.  1.
       -4    1    3    3    0  502  0.90879575103E+03 -0.21237630415E+03  0.14223351667E+03  0.94405794198E+03  0.12699999809E+01 0. -1.
</event>
<event>
 5   0  0.6703961E-05  0.2385734E+04  0.7818609E-02  0.8444864E-01
       -2   -1    0    0    0  501  0.00000000000E+00  0.00000000000E+00  0.82127998883E+03  0.82127998884E+03  0.25500000920E-02 0. -1.
        2   -1    0    0  501    0  0.00000000000E+00  0.00000000000E+00 -0.17325778728E+04  0.17325778728E+04  0.25500000920E-02 0.  1.
    10030    2    1    2    0    0  0.00000000000E+00  0.00000000000E+00 -0.91129788399E+03  0.25538578617E+04  0.23857338796E+04 0.  0.
        2    1    3    3  502    0  0.61903316538E+03 -0.68256549650E+03  0.35525198035E+03  0.98757363594E+03  0.25500000920E-02 0. -1.
       -2    1    3    3    0  502 -0.61903316538E+03  0.68256549650E+03 -0.12665498643E+04  0.15662842257E+04  0.25500000920E-02 0.  1.
</event>
<event>
 5   0  0.6703961E-05  0.2444707E+04  0.7818609E-02  0.8422953E-01
       -2   -1    0    0    0  501  0.00000000000E+00  0.00000000000E+00  0.86937723874E+03  0.86937723874E+03  0.25500000920E-02 0. -1.
        2   -1    0    0  501    0  0.00000000000E+00  0.00000000000E+00 -0.17186413352E+04  0.17186413352E+04  0.25500000920E-02 0.  1.
    10030    2    1    2    0    0  0.00000000000E+00  0.00000000000E+00 -0.84926409650E+03  0.25880185740E+04  0.24447066560E+04 0.  0.
        2    1    3    3  502    0  0.28227550561E+03  0.68287985583E+02 -0.16815882621E+04  0.17064822862E+04  0.25500000920E-02 0.  1.
       -2    1    3    3    0  502 -0.28227550561E+03 -0.68287985583E+02  0.83232416557E+03  0.88153628776E+03  0.25500000920E-02 0. -1.
</event>
<event>
 5   0  0.2901816E-05  0.2419686E+04  0.7818609E-02  0.8432170E-01
        1   -1    0    0  501    0  0.00000000000E+00  0.00000000000E+00  0.16310333577E+04  0.16310333577E+04  0.50400001928E-02 0.  1.
       -1   -1    0    0    0  501  0.00000000000E+00  0.00000000000E+00 -0.89741862342E+03  0.89741862343E+03  0.50400001928E-02 0. -1.
    10030    2    1    2    0    0  0.00000000000E+00  0.00000000000E+00  0.73361473430E+03  0.25284519812E+04  0.24196856909E+04 0.  0.
        4    1    3    3  502    0  0.93161277774E+03 -0.72704078835E+03  0.63774478240E+03  0.13428368091E+04  0.12699999809E+01 0.  1.
       -4    1    3    3    0  502 -0.93161277774E+03  0.72704078835E+03  0.95869951896E+02  0.11856151720E+04  0.12699999809E+01 0. -1.
</event>
<event>
 5   0  0.6703961E-05  0.2399266E+04  0.7818609E-02  0.8439778E-01
       -2   -1    0    0    0  501  0.00000000000E+00  0.00000000000E+00  0.13078838910E+04  0.13078838910E+04  0.25500000920E-02 0. -1.
        2   -1    0    0  501    0  0.00000000000E+00  0.00000000000E+00 -0.11003419474E+04  0.11003419474E+04  0.25500000920E-02 0.  1.
    10030    2    1    2    0    0  0.00000000000E+00  0.00000000000E+00  0.20754194360E+03  0.24082258384E+04  0.23992661441E+04 0.  0.
        2    1    3    3  502    0  0.44973582730E+03  0.46571331823E+02  0.12190857406E+04  0.13002312280E+04  0.25500000920E-02 0. -1.
       -2    1    3    3    0  502 -0.44973582730E+03 -0.46571331823E+02 -0.10115437970E+04  0.11079946104E+04  0.25500000920E-02 0.  1.
</event>
<event>
 5   0  0.6600166E-05  0.2479990E+04  0.7818609E-02  0.8410149E-01
        2   -1    0    0  501    0  0.00000000000E+00  0.00000000000E+00  0.19668222064E+04  0.19668222064E+04  0.25500000920E-02 0. -1.
       -2   -1    0    0    0  501  0.00000000000E+00  0.00000000000E+00 -0.78176228272E+03  0.78176228272E+03  0.25500000920E-02 0.  1.
    10030    2    1    2    0    0  0.00000000000E+00  0.00000000000E+00  0.11850599237E+04  0.27485844891E+04  0.24799898530E+04 0.  0.
        5    1    3    3  502    0 -0.11281995589E+03 -0.52118516994E+03  0.18332388718E+04  0.19092273764E+04  0.46999998093E+01 0. -1.
       -5    1    3    3    0  502  0.11281995589E+03  0.52118516994E+03 -0.64817894813E+03  0.83935711268E+03  0.46999998093E+01 0.  1.
</event>
<event>
 5   0  0.6600166E-05  0.2369585E+04  0.7818609E-02  0.8450979E-01
       -2   -1    0    0    0  501  0.00000000000E+00  0.00000000000E+00  0.13675256536E+04  0.13675256536E+04  0.25500000920E-02 0. -1.
        2   -1    0    0  501    0  0.00000000000E+00  0.00000000000E+00 -0.10264767490E+04  0.10264767490E+04  0.25500000920E-02 0.  1.
    10030    2    1    2    0    0  0.00000000000E+00  0.00000000000E+00  0.34104890458E+03  0.23940024026E+04  0.23695850161E+04 0.  0.
        5    1    3    3  502    0 -0.76952609917E+03  0.89330852755E+03  0.52961058767E+02  0.11802531535E+04  0.46999998093E+01 0.  1.
       -5    1    3    3    0  502  0.76952609917E+03 -0.89330852755E+03  0.28808784581E+03  0.12137492491E+04  0.46999998093E+01 0. -1.
</event>
<event>
 5   0  0.6714629E-05  0.2398511E+04  0.7818609E-02  0.8440061E-01
       -2   -1    0    0    0  501  0.00000000000E+00  0.00000000000E+00  0.77650547254E+03  0.77650547254E+03  0.25500000920E-02 0. -1.
        2   -1    0    0  501    0  0.00000000000E+00  0.00000000000E+00 -0.18521613521E+04  0.18521613521E+04  0.25500000920E-02 0.  1.
    10030    2    1    2    0    0  0.00000000000E+00  0.00000000000E+00 -0.10756558796E+04  0.26286668247E+04  0.23985107262E+04 0.  0.
        3    1    3    3  502    0 -0.60210439884E+02  0.66386470327E+03  0.55476668004E+03  0.86724144320E+03  0.10100000352E+00 0. -1.
       -3    1    3    3    0  502  0.60210439884E+02 -0.66386470327E+03 -0.16304225596E+04  0.17614253815E+04  0.10100000352E+00 0.  1.
</event>
<event>
 5   0  0.2847158E-05  0.2381064E+04  0.7818609E-02  0.8446627E-01
        1   -1    0    0  501    0  0.00000000000E+00  0.00000000000E+00  0.10857322732E+04  0.10857322732E+04  0.50400001928E-02 0. -1.
       -1   -1    0    0    0  501  0.00000000000E+00  0.00000000000E+00 -0.13054474040E+04  0.13054474040E+04  0.50400001928E-02 0.  1.
    10030    2    1    2    0    0  0.00000000000E+00  0.00000000000E+00 -0.21971513076E+03  0.23911796772E+04  0.23810639449E+04 0.  0.
        5    1    3    3  502    0 -0.97958065344E+03  0.52671887578E+03  0.31660318342E+03  0.11564042098E+04  0.46999998093E+01 0. -1.
       -5    1    3    3    0  502  0.97958065344E+03 -0.52671887578E+03 -0.53631831419E+03  0.12347754674E+04  0.46999998093E+01 0.  1.
</event>
<event>
 5   0  0.2943123E-05  0.2418068E+04  0.7818609E-02  0.8432770E-01
        1   -1    0    0  501    0  0.00000000000E+00  0.00000000000E+00  0.19159406131E+04  0.19159406131E+04  0.50400001928E-02 0.  1.
       -1   -1    0    0    0  501  0.00000000000E+00  0.00000000000E+00 -0.76294809905E+03  0.76294809906E+03  0.50400001928E-02 0. -1.
    10030    2    1    2    0    0  0.00000000000E+00  0.00000000000E+00  0.11529925140E+04  0.26788887122E+04  0.24180680294E+04 0.  0.
        1    1    3    3  502    0 -0.68608110538E+03  0.94639119953E+03  0.23431235264E+03  0.11921685553E+04  0.50400001928E-02 0. -1.
       -1    1    3    3    0  502  0.68608110538E+03 -0.94639119953E+03  0.91868016141E+03  0.14867201568E+04  0.50400001928E-02 0.  1.
</event>
<event>
 5   0  0.6714629E-05  0.2335071E+04  0.7818609E-02  0.8464220E-01
        2   -1    0    0  501    0  0.00000000000E+00  0.00000000000E+00  0.23927921254E+04  0.23927921254E+04  0.25500000920E-02 0. -1.
       -2   -1    0    0    0  501  0.00000000000E+00  0.00000000000E+00 -0.56968568805E+03  0.56968568805E+03  0.25500000920E-02 0.  1.
    10030    2    1    2    0    0  0.00000000000E+00  0.00000000000E+00  0.18231064373E+04  0.29624778134E+04  0.23350712437E+04 0.  0.
        3    1    3    3  502    0  0.60369019739E+03  0.72423312033E+03  0.17851849435E+04  0.20188711597E+04  0.10100000352E+00 0. -1.
       -3    1    3    3    0  502 -0.60369019739E+03 -0.72423312033E+03  0.37921493857E+02  0.94360665370E+03  0.10100000352E+00 0.  1.
</event>
<event>
 5   0  0.2915546E-05  0.2349674E+04  0.7818609E-02  0.8458589E-01
        1   -1    0    0  501    0  0.00000000000E+00  0.00000000000E+00  0.12101327672E+04  0.12101327672E+04  0.50400001928E-02 0.  1.
       -1   -1    0    0    0  501  0.00000000000E+00  0.00000000000E+00 -0.11405709391E+04  0.11405709391E+04  0.50400001928E-02 0. -1.
    10030    2    1    2    0    0  0.00000000000E+00  0.00000000000E+00  0.69561828102E+02  0.23507037063E+04  0.23496742470E+04 0.  0.
        2    1    3    3  502    0  0.11257828266E+04  0.14190072710E+03  0.33941305570E+03  0.11843665021E+04  0.25500000920E-02 0.  1.
       -2    1    3    3    0  502 -0.11257828266E+04 -0.14190072710E+03 -0.26985122759E+03  0.11663372042E+04  0.25500000920E-02 0. -1.
</event>
<event>
 5   0  0.6978115E-05  0.2385535E+04  0.7818609E-02  0.8444939E-01
        2   -1    0    0  501    0  0.00000000000E+00  0.00000000000E+00  0.11221354247E+04  0.11221354247E+04  0.25500000920E-02 0. -1.
       -2   -1    0    0    0  501  0.00000000000E+00  0.00000000000E+00 -0.12678454692E+04  0.12678454692E+04  0.25500000920E-02 0.  1.
    10030    2    1    2    0    0  0.00000000000E+00  0.00000000000E+00 -0.14571004441E+03  0.23899808939E+04  0.23855350042E+04 0.  0.
        4    1    3    3  502    0  0.59431431321E+03  0.82676195714E+03 -0.69525985570E+03  0.12329366231E+04  0.12699999809E+01 0.  1.
       -4    1    3    3    0  502 -0.59431431321E+03 -0.82676195714E+03  0.54954981129E+03  0.11570442708E+04  0.12699999809E+01 0. -1.
</event>
<event>
 5   0  0.2901816E-05  0.2188288E+04  0.7818609E-02  0.8523319E-01
       -1   -1    0    0    0  501  0.00000000000E+00  0.00000000000E+00  0.11772878599E+04  0.11772878599E+04  0.50400001928E-02 0.  1.
        1   -1    0    0  501    0  0.00000000000E+00  0.00000000000E+00 -0.10168717740E+04  0.10168717740E+04  0.50400001928E-02 0. -1.
    10030    2    1    2    0    0  0.00000000000E+00  0.00000000000E+00  0.16041608590E+03  0.21941596339E+04  0.21882877275E+04 0.  0.
        4    1    3    3  502    0  0.21385450483E+03  0.87316582473E+03 -0.54516168188E+03  0.10513587299E+04  0.12699999809E+01 0. -1.
       -4    1    3    3    0  502 -0.21385450483E+03 -0.87316582473E+03  0.70557776778E+03  0.11428009039E+04  0.12699999809E+01 0.  1.
</event>
<event>
 5   0  0.6978115E-05  0.2011624E+04  0.7818609E-02  0.8601205E-01
       -2   -1    0    0    0  501  0.00000000000E+00  0.00000000000E+00  0.77547625196E+03  0.77547625196E+03  0.25500000920E-02 0. -1.
        2   -1    0    0  501    0  0.00000000000E+00  0.00000000000E+00 -0.13045636821E+04  0.13045636821E+04  0.25500000920E-02 0.  1.
    10030    2    1    2    0    0  0.00000000000E+00  0.00000000000E+00 -0.52908743018E+03  0.20800399341E+04  0.20116243732E+04 0.  0.
        4    1    3    3  502    0  0.53228613897E+03 -0.47130879024E+03  0.47112815857E+03  0.85289147269E+03  0.12699999809E+01 0. -1.
       -4    1    3    3    0  502 -0.53228613897E+03  0.47130879024E+03 -0.10002155887E+04  0.12271484614E+04  0.12699999809E+01 0.  1.
</event>
<event>
 5   0  0.6337926E-05  0.2372998E+04  0.7818609E-02  0.8449683E-01
       -2   -1    0    0    0  501  0.00000000000E+00  0.00000000000E+00  0.11893034451E+04  0.11893034451E+04  0.25500000920E-02 0.  1.
        2   -1    0    0  501    0  0.00000000000E+00  0.00000000000E+00 -0.11837007185E+04  0.11837007185E+04  0.25500000920E-02 0. -1.
    10030    2    1    2    0    0  0.00000000000E+00  0.00000000000E+00  0.56027266578E+01  0.23730041636E+04  0.23729975495E+04 0.  0.
        1    1    3    3  502    0 -0.59148586048E+03  0.10192624138E+04  0.14074358767E+03  0.11868277671E+04  0.50400001928E-02 0.  1.
       -1    1    3    3    0  502  0.59148586048E+03 -0.10192624138E+04 -0.13514086102E+03  0.11861763965E+04  0.50400001928E-02 0. -1.
</event>
<event>
 5   0  0.6703961E-05  0.2416709E+04  0.7818609E-02  0.8433275E-01
       -2   -1    0    0    0  501  0.00000000000E+00  0.00000000000E+00  0.11948319193E+04  0.11948319193E+04  0.25500000920E-02 0.  1.
        2   -1    0    0  501    0  0.00000000000E+00  0.00000000000E+00 -0.12220296674E+04  0.12220296674E+04  0.25500000920E-02 0. -1.
    10030    2    1    2    0    0  0.00000000000E+00  0.00000000000E+00 -0.27197748172E+02  0.24168615867E+04  0.24167085492E+04 0.  0.
        2    1    3    3  502    0  0.64491835781E+03 -0.11291381471E+03 -0.10292668671E+04  0.12198604435E+04  0.25500000920E-02 0. -1.
       -2    1    3    3    0  502 -0.64491835781E+03  0.11291381471E+03  0.10020691189E+04  0.11970011432E+04  0.25500000920E-02 0.  1.
</event>
<event>
 5   0  0.2943244E-05  0.2405619E+04  0.7818609E-02  0.8437403E-01
       -1   -1    0    0    0  501  0.00000000000E+00  0.00000000000E+00  0.10017983692E+04  0.10017983692E+04  0.50400001928E-02 0.  1.
        1   -1    0    0  501    0  0.00000000000E+00  0.00000000000E+00 -0.14441541169E+04  0.14441541170E+04  0.50400001928E-02 0. -1.
    10030    2    1    2    0    0  0.00000000000E+00  0.00000000000E+00 -0.44235574779E+03  0.24459524861E+04  0.24056194539E+04 0.  0.
        3    1    3    3  502    0 -0.61966164965E+03  0.97592941049E+03  0.11655452865E+03  0.11618966144E+04  0.10100000352E+00 0.  1.
       -3    1    3    3    0  502  0.61966164965E+03 -0.97592941049E+03 -0.55891027644E+03  0.12840558717E+04  0.10100000352E+00 0. -1.
</event>
<event>
 5   0  0.2339125E-05  0.2352949E+04  0.7818609E-02  0.8457332E-01
       -3   -1    0    0    0  501  0.00000000000E+00  0.00000000000E+00  0.11996351326E+04  0.11996351369E+04  0.10100000352E+00 0.  1.
        3   -1    0    0  501    0  0.00000000000E+00  0.00000000000E+00 -0.11537614182E+04  0.11537614226E+04  0.10100000352E+00 0. -1.
    10030    2    1    2    0    0  0.00000000000E+00  0.00000000000E+00  0.45873714408E+02  0.23533965595E+04  0.23529494191E+04 0.  0.
        5    1    3    3  502    0 -0.82710567759E+03  0.20366066540E+03 -0.78869081490E+03  0.11608775819E+04  0.46999998093E+01 0. -1.
       -5    1    3    3    0  502  0.82710567759E+03 -0.20366066540E+03  0.83456452931E+03  0.11925189777E+04  0.46999998093E+01 0.  1.
</event>
<event>
 5   0  0.2943123E-05  0.2188514E+04  0.7818609E-02  0.8523224E-01
        1   -1    0    0  501    0  0.00000000000E+00  0.00000000000E+00  0.16155473467E+04  0.16155473467E+04  0.50400001928E-02 0. -1.
       -1   -1    0    0    0  501  0.00000000000E+00  0.00000000000E+00 -0.74117185143E+03  0.74117185145E+03  0.50400001928E-02 0.  1.
    10030    2    1    2    0    0  0.00000000000E+00  0.00000000000E+00  0.87437549523E+03  0.23567191981E+04  0.21885138501E+04 0.  0.
        1    1    3    3  502    0  0.71516501257E+03  0.33610767650E+03  0.12523124358E+04  0.14807821590E+04  0.50400001928E-02 0. -1.
       -1    1    3    3    0  502 -0.71516501257E+03 -0.33610767650E+03 -0.37793694062E+03  0.87593703913E+03  0.50400001928E-02 0.  1.
</event>
<event>
 5   0  0.2915546E-05  0.2390277E+04  0.7818609E-02  0.8443153E-01
       -1   -1    0    0    0  501  0.00000000000E+00  0.00000000000E+00  0.73816081434E+03  0.73816081435E+03  0.50400001928E-02 0.  1.
        1   -1    0    0  501    0  0.00000000000E+00  0.00000000000E+00 -0.19350195214E+04  0.19350195214E+04  0.50400001928E-02 0. -1.
    10030    2    1    2    0    0  0.00000000000E+00  0.00000000000E+00 -0.11968587071E+04  0.26731803357E+04  0.23902766247E+04 0.  0.
        2    1    3    3  502    0 -0.76059075228E+03  0.14386256693E+02 -0.16292905879E+04  0.17981360006E+04  0.25500000920E-02 0.  1.
       -2    1    3    3    0  502  0.76059075228E+03 -0.14386256693E+02  0.43243188087E+03  0.87504433513E+03  0.25500000920E-02 0. -1.
</event>
<event>
 5   0  0.6703961E-05  0.2437831E+04  0.7818609E-02  0.8425474E-01
       -2   -1    0    0    0  501  0.00000000000E+00  0.00000000000E+00  0.86362275023E+03  0.86362275023E+03  0.25500000920E-02 0. -1.
        2   -1    0    0  501    0  0.00000000000E+00  0.00000000000E+00 -0.17203753707E+04  0.17203753707E+04  0.25500000920E-02 0.  1.
    10030    2    1    2    0    0  0.00000000000E+00  0.00000000000E+00 -0.85675262052E+03  0.25839981210E+04  0.24378312568E+04 0.  0.
        2    1    3    3  502    0 -0.74681139604E+03  0.74490783004E+03 -0.10758537979E+04  0.15066772484E+04  0.25500000920E-02 0.  1.
       -2    1    3    3    0  502  0.74681139604E+03 -0.74490783004E+03  0.21910117736E+03  0.10773208726E+04  0.25500000920E-02 0. -1.
</event>
<event>
 5   0  0.6600166E-05  0.2187562E+04  0.7818609E-02  0.8523623E-01
        2   -1    0    0  501    0  0.00000000000E+00  0.00000000000E+00  0.78186541733E+03  0.78186541733E+03  0.25500000920E-02 0. -1.
       -2   -1    0    0    0  501  0.00000000000E+00  0.00000000000E+00 -0.15301311251E+04  0.15301311251E+04  0.25500000920E-02 0.  1.
    10030    2    1    2    0    0  0.00000000000E+00  0.00000000000E+00 -0.74826570781E+03  0.23119965425E+04  0.21875617575E+04 0.  0.
        5    1    3    3  502    0 -0.35455932238E+03  0.96102359836E+03  0.31159128194E+02  0.10248276201E+04  0.46999998093E+01 0. -1.
       -5    1    3    3    0  502  0.35455932238E+03 -0.96102359836E+03 -0.77942483601E+03  0.12871689224E+04  0.46999998093E+01 0.  1.
</event>
<event>
 5   0  0.2943123E-05  0.2408091E+04  0.7818609E-02  0.8436480E-01
        1   -1    0    0  501    0  0.00000000000E+00  0.00000000000E+00  0.22975392647E+04  0.22975392647E+04  0.50400001928E-02 0. -1.
       -1   -1    0    0    0  501  0.00000000000E+00  0.00000000000E+00 -0.63099077982E+03  0.63099077984E+03  0.50400001928E-02 0.  1.
    10030    2    1    2    0    0  0.00000000000E+00  0.00000000000E+00  0.16665484849E+04  0.29285300445E+04  0.24080914371E+04 0.  0.
        1    1    3    3  502    0 -0.41662845342E+03  0.88650350446E+03  0.16847831881E+04  0.19488360943E+04  0.50400001928E-02 0. -1.
       -1    1    3    3    0  502  0.41662845342E+03 -0.88650350446E+03 -0.18234703244E+02  0.97969395020E+03  0.50400001928E-02 0.  1.
</event>
<event>
 5   0  0.6337926E-05  0.2352480E+04  0.7818609E-02  0.8457512E-01
       -2   -1    0    0    0  501  0.00000000000E+00  0.00000000000E+00  0.12416635968E+04  0.12416635968E+04  0.25500000920E-02 0. -1.
        2   -1    0    0  501    0  0.00000000000E+00  0.00000000000E+00 -0.11142632818E+04  0.11142632818E+04  0.25500000920E-02 0.  1.
    10030    2    1    2    0    0  0.00000000000E+00  0.00000000000E+00  0.12740031499E+03  0.23559268786E+04  0.23524796741E+04 0.  0.
        1    1    3    3  502    0  0.11439439790E+04  0.26072058273E+03  0.14723164274E+03  0.11824805309E+04  0.50400001928E-02 0. -1.
       -1    1    3    3    0  502 -0.11439439790E+04 -0.26072058273E+03 -0.19831327750E+02  0.11734463477E+04  0.50400001928E-02 0.  1.
</event>
<event>
 5   0  0.2943123E-05  0.2376251E+04  0.7818609E-02  0.8448449E-01
       -1   -1    0    0    0  501  0.00000000000E+00  0.00000000000E+00  0.11805057595E+04  0.11805057595E+04  0.50400001928E-02 0.  1.
        1   -1    0    0  501    0  0.00000000000E+00  0.00000000000E+00 -0.11957942932E+04  0.11957942932E+04  0.50400001928E-02 0. -1.
    10030    2    1    2    0    0  0.00000000000E+00  0.00000000000E+00 -0.15288533686E+02  0.23763000526E+04  0.23762508708E+04 0.  0.
        1    1    3    3  502    0 -0.93924417651E+03 -0.63330537479E+03 -0.36596262239E+03  0.11904553590E+04  0.50400001928E-02 0. -1.
       -1    1    3    3    0  502  0.93924417651E+03  0.63330537479E+03  0.35067408870E+03  0.11858446936E+04  0.50400001928E-02 0.  1.
</event>
<event>
 5   0  0.6600166E-05  0.2366321E+04  0.7818609E-02  0.8452221E-01
        2   -1    0    0  501    0  0.00000000000E+00  0.00000000000E+00  0.18161307240E+04  0.18161307240E+04  0.25500000920E-02 0.  1.
       -2   -1    0    0    0  501  0.00000000000E+00  0.00000000000E+00 -0.77079762176E+03  0.77079762176E+03  0.25500000920E-02 0. -1.
    10030    2    1    2    0    0  0.00000000000E+00  0.00000000000E+00  0.10453331022E+04  0.25869283457E+04  0.23663214007E+04 0.  0.
        5    1    3    3  502    0 -0.91495825457E+03  0.57018749581E+03 -0.10201843384E+02  0.10781412503E+04  0.46999998093E+01 0. -1.
       -5    1    3    3    0  502  0.91495825457E+03 -0.57018749581E+03  0.10555349456E+04  0.15087870954E+04  0.46999998093E+01 0.  1.
</event>
<event>
 5   0  0.6337926E-05  0.2405972E+04  0.7818609E-02  0.8437271E-01
        2   -1    0    0  501    0  0.00000000000E+00  0.00000000000E+00  0.90680860119E+03  0.90680860119E+03  0.25500000920E-02 0.  1.
       -2   -1    0    0    0  501  0.00000000000E+00  0.00000000000E+00 -0.15958991869E+04  0.15958991869E+04  0.25500000920E-02 0. -1.
    10030    2    1    2    0    0  0.00000000000E+00  0.00000000000E+00 -0.68909058573E+03  0.25027077881E+04  0.24059718280E+04 0.  0.
        1    1    3    3  502    0  0.47948285776E+03  0.37035140438E+02 -0.14915586685E+04  0.15671702761E+04  0.50400001928E-02 0. -1.
       -1    1    3    3    0  502 -0.47948285776E+03 -0.37035140438E+02  0.80246808279E+03  0.93553751204E+03  0.50400001928E-02 0.  1.
</event>
<event>
 5   0  0.6600166E-05  0.2786711E+04  0.7818609E-02  0.8307406E-01
        2   -1    0    0  501    0  0.00000000000E+00  0.00000000000E+00  0.18957220717E+04  0.18957220717E+04  0.25500000920E-02 0. -1.
       -2   -1    0    0    0  501  0.00000000000E+00  0.00000000000E+00 -0.10241162516E+04  0.10241162516E+04  0.25500000920E-02 0.  1.
    10030    2    1    2    0    0  0.00000000000E+00  0.00000000000E+00  0.87160582010E+03  0.29198383234E+04  0.27867111671E+04 0.  0.
        5    1    3    3  502    0  0.13764290885E+04 -0.11957085263E+03  0.62487706650E+03  0.15163600043E+04  0.46999998093E+01 0.  1.
       -5    1    3    3    0  502 -0.13764290885E+04  0.11957085263E+03  0.24672875360E+03  0.14034783191E+04  0.46999998093E+01 0. -1.
</event>
<event>
 5   0  0.6600166E-05  0.2347214E+04  0.7818609E-02  0.8459535E-01
        2   -1    0    0  501    0  0.00000000000E+00  0.00000000000E+00  0.11950019550E+04  0.11950019550E+04  0.25500000920E-02 0.  1.
       -2   -1    0    0    0  501  0.00000000000E+00  0.00000000000E+00 -0.11525948849E+04  0.11525948849E+04  0.25500000920E-02 0. -1.
    10030    2    1    2    0    0  0.00000000000E+00  0.00000000000E+00  0.42407070089E+02  0.23475968398E+04  0.23472137872E+04 0.  0.
        5    1    3    3  502    0 -0.33245581183E+02  0.11501291146E+04  0.25238796761E+03  0.11779745435E+04  0.46999998093E+01 0.  1.
       -5    1    3    3    0  502  0.33245581183E+02 -0.11501291146E+04 -0.20998089752E+03  0.11696222964E+04  0.46999998093E+01 0. -1.
</event>
<event>
 5   0  0.2339125E-05  0.2386061E+04  0.7818609E-02  0.8444741E-01
       -4   -1    0    0    0  501  0.00000000000E+00  0.00000000000E+00  0.14108767465E+04  0.14108773181E+04  0.12699999809E+01 0. -1.
        4   -1    0    0  501    0  0.00000000000E+00  0.00000000000E+00 -0.10088196876E+04  0.10088204870E+04  0.12699999809E+01 0.  1.
    10030    2    1    2    0    0  0.00000000000E+00  0.00000000000E+00  0.40205705887E+03  0.24196978051E+04  0.23860611035E+04 0.  0.
        4    1    3    3  502    0 -0.16893409775E+02  0.11102741125E+04  0.64344263274E+03  0.12833604430E+04  0.12699999809E+01 0.  1.
       -4    1    3    3    0  502  0.16893409775E+02 -0.11102741125E+04 -0.24138557387E+03  0.11363373621E+04  0.12699999809E+01 0. -1.
</event>
<event>
 5   0  0.6337926E-05  0.2493589E+04  0.7818609E-02  0.8405273E-01
        2   -1    0    0  501    0  0.00000000000E+00  0.00000000000E+00  0.15229244863E+04  0.15229244863E+04  0.25500000920E-02 0.  1.
       -2   -1    0    0    0  501  0.00000000000E+00  0.00000000000E+00 -0.10207309727E+04  0.10207309727E+04  0.25500000920E-02 0. -1.
    10030    2    1    2    0    0  0.00000000000E+00  0.00000000000E+00  0.50219351362E+03  0.25436554590E+04  0.24935887329E+04 0.  0.
        1    1    3    3  502    0  0.11140636529E+04  0.50623194213E+03  0.49482413344E+03  0.13199467887E+04  0.50400001928E-02 0.  1.
       -1    1    3    3    0  502 -0.11140636529E+04 -0.50623194213E+03  0.73693801876E+01  0.12237086703E+04  0.50400001928E-02 0. -1.
</event>
<event>
 5   0  0.2915546E-05  0.1750342E+04  0.7818609E-02  0.8733162E-01
       -1   -1    0    0    0  501  0.00000000000E+00  0.00000000000E+00  0.55526387801E+03  0.55526387804E+03  0.50400001928E-02 0.  1.
        1   -1    0    0  501    0  0.00000000000E+00  0.00000000000E+00 -0.13793881659E+04  0.13793881659E+04  0.50400001928E-02 0. -1.
    10030    2    1    2    0    0  0.00000000000E+00  0.00000000000E+00 -0.82412428785E+03  0.19346520439E+04  0.17503421635E+04 0.  0.
        2    1    3    3  502    0  0.41294325260E+03  0.50963278463E+03  0.22832192856E+03  0.69453481418E+03  0.25500000920E-02 0.  1.
       -2    1    3    3    0  502 -0.41294325260E+03 -0.50963278463E+03 -0.10524462164E+04  0.12401172297E+04  0.25500000920E-02 0. -1.
</event>
<event>
 5   0  0.6978115E-05  0.2380632E+04  0.7818609E-02  0.8446791E-01
       -2   -1    0    0    0  501  0.00000000000E+00  0.00000000000E+00  0.83330202937E+03  0.83330202937E+03  0.25500000920E-02 0. -1.
        2   -1    0    0  501    0  0.00000000000E+00  0.00000000000E+00 -0.17002859151E+04  0.17002859151E+04  0.25500000920E-02 0.  1.
    10030    2    1    2    0    0  0.00000000000E+00  0.00000000000E+00 -0.86698388572E+03  0.25335879445E+04  0.23806315999E+04 0.  0.
        4    1    3    3  502    0 -0.70294902175E+03  0.14950658093E+03 -0.14433306606E+04  0.16123568319E+04  0.12699999809E+01 0.  1.
       -4    1    3    3    0  502  0.70294902175E+03 -0.14950658093E+03  0.57634677484E+03  0.92123111252E+03  0.12699999809E+01 0. -1.
</event>
<event>
 5   0  0.2943244E-05  0.2416581E+04  0.7818609E-02  0.8433322E-01
       -1   -1    0    0    0  501  0.00000000000E+00  0.00000000000E+00  0.82748603034E+03  0.82748603036E+03  0.50400001928E-02 0. -1.
        1   -1    0    0  501    0  0.00000000000E+00  0.00000000000E+00 -0.17643397968E+04  0.17643397968E+04  0.50400001928E-02 0.  1.
    10030    2    1    2    0    0  0.00000000000E+00  0.00000000000E+00 -0.93685376646E+03  0.25918258272E+04  0.24165814984E+04 0.  0.
        3    1    3    3  502    0  0.58163302957E+03 -0.45114725282E+03 -0.14961066455E+04  0.16673829583E+04  0.10100000352E+00 0.  1.
       -3    1    3    3    0  502 -0.58163302957E+03  0.45114725282E+03  0.55925287905E+03  0.92444286883E+03  0.10100000352E+00 0. -1.
</event>
<event>
 5   0  0.6714629E-05  0.2412576E+04  0.7818609E-02  0.8434810E-01
       -2   -1    0    0    0  501  0.00000000000E+00  0.00000000000E+00  0.11409837651E+04  0.11409837651E+04  0.25500000920E-02 0.  1.
        2   -1    0    0  501    0  0.00000000000E+00  0.00000000000E+00 -0.12753297923E+04  0.12753297923E+04  0.25500000920E-02 0. -1.
    10030    2    1    2    0    0  0.00000000000E+00  0.00000000000E+00 -0.13434602724E+03  0.24163135574E+04  0.24125758750E+04 0.  0.
        3    1    3    3  502    0 -0.94758356726E+03 -0.25912713304E+03  0.63396088582E+03  0.11691740260E+04  0.10100000352E+00 0. -1.
       -3    1    3    3    0  502  0.94758356726E+03  0.25912713304E+03 -0.76830691306E+03  0.12471395314E+04  0.10100000352E+00 0.  1.
</event>
<event>
 5   0  0.2901816E-05  0.2436539E+04  0.7818609E-02  0.8425949E-01
       -1   -1    0    0    0  501  0.00000000000E+00  0.00000000000E+00  0.82489552183E+03  0.82489552184E+03  0.50400001928E-02 0. -1.
        1   -1    0    0  501    0  0.00000000000E+00  0.00000000000E+00 -0.17992345563E+04  0.17992345563E+04  0.50400001928E-02 0.  1.
    10030    2    1    2    0    0  0.00000000000E+00  0.00000000000E+00 -0.97433903444E+03  0.26241300781E+04  0.24365389619E+04 0.  0.
        4    1    3    3  502    0 -0.96409743151E+01  0.99323103887E+03 -0.12468703711E+04  0.15941418319E+04  0.12699999809E+01 0.  1.
       -4    1    3    3    0  502  0.96409743151E+01 -0.99323103887E+03  0.27253133668E+03  0.10299882462E+04  0.12699999809E+01 0. -1.
</event>
<event>
 5   0  0.6337926E-05  0.2415178E+04  0.7818609E-02  0.8433843E-01
       -2   -1    0    0    0  501  0.00000000000E+00  0.00000000000E+00  0.16844141417E+04  0.16844141417E+04  0.25500000920E-02 0.  1.
        2   -1    0    0  501    0  0.00000000000E+00  0.00000000000E+00 -0.86574409326E+03  0.86574409327E+03  0.25500000920E-02 0. -1.
    10030    2    1    2    0    0  0.00000000000E+00  0.00000000000E+00  0.81867004844E+03  0.25501582350E+04  0.24151783320E+04 0.  0.
        1    1    3    3  502    0 -0.86140121672E+03  0.80231951225E+03  0.69372579286E+03  0.13663762775E+04  0.50400001928E-02 0.  1.
       -1    1    3    3    0  502  0.86140121672E+03 -0.80231951225E+03  0.12494425558E+03  0.11837819575E+04  0.50400001928E-02 0. -1.
</event>
<event>
 5   0  0.2847158E-05  0.2375675E+04  0.7818609E-02  0.8448667E-01
        1   -1    0    0  501    0  0.00000000000E+00  0.00000000000E+00  0.96737702393E+03  0.96737702395E+03  0.50400001928E-02 0.  1.
       -1   -1    0    0    0  501  0.00000000000E+00  0.00000000000E+00 -0.14585402957E+04  0.14585402957E+04  0.50400001928E-02 0. -1.
    10030    2    1    2    0    0  0.00000000000E+00  0.00000000000E+00 -0.49116327175E+03  0.24259173196E+04  0.23756753739E+04 0.  0.
        5    1    3    3  502    0 -0.34816676445E+03  0.11878530203E+03  0.90773144079E+03  0.97945316501E+03  0.46999998093E+01 0.  1.
       -5    1    3    3    0  502  0.34816676445E+03 -0.11878530203E+03 -0.13988947125E+04  0.14464641546E+04  0.46999998093E+01 0. -1.
</event>
<event>
 5   0  0.2901816E-05  0.1768934E+04  0.7818609E-02  0.8722997E-01
       -1   -1    0    0    0  501  0.00000000000E+00  0.00000000000E+00  0.57065790936E+03  0.57065790938E+03  0.50400001928E-02 0. -1.
        1   -1    0    0  501    0  0.00000000000E+00  0.00000000000E+00 -0.13708425033E+04  0.13708425034E+04  0.50400001928E-02 0.  1.
    10030    2    1    2    0    0  0.00000000000E+00  0.00000000000E+00 -0.80018459399E+03  0.19415004127E+04  0.17689342747E+04 0.  0.
        4    1    3    3  502    0 -0.63090519090E+03 -0.15430050523E+02 -0.10802224051E+04  0.12510641485E+04  0.12699999809E+01 0.  1.
       -4    1    3    3    0  502  0.63090519090E+03  0.15430050523E+02  0.28003781112E+03  0.69043626420E+03  0.12699999809E+01 0. -1.
</event>
<event>
 5   0  0.6714629E-05  0.2319356E+04  0.7818609E-02  0.8470328E-01
       -2   -1    0    0    0  501  0.00000000000E+00  0.00000000000E+00  0.91086797862E+03  0.91086797863E+03  0.25500000920E-02 0. -1.
        2   -1    0    0  501    0  0.00000000000E+00  0.00000000000E+00 -0.14764526129E+04  0.14764526129E+04  0.25500000920E-02 0.  1.
    10030    2    1    2    0    0  0.00000000000E+00  0.00000000000E+00 -0.56558463426E+03  0.23873205915E+04  0.23193562961E+04 0.  0.
        3    1    3    3  502    0 -0.10006052149E+04 -0.39891822595E+03 -0.72492184596E+03  0.12984060382E+04  0.10100000352E+00 0.  1.
       -3    1    3    3    0  502  0.10006052149E+04  0.39891822595E+03  0.15933721171E+03  0.10889145533E+04  0.10100000352E+00 0. -1.
</event>
<event>
 5   0  0.2847158E-05  0.2293402E+04  0.7818609E-02  0.8480527E-01
        1   -1    0    0  501    0  0.00000000000E+00  0.00000000000E+00  0.18363297076E+04  0.18363297076E+04  0.50400001928E-02 0. -1.
       -1   -1    0    0    0  501  0.00000000000E+00  0.00000000000E+00 -0.71606069621E+03  0.71606069622E+03  0.50400001928E-02 0.  1.
    10030    2    1    2    0    0  0.00000000000E+00  0.00000000000E+00  0.11202690113E+04  0.25523904038E+04  0.22934023013E+04 0.  0.
        5    1    3    3  502    0 -0.34501873719E+03  0.41612277355E+03 -0.56535674311E+03  0.78220612926E+03  0.46999998093E+01 0.  1.
       -5    1    3    3    0  502  0.34501873719E+03 -0.41612277355E+03  0.16856257545E+04  0.17701842745E+04  0.46999998093E+01 0. -1.
</event>
<event>
 5   0  0.2943244E-05  0.2402805E+04  0.7818609E-02  0.8438454E-01
       -1   -1    0    0    0  501  0.00000000000E+00  0.00000000000E+00  0.95902064571E+03  0.95902064572E+03  0.50400001928E-02 0.  1.
        1   -1    0    0  501    0  0.00000000000E+00  0.00000000000E+00 -0.15050435190E+04  0.15050435190E+04  0.50400001928E-02 0. -1.
    10030    2    1    2    0    0  0.00000000000E+00  0.00000000000E+00 -0.54602287325E+03  0.24640641647E+04  0.24028048671E+04 0.  0.
        3    1    3    3  502    0 -0.22308181386E+03  0.10377000205E+04  0.30417092560E+03  0.11041316907E+04  0.10100000352E+00 0. -1.
       -3    1    3    3    0  502  0.22308181386E+03 -0.10377000205E+04 -0.85019379885E+03  0.13599324740E+04  0.10100000352E+00 0.  1.
</event>
<event>
 5   0  0.2915546E-05  0.2403503E+04  0.7818609E-02  0.8438193E-01
        1   -1    0    0  501    0  0.00000000000E+00  0.00000000000E+00  0.14059653489E+04  0.14059653489E+04  0.50400001928E-02 0. -1.
       -1   -1    0    0    0  501  0.00000000000E+00  0.00000000000E+00 -0.10271991230E+04  0.10271991230E+04  0.50400001928E-02 0.  1.
    10030    2    1    2    0    0  0.00000000000E+00  0.00000000000E+00  0.37876622591E+03  0.24331644719E+04  0.24035027550E+04 0.  0.
        2    1    3    3  502    0 -0.53694651374E+03 -0.53156138800E+03 -0.75667507350E+03  0.10693111029E+04  0.25500000920E-02 0.  1.
       -2    1    3    3    0  502  0.53694651374E+03  0.53156138800E+03  0.11354412994E+04  0.13638533690E+04  0.25500000920E-02 0. -1.
</event>
<event>
 5   0  0.6703961E-05  0.2376800E+04  0.7818609E-02  0.8448241E-01
       -2   -1    0    0    0  501  0.00000000000E+00  0.00000000000E+00  0.13267382684E+04  0.13267382684E+04  0.25500000920E-02 0.  1.
        2   -1    0    0  501    0  0.00000000000E+00  0.00000000000E+00 -0.10644865672E+04  0.10644865672E+04  0.25500000920E-02 0. -1.
    10030    2    1    2    0    0  0.00000000000E+00  0.00000000000E+00  0.26225170118E+03  0.23912248357E+04  0.23768004249E+04 0.  0.
        2    1    3    3  502    0  0.44272804947E+03 -0.10084740261E+04  0.58022835030E+03  0.12448666296E+04  0.25500000920E-02 0.  1.
       -2    1    3    3    0  502 -0.44272804947E+03  0.10084740261E+04 -0.31797664912E+03  0.11463582060E+04  0.25500000920E-02 0. -1.
</event>
<event>
 5   0  0.2915546E-05  0.2429026E+04  0.7818609E-02  0.8428716E-01
       -1   -1    0    0    0  501  0.00000000000E+00  0.00000000000E+00  0.18933910662E+04  0.18933910662E+04  0.50400001928E-02 0. -1.
        1   -1    0    0  501    0  0.00000000000E+00  0.00000000000E+00 -0.77904737285E+03  0.77904737286E+03  0.50400001928E-02 0.  1.
    10030    2    1    2    0    0  0.00000000000E+00  0.00000000000E+00  0.11143436934E+04  0.26724384391E+04  0.24290255955E+04 0.  0.
        2    1    3    3  502    0 -0.26209636246E+03 -0.11249041575E+04  0.97020874728E+03  0.15084458492E+04  0.25500000920E-02 0. -1.
       -2    1    3    3    0  502  0.26209636246E+03  0.11249041575E+04  0.14413494611E+03  0.11639925899E+04  0.25500000920E-02 0.  1.
</event>
<event>
 5   0  0.2915546E-05  0.2293728E+04  0.7818609E-02  0.8480398E-01
        1   -1    0    0  501    0  0.00000000000E+00  0.00000000000E+00  0.11771091066E+04  0.11771091066E+04  0.50400001928E-02 0. -1.
       -1   -1    0    0    0  501  0.00000000000E+00  0.00000000000E+00 -0.11173963533E+04  0.11173963534E+04  0.50400001928E-02 0.  1.
    10030    2    1    2    0    0  0.00000000000E+00  0.00000000000E+00  0.59712753213E+02  0.22945054599E+04  0.22937283389E+04 0.  0.
        2    1    3    3  502    0 -0.73723531344E+03 -0.68461490565E+03  0.58057350253E+03  0.11615847228E+04  0.25500000920E-02 0. -1.
       -2    1    3    3    0  502  0.73723531344E+03  0.68461490565E+03 -0.52086074932E+03  0.11329207371E+04  0.25500000920E-02 0.  1.
</event>
<event>
 5   0  0.2943244E-05  0.2440987E+04  0.7818609E-02  0.8424316E-01
        1   -1    0    0  501    0  0.00000000000E+00  0.00000000000E+00  0.16098102509E+04  0.16098102509E+04  0.50400001928E-02 0.  1.
       -1   -1    0    0    0  501  0.00000000000E+00  0.00000000000E+00 -0.92532909332E+03  0.92532909334E+03  0.50400001928E-02 0. -1.
    10030    2    1    2    0    0  0.00000000000E+00  0.00000000000E+00  0.68448115754E+03  0.25351393442E+04  0.24409868987E+04 0.  0.
        3    1    3    3  502    0 -0.10590062302E+04  0.15556427696E+03 -0.26681744492E+03  0.11031255590E+04  0.10100000352E+00 0. -1.
       -3    1    3    3    0  502  0.10590062302E+04 -0.15556427696E+03  0.95129860246E+03  0.14320137852E+04  0.10100000352E+00 0.  1.
</event>
<event>
 5   0  0.6337926E-05  0.2291063E+04  0.7818609E-02  0.8481453E-01
        2   -1    0    0  501    0  0.00000000000E+00  0.00000000000E+00  0.23190584056E+04  0.23190584056E+04  0.25500000920E-02 0. -1.
       -2   -1    0    0    0  501  0.00000000000E+00  0.00000000000E+00 -0.56585145560E+03  0.56585145561E+03  0.25500000920E-02 0.  1.
    10030    2    1    2    0    0  0.00000000000E+00  0.00000000000E+00  0.17532069500E+04  0.28849098612E+04  0.22910631370E+04 0.  0.
        1    1    3    3  502    0 -0.22945155217E+03  0.45069384128E+03 -0.41766298614E+03  0.65590801442E+03  0.50400001928E-02 0.  1.
       -1    1    3    3    0  502  0.22945155217E+03 -0.45069384128E+03  0.21708699362E+04  0.22290018468E+04  0.50400001928E-02 0. -1.
</event>
<event>
 5   0  0.6978115E-05  0.2416369E+04  0.7818609E-02  0.8433400E-01
        2   -1    0    0  501    0  0.00000000000E+00  0.00000000000E+00  0.12658907737E+04  0.12658907737E+04  0.25500000920E-02 0. -1.
       -2   -1    0    0    0  501  0.00000000000E+00  0.00000000000E+00 -0.11531090933E+04  0.11531090933E+04  0.25500000920E-02 0.  1.
    10030    2    1    2    0    0  0.00000000000E+00  0.00000000000E+00  0.11278168037E+03  0.24189998670E+04  0.24163693114E+04 0.  0.
        4    1    3    3  502    0 -0.20774795558E+03  0.24370105646E+03 -0.11098491242E+04  0.11551260145E+04  0.12699999809E+01 0.  1.
       -4    1    3    3    0  502  0.20774795558E+03 -0.24370105646E+03  0.12226308045E+04  0.12638738525E+04  0.12699999809E+01 0. -1.
</event>
<event>
 5   0  0.2943123E-05  0.2384567E+04  0.7818609E-02  0.8445304E-01
       -1   -1    0    0    0  501  0.00000000000E+00  0.00000000000E+00  0.78039917316E+03  0.78039917318E+03  0.50400001928E-02 0.  1.
        1   -1    0    0  501    0  0.00000000000E+00  0.00000000000E+00 -0.18215550006E+04  0.18215550006E+04  0.50400001928E-02 0. -1.
    10030    2    1    2    0    0  0.00000000000E+00  0.00000000000E+00 -0.10411558274E+04  0.26019541737E+04  0.23845670604E+04 0.  0.
        1    1    3    3  502    0 -0.10271263803E+04 -0.57982417399E+03 -0.71068910003E+03  0.13770488992E+04  0.50400001928E-02 0. -1.
       -1    1    3    3    0  502  0.10271263803E+04  0.57982417399E+03 -0.33046672736E+03  0.12249052746E+04  0.50400001928E-02 0.  1.
</event>
<event>
 5   0  0.6337926E-05  0.2327277E+04  0.7818609E-02  0.8467243E-01
        2   -1    0    0  501    0  0.00000000000E+00  0.00000000000E+00  0.12638916579E+04  0.12638916579E+04  0.25500000920E-02 0.  1.
       -2   -1    0    0    0  501  0.00000000000E+00  0.00000000000E+00 -0.10713371563E+04  0.10713371563E+04  0.25500000920E-02 0. -1.
    10030    2    1    2    0    0  0.00000000000E+00  0.00000000000E+00  0.19255450162E+03  0.23352288142E+04  0.23272766012E+04 0.  0.
        1    1    3    3  502    0 -0.22194698501E+02  0.10567545433E+04  0.58459331346E+03  0.12078791792E+04  0.50400001928E-02 0.  1.
       -1    1    3    3    0  502  0.22194698501E+02 -0.10567545433E+04 -0.39203881183E+03  0.11273496349E+04  0.50400001928E-02 0. -1.
</event>
<event>
 5   0  0.6978115E-05  0.2388738E+04  0.7818609E-02  0.8443732E-01
       -2   -1    0    0    0  501  0.00000000000E+00  0.00000000000E+00  0.12152298775E+04  0.12152298775E+04  0.25500000920E-02 0. -1.
        2   -1    0    0  501    0  0.00000000000E+00  0.00000000000E+00 -0.11738658746E+04  0.11738658746E+04  0.25500000920E-02 0.  1.
    10030    2    1    2    0    0  0.00000000000E+00  0.00000000000E+00  0.41364002805E+02  0.23890957521E+04  0.23887376440E+04 0.  0.
        4    1    3    3  502    0 -0.10509272813E+04  0.44525954388E+03  0.37260270735E+03  0.12006409132E+04  0.12699999809E+01 0. -1.
       -4    1    3    3    0  502  0.10509272813E+04 -0.44525954388E+03 -0.33123870455E+03  0.11884548389E+04  0.12699999809E+01 0.  1.
</event>
<event>
 5   0  0.6600166E-05  0.2476387E+04  0.7818609E-02  0.8411446E-01
        2   -1    0    0  501    0  0.00000000000E+00  0.00000000000E+00  0.86940516966E+03  0.86940516967E+03  0.25500000920E-02 0.  1.
       -2   -1    0    0    0  501  0.00000000000E+00  0.00000000000E+00 -0.17634164583E+04  0.17634164583E+04  0.25500000920E-02 0. -1.
    10030    2    1    2    0    0  0.00000000000E+00  0.00000000000E+00 -0.89401128860E+03  0.26328216279E+04  0.24763871952E+04 0.  0.
        5    1    3    3  502    0  0.11119571278E+03 -0.77773352766E+03 -0.14644699446E+04  0.16619050019E+04  0.46999998093E+01 0. -1.
       -5    1    3    3    0  502 -0.11119571278E+03  0.77773352766E+03  0.57045865600E+03  0.97091662607E+03  0.46999998093E+01 0.  1.
</event>
<event>
 5   0  0.6337926E-05  0.2293955E+04  0.7818609E-02  0.8480308E-01
        2   -1    0    0  501    0  0.00000000000E+00  0.00000000000E+00  0.14785174739E+04  0.14785174739E+04  0.25500000920E-02 0. -1.
       -2   -1    0    0    0  501  0.00000000000E+00  0.00000000000E+00 -0.88978134044E+03  0.88978134045E+03  0.25500000920E-02 0.  1.
    10030    2    1    2    0    0  0.00000000000E+00  0.00000000000E+00  0.58873613344E+03  0.23682988143E+04  0.22939548904E+04 0.  0.
        1    1    3    3  502    0 -0.13488076387E+03  0.11369414628E+04  0.22337505568E+03  0.11665012326E+04  0.50400001928E-02 0. -1.
       -1    1    3    3    0  502  0.13488076387E+03 -0.11369414628E+04  0.36536107776E+03  0.12017975817E+04  0.50400001928E-02 0.  1.
</event>
<event>
 5   0  0.6600166E-05  0.1726147E+04  0.7818609E-02  0.8746591E-01
        2   -1    0    0  501    0  0.00000000000E+00  0.00000000000E+00  0.68995230769E+03  0.68995230769E+03  0.25500000920E-02 0.  1.
       -2   -1    0    0    0  501  0.00000000000E+00  0.00000000000E+00 -0.10796336000E+04  0.10796336000E+04  0.25500000920E-02 0. -1.
    10030    2    1    2    0    0  0.00000000000E+00  0.00000000000E+00 -0.38968129227E+03  0.17695859077E+04  0.17261468000E+04 0.  0.
        5    1    3    3  502    0  0.60326774614E+03  0.37623570475E+03  0.30674535401E+03  0.77433847977E+03  0.46999998093E+01 0. -1.
       -5    1    3    3    0  502 -0.60326774614E+03 -0.37623570475E+03 -0.69642664628E+03  0.99524742788E+03  0.46999998093E+01 0.  1.
</event>
<event>
 5   0  0.6337926E-05  0.2414965E+04  0.7818609E-02  0.8433922E-01
       -2   -1    0    0    0  501  0.00000000000E+00  0.00000000000E+00  0.64483175826E+03  0.64483175827E+03  0.25500000920E-02 0. -1.
        2   -1    0    0  501    0  0.00000000000E+00  0.00000000000E+00 -0.22610758916E+04  0.22610758916E+04  0.25500000920E-02 0.  1.
    10030    2    1    2    0    0  0.00000000000E+00  0.00000000000E+00 -0.16162441333E+04  0.29059076498E+04  0.24149646314E+04 0.  0.
        1    1    3    3  502    0 -0.19592313093E+03 -0.45725487848E+03 -0.21320416874E+04  0.21893080308E+04  0.50400001928E-02 0.  1.
       -1    1    3    3    0  502  0.19592313093E+03  0.45725487848E+03  0.51579755408E+03  0.71659961899E+03  0.50400001928E-02 0. -1.
</event>
<event>
 5   0  0.2901816E-05  0.2211092E+04  0.7818609E-02  0.8513826E-01
        1   -1    0    0  501    0  0.00000000000E+00  0.00000000000E+00  0.13939878685E+04  0.13939878685E+04  0.50400001928E-02 0. -1.
       -1   -1    0    0    0  501  0.00000000000E+00  0.00000000000E+00 -0.87678789236E+03  0.87678789238E+03  0.50400001928E-02 0.  1.
    10030    2    1    2    0    0  0.00000000000E+00  0.00000000000E+00  0.51719997617E+03  0.22707757609E+04  0.22110917532E+04 0.  0.
        4    1    3    3  502    0 -0.10532339523E+04 -0.30779587569E+03  0.39711090059E+03  0.11669356193E+04  0.12699999809E+01 0. -1.
       -4    1    3    3    0  502  0.10532339523E+04  0.30779587569E+03  0.12008907557E+03  0.11038401416E+04  0.12699999809E+01 0.  1.
</event>
<event>
 5   0  0.2943244E-05  0.2373815E+04  0.7818609E-02  0.8449372E-01
        1   -1    0    0  501    0  0.00000000000E+00  0.00000000000E+00  0.13029349053E+04  0.13029349053E+04  0.50400001928E-02 0. -1.
       -1   -1    0    0    0  501  0.00000000000E+00  0.00000000000E+00 -0.10812124578E+04  0.10812124578E+04  0.50400001928E-02 0.  1.
    10030    2    1    2    0    0  0.00000000000E+00  0.00000000000E+00  0.22172244753E+03  0.23841473631E+04  0.23738150318E+04 0.  0.
        3    1    3    3  502    0 -0.28718627791E+03 -0.69453818367E+02 -0.10436855445E+04  0.10847024094E+04  0.10100000352E+00 0.  1.
       -3    1    3    3    0  502  0.28718627791E+03  0.69453818367E+02  0.12654079920E+04  0.12994449536E+04  0.10100000352E+00 0. -1.
</event>
<event>
 5   0  0.6337926E-05  0.2376006E+04  0.7818609E-02  0.8448542E-01
        2   -1    0    0  501    0  0.00000000000E+00  0.00000000000E+00  0.12955054766E+04  0.12955054766E+04  0.25500000920E-02 0. -1.
       -2   -1    0    0    0  501  0.00000000000E+00  0.00000000000E+00 -0.10894210390E+04  0.10894210390E+04  0.25500000920E-02 0.  1.
    10030    2    1    2    0    0  0.00000000000E+00  0.00000000000E+00  0.20608443760E+03  0.23849265156E+04  0.23760058269E+04 0.  0.
        1    1    3    3  502    0  0.88232028837E+03 -0.38561847183E+03 -0.59538644537E+03  0.11321111767E+04  0.50400001928E-02 0.  1.
       -1    1    3    3    0  502 -0.88232028837E+03  0.38561847183E+03  0.80147088297E+03  0.12528153389E+04  0.50400001928E-02 0. -1.
</event>
<event>
 5   0  0.2915546E-05  0.2258052E+04  0.7818609E-02  0.8494647E-01
        1   -1    0    0  501    0  0.00000000000E+00  0.00000000000E+00  0.14484206152E+04  0.14484206152E+04  0.50400001928E-02 0.  1.
       -1   -1    0    0    0  501  0.00000000000E+00  0.00000000000E+00 -0.88006191061E+03  0.88006191062E+03  0.50400001928E-02 0. -1.
    10030    2    1    2    0    0  0.00000000000E+00  0.00000000000E+00  0.56835870460E+03  0.23284825258E+04  0.22580520933E+04 0.  0.
        2    1    3    3  502    0  0.88803343358E+03 -0.61376240393E+03  0.62524038133E+03  0.12474907623E+04  0.25500000920E-02 0. -1.
       -2    1    3    3    0  502 -0.88803343358E+03  0.61376240393E+03 -0.56881676736E+02  0.10809917635E+04  0.25500000920E-02 0.  1.
</event>
<event>
 5   0  0.6703961E-05  0.2384546E+04  0.7818609E-02  0.8445312E-01
        2   -1    0    0  501    0  0.00000000000E+00  0.00000000000E+00  0.10704381485E+04  0.10704381485E+04  0.25500000920E-02 0. -1.
       -2   -1    0    0    0  501  0.00000000000E+00  0.00000000000E+00 -0.13279752832E+04  0.13279752832E+04  0.25500000920E-02 0.  1.
    10030    2    1    2    0    0  0.00000000000E+00  0.00000000000E+00 -0.25753713463E+03  0.23984134317E+04  0.23845464168E+04 0.  0.
        2    1    3    3  502    0  0.79837003414E+03 -0.50555687498E+03 -0.85999906410E+03  0.12777248747E+04  0.25500000920E-02 0.  1.
       -2    1    3    3    0  502 -0.79837003414E+03  0.50555687498E+03  0.60246192947E+03  0.11206885570E+04  0.25500000920E-02 0. -1.
</event>
<event>
 5   0  0.2901816E-05  0.1905704E+04  0.7818609E-02  0.8652022E-01
        1   -1    0    0  501    0  0.00000000000E+00  0.00000000000E+00  0.27719900929E+04  0.27719900929E+04  0.50400001928E-02 0. -1.
       -1   -1    0    0    0  501  0.00000000000E+00  0.00000000000E+00 -0.32753608386E+03  0.32753608390E+03  0.50400001928E-02 0.  1.
    10030    2    1    2    0    0  0.00000000000E+00  0.00000000000E+00  0.24444540090E+04  0.30995261768E+04  0.19057038380E+04 0.  0.
        4    1    3    3  502    0 -0.29321028807E+02 -0.14120339669E+03 -0.30968143753E+03  0.34161722383E+03  0.12699999809E+01 0.  1.
       -4    1    3    3    0  502  0.29321028807E+02  0.14120339669E+03  0.27541354465E+04  0.27579089529E+04  0.12699999809E+01 0. -1.
</event>
<event>
 5   0  0.6600166E-05  0.2399662E+04  0.7818609E-02  0.8439630E-01
       -2   -1    0    0    0  501  0.00000000000E+00  0.00000000000E+00  0.12713401054E+04  0.12713401054E+04  0.25500000920E-02 0.  1.
        2   -1    0    0  501    0  0.00000000000E+00  0.00000000000E+00 -0.11323443114E+04  0.11323443115E+04  0.25500000920E-02 0. -1.
    10030    2    1    2    0    0  0.00000000000E+00  0.00000000000E+00  0.13899579392E+03  0.24036844168E+04  0.23996622564E+04 0.  0.
        5    1    3    3  502    0 -0.54953152270E+03 -0.10309041760E+04  0.34349675375E+03  0.12176865049E+04  0.46999998093E+01 0.  1.
       -5    1    3    3    0  502  0.54953152270E+03  0.10309041760E+04 -0.20450095983E+03  0.11859979119E+04  0.46999998093E+01 0. -1.
</event>
<event>
 5   0  0.2901816E-05  0.2316735E+04  0.7818609E-02  0.8471352E-01
       -1   -1    0    0    0  501  0.00000000000E+00  0.00000000000E+00  0.82216060469E+03  0.82216060471E+03  0.50400001928E-02 0. -1.
        1   -1    0    0  501    0  0.00000000000E+00  0.00000000000E+00 -0.16320592648E+04  0.16320592648E+04  0.50400001928E-02 0.  1.
    10030    2    1    2    0    0  0.00000000000E+00  0.00000000000E+00 -0.80989866015E+03  0.24542198696E+04  0.23167346262E+04 0.  0.
        4    1    3    3  502    0 -0.10658299411E+04 -0.83864609243E+01 -0.88546382327E+03  0.13856809125E+04  0.12699999809E+01 0.  1.
       -4    1    3    3    0  502  0.10658299411E+04  0.83864609243E+01  0.75565163118E+02  0.10685389571E+04  0.12699999809E+01 0. -1.
</event>
<event>
 5   0  0.6337926E-05  0.2407299E+04  0.7818609E-02  0.8436776E-01
        2   -1    0    0  501    0  0.00000000000E+00  0.00000000000E+00  0.20321011428E+04  0.20321011428E+04  0.25500000920E-02 0.  1.
       -2   -1    0    0    0  501  0.00000000000E+00  0.00000000000E+00 -0.71294320504E+03  0.71294320504E+03  0.25500000920E-02 0. -1.
    10030    2    1    2    0    0  0.00000000000E+00  0.00000000000E+00  0.13191579377E+04  0.27450443478E+04  0.24072994842E+04 0.  0.
        1    1    3    3  502    0 -0.10836420085E+04  0.44747571362E+03  0.34884308636E+03  0.12231950032E+04  0.50400001928E-02 0. -1.
       -1    1    3    3    0  502  0.10836420085E+04 -0.44747571362E+03  0.97031485138E+03  0.15218493446E+04  0.50400001928E-02 0.  1.
</event>
<event>
 5   0  0.2915546E-05  0.2366915E+04  0.7818609E-02  0.8451995E-01
        1   -1    0    0  501    0  0.00000000000E+00  0.00000000000E+00  0.15993849547E+04  0.15993849547E+04  0.50400001928E-02 0. -1.
       -1   -1    0    0    0  501  0.00000000000E+00  0.00000000000E+00 -0.87569372552E+03  0.87569372553E+03  0.50400001928E-02 0.  1.
    10030    2    1    2    0    0  0.00000000000E+00  0.00000000000E+00  0.72369122920E+03  0.24750786803E+04  0.23669147594E+04 0.  0.
        2    1    3    3  502    0  0.79214815224E+03  0.46791449779E+03 -0.41657031081E+03  0.10099373724E+04  0.25500000920E-02 0.  1.
       -2    1    3    3    0  502 -0.79214815224E+03 -0.46791449779E+03  0.11402615400E+04  0.14651413078E+04  0.25500000920E-02 0. -1.
</event>
<event>
 5   0  0.2915546E-05  0.1961340E+04  0.7818609E-02  0.8624912E-01
        1   -1    0    0  501    0  0.00000000000E+00  0.00000000000E+00  0.16637597050E+04  0.16637597050E+04  0.50400001928E-02 0. -1.
       -1   -1    0    0    0  501  0.00000000000E+00  0.00000000000E+00 -0.57803665030E+03  0.57803665032E+03  0.50400001928E-02 0.  1.
    10030    2    1    2    0    0  0.00000000000E+00  0.00000000000E+00  0.10857230547E+04  0.22417963553E+04  0.19613404465E+04 0.  0.
        2    1    3    3  502    0 -0.25571154922E+01 -0.94413454816E+03  0.84595382109E+03  0.12676886255E+04  0.25500000920E-02 0. -1.
       -2    1    3    3    0  502  0.25571154922E+01  0.94413454816E+03  0.23976923361E+03  0.97410772980E+03  0.25500000920E-02 0.  1.
</event>
<event>
 5   0  0.2943244E-05  0.2430578E+04  0.7818609E-02  0.8428143E-01
        1   -1    0    0  501    0  0.00000000000E+00  0.00000000000E+00  0.18122999490E+04  0.18122999490E+04  0.50400001928E-02 0. -1.
       -1   -1    0    0    0  501  0.00000000000E+00  0.00000000000E+00 -0.81494652385E+03  0.81494652387E+03  0.50400001928E-02 0.  1.
    10030    2    1    2    0    0  0.00000000000E+00  0.00000000000E+00  0.99735342514E+03  0.26272464729E+04  0.24305781564E+04 0.  0.
        3    1    3    3  502    0  0.64164444390E+03  0.77765204777E+02  0.16111115428E+04  0.17359249503E+04  0.10100000352E+00 0. -1.
       -3    1    3    3    0  502 -0.64164444390E+03 -0.77765204777E+02 -0.61375811765E+03  0.89132152259E+03  0.10100000352E+00 0.  1.
</event>
<event>
 5   0  0.2847158E-05  0.2486257E+04  0.7818609E-02  0.8407898E-01
        1   -1    0    0  501    0  0.00000000000E+00  0.00000000000E+00  0.25564629625E+04  0.25564629625E+04  0.50400001928E-02 0. -1.
       -1   -1    0    0    0  501  0.00000000000E+00  0.00000000000E+00 -0.60449476088E+03  0.60449476090E+03  0.50400001928E-02 0.  1.
    10030    2    1    2    0    0  0.00000000000E+00  0.00000000000E+00  0.19519682016E+04  0.31609577234E+04  0.24862569998E+04 0.  0.
        5    1    3    3  502    0  0.20468142882E+03 -0.10488329249E+04  0.17834819260E+04  0.20791283900E+04  0.46999998093E+01 0. -1.
       -5    1    3    3    0  502 -0.20468142882E+03  0.10488329249E+04  0.16848627564E+03  0.10818293335E+04  0.46999998093E+01 0.  1.
</event>
<event>
 5   0  0.2901816E-05  0.2392041E+04  0.7818609E-02  0.8442489E-01
       -1   -1    0    0    0  501  0.00000000000E+00  0.00000000000E+00  0.94806801398E+03  0.94806801399E+03  0.50400001928E-02 0.  1.
        1   -1    0    0  501    0  0.00000000000E+00  0.00000000000E+00 -0.15088205104E+04  0.15088205104E+04  0.50400001928E-02 0. -1.
    10030    2    1    2    0    0  0.00000000000E+00  0.00000000000E+00 -0.56075249640E+03  0.24568885244E+04  0.23920405220E+04 0.  0.
        4    1    3    3  502    0  0.53541084470E+03 -0.74033876643E+03 -0.10731138827E+04  0.14093762024E+04  0.12699999809E+01 0. -1.
       -4    1    3    3    0  502 -0.53541084470E+03  0.74033876643E+03  0.51236138628E+03  0.10475123220E+04  0.12699999809E+01 0.  1.
</event>
<event>
 5   0  0.6978115E-05  0.2359698E+04  0.7818609E-02  0.8454748E-01
        2   -1    0    0  501    0  0.00000000000E+00  0.00000000000E+00  0.13656048036E+04  0.13656048036E+04  0.25500000920E-02 0. -1.
       -2   -1    0    0    0  501  0.00000000000E+00  0.00000000000E+00 -0.10193602493E+04  0.10193602493E+04  0.25500000920E-02 0.  1.
    10030    2    1    2    0    0  0.00000000000E+00  0.00000000000E+00  0.34624455425E+03  0.23849650529E+04  0.23596976527E+04 0.  0.
        4    1    3    3  502    0 -0.97963992930E+03 -0.13784470450E+03  0.82292656714E+03  0.12868198403E+04  0.12699999809E+01 0. -1.
       -4    1    3    3    0  502  0.97963992930E+03  0.13784470450E+03 -0.47668201289E+03  0.10981452126E+04  0.12699999809E+01 0.  1.
</event>
<event>
 5   0  0.6337926E-05  0.2431293E+04  0.7818609E-02  0.8427880E-01
       -2   -1    0    0    0  501  0.00000000000E+00  0.00000000000E+00  0.11470595897E+04  0.11470595897E+04  0.25500000920E-02 0. -1.
        2   -1    0    0  501    0  0.00000000000E+00  0.00000000000E+00 -0.12883348661E+04  0.12883348661E+04  0.25500000920E-02 0.  1.
    10030    2    1    2    0    0  0.00000000000E+00  0.00000000000E+00 -0.14127527641E+03  0.24353944558E+04  0.24312933701E+04 0.  0.
        1    1    3    3  502    0  0.11030129704E+04 -0.26077287849E+03 -0.51087500141E+03  0.12432350438E+04  0.50400001928E-02 0.  1.
       -1    1    3    3    0  502 -0.11030129704E+04  0.26077287849E+03  0.36959972500E+03  0.11921594120E+04  0.50400001928E-02 0. -1.
</event>
<event>
 5   0  0.6600166E-05  0.2425442E+04  0.7818609E-02  0.8430039E-01
       -2   -1    0    0    0  501  0.00000000000E+00  0.00000000000E+00  0.14964820073E+04  0.14964820074E+04  0.25500000920E-02 0. -1.
        2   -1    0    0  501    0  0.00000000000E+00  0.00000000000E+00 -0.98276658333E+03  0.98276658333E+03  0.25500000920E-02 0.  1.
    10030    2    1    2    0    0  0.00000000000E+00  0.00000000000E+00  0.51371542402E+03  0.24792485907E+04  0.24254422355E+04 0.  0.
        5    1    3    3  502    0 -0.10057390609E+04 -0.43830326129E+03 -0.27137478393E+03  0.11301713015E+04  0.46999998093E+01 0.  1.
       -5    1    3    3    0  502  0.10057390609E+04  0.43830326129E+03  0.78509020795E+03  0.13490772891E+04  0.46999998093E+01 0. -1.
</event>
<event>
 5   0  0.6703961E-05  0.2443354E+04  0.7818609E-02  0.8423448E-01
       -2   -1    0    0    0  501  0.00000000000E+00  0.00000000000E+00  0.89809022810E+03  0.89809022811E+03  0.25500000920E-02 0.  1.
        2   -1    0    0  501    0  0.00000000000E+00  0.00000000000E+00 -0.16618539316E+04  0.16618539316E+04  0.25500000920E-02 0. -1.
    10030    2    1    2    0    0  0.00000000000E+00  0.00000000000E+00 -0.76376370351E+03  0.25599441597E+04  0.24433540689E+04 0.  0.
        2    1    3    3  502    0  0.23525611467E+03 -0.73823152855E+03  0.60773327206E+03  0.98471872086E+03  0.25500000920E-02 0.  1.
       -2    1    3    3    0  502 -0.23525611467E+03  0.73823152855E+03 -0.13714969756E+04  0.15752254389E+04  0.25500000920E-02 0. -1.
</event>
<event>
 5   0  0.2915546E-05  0.2375148E+04  0.7818609E-02  0.8448867E-01
        1   -1    0    0  501    0  0.00000000000E+00  0.00000000000E+00  0.11951532784E+04  0.11951532784E+04  0.50400001928E-02 0. -1.
       -1   -1    0    0    0  501  0.00000000000E+00  0.00000000000E+00 -0.11800425539E+04  0.11800425539E+04  0.50400001928E-02 0.  1.
    10030    2    1    2    0    0  0.00000000000E+00  0.00000000000E+00  0.15110724548E+02  0.23751958323E+04  0.23751477654E+04 0.  0.
        2    1    3    3  502    0  0.10752564295E+04 -0.49182770978E+02  0.50929890419E+03  0.11907899512E+04  0.25500000920E-02 0. -1.
       -2    1    3    3    0  502 -0.10752564295E+04  0.49182770978E+02 -0.49418817964E+03  0.11844058810E+04  0.25500000920E-02 0.  1.
</event>
<event>
 5   0  0.2943123E-05  0.2403133E+04  0.7818609E-02  0.8438332E-01
       -1   -1    0    0    0  501  0.00000000000E+00  0.00000000000E+00  0.69641200741E+03  0.69641200743E+03  0.50400001928E-02 0. -1.
        1   -1    0    0  501    0  0.00000000000E+00  0.00000000000E+00 -0.20731429792E+04  0.20731429792E+04  0.50400001928E-02 0.  1.
    10030    2    1    2    0    0  0.00000000000E+00  0.00000000000E+00 -0.13767309718E+04  0.27695549867E+04  0.24031326754E+04 0.  0.
        1    1    3    3  502    0  0.65789519107E+03 -0.92789894102E+03 -0.11346273204E+04  0.16066118646E+04  0.50400001928E-02 0.  1.
       -1    1    3    3    0  502 -0.65789519107E+03  0.92789894102E+03 -0.24210365145E+03  0.11629431221E+04  0.50400001928E-02 0. -1.
</event>
<event>
 5   0  0.6600166E-05  0.2433102E+04  0.7818609E-02  0.8427213E-01
        2   -1    0    0  501    0  0.00000000000E+00  0.00000000000E+00  0.16052043249E+04  0.16052043249E+04  0.25500000920E-02 0.  1.
       -2   -1    0    0    0  501  0.00000000000E+00  0.00000000000E+00 -0.92199906387E+03  0.92199906388E+03  0.25500000920E-02 0. -1.
    10030    2    1    2    0    0  0.00000000000E+00  0.00000000000E+00  0.68320526099E+03  0.25272033887E+04  0.24331024515E+04 0.  0.
        5    1    3    3  502    0 -0.61022813375E+03  0.90090223818E+03 -0.22347068898E+03  0.11108395279E+04  0.46999998093E+01 0. -1.
       -5    1    3    3    0  502  0.61022813375E+03 -0.90090223818E+03  0.90667594997E+03  0.14163638608E+04  0.46999998093E+01 0.  1.
</event>
<event>
 5   0  0.6337926E-05  0.2590920E+04  0.7818609E-02  0.8371292E-01
        2   -1    0    0  501    0  0.00000000000E+00  0.00000000000E+00  0.23584446662E+04  0.23584446662E+04  0.25500000920E-02 0.  1.
       -2   -1    0    0    0  501  0.00000000000E+00  0.00000000000E+00 -0.71157742709E+03  0.71157742709E+03  0.25500000920E-02 0. -1.
    10030    2    1    2    0    0  0.00000000000E+00  0.00000000000E+00  0.16468672391E+04  0.30700220933E+04  0.25909195182E+04 0.  0.
        1    1    3    3  502    0 -0.11476337276E+04 -0.11405993880E+03  0.15225774062E+04  0.19100562296E+04  0.50400001928E-02 0.  1.
       -1    1    3    3    0  502  0.11476337276E+04  0.11405993880E+03  0.12428983283E+03  0.11599658636E+04  0.50400001928E-02 0. -1.
</event>
<event>
 5   0  0.2847158E-05  0.2443299E+04  0.7818609E-02  0.8423469E-01
       -1   -1    0    0    0  501  0.00000000000E+00  0.00000000000E+00  0.88381936960E+03  0.88381936962E+03  0.50400001928E-02 0.  1.
        1   -1    0    0  501    0  0.00000000000E+00  0.00000000000E+00 -0.16886117640E+04  0.16886117640E+04  0.50400001928E-02 0. -1.
    10030    2    1    2    0    0  0.00000000000E+00  0.00000000000E+00 -0.80479239441E+03  0.25724311336E+04  0.24432992324E+04 0.  0.
        5    1    3    3  502    0  0.58747226220E+03 -0.24194059505E+03 -0.15009732957E+04  0.16299085357E+04  0.46999998093E+01 0. -1.
       -5    1    3    3    0  502 -0.58747226220E+03  0.24194059505E+03  0.69618090125E+03  0.94252259795E+03  0.46999998093E+01 0.  1.
</event>
<event>
 5   0  0.2943244E-05  0.2346673E+04  0.7818609E-02  0.8459743E-01
       -1   -1    0    0    0  501  0.00000000000E+00  0.00000000000E+00  0.85121664773E+03  0.85121664775E+03  0.50400001928E-02 0.  1.
        1   -1    0    0  501    0  0.00000000000E+00  0.00000000000E+00 -0.16173541870E+04  0.16173541870E+04  0.50400001928E-02 0. -1.
    10030    2    1    2    0    0  0.00000000000E+00  0.00000000000E+00 -0.76613753923E+03  0.24685708347E+04  0.23466732276E+04 0.  0.
        3    1    3    3  502    0  0.34135911567E+03 -0.66384626468E+03  0.56921786671E+03  0.93873686354E+03  0.10100000352E+00 0.  1.
       -3    1    3    3    0  502 -0.34135911567E+03  0.66384626468E+03 -0.13353554059E+04  0.15298339712E+04  0.10100000352E+00 0. -1.
</event>
<event>
 5   0  0.6600166E-05  0.2411231E+04  0.7818609E-02  0.8435311E-01
       -2   -1    0    0    0  501  0.00000000000E+00  0.00000000000E+00  0.58623394656E+03  0.58623394657E+03  0.25500000920E-02 0. -1.
        2   -1    0    0  501    0  0.00000000000E+00  0.00000000000E+00 -0.24794004042E+04  0.24794004042E+04  0.25500000920E-02 0.  1.
    10030    2    1    2    0    0  0.00000000000E+00  0.00000000000E+00 -0.18931664576E+04  0.30656343508E+04  0.24112309587E+04 0.  0.
        5    1    3    3  502    0 -0.12029867113E+04  0.46410846770E+02 -0.86462389920E+03  0.14822036201E+04  0.46999998093E+01 0. -1.
       -5    1    3    3    0  502  0.12029867113E+04 -0.46410846770E+02 -0.10285425584E+04  0.15834307307E+04  0.46999998093E+01 0.  1.
</event>
<event>
 5   0  0.2943244E-05  0.2417398E+04  0.7818609E-02  0.8433018E-01
        1   -1    0    0  501    0  0.00000000000E+00  0.00000000000E+00  0.22308035850E+04  0.22308035850E+04  0.50400001928E-02 0.  1.
       -1   -1    0    0    0  501  0.00000000000E+00  0.00000000000E+00 -0.65490021121E+03  0.65490021123E+03  0.50400001928E-02 0. -1.
    10030    2    1    2    0    0  0.00000000000E+00  0.00000000000E+00  0.15759033738E+04  0.28857037962E+04  0.24173983859E+04 0.  0.
        3    1    3    3  502    0  0.67511439300E+03 -0.25478911448E+03  0.19454670468E+04  0.20749792714E+04  0.10100000352E+00 0.  1.
       -3    1    3    3    0  502 -0.67511439300E+03  0.25478911448E+03 -0.36956367302E+03  0.81072452480E+03  0.10100000352E+00 0. -1.
</event>
<event>
 5   0  0.6714629E-05  0.2384836E+04  0.7818609E-02  0.8445203E-01
        2   -1    0    0  501    0  0.00000000000E+00  0.00000000000E+00  0.17504380082E+04  0.17504380082E+04  0.25500000920E-02 0. -1.
       -2   -1    0    0    0  501  0.00000000000E+00  0.00000000000E+00 -0.81228829071E+03  0.81228829071E+03  0.25500000920E-02 0.  1.
    10030    2    1    2    0    0  0.00000000000E+00  0.00000000000E+00  0.93814971749E+03  0.25627262989E+04  0.23848356737E+04 0.  0.
        3    1    3    3  502    0  0.12282856769E+03 -0.11847125677E+04  0.40800658999E+03  0.12590075904E+04  0.10100000352E+00 0.  1.
       -3    1    3    3    0  502 -0.12282856769E+03  0.11847125677E+04  0.53014312750E+03  0.13037187085E+04  0.10100000352E+00 0. -1.
</event>
<event>
 5   0  0.2915546E-05  0.2415815E+04  0.7818609E-02  0.8433606E-01
       -1   -1    0    0    0  501  0.00000000000E+00  0.00000000000E+00  0.11328004241E+04  0.11328004241E+04  0.50400001928E-02 0.  1.
        1   -1    0    0  501    0  0.00000000000E+00  0.00000000000E+00 -0.12879944918E+04  0.12879944918E+04  0.50400001928E-02 0. -1.
    10030    2    1    2    0    0  0.00000000000E+00  0.00000000000E+00 -0.15519406771E+03  0.24207949160E+04  0.24158151474E+04 0.  0.
        2    1    3    3  502    0  0.66155362777E+03  0.33042393810E+03  0.87946728212E+03  0.11490412880E+04  0.25500000920E-02 0.  1.
       -2    1    3    3    0  502 -0.66155362777E+03 -0.33042393810E+03 -0.10346613498E+04  0.12717536279E+04  0.25500000920E-02 0. -1.
</event>
<event>
 5   0  0.6337926E-05  0.2412027E+04  0.7818609E-02  0.8435014E-01
        2   -1    0    0  501    0  0.00000000000E+00  0.00000000000E+00  0.94490600892E+03  0.94490600892E+03  0.25500000920E-02 0. -1.
       -2   -1    0    0    0  501  0.00000000000E+00  0.00000000000E+00 -0.15392738884E+04  0.15392738884E+04  0.25500000920E-02 0.  1.
    10030    2    1    2    0    0  0.00000000000E+00  0.00000000000E+00 -0.59436787946E+03  0.24841798973E+04  0.24120274845E+04 0.  0.
        1    1    3    3  502    0  0.79591526352E+03  0.22635943349E+03  0.60641452328E+03  0.10258938902E+04  0.50400001928E-02 0. -1.
       -1    1    3    3    0  502 -0.79591526352E+03 -0.22635943349E+03 -0.12007824027E+04  0.14582860071E+04  0.50400001928E-02 0.  1.
</event>
<event>
 5   0  0.2915546E-05  0.1940475E+04  0.7818609E-02  0.8634968E-01
       -1   -1    0    0    0  501  0.00000000000E+00  0.00000000000E+00  0.64133867312E+03  0.64133867314E+03  0.50400001928E-02 0. -1.
        1   -1    0    0  501    0  0.00000000000E+00  0.00000000000E+00 -0.14678059196E+04  0.14678059196E+04  0.50400001928E-02 0.  1.
    10030    2    1    2    0    0  0.00000000000E+00  0.00000000000E+00 -0.82646724650E+03  0.21091445928E+04  0.19404748913E+04 0.  0.
        2    1    3    3  502    0 -0.76942681069E+03  0.16023321609E+03 -0.10316037162E+04  0.12968803059E+04  0.25500000920E-02 0.  1.
       -2    1    3    3    0  502  0.76942681069E+03 -0.16023321609E+03  0.20513646968E+03  0.81226428688E+03  0.25500000920E-02 0. -1.
</event>
<event>
 5   0  0.6978115E-05  0.2414957E+04  0.7818609E-02  0.8433925E-01
        2   -1    0    0  501    0  0.00000000000E+00  0.00000000000E+00  0.15040906062E+04  0.15040906062E+04  0.25500000920E-02 0.  1.
       -2   -1    0    0    0  501  0.00000000000E+00  0.00000000000E+00 -0.96935976266E+03  0.96935976267E+03  0.25500000920E-02 0. -1.
    10030    2    1    2    0    0  0.00000000000E+00  0.00000000000E+00  0.53473084354E+03  0.24734503689E+04  0.24149574846E+04 0.  0.
        4    1    3    3  502    0  0.20404957655E+03 -0.11710687956E+04  0.48455088369E+03  0.12836781238E+04  0.12699999809E+01 0.  1.
       -4    1    3    3    0  502 -0.20404957655E+03  0.11710687956E+04  0.50179959848E+02  0.11897722450E+04  0.12699999809E+01 0. -1.
</event>
<event>
 5   0  0.2901816E-05  0.2396005E+04  0.7818609E-02  0.8441001E-01
        1   -1    0    0  501    0  0.00000000000E+00  0.00000000000E+00  0.89739763494E+03  0.89739763496E+03  0.50400001928E-02 0.  1.
       -1   -1    0    0    0  501  0.00000000000E+00  0.00000000000E+00 -0.15993023350E+04  0.15993023350E+04  0.50400001928E-02 0. -1.
    10030    2    1    2    0    0  0.00000000000E+00  0.00000000000E+00 -0.70190470001E+03  0.24966999699E+04  0.23960051193E+04 0.  0.
        4    1    3    3  502    0 -0.38664703181E+03 -0.31087709015E+03  0.78531876128E+03  0.92890670258E+03  0.12699999809E+01 0.  1.
       -4    1    3    3    0  502  0.38664703181E+03  0.31087709015E+03 -0.14872234613E+04  0.15677932673E+04  0.12699999809E+01 0. -1.
</event>
<event>
 5   0  0.2339125E-05  0.2404008E+04  0.7818609E-02  0.8438005E-01
       -4   -1    0    0    0  501  0.00000000000E+00  0.00000000000E+00  0.21049288396E+04  0.21049292227E+04  0.12699999809E+01 0.  1.
        4   -1    0    0  501    0  0.00000000000E+00  0.00000000000E+00 -0.68639444102E+03  0.68639561592E+03  0.12699999809E+01 0. -1.
    10030    2    1    2    0    0  0.00000000000E+00  0.00000000000E+00  0.14185343986E+04  0.27913248387E+04  0.24040080106E+04 0.  0.
        3    1    3    3  502    0  0.76642938961E+03 -0.47325217202E+03 -0.21484449545E+03  0.92603444591E+03  0.10100000352E+00 0. -1.
       -3    1    3    3    0  502 -0.76642938961E+03  0.47325217202E+03  0.16333788940E+04  0.18652903927E+04  0.10100000352E+00 0.  1.
</event>
<event>
 5   0  0.2847158E-05  0.2389613E+04  0.7818609E-02  0.8443403E-01
        1   -1    0    0  501    0  0.00000000000E+00  0.00000000000E+00  0.12370380256E+04  0.12370380256E+04  0.50400001928E-02 0. -1.
       -1   -1    0    0    0  501  0.00000000000E+00  0.00000000000E+00 -0.11540167131E+04  0.11540167131E+04  0.50400001928E-02 0.  1.
    10030    2    1    2    0    0  0.00000000000E+00  0.00000000000E+00  0.83021312501E+02  0.23910547388E+04  0.23896129865E+04 0.  0.
        5    1    3    3  502    0 -0.41696739509E+03 -0.11193830534E+04  0.67221248140E+02  0.11964200830E+04  0.46999998093E+01 0.  1.
       -5    1    3    3    0  502  0.41696739509E+03  0.11193830534E+04  0.15800064360E+02  0.11946346558E+04  0.46999998093E+01 0. -1.
</event>
<event>
 5   0  0.2915546E-05  0.2447146E+04  0.7818609E-02  0.8422061E-01
        1   -1    0    0  501    0  0.00000000000E+00  0.00000000000E+00  0.16950727588E+04  0.16950727588E+04  0.50400001928E-02 0.  1.
       -1   -1    0    0    0  501  0.00000000000E+00  0.00000000000E+00 -0.88322497883E+03  0.88322497884E+03  0.50400001928E-02 0. -1.
    10030    2    1    2    0    0  0.00000000000E+00  0.00000000000E+00  0.81184777999E+03  0.25782977377E+04  0.24471457672E+04 0.  0.
        2    1    3    3  502    0 -0.11307016290E+04 -0.28463777632E+03  0.15062205286E+02  0.11660753439E+04  0.25500000920E-02 0. -1.
       -2    1    3    3    0  502  0.11307016290E+04  0.28463777632E+03  0.79678557470E+03  0.14122223938E+04  0.25500000920E-02 0.  1.
</event>
<event>
 5   0  0.2943244E-05  0.2425774E+04  0.7818609E-02  0.8429917E-01
       -1   -1    0    0    0  501  0.00000000000E+00  0.00000000000E+00  0.79404729317E+03  0.79404729318E+03  0.50400001928E-02 0. -1.
        1   -1    0    0  501    0  0.00000000000E+00  0.00000000000E+00 -0.18526536081E+04  0.18526536081E+04  0.50400001928E-02 0.  1.
    10030    2    1    2    0    0  0.00000000000E+00  0.00000000000E+00 -0.10586063149E+04  0.26467009013E+04  0.24257737592E+04 0.  0.
        3    1    3    3  502    0 -0.10990406233E+04 -0.13706073733E+03 -0.10687165549E+04  0.15391007187E+04  0.10100000352E+00 0.  1.
       -3    1    3    3    0  502  0.10990406233E+04  0.13706073733E+03  0.10110240014E+02  0.11076001826E+04  0.10100000352E+00 0. -1.
</event>
<event>
 5   0  0.2847158E-05  0.2662832E+04  0.7818609E-02  0.8347166E-01
       -1   -1    0    0    0  501  0.00000000000E+00  0.00000000000E+00  0.13664043077E+04  0.13664043077E+04  0.50400001928E-02 0.  1.
        1   -1    0    0  501    0  0.00000000000E+00  0.00000000000E+00 -0.12973238115E+04  0.12973238115E+04  0.50400001928E-02 0. -1.
    10030    2    1    2    0    0  0.00000000000E+00  0.00000000000E+00  0.69080496175E+02  0.26637281192E+04  0.26628322099E+04 0.  0.
        5    1    3    3  502    0  0.36387502898E+03 -0.98689184702E+03  0.85107844024E+03  0.13530399683E+04  0.46999998093E+01 0.  1.
       -5    1    3    3    0  502 -0.36387502898E+03  0.98689184702E+03 -0.78199794406E+03  0.13106881509E+04  0.46999998093E+01 0. -1.
</event>
<event>
 5   0  0.2847158E-05  0.2016354E+04  0.7818609E-02  0.8599013E-01
        1   -1    0    0  501    0  0.00000000000E+00  0.00000000000E+00  0.76243683860E+03  0.76243683861E+03  0.50400001928E-02 0.  1.
       -1   -1    0    0    0  501  0.00000000000E+00  0.00000000000E+00 -0.13331216275E+04  0.13331216275E+04  0.50400001928E-02 0. -1.
    10030    2    1    2    0    0  0.00000000000E+00  0.00000000000E+00 -0.57068478890E+03  0.20955584661E+04  0.20163541744E+04 0.  0.
        5    1    3    3  502    0 -0.62663614701E+03  0.15584537767E+03 -0.10899890488E+04  0.12669091755E+04  0.46999998093E+01 0. -1.
       -5    1    3    3    0  502  0.62663614701E+03 -0.15584537767E+03  0.51930425990E+03  0.82864929061E+03  0.46999998093E+01 0.  1.
</event>
<event>
 5   0  0.2847158E-05  0.2299300E+04  0.7818609E-02  0.8478197E-01
       -1   -1    0    0    0  501  0.00000000000E+00  0.00000000000E+00  0.12056481058E+04  0.12056481058E+04  0.50400001928E-02 0.  1.
        1   -1    0    0  501    0  0.00000000000E+00  0.00000000000E+00 -0.10962524632E+04  0.10962524632E+04  0.50400001928E-02 0. -1.
    10030    2    1    2    0    0  0.00000000000E+00  0.00000000000E+00  0.10939564257E+03  0.23019005690E+04  0.22992996375E+04 0.  0.
        5    1    3    3  502    0  0.24787014953E+03 -0.98378566494E+03 -0.48665295049E+03  0.11252231022E+04  0.46999998093E+01 0. -1.
       -5    1    3    3    0  502 -0.24787014953E+03  0.98378566494E+03  0.59604859307E+03  0.11766774668E+04  0.46999998093E+01 0.  1.
</event>
<event>
 5   0  0.6978115E-05  0.2394799E+04  0.7818609E-02  0.8441453E-01
       -2   -1    0    0    0  501  0.00000000000E+00  0.00000000000E+00  0.89829047864E+03  0.89829047865E+03  0.25500000920E-02 0.  1.
        2   -1    0    0  501    0  0.00000000000E+00  0.00000000000E+00 -0.15961047674E+04  0.15961047674E+04  0.25500000920E-02 0. -1.
    10030    2    1    2    0    0  0.00000000000E+00  0.00000000000E+00 -0.69781428871E+03  0.24943952460E+04  0.23947991276E+04 0.  0.
        4    1    3    3  502    0 -0.10171254549E+03  0.21650172115E+03 -0.15709642215E+04  0.15890716269E+04  0.12699999809E+01 0. -1.
       -4    1    3    3    0  502  0.10171254549E+03 -0.21650172115E+03  0.87314993284E+03  0.90532361909E+03  0.12699999809E+01 0.  1.
</event>
<event>
 5   0  0.2901816E-05  0.2411992E+04  0.7818609E-02  0.8435028E-01
       -1   -1    0    0    0  501  0.00000000000E+00  0.00000000000E+00  0.72960418770E+03  0.72960418772E+03  0.50400001928E-02 0.  1.
        1   -1    0    0  501    0  0.00000000000E+00  0.00000000000E+00 -0.19934449670E+04  0.19934449670E+04  0.50400001928E-02 0. -1.
    10030    2    1    2    0    0  0.00000000000E+00  0.00000000000E+00 -0.12638407793E+04  0.27230491547E+04  0.24119915389E+04 0.  0.
        4    1    3    3  502    0  0.72185476313E+03 -0.72104971817E+03 -0.13578332158E+04  0.16984403581E+04  0.12699999809E+01 0. -1.
       -4    1    3    3    0  502 -0.72185476313E+03  0.72104971817E+03  0.93992436502E+02  0.10246087966E+04  0.12699999809E+01 0.  1.
</event>
<event>
 5   0  0.6714629E-05  0.2399247E+04  0.7818609E-02  0.8439786E-01
        2   -1    0    0  501    0  0.00000000000E+00  0.00000000000E+00  0.12461122475E+04  0.12461122475E+04  0.25500000920E-02 0. -1.
       -2   -1    0    0    0  501  0.00000000000E+00  0.00000000000E+00 -0.11548691280E+04  0.11548691280E+04  0.25500000920E-02 0.  1.
    10030    2    1    2    0    0  0.00000000000E+00  0.00000000000E+00  0.91243119522E+02  0.24009813754E+04  0.23992470190E+04 0.  0.
        3    1    3    3  502    0 -0.10148711412E+04 -0.44870256397E+03  0.50180098122E+03  0.12178266129E+04  0.10100000352E+00 0. -1.
       -3    1    3    3    0  502  0.10148711412E+04  0.44870256397E+03 -0.41055786170E+03  0.11831547625E+04  0.10100000352E+00 0.  1.
</event>
<event>
 5   0  0.6337926E-05  0.2428982E+04  0.7818609E-02  0.8428732E-01
        2   -1    0    0  501    0  0.00000000000E+00  0.00000000000E+00  0.12766477173E+04  0.12766477173E+04  0.25500000920E-02 0.  1.
       -2   -1    0    0    0  501  0.00000000000E+00  0.00000000000E+00 -0.11553608941E+04  0.11553608941E+04  0.25500000920E-02 0. -1.
    10030    2    1    2    0    0  0.00000000000E+00  0.00000000000E+00  0.12128682325E+03  0.24320086114E+04  0.24289823780E+04 0.  0.
        1    1    3    3  502    0  0.99571793359E+03 -0.27362700634E+03 -0.57942051861E+03  0.11840836454E+04  0.50400001928E-02 0. -1.
       -1    1    3    3    0  502 -0.99571793359E+03  0.27362700634E+03  0.70070734186E+03  0.12479249660E+04  0.50400001928E-02 0.  1.
</event>
<event>
 5   0  0.2901816E-05  0.2395096E+04  0.7818609E-02  0.8441342E-01
        1   -1    0    0  501    0  0.00000000000E+00  0.00000000000E+00  0.12379086243E+04  0.12379086243E+04  0.50400001928E-02 0.  1.
       -1   -1    0    0    0  501  0.00000000000E+00  0.00000000000E+00 -0.11585032940E+04  0.11585032940E+04  0.50400001928E-02 0. -1.
    10030    2    1    2    0    0  0.00000000000E+00  0.00000000000E+00  0.79405330252E+02  0.23964119183E+04  0.23950960055E+04 0.  0.
        4    1    3    3  502    0  0.63937371351E+03 -0.19299573852E+02  0.10526562425E+04  0.12317702695E+04  0.12699999809E+01 0.  1.
       -4    1    3    3    0  502 -0.63937371351E+03  0.19299573852E+02 -0.97325091223E+03  0.11646416488E+04  0.12699999809E+01 0. -1.
</event>
<event>
 5   0  0.6337926E-05  0.2349655E+04  0.7818609E-02  0.8458596E-01
        2   -1    0    0  501    0  0.00000000000E+00  0.00000000000E+00  0.91451204243E+03  0.91451204244E+03  0.25500000920E-02 0.  1.
       -2   -1    0    0    0  501  0.00000000000E+00  0.00000000000E+00 -0.15092413160E+04  0.15092413160E+04  0.25500000920E-02 0. -1.
    10030    2    1    2    0    0  0.00000000000E+00  0.00000000000E+00 -0.59472927357E+03  0.24237533584E+04  0.23496547478E+04 0.  0.
        1    1    3    3  502    0 -0.46882350600E+03 -0.25637490747E+03  0.78190782029E+03  0.94704984684E+03  0.50400001928E-02 0.  1.
       -1    1    3    3    0  502  0.46882350600E+03  0.25637490747E+03 -0.13766370939E+04  0.14767035116E+04  0.50400001928E-02 0. -1.
</event>
<event>
 5   0  0.6337926E-05  0.2375391E+04  0.7818609E-02  0.8448775E-01
       -2   -1    0    0    0  501  0.00000000000E+00  0.00000000000E+00  0.11738901123E+04  0.11738901123E+04  0.25500000920E-02 0. -1.
        2   -1    0    0  501    0  0.00000000000E+00  0.00000000000E+00 -0.12016635558E+04  0.12016635558E+04  0.25500000920E-02 0.  1.
    10030    2    1    2    0    0  0.00000000000E+00  0.00000000000E+00 -0.27773443468E+02  0.23755536682E+04  0.23753913080E+04 0.  0.
        1    1    3    3  502    0 -0.70213733389E+01 -0.83645138946E+02 -0.11986934720E+04  0.12016288315E+04  0.50400001928E-02 0.  1.
       -1    1    3    3    0  502  0.70213733389E+01  0.83645138946E+02  0.11709200285E+04  0.11739248366E+04  0.50400001928E-02 0. -1.
</event>
<event>
 5   0  0.2915546E-05  0.2416222E+04  0.7818609E-02  0.8433455E-01
       -1   -1    0    0    0  501  0.00000000000E+00  0.00000000000E+00  0.56877671229E+03  0.56877671231E+03  0.50400001928E-02 0.  1.
        1   -1    0    0  501    0  0.00000000000E+00  0.00000000000E+00 -0.25660889177E+04  0.25660889177E+04  0.50400001928E-02 0. -1.
    10030    2    1    2    0    0  0.00000000000E+00  0.00000000000E+00 -0.19973122054E+04  0.31348656300E+04  0.24162215280E+04 0.  0.
        2    1    3    3  502    0 -0.55134698414E+03 -0.38515191668E+02 -0.23924458313E+04  0.24554559603E+04  0.25500000920E-02 0. -1.
       -2    1    3    3    0  502  0.55134698414E+03  0.38515191668E+02  0.39513362597E+03  0.67940966971E+03  0.25500000920E-02 0.  1.
</event>
<event>
 5   0  0.6337926E-05  0.2359155E+04  0.7818609E-02  0.8454956E-01
        2   -1    0    0  501    0  0.00000000000E+00  0.00000000000E+00  0.20743428114E+04  0.20743428114E+04  0.25500000920E-02 0.  1.
       -2   -1    0    0    0  501  0.00000000000E+00  0.00000000000E+00 -0.67076800344E+03  0.67076800345E+03  0.25500000920E-02 0. -1.
    10030    2    1    2    0    0  0.00000000000E+00  0.00000000000E+00  0.14035748079E+04  0.27451108148E+04  0.23591547521E+04 0.  0.
        1    1    3    3  502    0  0.51718578521E+03  0.27431257307E+03 -0.48979410533E+03  0.76329993437E+03  0.50400001928E-02 0. -1.
       -1    1    3    3    0  502 -0.51718578521E+03 -0.27431257307E+03  0.18933689132E+04  0.19818108804E+04  0.50400001928E-02 0.  1.
</event>
<event>
 5   0  0.2901816E-05  0.2428598E+04  0.7818609E-02  0.8428874E-01
       -1   -1    0    0    0  501  0.00000000000E+00  0.00000000000E+00  0.12932503015E+04  0.12932503015E+04  0.50400001928E-02 0. -1.
        1   -1    0    0  501    0  0.00000000000E+00  0.00000000000E+00 -0.11401676534E+04  0.11401676535E+04  0.50400001928E-02 0.  1.
    10030    2    1    2    0    0  0.00000000000E+00  0.00000000000E+00  0.15308264809E+03  0.24334179550E+04  0.24285980825E+04 0.  0.
        4    1    3    3  502    0 -0.51874555218E+02  0.84016299580E+03  0.95346721401E+03  0.12718750607E+04  0.12699999809E+01 0. -1.
       -4    1    3    3    0  502  0.51874555218E+02 -0.84016299580E+03 -0.80038456591E+03  0.11615428943E+04  0.12699999809E+01 0.  1.
</event>
<event>
 5   0  0.2915546E-05  0.2340310E+04  0.7818609E-02  0.8462195E-01
        1   -1    0    0  501    0  0.00000000000E+00  0.00000000000E+00  0.15592055396E+04  0.15592055396E+04  0.50400001928E-02 0.  1.
       -1   -1    0    0    0  501  0.00000000000E+00  0.00000000000E+00 -0.87817971097E+03  0.87817971098E+03  0.50400001928E-02 0. -1.
    10030    2    1    2    0    0  0.00000000000E+00  0.00000000000E+00  0.68102582859E+03  0.24373852505E+04  0.23403099539E+04 0.  0.
        2    1    3    3  502    0  0.38957521747E+03  0.55156701428E+03  0.13358033616E+04  0.14967851022E+04  0.25500000920E-02 0.  1.
       -2    1    3    3    0  502 -0.38957521747E+03 -0.55156701428E+03 -0.65477753302E+03  0.94060014834E+03  0.25500000920E-02 0. -1.
</event>
<event>
 5   0  0.2901816E-05  0.2425455E+04  0.7818609E-02  0.8430035E-01
       -1   -1    0    0    0  501  0.00000000000E+00  0.00000000000E+00  0.11334373448E+04  0.11334373448E+04  0.50400001928E-02 0. -1.
        1   -1    0    0  501    0  0.00000000000E+00  0.00000000000E+00 -0.12975643982E+04  0.12975643983E+04  0.50400001928E-02 0.  1.
    10030    2    1    2    0    0  0.00000000000E+00  0.00000000000E+00 -0.16412705343E+03  0.24310017431E+04  0.24254549646E+04 0.  0.
        4    1    3    3  502    0 -0.11784078270E+03  0.92867783206E+02 -0.12882255370E+04  0.12969338928E+04  0.12699999809E+01 0.  1.
       -4    1    3    3    0  502  0.11784078270E+03 -0.92867783206E+02  0.11240984836E+04  0.11340678502E+04  0.12699999809E+01 0. -1.
</event>
<event>
 5   0  0.6337926E-05  0.2063607E+04  0.7818609E-02  0.8577447E-01
        2   -1    0    0  501    0  0.00000000000E+00  0.00000000000E+00  0.17447491771E+04  0.17447491771E+04  0.25500000920E-02 0. -1.
       -2   -1    0    0    0  501  0.00000000000E+00  0.00000000000E+00 -0.61018407832E+03  0.61018407832E+03  0.25500000920E-02 0.  1.
    10030    2    1    2    0    0  0.00000000000E+00  0.00000000000E+00  0.11345650988E+04  0.23549332554E+04  0.20636067150E+04 0.  0.
        1    1    3    3  502    0  0.47542395127E+03  0.91488280328E+03  0.52192623192E+03  0.11556147579E+04  0.50400001928E-02 0. -1.
       -1    1    3    3    0  502 -0.47542395127E+03 -0.91488280328E+03  0.61263886687E+03  0.11993184975E+04  0.50400001928E-02 0.  1.
</event>
<event>
 5   0  0.2943123E-05  0.2381827E+04  0.7818609E-02  0.8446339E-01
        1   -1    0    0  501    0  0.00000000000E+00  0.00000000000E+00  0.76368716146E+03  0.76368716147E+03  0.50400001928E-02 0. -1.
       -1   -1    0    0    0  501  0.00000000000E+00  0.00000000000E+00 -0.18571409974E+04  0.18571409974E+04  0.50400001928E-02 0.  1.
    10030    2    1    2    0    0  0.00000000000E+00  0.00000000000E+00 -0.10934538359E+04  0.26208281589E+04  0.23818268088E+04 0.  0.
        1    1    3    3  502    0  0.76549652679E+03  0.91216654736E+03 -0.56384403930E+03  0.13175556320E+04  0.50400001928E-02 0.  1.
       -1    1    3    3    0  502 -0.76549652679E+03 -0.91216654736E+03 -0.52960979663E+03  0.13032725269E+04  0.50400001928E-02 0. -1.
</event>
<event>
 5   0  0.2915546E-05  0.2307721E+04  0.7818609E-02  0.8474883E-01
        1   -1    0    0  501    0  0.00000000000E+00  0.00000000000E+00  0.82272244275E+03  0.82272244276E+03  0.50400001928E-02 0.  1.
       -1   -1    0    0    0  501  0.00000000000E+00  0.00000000000E+00 -0.16182780842E+04  0.16182780842E+04  0.50400001928E-02 0. -1.
    10030    2    1    2    0    0  0.00000000000E+00  0.00000000000E+00 -0.79555564149E+03  0.24410005270E+04  0.23077206924E+04 0.  0.
        2    1    3    3  502    0  0.68208794083E+03 -0.40628310620E+03  0.48788739424E+03  0.93184978987E+03  0.25500000920E-02 0.  1.
       -2    1    3    3    0  502 -0.68208794083E+03  0.40628310620E+03 -0.12834430357E+04  0.15091507371E+04  0.25500000920E-02 0. -1.
</event>
<event>
 5   0  0.6703961E-05  0.2287926E+04  0.7818609E-02  0.8482697E-01
        2   -1    0    0  501    0  0.00000000000E+00  0.00000000000E+00  0.12582743079E+04  0.12582743079E+04  0.25500000920E-02 0.  1.
       -2   -1    0    0    0  501  0.00000000000E+00  0.00000000000E+00 -0.10400368875E+04  0.10400368875E+04  0.25500000920E-02 0. -1.
    10030    2    1    2    0    0  0.00000000000E+00  0.00000000000E+00  0.21823742047E+03  0.22983111954E+04  0.22879263055E+04 0.  0.
        2    1    3    3  502    0  0.62085029586E+03  0.76950158867E+03 -0.46887447894E+03  0.10942719323E+04  0.25500000920E-02 0. -1.
       -2    1    3    3    0  502 -0.62085029586E+03 -0.76950158867E+03  0.68711189941E+03  0.12040392631E+04  0.25500000920E-02 0.  1.
</event>
<event>
 5   0  0.6703961E-05  0.2253660E+04  0.7818609E-02  0.8496420E-01
       -2   -1    0    0    0  501  0.00000000000E+00  0.00000000000E+00  0.13319763567E+04  0.13319763567E+04  0.25500000920E-02 0. -1.
        2   -1    0    0  501    0  0.00000000000E+00  0.00000000000E+00 -0.95327921034E+03  0.95327921034E+03  0.25500000920E-02 0.  1.
    10030    2    1    2    0    0  0.00000000000E+00  0.00000000000E+00  0.37869714636E+03  0.22852555670E+04  0.22536595746E+04 0.  0.
        2    1    3    3  502    0  0.22849575320E+03  0.19243755297E+03 -0.91239361721E+03  0.96005449520E+03  0.25500000920E-02 0.  1.
       -2    1    3    3    0  502 -0.22849575320E+03 -0.19243755297E+03  0.12910907636E+04  0.13252010718E+04  0.25500000920E-02 0. -1.
</event>
<event>
 5   0  0.6600166E-05  0.2327823E+04  0.7818609E-02  0.8467031E-01
       -2   -1    0    0    0  501  0.00000000000E+00  0.00000000000E+00  0.12259812823E+04  0.12259812823E+04  0.25500000920E-02 0.  1.
        2   -1    0    0  501    0  0.00000000000E+00  0.00000000000E+00 -0.11049846290E+04  0.11049846290E+04  0.25500000920E-02 0. -1.
    10030    2    1    2    0    0  0.00000000000E+00  0.00000000000E+00  0.12099665332E+03  0.23309659113E+04  0.23278234232E+04 0.  0.
        5    1    3    3  502    0  0.26254435107E+02  0.21226330549E+03 -0.10851280400E+04  0.11060153522E+04  0.46999998093E+01 0. -1.
       -5    1    3    3    0  502 -0.26254435107E+02 -0.21226330549E+03  0.12061246933E+04  0.12249505590E+04  0.46999998093E+01 0.  1.
</event>
<event>
 5   0  0.6337926E-05  0.2413616E+04  0.7818609E-02  0.8434424E-01
       -2   -1    0    0    0  501  0.00000000000E+00  0.00000000000E+00  0.84613732502E+03  0.84613732502E+03  0.25500000920E-02 0. -1.
        2   -1    0    0  501    0  0.00000000000E+00  0.00000000000E+00 -0.17212164301E+04  0.17212164301E+04  0.25500000920E-02 0.  1.
    10030    2    1    2    0    0  0.00000000000E+00  0.00000000000E+00 -0.87507910509E+03  0.25673537551E+04  0.24136159313E+04 0.  0.
        1    1    3    3  502    0  0.62752405496E+03 -0.83917175299E+03 -0.10743282817E+04  0.15007254670E+04  0.50400001928E-02 0.  1.
       -1    1    3    3    0  502 -0.62752405496E+03  0.83917175299E+03  0.19924917660E+03  0.10666282881E+04  0.50400001928E-02 0. -1.
</event>
<event>
 5   0  0.2943244E-05  0.2377364E+04  0.7818609E-02  0.8448027E-01
        1   -1    0    0  501    0  0.00000000000E+00  0.00000000000E+00  0.21218895204E+04  0.21218895204E+04  0.50400001928E-02 0.  1.
       -1   -1    0    0    0  501  0.00000000000E+00  0.00000000000E+00 -0.66589921017E+03  0.66589921019E+03  0.50400001928E-02 0. -1.
    10030    2    1    2    0    0  0.00000000000E+00  0.00000000000E+00  0.14559903102E+04  0.27877887306E+04  0.23773637128E+04 0.  0.
        3    1    3    3  502    0  0.73271643047E+03 -0.27300658595E+03 -0.32186598963E+03  0.84557890758E+03  0.10100000352E+00 0. -1.
       -3    1    3    3    0  502 -0.73271643047E+03  0.27300658595E+03  0.17778562998E+04  0.19422098230E+04  0.10100000352E+00 0.  1.
</event>
<event>
 5   0  0.6978115E-05  0.2413352E+04  0.7818609E-02  0.8434522E-01
        2   -1    0    0  501    0  0.00000000000E+00  0.00000000000E+00  0.66578373613E+03  0.66578373614E+03  0.25500000920E-02 0. -1.
       -2   -1    0    0    0  501  0.00000000000E+00  0.00000000000E+00 -0.21869973103E+04  0.21869973103E+04  0.25500000920E-02 0.  1.
    10030    2    1    2    0    0  0.00000000000E+00  0.00000000000E+00 -0.15212135742E+04  0.28527810464E+04  0.24133522248E+04 0.  0.
        4    1    3    3  502    0 -0.26150671702E+03 -0.86358806918E+03 -0.17076720305E+04  0.19314024678E+04  0.12699999809E+01 0.  1.
       -4    1    3    3    0  502  0.26150671702E+03  0.86358806918E+03  0.18645845628E+03  0.92137857860E+03  0.12699999809E+01 0. -1.
</event>
<event>
 5   0  0.6600166E-05  0.2441304E+04  0.7818609E-02  0.8424200E-01
       -2   -1    0    0    0  501  0.00000000000E+00  0.00000000000E+00  0.66161922168E+03  0.66161922169E+03  0.25500000920E-02 0. -1.
        2   -1    0    0  501    0  0.00000000000E+00  0.00000000000E+00 -0.22520378036E+04  0.22520378036E+04  0.25500000920E-02 0.  1.
    10030    2    1    2    0    0  0.00000000000E+00  0.00000000000E+00 -0.15904185819E+04  0.29136570253E+04  0.24413041587E+04 0.  0.
        5    1    3    3  502    0  0.62989575052E+03 -0.14422034289E+03  0.44072446029E+03  0.78219454340E+03  0.46999998093E+01 0. -1.
       -5    1    3    3    0  502 -0.62989575052E+03  0.14422034289E+03 -0.20311430422E+04  0.21314624819E+04  0.46999998093E+01 0.  1.
</event>
<event>
 5   0  0.6337926E-05  0.2395970E+04  0.7818609E-02  0.8441014E-01
        2   -1    0    0  501    0  0.00000000000E+00  0.00000000000E+00  0.78918389176E+03  0.78918389176E+03  0.25500000920E-02 0.  1.
       -2   -1    0    0    0  501  0.00000000000E+00  0.00000000000E+00 -0.18185472340E+04  0.18185472340E+04  0.25500000920E-02 0. -1.
    10030    2    1    2    0    0  0.00000000000E+00  0.00000000000E+00 -0.10293633422E+04  0.26077311257E+04  0.23959701029E+04 0.  0.
        1    1    3    3  502    0 -0.11766424567E+04 -0.21937088128E+03 -0.45964429289E+03  0.12821403708E+04  0.50400001928E-02 0.  1.
       -1    1    3    3    0  502  0.11766424567E+04  0.21937088128E+03 -0.56971904930E+03  0.13255907549E+04  0.50400001928E-02 0. -1.
</event>
<event>
 5   0  0.2943123E-05  0.2390829E+04  0.7818609E-02  0.8442945E-01
       -1   -1    0    0    0  501  0.00000000000E+00  0.00000000000E+00  0.68821417215E+03  0.68821417217E+03  0.50400001928E-02 0.  1.
        1   -1    0    0  501    0  0.00000000000E+00  0.00000000000E+00 -0.20764111934E+04  0.20764111934E+04  0.50400001928E-02 0. -1.
    10030    2    1    2    0    0  0.00000000000E+00  0.00000000000E+00 -0.13881970212E+04  0.27646253656E+04  0.23908288191E+04 0.  0.
        1    1    3    3  502    0  0.53881716855E+03  0.76439397193E+03  0.16688905788E+03  0.94998633838E+03  0.50400001928E-02 0.  1.
       -1    1    3    3    0  502 -0.53881716855E+03 -0.76439397193E+03 -0.15550860791E+04  0.18146390272E+04  0.50400001928E-02 0. -1.
</event>
<event>
 5   0  0.2339125E-05  0.1739786E+04  0.7818609E-02  0.8738992E-01
        4   -1    0    0  501    0  0.00000000000E+00  0.00000000000E+00  0.75105564574E+03  0.75105671950E+03  0.12699999809E+01 0. -1.
       -4   -1    0    0    0  501  0.00000000000E+00  0.00000000000E+00 -0.10075320032E+04  0.10075328036E+04  0.12699999809E+01 0.  1.
    10030    2    1    2    0    0  0.00000000000E+00  0.00000000000E+00 -0.25647635747E+03  0.17585895231E+04  0.17397864780E+04 0.  0.
        3    1    3    3  502    0  0.63507459947E+02  0.75863852663E+03  0.29720094344E+03  0.81724783422E+03  0.10100000352E+00 0. -1.
       -3    1    3    3    0  502 -0.63507459947E+02 -0.75863852663E+03 -0.55367730090E+03  0.94134168891E+03  0.10100000352E+00 0.  1.
</event>
<event>
 5   0  0.2915546E-05  0.2392926E+04  0.7818609E-02  0.8442157E-01
       -1   -1    0    0    0  501  0.00000000000E+00  0.00000000000E+00  0.13892106185E+04  0.13892106185E+04  0.50400001928E-02 0. -1.
        1   -1    0    0  501    0  0.00000000000E+00  0.00000000000E+00 -0.10304586574E+04  0.10304586574E+04  0.50400001928E-02 0.  1.
    10030    2    1    2    0    0  0.00000000000E+00  0.00000000000E+00  0.35875196108E+03  0.24196692759E+04  0.23929263330E+04 0.  0.
        2    1    3    3  502    0 -0.58437860611E+03  0.93302276151E+02  0.12308629306E+04  0.13657332184E+04  0.25500000920E-02 0. -1.
       -2    1    3    3    0  502  0.58437860611E+03 -0.93302276151E+02 -0.87211096952E+03  0.10539360574E+04  0.25500000920E-02 0.  1.
</event>
<event>
 5   0  0.6703961E-05  0.2352032E+04  0.7818609E-02  0.8457683E-01
       -2   -1    0    0    0  501  0.00000000000E+00  0.00000000000E+00  0.19643261361E+04  0.19643261361E+04  0.25500000920E-02 0. -1.
        2   -1    0    0  501    0  0.00000000000E+00  0.00000000000E+00 -0.70406542013E+03  0.70406542013E+03  0.25500000920E-02 0.  1.
    10030    2    1    2    0    0  0.00000000000E+00  0.00000000000E+00  0.12602607160E+04  0.26683915563E+04  0.23520324031E+04 0.  0.
        2    1    3    3  502    0 -0.43048064037E+03 -0.51202731971E+03  0.17274541096E+04  0.18524533081E+04  0.25500000920E-02 0. -1.
       -2    1    3    3    0  502  0.43048064037E+03  0.51202731971E+03 -0.46719339358E+03  0.81593824820E+03  0.25500000920E-02 0.  1.
</event>
<event>
 5   0  0.6978115E-05  0.2409805E+04  0.7818609E-02  0.8435842E-01
        2   -1    0    0  501    0  0.00000000000E+00  0.00000000000E+00  0.13672397124E+04  0.13672397124E+04  0.25500000920E-02 0.  1.
       -2   -1    0    0    0  501  0.00000000000E+00  0.00000000000E+00 -0.10618402969E+04  0.10618402969E+04  0.25500000920E-02 0. -1.
    10030    2    1    2    0    0  0.00000000000E+00  0.00000000000E+00  0.30539941548E+03  0.24290800092E+04  0.24098051557E+04 0.  0.
        4    1    3    3  502    0  0.53678673184E+03  0.21987533374E+03  0.12172260524E+04  0.13483790392E+04  0.12699999809E+01 0.  1.
       -4    1    3    3    0  502 -0.53678673184E+03 -0.21987533374E+03 -0.91182663694E+03  0.10807009700E+04  0.12699999809E+01 0. -1.
</event>
<event>
 5   0  0.6600166E-05  0.2469885E+04  0.7818609E-02  0.8413793E-01
       -2   -1    0    0    0  501  0.00000000000E+00  0.00000000000E+00  0.16144283879E+04  0.16144283879E+04  0.25500000920E-02 0. -1.
        2   -1    0    0  501    0  0.00000000000E+00  0.00000000000E+00 -0.94465795052E+03  0.94465795052E+03  0.25500000920E-02 0.  1.
    10030    2    1    2    0    0  0.00000000000E+00  0.00000000000E+00  0.66977043742E+03  0.25590863385E+04  0.24698847036E+04 0.  0.
        5    1    3    3  502    0  0.26848431979E+03 -0.81269168433E+03 -0.58749575708E+03  0.10381353276E+04  0.46999998093E+01 0.  1.
       -5    1    3    3    0  502 -0.26848431979E+03  0.81269168433E+03  0.12572661945E+04  0.15209510109E+04  0.46999998093E+01 0. -1.
</event>
<event>
 5   0  0.2901816E-05  0.2406080E+04  0.7818609E-02  0.8437231E-01
        1   -1    0    0  501    0  0.00000000000E+00  0.00000000000E+00  0.11438866296E+04  0.11438866296E+04  0.50400001928E-02 0. -1.
       -1   -1    0    0    0  501  0.00000000000E+00  0.00000000000E+00 -0.12652521186E+04  0.12652521186E+04  0.50400001928E-02 0.  1.
    10030    2    1    2    0    0  0.00000000000E+00  0.00000000000E+00 -0.12136548905E+03  0.24091387482E+04  0.24060797839E+04 0.  0.
        4    1    3    3  502    0  0.38753282467E+03 -0.52241100227E+03 -0.10740012182E+04  0.12556174477E+04  0.12699999809E+01 0.  1.
       -4    1    3    3    0  502 -0.38753282467E+03  0.52241100227E+03  0.95263572911E+03  0.11535213005E+04  0.12699999809E+01 0. -1.
</event>
<event>
 5   0  0.2901816E-05  0.2427737E+04  0.7818609E-02  0.8429192E-01
       -1   -1    0    0    0  501  0.00000000000E+00  0.00000000000E+00  0.12599141271E+04  0.12599141271E+04  0.50400001928E-02 0.  1.
        1   -1    0    0  501    0  0.00000000000E+00  0.00000000000E+00 -0.11695056126E+04  0.11695056126E+04  0.50400001928E-02 0. -1.
    10030    2    1    2    0    0  0.00000000000E+00  0.00000000000E+00  0.90408514509E+02  0.24294197398E+04  0.24277369241E+04 0.  0.
        4    1    3    3  502    0 -0.48586802781E+03 -0.82377638352E+03  0.79325151918E+03  0.12425477279E+04  0.12699999809E+01 0.  1.
       -4    1    3    3    0  502  0.48586802781E+03  0.82377638352E+03 -0.70284300467E+03  0.11868720119E+04  0.12699999809E+01 0. -1.
</event>
<event>
 5   0  0.6703961E-05  0.2413911E+04  0.7818609E-02  0.8434314E-01
       -2   -1    0    0    0  501  0.00000000000E+00  0.00000000000E+00  0.12692584854E+04  0.12692584854E+04  0.25500000920E-02 0.  1.
        2   -1    0    0  501    0  0.00000000000E+00  0.00000000000E+00 -0.11477108853E+04  0.11477108853E+04  0.25500000920E-02 0. -1.
    10030    2    1    2    0    0  0.00000000000E+00  0.00000000000E+00  0.12154760015E+03  0.24169693707E+04  0.24139111665E+04 0.  0.
        2    1    3    3  502    0  0.84104831324E+03 -0.70084641582E+03 -0.44799770697E+03  0.11828989429E+04  0.25500000920E-02 0. -1.
       -2    1    3    3    0  502 -0.84104831324E+03  0.70084641582E+03  0.56954530712E+03  0.12340704277E+04  0.25500000920E-02 0.  1.
</event>
<event>
 5   0  0.6337926E-05  0.2287520E+04  0.7818609E-02  0.8482858E-01
       -2   -1    0    0    0  501  0.00000000000E+00  0.00000000000E+00  0.90256485847E+03  0.90256485848E+03  0.25500000920E-02 0.  1.
        2   -1    0    0  501    0  0.00000000000E+00  0.00000000000E+00 -0.14494101254E+04  0.14494101254E+04  0.25500000920E-02 0. -1.
    10030    2    1    2    0    0  0.00000000000E+00  0.00000000000E+00 -0.54684526697E+03  0.23519749839E+04  0.22875197440E+04 0.  0.
        1    1    3    3  502    0 -0.68700688982E+03 -0.57423544861E+03  0.45829109922E+03  0.10058606011E+04  0.50400001928E-02 0. -1.
       -1    1    3    3    0  502  0.68700688982E+03  0.57423544861E+03 -0.10051363662E+04  0.13461143829E+04  0.50400001928E-02 0.  1.
</event>
<event>
 5   0  0.6337926E-05  0.2085439E+04  0.7818609E-02  0.8567685E-01
        2   -1    0    0  501    0  0.00000000000E+00  0.00000000000E+00  0.14421059096E+04  0.14421059096E+04  0.25500000920E-02 0.  1.
       -2   -1    0    0    0  501  0.00000000000E+00  0.00000000000E+00 -0.75394214617E+03  0.75394214618E+03  0.25500000920E-02 0. -1.
    10030    2    1    2    0    0  0.00000000000E+00  0.00000000000E+00  0.68816376344E+03  0.21960480558E+04  0.20854394496E+04 0.  0.
        1    1    3    3  502    0  0.86908431673E+02 -0.78285759656E+03 -0.37541806372E+03  0.87255820125E+03  0.50400001928E-02 0. -1.
       -1    1    3    3    0  502 -0.86908431673E+02  0.78285759656E+03  0.10635818272E+04  0.13234898545E+04  0.50400001928E-02 0.  1.
</event>
<event>
 5   0  0.2915546E-05  0.2496925E+04  0.7818609E-02  0.8404082E-01
        1   -1    0    0  501    0  0.00000000000E+00  0.00000000000E+00  0.30647575367E+04  0.30647575367E+04  0.50400001928E-02 0.  1.
       -1   -1    0    0    0  501  0.00000000000E+00  0.00000000000E+00 -0.50857504038E+03  0.50857504040E+03  0.50400001928E-02 0. -1.
    10030    2    1    2    0    0  0.00000000000E+00  0.00000000000E+00  0.25561824963E+04  0.35733325771E+04  0.24969254598E+04 0.  0.
        2    1    3    3  502    0 -0.74898356197E+03 -0.89022390557E+02 -0.14565414964E+03  0.76819040181E+03  0.25500000920E-02 0. -1.
       -2    1    3    3    0  502  0.74898356197E+03  0.89022390557E+02  0.27018366459E+04  0.28051421753E+04  0.25500000920E-02 0.  1.
</event>
<event>
 5   0  0.6600166E-05  0.2311220E+04  0.7818609E-02  0.8473510E-01
       -2   -1    0    0    0  501  0.00000000000E+00  0.00000000000E+00  0.16793106497E+04  0.16793106497E+04  0.25500000920E-02 0. -1.
        2   -1    0    0  501    0  0.00000000000E+00  0.00000000000E+00 -0.79522801355E+03  0.79522801356E+03  0.25500000920E-02 0.  1.
    10030    2    1    2    0    0  0.00000000000E+00  0.00000000000E+00  0.88408263611E+03  0.24745386632E+04  0.23112203461E+04 0.  0.
        5    1    3    3  502    0 -0.85914980585E+03  0.77280452277E+03  0.43465740761E+03  0.12346312694E+04  0.46999998093E+01 0.  1.
       -5    1    3    3    0  502  0.85914980585E+03 -0.77280452277E+03  0.44942522849E+03  0.12399073938E+04  0.46999998093E+01 0. -1.
</event>
<event>
 5   0  0.2901816E-05  0.2363725E+04  0.7818609E-02  0.8453210E-01
        1   -1    0    0  501    0  0.00000000000E+00  0.00000000000E+00  0.11566161618E+04  0.11566161618E+04  0.50400001928E-02 0.  1.
       -1   -1    0    0    0  501  0.00000000000E+00  0.00000000000E+00 -0.12076602531E+04  0.12076602532E+04  0.50400001928E-02 0. -1.
    10030    2    1    2    0    0  0.00000000000E+00  0.00000000000E+00 -0.51044091336E+02  0.23642764150E+04  0.23637253366E+04 0.  0.
        4    1    3    3  502    0  0.87432113067E+03 -0.49675245463E+02 -0.81936486676E+03  0.11992770603E+04  0.12699999809E+01 0. -1.
       -4    1    3    3    0  502 -0.87432113067E+03  0.49675245463E+02  0.76832077543E+03  0.11649993547E+04  0.12699999809E+01 0.  1.
</event>
<event>
 5   0  0.2943123E-05  0.2839328E+04  0.7818609E-02  0.8291162E-01
        1   -1    0    0  501    0  0.00000000000E+00  0.00000000000E+00  0.17998442922E+04  0.17998442922E+04  0.50400001928E-02 0.  1.
       -1   -1    0    0    0  501  0.00000000000E+00  0.00000000000E+00 -0.11197889607E+04  0.11197889607E+04  0.50400001928E-02 0. -1.
    10030    2    1    2    0    0  0.00000000000E+00  0.00000000000E+00  0.68005533153E+03  0.29196332529E+04  0.28393279271E+04 0.  0.
        1    1    3    3  502    0 -0.81907375556E+03  0.10729459864E+04 -0.11212573768E+03  0.13544988327E+04  0.50400001928E-02 0.  1.
       -1    1    3    3    0  502  0.81907375556E+03 -0.10729459864E+04  0.79218106920E+03  0.15651344202E+04  0.50400001928E-02 0. -1.
</event>
<event>
 5   0  0.2943123E-05  0.2239075E+04  0.7818609E-02  0.8502338E-01
        1   -1    0    0  501    0  0.00000000000E+00  0.00000000000E+00  0.80258405517E+03  0.80258405519E+03  0.50400001928E-02 0.  1.
       -1   -1    0    0    0  501  0.00000000000E+00  0.00000000000E+00 -0.15616616274E+04  0.15616616274E+04  0.50400001928E-02 0. -1.
    10030    2    1    2    0    0  0.00000000000E+00  0.00000000000E+00 -0.75907757224E+03  0.23642456826E+04  0.22390754536E+04 0.  0.
        1    1    3    3  502    0  0.10034131751E+04 -0.27907249354E+03 -0.81316043045E+03  0.13213437638E+04  0.50400001928E-02 0.  1.
       -1    1    3    3    0  502 -0.10034131751E+04  0.27907249354E+03  0.54082858211E+02  0.10429019188E+04  0.50400001928E-02 0. -1.
</event>
<event>
 5   0  0.2915546E-05  0.2353673E+04  0.7818609E-02  0.8457054E-01
        1   -1    0    0  501    0  0.00000000000E+00  0.00000000000E+00  0.78744579122E+03  0.78744579124E+03  0.50400001928E-02 0. -1.
       -1   -1    0    0    0  501  0.00000000000E+00  0.00000000000E+00 -0.17587808318E+04  0.17587808318E+04  0.50400001928E-02 0.  1.
    10030    2    1    2    0    0  0.00000000000E+00  0.00000000000E+00 -0.97133504054E+03  0.25462266230E+04  0.23536733535E+04 0.  0.
        2    1    3    3  502    0 -0.14209088904E+03 -0.10334326050E+04  0.10366739959E+03  0.10482937086E+04  0.25500000920E-02 0. -1.
       -2    1    3    3    0  502  0.14209088904E+03  0.10334326050E+04 -0.10750024401E+04  0.14979329144E+04  0.25500000920E-02 0.  1.
</event>
<event>
 5   0  0.2943123E-05  0.2412417E+04  0.7818609E-02  0.8434869E-01
        1   -1    0    0  501    0  0.00000000000E+00  0.00000000000E+00  0.10001268073E+04  0.10001268073E+04  0.50400001928E-02 0. -1.
       -1   -1    0    0    0  501  0.00000000000E+00  0.00000000000E+00 -0.14547547095E+04  0.14547547095E+04  0.50400001928E-02 0.  1.
    10030    2    1    2    0    0  0.00000000000E+00  0.00000000000E+00 -0.45462790217E+03  0.24548815168E+04  0.24124171969E+04 0.  0.
        1    1    3    3  502    0  0.82081868470E+03  0.62309637557E+03  0.41057486167E+03  0.11093079480E+04  0.50400001928E-02 0. -1.
       -1    1    3    3    0  502 -0.82081868470E+03 -0.62309637557E+03 -0.86520276385E+03  0.13455735688E+04  0.50400001928E-02 0.  1.
</event>
<event>
 5   0  0.6714629E-05  0.2391604E+04  0.7818609E-02  0.8442653E-01
        2   -1    0    0  501    0  0.00000000000E+00  0.00000000000E+00  0.12442705343E+04  0.12442705343E+04  0.25500000920E-02 0.  1.
       -2   -1    0    0    0  501  0.00000000000E+00  0.00000000000E+00 -0.11492218770E+04  0.11492218770E+04  0.25500000920E-02 0. -1.
    10030    2    1    2    0    0  0.00000000000E+00  0.00000000000E+00  0.95048657300E+02  0.23934924112E+04  0.23916044145E+04 0.  0.
        3    1    3    3  502    0 -0.19115647604E+02 -0.85069182307E+03 -0.79331803293E+03  0.11633552757E+04  0.10100000352E+00 0. -1.
       -3    1    3    3    0  502  0.19115647604E+02  0.85069182307E+03  0.88836669023E+03  0.12301371356E+04  0.10100000352E+00 0.  1.
</event>
<event>
 5   0  0.2943244E-05  0.2460095E+04  0.7818609E-02  0.8417341E-01
       -1   -1    0    0    0  501  0.00000000000E+00  0.00000000000E+00  0.67820556856E+03  0.67820556858E+03  0.50400001928E-02 0. -1.
        1   -1    0    0  501    0  0.00000000000E+00  0.00000000000E+00 -0.22309115036E+04  0.22309115036E+04  0.50400001928E-02 0.  1.
    10030    2    1    2    0    0  0.00000000000E+00  0.00000000000E+00 -0.15527059350E+04  0.29091170722E+04  0.24600947988E+04 0.  0.
        3    1    3    3  502    0  0.19035930582E+03  0.71878760079E+03 -0.19350585255E+04  0.20730035667E+04  0.10100000352E+00 0.  1.
       -3    1    3    3    0  502 -0.19035930582E+03 -0.71878760079E+03  0.38235259047E+03  0.83611350545E+03  0.10100000352E+00 0. -1.
</event>
<event>
 5   0  0.6978115E-05  0.2374881E+04  0.7818609E-02  0.8448968E-01
        2   -1    0    0  501    0  0.00000000000E+00  0.00000000000E+00  0.14021223297E+04  0.14021223297E+04  0.25500000920E-02 0.  1.
       -2   -1    0    0    0  501  0.00000000000E+00  0.00000000000E+00 -0.10056293350E+04  0.10056293350E+04  0.25500000920E-02 0. -1.
    10030    2    1    2    0    0  0.00000000000E+00  0.00000000000E+00  0.39649299466E+03  0.24077516647E+04  0.23748813410E+04 0.  0.
        4    1    3    3  502    0 -0.39289950105E+03  0.41480094308E+03 -0.85711451645E+03  0.10300857962E+04  0.12699999809E+01 0. -1.
       -4    1    3    3    0  502  0.39289950105E+03 -0.41480094308E+03  0.12536075111E+04  0.13776658685E+04  0.12699999809E+01 0.  1.
</event>
<event>
 5   0  0.6714629E-05  0.2374244E+04  0.7818609E-02  0.8449210E-01
       -2   -1    0    0    0  501  0.00000000000E+00  0.00000000000E+00  0.71938030701E+03  0.71938030702E+03  0.25500000920E-02 0. -1.
        2   -1    0    0  501    0  0.00000000000E+00  0.00000000000E+00 -0.19589901043E+04  0.19589901043E+04  0.25500000920E-02 0.  1.
    10030    2    1    2    0    0  0.00000000000E+00  0.00000000000E+00 -0.12396097973E+04  0.26783704113E+04  0.23742442188E+04 0.  0.
        3    1    3    3  502    0 -0.38392333218E+03 -0.82172983747E+03  0.24421623221E+03  0.93929688015E+03  0.10100000352E+00 0. -1.
       -3    1    3    3    0  502  0.38392333218E+03  0.82172983747E+03 -0.14838260295E+04  0.17390735312E+04  0.10100000352E+00 0.  1.
</event>
<event>
 5   0  0.6703961E-05  0.2391553E+04  0.7818609E-02  0.8442673E-01
        2   -1    0    0  501    0  0.00000000000E+00  0.00000000000E+00  0.86042383158E+03  0.86042383159E+03  0.25500000920E-02 0. -1.
       -2   -1    0    0    0  501  0.00000000000E+00  0.00000000000E+00 -0.16618340109E+04  0.16618340109E+04  0.25500000920E-02 0.  1.
    10030    2    1    2    0    0  0.00000000000E+00  0.00000000000E+00 -0.80141017927E+03  0.25222578424E+04  0.23915531247E+04 0.  0.
        2    1    3    3  502    0 -0.71795507593E+03 -0.11622884310E+03 -0.14017437811E+04  0.15791941815E+04  0.25500000920E-02 0.  1.
       -2    1    3    3    0  502  0.71795507593E+03  0.11622884310E+03  0.60033360186E+03  0.94306366092E+03  0.25500000920E-02 0. -1.
</event>
<event>
 5   0  0.2847158E-05  0.2421278E+04  0.7818609E-02  0.8431580E-01
        1   -1    0    0  501    0  0.00000000000E+00  0.00000000000E+00  0.28327825090E+04  0.28327825091E+04  0.50400001928E-02 0. -1.
       -1   -1    0    0    0  501  0.00000000000E+00  0.00000000000E+00 -0.51738764772E+03  0.51738764774E+03  0.50400001928E-02 0.  1.
    10030    2    1    2    0    0  0.00000000000E+00  0.00000000000E+00  0.23153948613E+04  0.33501701568E+04  0.24212779096E+04 0.  0.
        5    1    3    3  502    0 -0.97734176753E+03  0.70224022678E+03  0.13396145323E+04  0.18008129975E+04  0.46999998093E+01 0.  1.
       -5    1    3    3    0  502  0.97734176753E+03 -0.70224022678E+03  0.97578032902E+03  0.15493571593E+04  0.46999998093E+01 0. -1.
</event>
<event>
 5   0  0.2943123E-05  0.2439225E+04  0.7818609E-02  0.8424963E-01
       -1   -1    0    0    0  501  0.00000000000E+00  0.00000000000E+00  0.24024613304E+04  0.24024613304E+04  0.50400001928E-02 0.  1.
        1   -1    0    0  501    0  0.00000000000E+00  0.00000000000E+00 -0.61913772882E+03  0.61913772884E+03  0.50400001928E-02 0. -1.
    10030    2    1    2    0    0  0.00000000000E+00  0.00000000000E+00  0.17833236016E+04  0.30215990592E+04  0.24392248373E+04 0.  0.
        1    1    3    3  502    0  0.40568485474E+03 -0.90144043587E+03  0.17765512507E+04  0.20330542067E+04  0.50400001928E-02 0.  1.
       -1    1    3    3    0  502 -0.40568485474E+03  0.90144043587E+03  0.67723508528E+01  0.98854485257E+03  0.50400001928E-02 0. -1.
</event>
<event>
 5   0  0.6337926E-05  0.2396583E+04  0.7818609E-02  0.8440784E-01
       -2   -1    0    0    0  501  0.00000000000E+00  0.00000000000E+00  0.14543233371E+04  0.14543233371E+04  0.25500000920E-02 0. -1.
        2   -1    0    0  501    0  0.00000000000E+00  0.00000000000E+00 -0.98733360353E+03  0.98733360353E+03  0.25500000920E-02 0.  1.
    10030    2    1    2    0    0  0.00000000000E+00  0.00000000000E+00  0.46698973354E+03  0.24416569406E+04  0.23965828182E+04 0.  0.
        1    1    3    3  502    0  0.95529408532E-01  0.46833999041E+03 -0.89022733033E+03  0.10059060868E+04  0.50400001928E-02 0.  1.
       -1    1    3    3    0  502 -0.95529408532E-01 -0.46833999041E+03  0.13572170639E+04  0.14357508538E+04  0.50400001928E-02 0. -1.
</event>
<event>
 5   0  0.6978115E-05  0.2395783E+04  0.7818609E-02  0.8441084E-01
       -2   -1    0    0    0  501  0.00000000000E+00  0.00000000000E+00  0.71291684052E+03  0.71291684053E+03  0.25500000920E-02 0. -1.
        2   -1    0    0  501    0  0.00000000000E+00  0.00000000000E+00 -0.20127782987E+04  0.20127782987E+04  0.25500000920E-02 0.  1.
    10030    2    1    2    0    0  0.00000000000E+00  0.00000000000E+00 -0.12998614582E+04  0.27256951392E+04  0.23957825823E+04 0.  0.
        4    1    3    3  502    0 -0.74861153711E+03 -0.53157220624E+03  0.22540315848E+03  0.94540808157E+03  0.12699999809E+01 0. -1.
       -4    1    3    3    0  502  0.74861153711E+03  0.53157220624E+03 -0.15252646166E+04  0.17802870576E+04  0.12699999809E+01 0.  1.
</event>
<event>
 5   0  0.6600166E-05  0.2386204E+04  0.7818609E-02  0.8444687E-01
        2   -1    0    0  501    0  0.00000000000E+00  0.00000000000E+00  0.15226374534E+04  0.15226374534E+04  0.25500000920E-02 0. -1.
       -2   -1    0    0    0  501  0.00000000000E+00  0.00000000000E+00 -0.93488616474E+03  0.93488616475E+03  0.25500000920E-02 0.  1.
    10030    2    1    2    0    0  0.00000000000E+00  0.00000000000E+00  0.58775128865E+03  0.24575236181E+04  0.23862042571E+04 0.  0.
        5    1    3    3  502    0  0.13175859160E+02 -0.50391144442E+03 -0.81981893264E+03  0.96240610940E+03  0.46999998093E+01 0.  1.
       -5    1    3    3    0  502 -0.13175859160E+02  0.50391144442E+03  0.14075702213E+04  0.14951175087E+04  0.46999998093E+01 0. -1.
</event>
<event>
 5   0  0.6714629E-05  0.1900994E+04  0.7818609E-02  0.8654362E-01
        2   -1    0    0  501    0  0.00000000000E+00  0.00000000000E+00  0.84755733460E+03  0.84755733460E+03  0.25500000920E-02 0. -1.
       -2   -1    0    0    0  501  0.00000000000E+00  0.00000000000E+00 -0.10659390774E+04  0.10659390774E+04  0.25500000920E-02 0.  1.
    10030    2    1    2    0    0  0.00000000000E+00  0.00000000000E+00 -0.21838174280E+03  0.19134964120E+04  0.19009939330E+04 0.  0.
        3    1    3    3  502    0  0.88544769574E+03  0.11445497851E+02 -0.45685476737E+03  0.99642606849E+03  0.10100000352E+00 0.  1.
       -3    1    3    3    0  502 -0.88544769574E+03 -0.11445497851E+02  0.23847302456E+03  0.91707034351E+03  0.10100000352E+00 0. -1.
</event>
<event>
 5   0  0.6978115E-05  0.2420785E+04  0.7818609E-02  0.8431763E-01
       -2   -1    0    0    0  501  0.00000000000E+00  0.00000000000E+00  0.97858768053E+03  0.97858768054E+03  0.25500000920E-02 0.  1.
        2   -1    0    0  501    0  0.00000000000E+00  0.00000000000E+00 -0.14971066424E+04  0.14971066424E+04  0.25500000920E-02 0. -1.
    10030    2    1    2    0    0  0.00000000000E+00  0.00000000000E+00 -0.51851896187E+03  0.24756943229E+04  0.24207850931E+04 0.  0.
        4    1    3    3  502    0 -0.86277363885E+03  0.58290977915E+02 -0.11253889561E+04  0.14192526574E+04  0.12699999809E+01 0. -1.
       -4    1    3    3    0  502  0.86277363885E+03 -0.58290977915E+02  0.60686999423E+03  0.10564416656E+04  0.12699999809E+01 0.  1.
</event>
<event>
 5   0  0.2847158E-05  0.2412237E+04  0.7818609E-02  0.8434936E-01
        1   -1    0    0  501    0  0.00000000000E+00  0.00000000000E+00  0.17380429602E+04  0.17380429602E+04  0.50400001928E-02 0.  1.
       -1   -1    0    0    0  501  0.00000000000E+00  0.00000000000E+00 -0.83698852210E+03  0.83698852211E+03  0.50400001928E-02 0. -1.
    10030    2    1    2    0    0  0.00000000000E+00  0.00000000000E+00  0.90105443813E+03  0.25750314823E+04  0.24122371431E+04 0.  0.
        5    1    3    3  502    0  0.10891306265E+04  0.30438856286E+03  0.89816202729E+03  0.14441520128E+04  0.46999998093E+01 0.  1.
       -5    1    3    3    0  502 -0.10891306265E+04 -0.30438856286E+03  0.28924108346E+01  0.11308794696E+04  0.46999998093E+01 0. -1.
</event>
<event>
 5   0  0.2915546E-05  0.2386724E+04  0.7818609E-02  0.8444491E-01
       -1   -1    0    0    0  501  0.00000000000E+00  0.00000000000E+00  0.76740587918E+03  0.76740587920E+03  0.50400001928E-02 0.  1.
        1   -1    0    0  501    0  0.00000000000E+00  0.00000000000E+00 -0.18557491654E+04  0.18557491654E+04  0.50400001928E-02 0. -1.
    10030    2    1    2    0    0  0.00000000000E+00  0.00000000000E+00 -0.10883432862E+04  0.26231550446E+04  0.23867239638E+04 0.  0.
        2    1    3    3  502    0  0.69947566050E+03  0.81692653739E+02 -0.16030259718E+04  0.17508946729E+04  0.25500000920E-02 0. -1.
       -2    1    3    3    0  502 -0.69947566050E+03 -0.81692653739E+02  0.51468268555E+03  0.87226037174E+03  0.25500000920E-02 0.  1.
</event>
<event>
 5   0  0.6978115E-05  0.2407225E+04  0.7818609E-02  0.8436804E-01
        2   -1    0    0  501    0  0.00000000000E+00  0.00000000000E+00  0.20884848964E+04  0.20884848964E+04  0.25500000920E-02 0.  1.
       -2   -1    0    0    0  501  0.00000000000E+00  0.00000000000E+00 -0.69365258977E+03  0.69365258978E+03  0.25500000920E-02 0. -1.
    10030    2    1    2    0    0  0.00000000000E+00  0.00000000000E+00  0.13948323067E+04  0.27821374862E+04  0.24072249227E+04 0.  0.
        4    1    3    3  502    0  0.52661703462E+03  0.37943861930E+03  0.18688774116E+04  0.19783840779E+04  0.12699999809E+01 0.  1.
       -4    1    3    3    0  502 -0.52661703462E+03 -0.37943861930E+03 -0.47404510497E+03  0.80375340834E+03  0.12699999809E+01 0. -1.
</event>
<event>
 5   0  0.6714629E-05  0.2338401E+04  0.7818609E-02  0.8462932E-01
       -2   -1    0    0    0  501  0.00000000000E+00  0.00000000000E+00  0.14813664129E+04  0.14813664129E+04  0.25500000920E-02 0.  1.
        2   -1    0    0  501    0  0.00000000000E+00  0.00000000000E+00 -0.92281661540E+03  0.92281661540E+03  0.25500000920E-02 0. -1.
    10030    2    1    2    0    0  0.00000000000E+00  0.00000000000E+00  0.55854979750E+03  0.24041830283E+04  0.23384007692E+04 0.  0.
        3    1    3    3  502    0  0.10176244573E+04 -0.57353509101E+03  0.22758644894E+03  0.11900830386E+04  0.10100000352E+00 0. -1.
       -3    1    3    3    0  502 -0.10176244573E+04  0.57353509101E+03  0.33096334856E+03  0.12140999897E+04  0.10100000352E+00 0.  1.
</event>
<event>
 5   0  0.2847158E-05  0.2392873E+04  0.7818609E-02  0.8442177E-01
       -1   -1    0    0    0  501  0.00000000000E+00  0.00000000000E+00  0.50850348305E+03  0.50850348308E+03  0.50400001928E-02 0. -1.
        1   -1    0    0  501    0  0.00000000000E+00  0.00000000000E+00 -0.28150454850E+04  0.28150454851E+04  0.50400001928E-02 0.  1.
    10030    2    1    2    0    0  0.00000000000E+00  0.00000000000E+00 -0.23065420020E+04  0.33235489681E+04  0.23928731134E+04 0.  0.
        5    1    3    3  502    0 -0.35421257902E+03  0.45379926494E+02 -0.27392835852E+04  0.27624667489E+04  0.46999998093E+01 0.  1.
       -5    1    3    3    0  502  0.35421257902E+03 -0.45379926494E+02  0.43274158320E+03  0.56108221919E+03  0.46999998093E+01 0. -1.
</event>
<event>
 5   0  0.6703961E-05  0.2397244E+04  0.7818609E-02  0.8440536E-01
        2   -1    0    0  501    0  0.00000000000E+00  0.00000000000E+00  0.12943720292E+04  0.12943720292E+04  0.25500000920E-02 0. -1.
       -2   -1    0    0    0  501  0.00000000000E+00  0.00000000000E+00 -0.11099550203E+04  0.11099550203E+04  0.25500000920E-02 0.  1.
    10030    2    1    2    0    0  0.00000000000E+00  0.00000000000E+00  0.18441700884E+03  0.24043270495E+04  0.23972440276E+04 0.  0.
        2    1    3    3  502    0  0.70948556193E+02 -0.11915024688E+04  0.20199837794E+03  0.12105846420E+04  0.25500000920E-02 0. -1.
       -2    1    3    3    0  502 -0.70948556193E+02  0.11915024688E+04 -0.17581369105E+02  0.11937424075E+04  0.25500000920E-02 0.  1.
</event>
<event>
 5   0  0.6978115E-05  0.2330696E+04  0.7818609E-02  0.8465915E-01
        2   -1    0    0  501    0  0.00000000000E+00  0.00000000000E+00  0.13453922095E+04  0.13453922095E+04  0.25500000920E-02 0.  1.
       -2   -1    0    0    0  501  0.00000000000E+00  0.00000000000E+00 -0.10093980472E+04  0.10093980472E+04  0.25500000920E-02 0. -1.
    10030    2    1    2    0    0  0.00000000000E+00  0.00000000000E+00  0.33599416234E+03  0.23547902567E+04  0.23306962642E+04 0.  0.
        4    1    3    3  502    0 -0.66674349362E+03  0.32323675972E+03  0.10767427602E+04  0.13070598585E+04  0.12699999809E+01 0.  1.
       -4    1    3    3    0  502  0.66674349362E+03 -0.32323675972E+03 -0.74074859790E+03  0.10477303982E+04  0.12699999809E+01 0. -1.
</event>
<event>
 5   0  0.2943123E-05  0.2355266E+04  0.7818609E-02  0.8456444E-01
        1   -1    0    0  501    0  0.00000000000E+00  0.00000000000E+00  0.12504279977E+04  0.12504279977E+04  0.50400001928E-02 0. -1.
       -1   -1    0    0    0  501  0.00000000000E+00  0.00000000000E+00 -0.11090760286E+04  0.11090760286E+04  0.50400001928E-02 0.  1.
    10030    2    1    2    0    0  0.00000000000E+00  0.00000000000E+00  0.14135196911E+03  0.23595040263E+04  0.23552661996E+04 0.  0.
        1    1    3    3  502    0  0.19447128243E+03  0.50330215873E+02 -0.10917857396E+04  0.11101118464E+04  0.50400001928E-02 0.  1.
       -1    1    3    3    0  502 -0.19447128243E+03 -0.50330215873E+02  0.12331377087E+04  0.12493921799E+04  0.50400001928E-02 0. -1.
</event>
<event>
 5   0  0.6703961E-05  0.2288206E+04  0.7818609E-02  0.8482586E-01
        2   -1    0    0  501    0  0.00000000000E+00  0.00000000000E+00  0.18150474137E+04  0.18150474137E+04  0.25500000920E-02 0. -1.
       -2   -1    0    0    0  501  0.00000000000E+00  0.00000000000E+00 -0.72117773306E+03  0.72117773306E+03  0.25500000920E-02 0.  1.
    10030    2    1    2    0    0  0.00000000000E+00  0.00000000000E+00  0.10938696806E+04  0.25362251467E+04  0.22882060914E+04 0.  0.
        2    1    3    3  502    0 -0.89430405643E+03 -0.62902631315E+02  0.13347775253E+04  0.16079078109E+04  0.25500000920E-02 0. -1.
       -2    1    3    3    0  502  0.89430405643E+03  0.62902631315E+02 -0.24090784467E+03  0.92831733583E+03  0.25500000920E-02 0.  1.
</event>
<event>
 5   0  0.2847158E-05  0.2347094E+04  0.7818609E-02  0.8459581E-01
       -1   -1    0    0    0  501  0.00000000000E+00  0.00000000000E+00  0.11851930057E+04  0.11851930057E+04  0.50400001928E-02 0.  1.
        1   -1    0    0  501    0  0.00000000000E+00  0.00000000000E+00 -0.11620157137E+04  0.11620157137E+04  0.50400001928E-02 0. -1.
    10030    2    1    2    0    0  0.00000000000E+00  0.00000000000E+00  0.23177292031E+02  0.23472087194E+04  0.23470942857E+04 0.  0.
        5    1    3    3  502    0 -0.71549241856E+03 -0.41035975724E+03 -0.82323722138E+03  0.11653609501E+04  0.46999998093E+01 0. -1.
       -5    1    3    3    0  502  0.71549241856E+03  0.41035975724E+03  0.84641451341E+03  0.11818477693E+04  0.46999998093E+01 0.  1.
</event>
<event>
 5   0  0.2943244E-05  0.2452290E+04  0.7818609E-02  0.8420182E-01
        1   -1    0    0  501    0  0.00000000000E+00  0.00000000000E+00  0.55239026195E+03  0.55239026198E+03  0.50400001928E-02 0.  1.
       -1   -1    0    0    0  501  0.00000000000E+00  0.00000000000E+00 -0.27216828140E+04  0.27216828140E+04  0.50400001928E-02 0. -1.
    10030    2    1    2    0    0  0.00000000000E+00  0.00000000000E+00 -0.21692925520E+04  0.32740730760E+04  0.24522896098E+04 0.  0.
        3    1    3    3  502    0  0.11706511006E+04  0.20023806829E+02 -0.59846481463E+03  0.13149087789E+04  0.10100000352E+00 0. -1.
       -3    1    3    3    0  502 -0.11706511006E+04 -0.20023806829E+02 -0.15708277374E+04  0.19591642971E+04  0.10100000352E+00 0.  1.
</event>
<event>
 5   0  0.6600166E-05  0.2543336E+04  0.7818609E-02  0.8387708E-01
        2   -1    0    0  501    0  0.00000000000E+00  0.00000000000E+00  0.95960987098E+03  0.95960987098E+03  0.25500000920E-02 0. -1.
       -2   -1    0    0    0  501  0.00000000000E+00  0.00000000000E+00 -0.16852050800E+04  0.16852050800E+04  0.25500000920E-02 0.  1.
    10030    2    1    2    0    0  0.00000000000E+00  0.00000000000E+00 -0.72559520906E+03  0.26448149510E+04  0.25433359428E+04 0.  0.
        5    1    3    3  502    0  0.88157650056E+03  0.44049744365E+03  0.47294963248E+03  0.10931233092E+04  0.46999998093E+01 0. -1.
       -5    1    3    3    0  502 -0.88157650056E+03 -0.44049744365E+03 -0.11985448415E+04  0.15516916418E+04  0.46999998093E+01 0.  1.
</event>
<event>
 5   0  0.2847158E-05  0.2131451E+04  0.7818609E-02  0.8547514E-01
       -1   -1    0    0    0  501  0.00000000000E+00  0.00000000000E+00  0.64161421345E+03  0.64161421347E+03  0.50400001928E-02 0. -1.
        1   -1    0    0  501    0  0.00000000000E+00  0.00000000000E+00 -0.17701779919E+04  0.17701779919E+04  0.50400001928E-02 0.  1.
    10030    2    1    2    0    0  0.00000000000E+00  0.00000000000E+00 -0.11285637785E+04  0.24117922054E+04  0.21314514867E+04 0.  0.
        5    1    3    3  502    0 -0.14749090842E+03 -0.20110543406E+03 -0.17366825098E+04  0.17545042586E+04  0.46999998093E+01 0.  1.
       -5    1    3    3    0  502  0.14749090842E+03  0.20110543406E+03  0.60811873129E+03  0.65728794681E+03  0.46999998093E+01 0. -1.
</event>
<event>
 5   0  0.6714629E-05  0.1488445E+04  0.7818609E-02  0.8892174E-01
        2   -1    0    0  501    0  0.00000000000E+00  0.00000000000E+00  0.10939976210E+04  0.10939976210E+04  0.25500000920E-02 0.  1.
       -2   -1    0    0    0  501  0.00000000000E+00  0.00000000000E+00 -0.50627784634E+03  0.50627784634E+03  0.25500000920E-02 0. -1.
    10030    2    1    2    0    0  0.00000000000E+00  0.00000000000E+00  0.58771977463E+03  0.16002754673E+04  0.14884445028E+04 0.  0.
        3    1    3    3  502    0 -0.72804989334E+03  0.11932448505E+03  0.39904595338E+03  0.83876853960E+03  0.10100000352E+00 0. -1.
       -3    1    3    3    0  502  0.72804989334E+03 -0.11932448505E+03  0.18867382124E+03  0.76150692770E+03  0.10100000352E+00 0.  1.
</event>
<event>
 5   0  0.2943123E-05  0.1705970E+04  0.7818609E-02  0.8757967E-01
       -1   -1    0    0    0  501  0.00000000000E+00  0.00000000000E+00  0.49015431456E+03  0.49015431459E+03  0.50400001928E-02 0. -1.
        1   -1    0    0  501    0  0.00000000000E+00  0.00000000000E+00 -0.14843958296E+04  0.14843958296E+04  0.50400001928E-02 0.  1.
    10030    2    1    2    0    0  0.00000000000E+00  0.00000000000E+00 -0.99424151502E+03  0.19745501442E+04  0.17059695430E+04 0.  0.
        1    1    3    3  502    0  0.12252838465E+03  0.83888956862E+03 -0.60590806345E+03  0.10420525393E+04  0.50400001928E-02 0. -1.
       -1    1    3    3    0  502 -0.12252838465E+03 -0.83888956862E+03 -0.38833345156E+03  0.93249760483E+03  0.50400001928E-02 0.  1.
</event>
<event>
 5   0  0.2943244E-05  0.2406802E+04  0.7818609E-02  0.8436961E-01
       -1   -1    0    0    0  501  0.00000000000E+00  0.00000000000E+00  0.10966394800E+04  0.10966394800E+04  0.50400001928E-02 0.  1.
        1   -1    0    0  501    0  0.00000000000E+00  0.00000000000E+00 -0.13205561514E+04  0.13205561514E+04  0.50400001928E-02 0. -1.
    10030    2    1    2    0    0  0.00000000000E+00  0.00000000000E+00 -0.22391667141E+03  0.24171956314E+04  0.24068020368E+04 0.  0.
        3    1    3    3  502    0 -0.43160991225E+03 -0.89257759480E+02  0.10126630405E+04  0.11044186289E+04  0.10100000352E+00 0.  1.
       -3    1    3    3    0  502  0.43160991225E+03  0.89257759480E+02 -0.12365797120E+04  0.13127770025E+04  0.10100000352E+00 0. -1.
</event>
<event>
 5   0  0.6714629E-05  0.2371688E+04  0.7818609E-02  0.8450180E-01
       -2   -1    0    0    0  501  0.00000000000E+00  0.00000000000E+00  0.11318146288E+04  0.11318146288E+04  0.25500000920E-02 0.  1.
        2   -1    0    0  501    0  0.00000000000E+00  0.00000000000E+00 -0.12424528663E+04  0.12424528663E+04  0.25500000920E-02 0. -1.
    10030    2    1    2    0    0  0.00000000000E+00  0.00000000000E+00 -0.11063823753E+03  0.23742674951E+04  0.23716882844E+04 0.  0.
        3    1    3    3  502    0 -0.21875432822E+03 -0.40653269287E+02 -0.12213691372E+04  0.12414703879E+04  0.10100000352E+00 0. -1.
       -3    1    3    3    0  502  0.21875432822E+03  0.40653269287E+02  0.11107308997E+04  0.11327971072E+04  0.10100000352E+00 0.  1.
</event>
<event>
 5   0  0.6600166E-05  0.2339187E+04  0.7818609E-02  0.8462628E-01
        2   -1    0    0  501    0  0.00000000000E+00  0.00000000000E+00  0.24865086768E+04  0.24865086768E+04  0.25500000920E-02 0. -1.
       -2   -1    0    0    0  501  0.00000000000E+00  0.00000000000E+00 -0.55014867390E+03  0.55014867390E+03  0.25500000920E-02 0.  1.
    10030    2    1    2    0    0  0.00000000000E+00  0.00000000000E+00  0.19363600029E+04  0.30366573507E+04  0.23391874240E+04 0.  0.
        5    1    3    3  502    0  0.85753013565E+03 -0.79465073547E+03  0.92513177191E+03  0.14908784693E+04  0.46999998093E+01 0. -1.
       -5    1    3    3    0  502 -0.85753013565E+03  0.79465073547E+03  0.10112282310E+04  0.15457788814E+04  0.46999998093E+01 0.  1.
</event>
<event>
 5   0  0.6600166E-05  0.2341410E+04  0.7818609E-02  0.8461770E-01
        2   -1    0    0  501    0  0.00000000000E+00  0.00000000000E+00  0.95514837797E+03  0.95514837798E+03  0.25500000920E-02 0.  1.
       -2   -1    0    0    0  501  0.00000000000E+00  0.00000000000E+00 -0.14349085725E+04  0.14349085725E+04  0.25500000920E-02 0. -1.
    10030    2    1    2    0    0  0.00000000000E+00  0.00000000000E+00 -0.47976019449E+03  0.23900569504E+04  0.23414103404E+04 0.  0.
        5    1    3    3  502    0  0.34089081859E+03  0.80231846497E+03  0.55776852553E+03  0.10349151113E+04  0.46999998093E+01 0.  1.
       -5    1    3    3    0  502 -0.34089081859E+03 -0.80231846497E+03 -0.10375287200E+04  0.13551418392E+04  0.46999998093E+01 0. -1.
</event>
<event>
 5   0  0.2901816E-05  0.2233063E+04  0.7818609E-02  0.8504791E-01
        1   -1    0    0  501    0  0.00000000000E+00  0.00000000000E+00  0.16783555713E+04  0.16783555713E+04  0.50400001928E-02 0. -1.
       -1   -1    0    0    0  501  0.00000000000E+00  0.00000000000E+00 -0.74277637987E+03  0.74277637989E+03  0.50400001928E-02 0.  1.
    10030    2    1    2    0    0  0.00000000000E+00  0.00000000000E+00  0.93557919141E+03  0.24211319512E+04  0.22330632552E+04 0.  0.
        4    1    3    3  502    0  0.30183451746E+03  0.10730872534E+04  0.39903830445E+03  0.11839989488E+04  0.12699999809E+01 0.  1.
       -4    1    3    3    0  502 -0.30183451746E+03 -0.10730872534E+04  0.53654088696E+03  0.12371330024E+04  0.12699999809E+01 0. -1.
</event>
<event>
 5   0  0.2847158E-05  0.2267125E+04  0.7818609E-02  0.8490997E-01
        1   -1    0    0  501    0  0.00000000000E+00  0.00000000000E+00  0.17177612774E+04  0.17177612774E+04  0.50400001928E-02 0.  1.
       -1   -1    0    0    0  501  0.00000000000E+00  0.00000000000E+00 -0.74804588332E+03  0.74804588334E+03  0.50400001928E-02 0. -1.
    10030    2    1    2    0    0  0.00000000000E+00  0.00000000000E+00  0.96971539412E+03  0.24658071608E+04  0.22671252741E+04 0.  0.
        5    1    3    3  502    0  0.30425110427E+03 -0.37840302811E+03 -0.62920476133E+03  0.79478192469E+03  0.46999998093E+01 0. -1.
       -5    1    3    3    0  502 -0.30425110427E+03  0.37840302811E+03  0.15989201555E+04  0.16710252361E+04  0.46999998093E+01 0.  1.
</event>
<event>
 5   0  0.2901816E-05  0.2399808E+04  0.7818609E-02  0.8439575E-01
        1   -1    0    0  501    0  0.00000000000E+00  0.00000000000E+00  0.13658132700E+04  0.13658132700E+04  0.50400001928E-02 0. -1.
       -1   -1    0    0    0  501  0.00000000000E+00  0.00000000000E+00 -0.10541485045E+04  0.10541485045E+04  0.50400001928E-02 0.  1.
    10030    2    1    2    0    0  0.00000000000E+00  0.00000000000E+00  0.31166476552E+03  0.24199617745E+04  0.23998083390E+04 0.  0.
        4    1    3    3  502    0 -0.10181772319E+04  0.59758676302E+03  0.37204754631E+03  0.12378270495E+04  0.12699999809E+01 0. -1.
       -4    1    3    3    0  502  0.10181772319E+04 -0.59758676302E+03 -0.60382780793E+02  0.11821347250E+04  0.12699999809E+01 0.  1.
</event>
<event>
 5   0  0.2943244E-05  0.2370916E+04  0.7818609E-02  0.8450473E-01
       -1   -1    0    0    0  501  0.00000000000E+00  0.00000000000E+00  0.82180435591E+03  0.82180435592E+03  0.50400001928E-02 0.  1.
        1   -1    0    0  501    0  0.00000000000E+00  0.00000000000E+00 -0.17100303741E+04  0.17100303742E+04  0.50400001928E-02 0. -1.
    10030    2    1    2    0    0  0.00000000000E+00  0.00000000000E+00 -0.88822601824E+03  0.25318347301E+04  0.23709157811E+04 0.  0.
        3    1    3    3  502    0  0.62668861545E+03 -0.99474896113E+03 -0.60622669373E+03  0.13227905846E+04  0.10100000352E+00 0. -1.
       -3    1    3    3    0  502 -0.62668861545E+03  0.99474896113E+03 -0.28199932451E+03  0.12090441454E+04  0.10100000352E+00 0.  1.
</event>
<event>
 5   0  0.2901816E-05  0.1827252E+04  0.7818609E-02  0.8691940E-01
       -1   -1    0    0    0  501  0.00000000000E+00  0.00000000000E+00  0.53426997852E+03  0.53426997854E+03  0.50400001928E-02 0.  1.
        1   -1    0    0  501    0  0.00000000000E+00  0.00000000000E+00 -0.15623427183E+04  0.15623427183E+04  0.50400001928E-02 0. -1.
    10030    2    1    2    0    0  0.00000000000E+00  0.00000000000E+00 -0.10280727398E+04  0.20966126969E+04  0.18272523751E+04 0.  0.
        4    1    3    3  502    0  0.29573942779E+03 -0.21018787543E+03 -0.14761338952E+04  0.15200702752E+04  0.12699999809E+01 0. -1.
       -4    1    3    3    0  502 -0.29573942779E+03  0.21018787543E+03  0.44806115538E+03  0.57654242167E+03  0.12699999809E+01 0.  1.
</event>
<event>
 5   0  0.6714629E-05  0.2290642E+04  0.7818609E-02  0.8481620E-01
        2   -1    0    0  501    0  0.00000000000E+00  0.00000000000E+00  0.16600139358E+04  0.16600139358E+04  0.25500000920E-02 0.  1.
       -2   -1    0    0    0  501  0.00000000000E+00  0.00000000000E+00 -0.79021062922E+03  0.79021062922E+03  0.25500000920E-02 0. -1.
    10030    2    1    2    0    0  0.00000000000E+00  0.00000000000E+00  0.86980330662E+03  0.24502245651E+04  0.22906424049E+04 0.  0.
        3    1    3    3  502    0  0.30558145077E+03 -0.10262312951E+04  0.86970510425E+03  0.13794628203E+04  0.10100000352E+00 0.  1.
       -3    1    3    3    0  502 -0.30558145077E+03  0.10262312951E+04  0.98202374417E-01  0.10707617447E+04  0.10100000352E+00 0. -1.
</event>
<event>
 5   0  0.6600166E-05  0.2345985E+04  0.7818609E-02  0.8460007E-01
        2   -1    0    0  501    0  0.00000000000E+00  0.00000000000E+00  0.19674362719E+04  0.19674362719E+04  0.25500000920E-02 0. -1.
       -2   -1    0    0    0  501  0.00000000000E+00  0.00000000000E+00 -0.69934231487E+03  0.69934231487E+03  0.25500000920E-02 0.  1.
    10030    2    1    2    0    0  0.00000000000E+00  0.00000000000E+00  0.12680939570E+04  0.26667785867E+04  0.23459850270E+04 0.  0.
        5    1    3    3  502    0  0.98070819851E+03  0.36134077801E+03  0.28756275587E+02  0.10455643174E+04  0.46999998093E+01 0.  1.
       -5    1    3    3    0  502 -0.98070819851E+03 -0.36134077801E+03  0.12393376814E+04  0.16212142693E+04  0.46999998093E+01 0. -1.
</event>
<event>
 5   0  0.6600166E-05  0.2384097E+04  0.7818609E-02  0.8445481E-01
       -2   -1    0    0    0  501  0.00000000000E+00  0.00000000000E+00  0.11251965881E+04  0.11251965881E+04  0.25500000920E-02 0. -1.
        2   -1    0    0  501    0  0.00000000000E+00  0.00000000000E+00 -0.12628725569E+04  0.12628725569E+04  0.25500000920E-02 0.  1.
    10030    2    1    2    0    0  0.00000000000E+00  0.00000000000E+00 -0.13767596881E+03  0.23880691450E+04  0.23840972231E+04 0.  0.
        5    1    3    3  502    0  0.44690667819E+02  0.54993793480E+03  0.98958168772E+03  0.11330150019E+04  0.46999998093E+01 0. -1.
       -5    1    3    3    0  502 -0.44690667819E+02 -0.54993793480E+03 -0.11272576565E+04  0.12550541431E+04  0.46999998093E+01 0.  1.
</event>
<event>
 5   0  0.2943123E-05  0.2455863E+04  0.7818609E-02  0.8418880E-01
        1   -1    0    0  501    0  0.00000000000E+00  0.00000000000E+00  0.10352234747E+04  0.10352234747E+04  0.50400001928E-02 0.  1.
       -1   -1    0    0    0  501  0.00000000000E+00  0.00000000000E+00 -0.14565126633E+04  0.14565126633E+04  0.50400001928E-02 0. -1.
    10030    2    1    2    0    0  0.00000000000E+00  0.00000000000E+00 -0.42128918860E+03  0.24917361380E+04  0.24558632701E+04 0.  0.
        1    1    3    3  502    0  0.40373319631E+03 -0.34559342727E+03  0.91249412852E+03  0.10559738848E+04  0.50400001928E-02 0.  1.
       -1    1    3    3    0  502 -0.40373319631E+03  0.34559342727E+03 -0.13337833171E+04  0.14357622532E+04  0.50400001928E-02 0. -1.
</event>
<event>
 5   0  0.6337926E-05  0.2421553E+04  0.7818609E-02  0.8431478E-01
       -2   -1    0    0    0  501  0.00000000000E+00  0.00000000000E+00  0.83539977013E+03  0.83539977013E+03  0.25500000920E-02 0.  1.
        2   -1    0    0  501    0  0.00000000000E+00  0.00000000000E+00 -0.17548234844E+04  0.17548234844E+04  0.25500000920E-02 0. -1.
    10030    2    1    2    0    0  0.00000000000E+00  0.00000000000E+00 -0.91942371426E+03  0.25902232545E+04  0.24215525065E+04 0.  0.
        1    1    3    3  502    0 -0.70990957915E+03  0.97476136935E+03 -0.57614111328E+03  0.13364392692E+04  0.50400001928E-02 0.  1.
       -1    1    3    3    0  502  0.70990957915E+03 -0.97476136935E+03 -0.34328260098E+03  0.12537839854E+04  0.50400001928E-02 0. -1.
</event>
<event>
 5   0  0.6337926E-05  0.2404651E+04  0.7818609E-02  0.8437764E-01
       -2   -1    0    0    0  501  0.00000000000E+00  0.00000000000E+00  0.97842418877E+03  0.97842418878E+03  0.25500000920E-02 0.  1.
        2   -1    0    0  501    0  0.00000000000E+00  0.00000000000E+00 -0.14774636842E+04  0.14774636842E+04  0.25500000920E-02 0. -1.
    10030    2    1    2    0    0  0.00000000000E+00  0.00000000000E+00 -0.49903949546E+03  0.24558878730E+04  0.24046506663E+04 0.  0.
        1    1    3    3  502    0 -0.48226544499E+03 -0.10631476387E+04  0.44225322077E+02  0.11682545700E+04  0.50400001928E-02 0.  1.
       -1    1    3    3    0  502  0.48226544499E+03  0.10631476387E+04 -0.54326481754E+03  0.12876333030E+04  0.50400001928E-02 0. -1.
</event>
<event>
 5   0  0.2943244E-05  0.2459866E+04  0.7818609E-02  0.8417424E-01
        1   -1    0    0  501    0  0.00000000000E+00  0.00000000000E+00  0.18021916665E+04  0.18021916666E+04  0.50400001928E-02 0. -1.
       -1   -1    0    0    0  501  0.00000000000E+00  0.00000000000E+00 -0.83938665121E+03  0.83938665122E+03  0.50400001928E-02 0.  1.
    10030    2    1    2    0    0  0.00000000000E+00  0.00000000000E+00  0.96280501534E+03  0.26415783178E+04  0.24598663605E+04 0.  0.
        3    1    3    3  502    0 -0.44912229253E+03  0.73632296559E+03  0.14230182529E+04  0.16639901747E+04  0.10100000352E+00 0. -1.
       -3    1    3    3    0  502  0.44912229253E+03 -0.73632296559E+03 -0.46021323752E+03  0.97758814308E+03  0.10100000352E+00 0.  1.
</event>
<event>
 5   0  0.6978115E-05  0.2187944E+04  0.7818609E-02  0.8523463E-01
        2   -1    0    0  501    0  0.00000000000E+00  0.00000000000E+00  0.10869904083E+04  0.10869904083E+04  0.25500000920E-02 0. -1.
       -2   -1    0    0    0  501  0.00000000000E+00  0.00000000000E+00 -0.11009982077E+04  0.11009982077E+04  0.25500000920E-02 0.  1.
    10030    2    1    2    0    0  0.00000000000E+00  0.00000000000E+00 -0.14007799418E+02  0.21879886160E+04  0.21879437757E+04 0.  0.
        4    1    3    3  502    0 -0.67273892394E+01  0.10585038222E+04  0.26922138244E+03  0.10922258764E+04  0.12699999809E+01 0. -1.
       -4    1    3    3    0  502  0.67273892394E+01 -0.10585038222E+04 -0.28322918186E+03  0.10957627397E+04  0.12699999809E+01 0.  1.
</event>
<event>
 5   0  0.2915546E-05  0.2542058E+04  0.7818609E-02  0.8388154E-01
       -1   -1    0    0    0  501  0.00000000000E+00  0.00000000000E+00  0.13350133202E+04  0.13350133202E+04  0.50400001928E-02 0.  1.
        1   -1    0    0  501    0  0.00000000000E+00  0.00000000000E+00 -0.12101112407E+04  0.12101112407E+04  0.50400001928E-02 0. -1.
    10030    2    1    2    0    0  0.00000000000E+00  0.00000000000E+00  0.12490207952E+03  0.25451245609E+04  0.25420579264E+04 0.  0.
        2    1    3    3  502    0  0.53648316116E+03  0.87004496593E+03 -0.69392189910E+03  0.12354432512E+04  0.25500000920E-02 0. -1.
       -2    1    3    3    0  502 -0.53648316116E+03 -0.87004496593E+03  0.81882397862E+03  0.13096813097E+04  0.25500000920E-02 0.  1.
</event>
<event>
 5   0  0.6703961E-05  0.2352909E+04  0.7818609E-02  0.8457347E-01
       -2   -1    0    0    0  501  0.00000000000E+00  0.00000000000E+00  0.11627122995E+04  0.11627122995E+04  0.25500000920E-02 0. -1.
        2   -1    0    0  501    0  0.00000000000E+00  0.00000000000E+00 -0.11903593744E+04  0.11903593744E+04  0.25500000920E-02 0.  1.
    10030    2    1    2    0    0  0.00000000000E+00  0.00000000000E+00 -0.27647074845E+02  0.23530716739E+04  0.23529092507E+04 0.  0.
        2    1    3    3  502    0 -0.51597202061E+03 -0.11511000855E+03  0.10372333350E+04  0.11641865965E+04  0.25500000920E-02 0. -1.
       -2    1    3    3    0  502  0.51597202061E+03  0.11511000855E+03 -0.10648804098E+04  0.11888850775E+04  0.25500000920E-02 0.  1.
</event>
<event>
 5   0  0.2943123E-05  0.2348860E+04  0.7818609E-02  0.8458902E-01
       -1   -1    0    0    0  501  0.00000000000E+00  0.00000000000E+00  0.14665222827E+04  0.14665222827E+04  0.50400001928E-02 0.  1.
        1   -1    0    0  501    0  0.00000000000E+00  0.00000000000E+00 -0.94051478899E+03  0.94051478901E+03  0.50400001928E-02 0. -1.
    10030    2    1    2    0    0  0.00000000000E+00  0.00000000000E+00  0.52600749371E+03  0.24070370717E+04  0.23488600599E+04 0.  0.
        1    1    3    3  502    0 -0.91450098336E+03  0.40835031863E+03  0.89156673624E+03  0.13408778007E+04  0.50400001928E-02 0. -1.
       -1    1    3    3    0  502  0.91450098336E+03 -0.40835031863E+03 -0.36555924253E+03  0.10661592710E+04  0.50400001928E-02 0.  1.
</event>
<event>
 5   0  0.6703961E-05  0.2402553E+04  0.7818609E-02  0.8438548E-01
       -2   -1    0    0    0  501  0.00000000000E+00  0.00000000000E+00  0.52682233980E+03  0.52682233980E+03  0.25500000920E-02 0.  1.
        2   -1    0    0  501    0  0.00000000000E+00  0.00000000000E+00 -0.27391881681E+04  0.27391881681E+04  0.25500000920E-02 0. -1.
    10030    2    1    2    0    0  0.00000000000E+00  0.00000000000E+00 -0.22123658283E+04  0.32660105079E+04  0.24025532417E+04 0.  0.
        2    1    3    3  502    0  0.16522755073E+03  0.58923409186E+02  0.50931731178E+03  0.53868008665E+03  0.25500000920E-02 0.  1.
       -2    1    3    3    0  502 -0.16522755073E+03 -0.58923409186E+02 -0.27216831401E+04  0.27273304212E+04  0.25500000920E-02 0. -1.
</event>
<event>
 5   0  0.6600166E-05  0.2390264E+04  0.7818609E-02  0.8443158E-01
        2   -1    0    0  501    0  0.00000000000E+00  0.00000000000E+00  0.28037457087E+04  0.28037457087E+04  0.25500000920E-02 0.  1.
       -2   -1    0    0    0  501  0.00000000000E+00  0.00000000000E+00 -0.50944009756E+03  0.50944009757E+03  0.25500000920E-02 0. -1.
    10030    2    1    2    0    0  0.00000000000E+00  0.00000000000E+00  0.22943056111E+04  0.33131858062E+04  0.23902639916E+04 0.  0.
        5    1    3    3  502    0 -0.54164660979E+03  0.63041533453E+03  0.23375311414E+04  0.24809027532E+04  0.46999998093E+01 0.  1.
       -5    1    3    3    0  502  0.54164660979E+03 -0.63041533453E+03 -0.43225530280E+02  0.83228305304E+03  0.46999998093E+01 0. -1.
</event>
<event>
 5   0  0.6600166E-05  0.2406856E+04  0.7818609E-02  0.8436941E-01
        2   -1    0    0  501    0  0.00000000000E+00  0.00000000000E+00  0.19656632440E+04  0.19656632440E+04  0.25500000920E-02 0. -1.
       -2   -1    0    0    0  501  0.00000000000E+00  0.00000000000E+00 -0.73676888155E+03  0.73676888155E+03  0.25500000920E-02 0.  1.
    10030    2    1    2    0    0  0.00000000000E+00  0.00000000000E+00  0.12288943624E+04  0.27024321255E+04  0.24068564642E+04 0.  0.
        5    1    3    3  502    0 -0.53259474897E+02 -0.18003242272E+03 -0.72021374865E+03  0.74429710374E+03  0.46999998093E+01 0.  1.
       -5    1    3    3    0  502  0.53259474897E+02  0.18003242272E+03  0.19491081111E+04  0.19581350218E+04  0.46999998093E+01 0. -1.
</event>
<event>
 5   0  0.6600166E-05  0.2394523E+04  0.7818609E-02  0.8441557E-01
        2   -1    0    0  501    0  0.00000000000E+00  0.00000000000E+00  0.87573779041E+03  0.87573779041E+03  0.25500000920E-02 0.  1.
       -2   -1    0    0    0  501  0.00000000000E+00  0.00000000000E+00 -0.16368314082E+04  0.16368314082E+04  0.25500000920E-02 0. -1.
    10030    2    1    2    0    0  0.00000000000E+00  0.00000000000E+00 -0.76109361777E+03  0.25125691986E+04  0.23945230178E+04 0.  0.
        5    1    3    3  502    0  0.76275369842E+03 -0.91784405464E+03 -0.27999950251E+03  0.12258273633E+04  0.46999998093E+01 0. -1.
       -5    1    3    3    0  502 -0.76275369842E+03  0.91784405464E+03 -0.48109411526E+03  0.12867418353E+04  0.46999998093E+01 0.  1.
</event>
<event>
 5   0  0.2943123E-05  0.2555559E+04  0.7818609E-02  0.8383455E-01
       -1   -1    0    0    0  501  0.00000000000E+00  0.00000000000E+00  0.99673323532E+03  0.99673323533E+03  0.50400001928E-02 0.  1.
        1   -1    0    0  501    0  0.00000000000E+00  0.00000000000E+00 -0.16380716354E+04  0.16380716354E+04  0.50400001928E-02 0. -1.
    10030    2    1    2    0    0  0.00000000000E+00  0.00000000000E+00 -0.64133840006E+03  0.26348048707E+04  0.25555589923E+04 0.  0.
        1    1    3    3  502    0 -0.10346609539E+04  0.72062994866E+03 -0.10714913698E+03  0.12654294725E+04  0.50400001928E-02 0. -1.
       -1    1    3    3    0  502  0.10346609539E+04 -0.72062994866E+03 -0.53418926308E+03  0.13693753982E+04  0.50400001928E-02 0.  1.
</event>
<event>
 5   0  0.2943244E-05  0.2437661E+04  0.7818609E-02  0.8425537E-01
        1   -1    0    0  501    0  0.00000000000E+00  0.00000000000E+00  0.10638059013E+04  0.10638059014E+04  0.50400001928E-02 0.  1.
       -1   -1    0    0    0  501  0.00000000000E+00  0.00000000000E+00 -0.13964466827E+04  0.13964466827E+04  0.50400001928E-02 0. -1.
    10030    2    1    2    0    0  0.00000000000E+00  0.00000000000E+00 -0.33264078139E+03  0.24602525841E+04  0.24376613563E+04 0.  0.
        3    1    3    3  502    0 -0.67907948171E+03 -0.69926478903E+02 -0.11853855989E+04  0.13679099690E+04  0.10100000352E+00 0. -1.
       -3    1    3    3    0  502  0.67907948171E+03  0.69926478903E+02  0.85274481748E+03  0.10923426152E+04  0.10100000352E+00 0.  1.
</event>
<event>
 5   0  0.2943244E-05  0.2321626E+04  0.7818609E-02  0.8469443E-01
       -1   -1    0    0    0  501  0.00000000000E+00  0.00000000000E+00  0.80833028184E+03  0.80833028186E+03  0.50400001928E-02 0. -1.
        1   -1    0    0  501    0  0.00000000000E+00  0.00000000000E+00 -0.16670000601E+04  0.16670000601E+04  0.50400001928E-02 0.  1.
    10030    2    1    2    0    0  0.00000000000E+00  0.00000000000E+00 -0.85866977827E+03  0.24753303420E+04  0.23216258342E+04 0.  0.
        3    1    3    3  502    0 -0.10868287119E+04  0.28923666695E+03 -0.12284554187E+03  0.11313467797E+04  0.10100000352E+00 0. -1.
       -3    1    3    3    0  502  0.10868287119E+04 -0.28923666695E+03 -0.73582423640E+03  0.13439835623E+04  0.10100000352E+00 0.  1.
</event>
<event>
 5   0  0.6337926E-05  0.2397377E+04  0.7818609E-02  0.8440486E-01
        2   -1    0    0  501    0  0.00000000000E+00  0.00000000000E+00  0.14091959564E+04  0.14091959564E+04  0.25500000920E-02 0. -1.
       -2   -1    0    0    0  501  0.00000000000E+00  0.00000000000E+00 -0.10196268931E+04  0.10196268931E+04  0.25500000920E-02 0.  1.
    10030    2    1    2    0    0  0.00000000000E+00  0.00000000000E+00  0.38956906335E+03  0.24288228495E+04  0.23973769789E+04 0.  0.
        1    1    3    3  502    0  0.36216985371E+03  0.11214607825E+04  0.41677690239E+03  0.12500177103E+04  0.50400001928E-02 0.  1.
       -1    1    3    3    0  502 -0.36216985371E+03 -0.11214607825E+04 -0.27207839045E+02  0.11788051392E+04  0.50400001928E-02 0. -1.
</event>
<event>
 5   0  0.2847158E-05  0.2385771E+04  0.7818609E-02  0.8444850E-01
       -1   -1    0    0    0  501  0.00000000000E+00  0.00000000000E+00  0.19506833135E+04  0.19506833135E+04  0.50400001928E-02 0.  1.
        1   -1    0    0  501    0  0.00000000000E+00  0.00000000000E+00 -0.72947537697E+03  0.72947537699E+03  0.50400001928E-02 0. -1.
    10030    2    1    2    0    0  0.00000000000E+00  0.00000000000E+00  0.12212079366E+04  0.26801586905E+04  0.23857706893E+04 0.  0.
        5    1    3    3  502    0 -0.11777794139E+03 -0.56110991454E+03 -0.56453054853E+03  0.80463209599E+03  0.46999998093E+01 0. -1.
       -5    1    3    3    0  502  0.11777794139E+03  0.56110991454E+03  0.17857384851E+04  0.18755265945E+04  0.46999998093E+01 0.  1.
</event>
<event>
 5   0  0.6337926E-05  0.2292155E+04  0.7818609E-02  0.8481021E-01
        2   -1    0    0  501    0  0.00000000000E+00  0.00000000000E+00  0.14414329921E+04  0.14414329921E+04  0.25500000920E-02 0.  1.
       -2   -1    0    0    0  501  0.00000000000E+00  0.00000000000E+00 -0.91124173597E+03  0.91124173598E+03  0.25500000920E-02 0. -1.
    10030    2    1    2    0    0  0.00000000000E+00  0.00000000000E+00  0.53019125612E+03  0.23526747281E+04  0.22921552321E+04 0.  0.
        1    1    3    3  502    0  0.93591390618E+03 -0.43737189238E+03 -0.24425765609E+03  0.10615511361E+04  0.50400001928E-02 0. -1.
       -1    1    3    3    0  502 -0.93591390618E+03  0.43737189238E+03  0.77444891221E+03  0.12911235919E+04  0.50400001928E-02 0.  1.
</event>
<event>
 5   0  0.6714629E-05  0.2201857E+04  0.7818609E-02  0.8517656E-01
        2   -1    0    0  501    0  0.00000000000E+00  0.00000000000E+00  0.21897470573E+04  0.21897470573E+04  0.25500000920E-02 0. -1.
       -2   -1    0    0    0  501  0.00000000000E+00  0.00000000000E+00 -0.55350830959E+03  0.55350830959E+03  0.25500000920E-02 0.  1.
    10030    2    1    2    0    0  0.00000000000E+00  0.00000000000E+00  0.16362387478E+04  0.27432553669E+04  0.22018566639E+04 0.  0.
        3    1    3    3  502    0 -0.40047702073E+03 -0.35060813785E+03  0.20187880023E+04  0.20877770280E+04  0.10100000352E+00 0. -1.
       -3    1    3    3    0  502  0.40047702073E+03  0.35060813785E+03 -0.38254925451E+03  0.65547833891E+03  0.10100000352E+00 0.  1.
</event>
<event>
 5   0  0.6703961E-05  0.2426205E+04  0.7818609E-02  0.8429757E-01
        2   -1    0    0  501    0  0.00000000000E+00  0.00000000000E+00  0.15973992171E+04  0.15973992171E+04  0.25500000920E-02 0.  1.
       -2   -1    0    0    0  501  0.00000000000E+00  0.00000000000E+00 -0.92125877353E+03  0.92125877353E+03  0.25500000920E-02 0. -1.
    10030    2    1    2    0    0  0.00000000000E+00  0.00000000000E+00  0.67614044357E+03  0.25186579906E+04  0.24262053034E+04 0.  0.
        2    1    3    3  502    0  0.70841360563E+03  0.76869048443E+03  0.97706056407E+03  0.14308676540E+04  0.25500000920E-02 0.  1.
       -2    1    3    3    0  502 -0.70841360563E+03 -0.76869048443E+03 -0.30092012050E+03  0.10877903366E+04  0.25500000920E-02 0. -1.
</event>
<event>
 5   0  0.2915546E-05  0.2377069E+04  0.7818609E-02  0.8448139E-01
        1   -1    0    0  501    0  0.00000000000E+00  0.00000000000E+00  0.16696973741E+04  0.16696973741E+04  0.50400001928E-02 0. -1.
       -1   -1    0    0    0  501  0.00000000000E+00  0.00000000000E+00 -0.84603045502E+03  0.84603045504E+03  0.50400001928E-02 0.  1.
    10030    2    1    2    0    0  0.00000000000E+00  0.00000000000E+00  0.82366691906E+03  0.25157278291E+04  0.23770694808E+04 0.  0.
        2    1    3    3  502    0 -0.89081186249E+03 -0.53054559346E+02 -0.41897660319E+03  0.98585087851E+03  0.25500000920E-02 0.  1.
       -2    1    3    3    0  502  0.89081186249E+03  0.53054559346E+02  0.12426435222E+04  0.15298769506E+04  0.25500000920E-02 0. -1.
</event>
<event>
 5   0  0.6600166E-05  0.2361540E+04  0.7818609E-02  0.8454044E-01
       -2   -1    0    0    0  501  0.00000000000E+00  0.00000000000E+00  0.98159665898E+03  0.98159665899E+03  0.25500000920E-02 0.  1.
        2   -1    0    0  501    0  0.00000000000E+00  0.00000000000E+00 -0.14203570658E+04  0.14203570659E+04  0.25500000920E-02 0. -1.
    10030    2    1    2    0    0  0.00000000000E+00  0.00000000000E+00 -0.43876040686E+03  0.24019537248E+04  0.23615399640E+04 0.  0.
        5    1    3    3  502    0 -0.57495092589E+03  0.10294708063E+04 -0.28221897720E+03  0.12124555040E+04  0.46999998093E+01 0.  1.
       -5    1    3    3    0  502  0.57495092589E+03 -0.10294708063E+04 -0.15654142966E+03  0.11894982208E+04  0.46999998093E+01 0. -1.
</event>
<event>
 5   0  0.2339125E-05  0.2484547E+04  0.7818609E-02  0.8408511E-01
       -3   -1    0    0    0  501  0.00000000000E+00  0.00000000000E+00  0.92164998630E+03  0.92164999184E+03  0.10100000352E+00 0.  1.
        3   -1    0    0  501    0  0.00000000000E+00  0.00000000000E+00 -0.16744360820E+04  0.16744360850E+04  0.10100000352E+00 0. -1.
    10030    2    1    2    0    0  0.00000000000E+00  0.00000000000E+00 -0.75278609568E+03  0.25960860769E+04  0.24845474462E+04 0.  0.
        4    1    3    3  502    0 -0.10115969758E+04 -0.22695178175E+03  0.33873433256E+03  0.10906778230E+04  0.12699999809E+01 0.  1.
       -4    1    3    3    0  502  0.10115969758E+04  0.22695178175E+03 -0.10915204282E+04  0.15054082539E+04  0.12699999809E+01 0. -1.
</event>
<event>
 5   0  0.6600166E-05  0.2368306E+04  0.7818609E-02  0.8451466E-01
        2   -1    0    0  501    0  0.00000000000E+00  0.00000000000E+00  0.24463952015E+04  0.24463952015E+04  0.25500000920E-02 0. -1.
       -2   -1    0    0    0  501  0.00000000000E+00  0.00000000000E+00 -0.57317717340E+03  0.57317717341E+03  0.25500000920E-02 0.  1.
    10030    2    1    2    0    0  0.00000000000E+00  0.00000000000E+00  0.18732180281E+04  0.30195723749E+04  0.23683056278E+04 0.  0.
        5    1    3    3  502    0 -0.45865892741E+03  0.10548091793E+04  0.12954359513E+04  0.17323876039E+04  0.46999998093E+01 0. -1.
       -5    1    3    3    0  502  0.45865892741E+03 -0.10548091793E+04  0.57778207683E+03  0.12871847710E+04  0.46999998093E+01 0.  1.
</event>
<event>
 5   0  0.6337926E-05  0.2313576E+04  0.7818609E-02  0.8472587E-01
        2   -1    0    0  501    0  0.00000000000E+00  0.00000000000E+00  0.62088806343E+03  0.62088806344E+03  0.25500000920E-02 0. -1.
       -2   -1    0    0    0  501  0.00000000000E+00  0.00000000000E+00 -0.21552337872E+04  0.21552337872E+04  0.25500000920E-02 0.  1.
    10030    2    1    2    0    0  0.00000000000E+00  0.00000000000E+00 -0.15343457237E+04  0.27761218506E+04  0.23135763937E+04 0.  0.
        1    1    3    3  502    0 -0.39951681630E+03  0.54564398116E+03  0.35898103481E+03  0.76564249102E+03  0.50400001928E-02 0. -1.
       -1    1    3    3    0  502  0.39951681630E+03 -0.54564398116E+03 -0.18933267586E+04  0.20104793596E+04  0.50400001928E-02 0.  1.
</event>
<event>
 5   0  0.6978115E-05  0.2559262E+04  0.7818609E-02  0.8382172E-01
       -2   -1    0    0    0  501  0.00000000000E+00  0.00000000000E+00  0.82498280571E+03  0.82498280572E+03  0.25500000920E-02 0.  1.
        2   -1    0    0  501    0  0.00000000000E+00  0.00000000000E+00 -0.19848359896E+04  0.19848359897E+04  0.25500000920E-02 0. -1.
    10030    2    1    2    0    0  0.00000000000E+00  0.00000000000E+00 -0.11598531839E+04  0.28098187954E+04  0.25592620527E+04 0.  0.
        4    1    3    3  502    0 -0.33735931620E+03  0.58475312082E+03 -0.17734154126E+04  0.18975645863E+04  0.12699999809E+01 0. -1.
       -4    1    3    3    0  502  0.33735931620E+03 -0.58475312082E+03  0.61356222871E+03  0.91225420905E+03  0.12699999809E+01 0.  1.
</event>
<event>
 5   0  0.2915546E-05  0.2398001E+04  0.7818609E-02  0.8440252E-01
        1   -1    0    0  501    0  0.00000000000E+00  0.00000000000E+00  0.17027242960E+04  0.17027242960E+04  0.50400001928E-02 0. -1.
       -1   -1    0    0    0  501  0.00000000000E+00  0.00000000000E+00 -0.84429557862E+03  0.84429557864E+03  0.50400001928E-02 0.  1.
    10030    2    1    2    0    0  0.00000000000E+00  0.00000000000E+00  0.85842871741E+03  0.25470198747E+04  0.23980013301E+04 0.  0.
        2    1    3    3  502    0  0.10692489805E+04  0.33103651241E+03 -0.27289679023E+02  0.11196531970E+04  0.25500000920E-02 0.  1.
       -2    1    3    3    0  502 -0.10692489805E+04 -0.33103651241E+03  0.88571839643E+03  0.14273666777E+04  0.25500000920E-02 0. -1.
</event>
<event>
 5   0  0.2915546E-05  0.2366372E+04  0.7818609E-02  0.8452202E-01
        1   -1    0    0  501    0  0.00000000000E+00  0.00000000000E+00  0.11254951549E+04  0.11254951549E+04  0.50400001928E-02 0. -1.
       -1   -1    0    0    0  501  0.00000000000E+00  0.00000000000E+00 -0.12438335048E+04  0.12438335049E+04  0.50400001928E-02 0.  1.
    10030    2    1    2    0    0  0.00000000000E+00  0.00000000000E+00 -0.11833834996E+03  0.23693286597E+04  0.23663715543E+04 0.  0.
        2    1    3    3  502    0  0.52534178035E+03  0.50256145390E+03  0.87547286968E+03  0.11379827532E+04  0.25500000920E-02 0. -1.
       -2    1    3    3    0  502 -0.52534178035E+03 -0.50256145390E+03 -0.99381121964E+03  0.12313459065E+04  0.25500000920E-02 0.  1.
</event>
<event>
 5   0  0.6600166E-05  0.2337661E+04  0.7818609E-02  0.8463218E-01
       -2   -1    0    0    0  501  0.00000000000E+00  0.00000000000E+00  0.11449730389E+04  0.11449730389E+04  0.25500000920E-02 0. -1.
        2   -1    0    0  501    0  0.00000000000E+00  0.00000000000E+00 -0.11931849473E+04  0.11931849473E+04  0.25500000920E-02 0.  1.
    10030    2    1    2    0    0  0.00000000000E+00  0.00000000000E+00 -0.48211908417E+02  0.23381579863E+04  0.23376608780E+04 0.  0.
        5    1    3    3  502    0  0.76865766658E+03 -0.40887856874E+03  0.75588435266E+03  0.11529958963E+04  0.46999998093E+01 0. -1.
       -5    1    3    3    0  502 -0.76865766658E+03  0.40887856874E+03 -0.80409626108E+03  0.11851620899E+04  0.46999998093E+01 0.  1.
</event>
<event>
 5   0  0.6714629E-05  0.2182344E+04  0.7818609E-02  0.8525813E-01
       -2   -1    0    0    0  501  0.00000000000E+00  0.00000000000E+00  0.61623163690E+03  0.61623163691E+03  0.25500000920E-02 0.  1.
        2   -1    0    0  501    0  0.00000000000E+00  0.00000000000E+00 -0.19321577070E+04  0.19321577070E+04  0.25500000920E-02 0. -1.
    10030    2    1    2    0    0  0.00000000000E+00  0.00000000000E+00 -0.13159260701E+04  0.25483893439E+04  0.21823443418E+04 0.  0.
        3    1    3    3  502    0 -0.60434491866E+03 -0.30958273622E+03  0.33946068314E+03  0.75914940353E+03  0.10100000352E+00 0.  1.
       -3    1    3    3    0  502  0.60434491866E+03  0.30958273622E+03 -0.16553867533E+04  0.17892399404E+04  0.10100000352E+00 0. -1.
</event>
<event>
 5   0  0.2915546E-05  0.2413394E+04  0.7818609E-02  0.8434506E-01
       -1   -1    0    0    0  501  0.00000000000E+00  0.00000000000E+00  0.12710782843E+04  0.12710782843E+04  0.50400001928E-02 0.  1.
        1   -1    0    0  501    0  0.00000000000E+00  0.00000000000E+00 -0.11455764371E+04  0.11455764371E+04  0.50400001928E-02 0. -1.
    10030    2    1    2    0    0  0.00000000000E+00  0.00000000000E+00  0.12550184720E+03  0.24166547214E+04  0.24133937368E+04 0.  0.
        2    1    3    3  502    0 -0.23555253299E+03 -0.54087852495E+03  0.11168283733E+04  0.12630677694E+04  0.25500000920E-02 0.  1.
       -2    1    3    3    0  502  0.23555253299E+03  0.54087852495E+03 -0.99132652613E+03  0.11535869521E+04  0.25500000920E-02 0. -1.
</event>
<event>
 5   0  0.6978115E-05  0.2455117E+04  0.7818609E-02  0.8419152E-01
       -2   -1    0    0    0  501  0.00000000000E+00  0.00000000000E+00  0.76378152597E+03  0.76378152597E+03  0.25500000920E-02 0. -1.
        2   -1    0    0  501    0  0.00000000000E+00  0.00000000000E+00 -0.19729462921E+04  0.19729462921E+04  0.25500000920E-02 0.  1.
    10030    2    1    2    0    0  0.00000000000E+00  0.00000000000E+00 -0.12091647662E+04  0.27367278181E+04  0.24551170479E+04 0.  0.
        4    1    3    3  502    0 -0.67104911320E+03  0.63481930285E+03 -0.15057675817E+04  0.17665333517E+04  0.12699999809E+01 0.  1.
       -4    1    3    3    0  502  0.67104911320E+03 -0.63481930285E+03  0.29660281554E+03  0.97019446643E+03  0.12699999809E+01 0. -1.
</event>
<event>
 5   0  0.2901816E-05  0.2463853E+04  0.7818609E-02  0.8415977E-01
        1   -1    0    0  501    0  0.00000000000E+00  0.00000000000E+00  0.75115870742E+03  0.75115870743E+03  0.50400001928E-02 0.  1.
       -1   -1    0    0    0  501  0.00000000000E+00  0.00000000000E+00 -0.20204031579E+04  0.20204031579E+04  0.50400001928E-02 0. -1.
    10030    2    1    2    0    0  0.00000000000E+00  0.00000000000E+00 -0.12692444505E+04  0.27715618654E+04  0.24638534247E+04 0.  0.
        4    1    3    3  502    0  0.72314661143E+03  0.97108539357E+03 -0.37886402809E+03  0.12686557563E+04  0.12699999809E+01 0.  1.
       -4    1    3    3    0  502 -0.72314661143E+03 -0.97108539357E+03 -0.89038042242E+03  0.15029061091E+04  0.12699999809E+01 0. -1.
</event>
<event>
 5   0  0.2943244E-05  0.2445066E+04  0.7818609E-02  0.8422822E-01
        1   -1    0    0  501    0  0.00000000000E+00  0.00000000000E+00  0.18461870788E+04  0.18461870788E+04  0.50400001928E-02 0. -1.
       -1   -1    0    0    0  501  0.00000000000E+00  0.00000000000E+00 -0.80955357395E+03  0.80955357397E+03  0.50400001928E-02 0.  1.
    10030    2    1    2    0    0  0.00000000000E+00  0.00000000000E+00  0.10366335048E+04  0.26557406527E+04  0.24450663368E+04 0.  0.
        3    1    3    3  502    0 -0.81456300296E+03 -0.62572936095E+03  0.12384168056E+04  0.16089519302E+04  0.10100000352E+00 0. -1.
       -3    1    3    3    0  502  0.81456300296E+03  0.62572936095E+03 -0.20178330084E+03  0.10467887225E+04  0.10100000352E+00 0.  1.
</event>
<event>
 5   0  0.6337926E-05  0.2368697E+04  0.7818609E-02  0.8451317E-01
        2   -1    0    0  501    0  0.00000000000E+00  0.00000000000E+00  0.14474103273E+04  0.14474103273E+04  0.25500000920E-02 0. -1.
       -2   -1    0    0    0  501  0.00000000000E+00  0.00000000000E+00 -0.96909756331E+03  0.96909756332E+03  0.25500000920E-02 0.  1.
    10030    2    1    2    0    0  0.00000000000E+00  0.00000000000E+00  0.47831276401E+03  0.24165078906E+04  0.23686973815E+04 0.  0.
        1    1    3    3  502    0  0.20783370537E+03 -0.99472245356E+03  0.85972218648E+03  0.13310859652E+04  0.50400001928E-02 0. -1.
       -1    1    3    3    0  502 -0.20783370537E+03  0.99472245356E+03 -0.38140942247E+03  0.10854219255E+04  0.50400001928E-02 0.  1.
</event>
<event>
 5   0  0.2915546E-05  0.2403074E+04  0.7818609E-02  0.8438354E-01
       -1   -1    0    0    0  501  0.00000000000E+00  0.00000000000E+00  0.90308704012E+03  0.90308704014E+03  0.50400001928E-02 0. -1.
        1   -1    0    0  501    0  0.00000000000E+00  0.00000000000E+00 -0.15986178166E+04  0.15986178167E+04  0.50400001928E-02 0.  1.
    10030    2    1    2    0    0  0.00000000000E+00  0.00000000000E+00 -0.69553077652E+03  0.25017048568E+04  0.24030738918E+04 0.  0.
        2    1    3    3  502    0  0.11857039576E+04  0.14220982152E+03 -0.20975925930E+03  0.12124835897E+04  0.25500000920E-02 0. -1.
       -2    1    3    3    0  502 -0.11857039576E+04 -0.14220982152E+03 -0.48577151722E+03  0.12892212671E+04  0.25500000920E-02 0.  1.
</event>
<event>
 5   0  0.6337926E-05  0.2368467E+04  0.7818609E-02  0.8451404E-01
        2   -1    0    0  501    0  0.00000000000E+00  0.00000000000E+00  0.11089149992E+04  0.11089149992E+04  0.25500000920E-02 0. -1.
       -2   -1    0    0    0  501  0.00000000000E+00  0.00000000000E+00 -0.12646673464E+04  0.12646673465E+04  0.25500000920E-02 0.  1.
    10030    2    1    2    0    0  0.00000000000E+00  0.00000000000E+00 -0.15575234727E+03  0.23735823456E+04  0.23684666681E+04 0.  0.
        1    1    3    3  502    0  0.91214820941E+03  0.10718908149E+03  0.67133788848E+03  0.11376284172E+04  0.50400001928E-02 0.  1.
       -1    1    3    3    0  502 -0.91214820941E+03 -0.10718908149E+03 -0.82709023574E+03  0.12359539284E+04  0.50400001928E-02 0. -1.
</event>
<event>
 5   0  0.6714629E-05  0.2510523E+04  0.7818609E-02  0.8399246E-01
       -2   -1    0    0    0  501  0.00000000000E+00  0.00000000000E+00  0.13663032381E+04  0.13663032381E+04  0.25500000920E-02 0.  1.
        2   -1    0    0  501    0  0.00000000000E+00  0.00000000000E+00 -0.11532444816E+04  0.11532444816E+04  0.25500000920E-02 0. -1.
    10030    2    1    2    0    0  0.00000000000E+00  0.00000000000E+00  0.21305875650E+03  0.25195477198E+04  0.25105231882E+04 0.  0.
        3    1    3    3  502    0  0.76819459013E+03  0.96775538707E+03 -0.11564445734E+03  0.12409863288E+04  0.10100000352E+00 0. -1.
       -3    1    3    3    0  502 -0.76819459013E+03 -0.96775538707E+03  0.32870321385E+03  0.12785613910E+04  0.10100000352E+00 0.  1.
</event>
<event>
 5   0  0.2943123E-05  0.2307311E+04  0.7818609E-02  0.8475044E-01
        1   -1    0    0  501    0  0.00000000000E+00  0.00000000000E+00  0.13063136126E+04  0.13063136126E+04  0.50400001928E-02 0. -1.
       -1   -1    0    0    0  501  0.00000000000E+00  0.00000000000E+00 -0.10188372573E+04  0.10188372573E+04  0.50400001928E-02 0.  1.
    10030    2    1    2    0    0  0.00000000000E+00  0.00000000000E+00  0.28747635535E+03  0.23251508699E+04  0.23073109701E+04 0.  0.
        1    1    3    3  502    0 -0.15731481734E+03 -0.83118051126E+03  0.93422146748E+03  0.12603089877E+04  0.50400001928E-02 0. -1.
       -1    1    3    3    0  502  0.15731481734E+03  0.83118051126E+03 -0.64674511213E+03  0.10648418822E+04  0.50400001928E-02 0.  1.
</event>
<event>
 5   0  0.2943123E-05  0.2228652E+04  0.7818609E-02  0.8506596E-01
       -1   -1    0    0    0  501  0.00000000000E+00  0.00000000000E+00  0.11792848681E+04  0.11792848681E+04  0.50400001928E-02 0.  1.
        1   -1    0    0  501    0  0.00000000000E+00  0.00000000000E+00 -0.10529450629E+04  0.10529450629E+04  0.50400001928E-02 0. -1.
    10030    2    1    2    0    0  0.00000000000E+00  0.00000000000E+00  0.12633980522E+03  0.22322299310E+04  0.22286517715E+04 0.  0.
        1    1    3    3  502    0  0.86822257339E+03 -0.69764164186E+03  0.28359503709E+02  0.11141447657E+04  0.50400001928E-02 0. -1.
       -1    1    3    3    0  502 -0.86822257339E+03  0.69764164186E+03  0.97980301509E+02  0.11180851653E+04  0.50400001928E-02 0.  1.
</event>
<event>
 5   0  0.6337926E-05  0.2455307E+04  0.7818609E-02  0.8419083E-01
       -2   -1    0    0    0  501  0.00000000000E+00  0.00000000000E+00  0.11068746106E+04  0.11068746106E+04  0.25500000920E-02 0.  1.
        2   -1    0    0  501    0  0.00000000000E+00  0.00000000000E+00 -0.13616115984E+04  0.13616115984E+04  0.25500000920E-02 0. -1.
    10030    2    1    2    0    0  0.00000000000E+00  0.00000000000E+00 -0.25473698784E+03  0.24684862090E+04  0.24553071561E+04 0.  0.
        1    1    3    3  502    0 -0.39391922950E+03  0.21608129764E+03 -0.12759849236E+04  0.13527752998E+04  0.50400001928E-02 0. -1.
       -1    1    3    3    0  502  0.39391922950E+03 -0.21608129764E+03  0.10212479357E+04  0.11157109092E+04  0.50400001928E-02 0.  1.
</event>
<event>
 5   0  0.2915546E-05  0.2429463E+04  0.7818609E-02  0.8428555E-01
       -1   -1    0    0    0  501  0.00000000000E+00  0.00000000000E+00  0.67572784117E+03  0.67572784119E+03  0.50400001928E-02 0.  1.
        1   -1    0    0  501    0  0.00000000000E+00  0.00000000000E+00 -0.21836791453E+04  0.21836791453E+04  0.50400001928E-02 0. -1.
    10030    2    1    2    0    0  0.00000000000E+00  0.00000000000E+00 -0.15079513041E+04  0.28594069865E+04  0.24294631462E+04 0.  0.
        2    1    3    3  502    0  0.93135661569E+03  0.76884204029E+03 -0.90756724731E+03  0.15107023323E+04  0.25500000920E-02 0. -1.
       -2    1    3    3    0  502 -0.93135661569E+03 -0.76884204029E+03 -0.60038405683E+03  0.13487046542E+04  0.25500000920E-02 0.  1.
</event>
<event>
 5   0  0.2943123E-05  0.2419754E+04  0.7818609E-02  0.8432145E-01
       -1   -1    0    0    0  501  0.00000000000E+00  0.00000000000E+00  0.72650161317E+03  0.72650161319E+03  0.50400001928E-02 0.  1.
        1   -1    0    0  501    0  0.00000000000E+00  0.00000000000E+00 -0.20148644833E+04  0.20148644833E+04  0.50400001928E-02 0. -1.
    10030    2    1    2    0    0  0.00000000000E+00  0.00000000000E+00 -0.12883628702E+04  0.27413660965E+04  0.24197539524E+04 0.  0.
        1    1    3    3  502    0 -0.34751875691E+03  0.33073332095E+03  0.61413985229E+03  0.77930839479E+03  0.50400001928E-02 0.  1.
       -1    1    3    3    0  502  0.34751875691E+03 -0.33073332095E+03 -0.19025027225E+04  0.19620577017E+04  0.50400001928E-02 0. -1.
</event>
<event>
 5   0  0.6714629E-05  0.2380396E+04  0.7818609E-02  0.8446880E-01
       -2   -1    0    0    0  501  0.00000000000E+00  0.00000000000E+00  0.99773079999E+03  0.99773079999E+03  0.25500000920E-02 0. -1.
        2   -1    0    0  501    0  0.00000000000E+00  0.00000000000E+00 -0.14197927881E+04  0.14197927881E+04  0.25500000920E-02 0.  1.
    10030    2    1    2    0    0  0.00000000000E+00  0.00000000000E+00 -0.42206198809E+03  0.24175235881E+04  0.23803957606E+04 0.  0.
        3    1    3    3  502    0  0.42753762964E+03 -0.22999832972E+03  0.89260294539E+03  0.10160844870E+04  0.10100000352E+00 0. -1.
       -3    1    3    3    0  502 -0.42753762964E+03  0.22999832972E+03 -0.13146649335E+04  0.14014391011E+04  0.10100000352E+00 0.  1.
</event>
<event>
 5   0  0.2901816E-05  0.2441871E+04  0.7818609E-02  0.8423992E-01
       -1   -1    0    0    0  501  0.00000000000E+00  0.00000000000E+00  0.85073940553E+03  0.85073940555E+03  0.50400001928E-02 0.  1.
        1   -1    0    0  501    0  0.00000000000E+00  0.00000000000E+00 -0.17522214187E+04  0.17522214187E+04  0.50400001928E-02 0. -1.
    10030    2    1    2    0    0  0.00000000000E+00  0.00000000000E+00 -0.90148201315E+03  0.26029608242E+04  0.24418712563E+04 0.  0.
        4    1    3    3  502    0  0.41689754065E+03  0.64019280263E+03 -0.14659515711E+04  0.16530777374E+04  0.12699999809E+01 0. -1.
       -4    1    3    3    0  502 -0.41689754065E+03 -0.64019280263E+03  0.56446955799E+03  0.94988308688E+03  0.12699999809E+01 0.  1.
</event>
<event>
 5   0  0.2901816E-05  0.2429398E+04  0.7818609E-02  0.8428579E-01
        1   -1    0    0  501    0  0.00000000000E+00  0.00000000000E+00  0.17308446194E+04  0.17308446194E+04  0.50400001928E-02 0. -1.
       -1   -1    0    0    0  501  0.00000000000E+00  0.00000000000E+00 -0.85247023327E+03  0.85247023329E+03  0.50400001928E-02 0.  1.
    10030    2    1    2    0    0  0.00000000000E+00  0.00000000000E+00  0.87837438610E+03  0.25833148527E+04  0.24293978813E+04 0.  0.
        4    1    3    3  502    0  0.97061287974E+02  0.11886479340E+04  0.68442184897E+03  0.13750417030E+04  0.12699999809E+01 0.  1.
       -4    1    3    3    0  502 -0.97061287974E+02 -0.11886479340E+04  0.19395253712E+03  0.12082731497E+04  0.12699999809E+01 0. -1.
</event>
<event>
 5   0  0.2901816E-05  0.2369557E+04  0.7818609E-02  0.8450990E-01
        1   -1    0    0  501    0  0.00000000000E+00  0.00000000000E+00  0.12259209991E+04  0.12259209991E+04  0.50400001928E-02 0. -1.
       -1   -1    0    0    0  501  0.00000000000E+00  0.00000000000E+00 -0.11450168863E+04  0.11450168863E+04  0.50400001928E-02 0.  1.
    10030    2    1    2    0    0  0.00000000000E+00  0.00000000000E+00  0.80904112741E+02  0.23709378854E+04  0.23695571276E+04 0.  0.
        4    1    3    3  502    0 -0.17395359283E+03  0.87576538505E+03 -0.73876599354E+03  0.11588794882E+04  0.12699999809E+01 0.  1.
       -4    1    3    3    0  502  0.17395359283E+03 -0.87576538505E+03  0.81967010628E+03  0.12120583972E+04  0.12699999809E+01 0. -1.
</event>
<event>
 5   0  0.6703961E-05  0.2325947E+04  0.7818609E-02  0.8467760E-01
       -2   -1    0    0    0  501  0.00000000000E+00  0.00000000000E+00  0.81833661636E+03  0.81833661637E+03  0.25500000920E-02 0.  1.
        2   -1    0    0  501    0  0.00000000000E+00  0.00000000000E+00 -0.16527513487E+04  0.16527513487E+04  0.25500000920E-02 0. -1.
    10030    2    1    2    0    0  0.00000000000E+00  0.00000000000E+00 -0.83441473232E+03  0.24710879651E+04  0.23259466429E+04 0.  0.
        2    1    3    3  502    0 -0.99975781907E+03  0.17987937275E+03  0.18437305279E+03  0.10324077238E+04  0.25500000920E-02 0.  1.
       -2    1    3    3    0  502  0.99975781907E+03 -0.17987937275E+03 -0.10187877851E+04  0.14386802413E+04  0.25500000920E-02 0. -1.
</event>
<event>
 5   0  0.6978115E-05  0.2387806E+04  0.7818609E-02  0.8444083E-01
        2   -1    0    0  501    0  0.00000000000E+00  0.00000000000E+00  0.97593718060E+03  0.97593718061E+03  0.25500000920E-02 0.  1.
       -2   -1    0    0    0  501  0.00000000000E+00  0.00000000000E+00 -0.14605492835E+04  0.14605492835E+04  0.25500000920E-02 0. -1.
    10030    2    1    2    0    0  0.00000000000E+00  0.00000000000E+00 -0.48461210291E+03  0.24364864641E+04  0.23878059803E+04 0.  0.
        4    1    3    3  502    0 -0.33973719871E+03 -0.47455955984E+03  0.82045277521E+03  0.10068627063E+04  0.12699999809E+01 0.  1.
       -4    1    3    3    0  502  0.33973719871E+03  0.47455955984E+03 -0.13050648781E+04  0.14296237579E+04  0.12699999809E+01 0. -1.
</event>
<event>
 5   0  0.6714629E-05  0.2019392E+04  0.7818609E-02  0.8597608E-01
        2   -1    0    0  501    0  0.00000000000E+00  0.00000000000E+00  0.16615390887E+04  0.16615390887E+04  0.25500000920E-02 0. -1.
       -2   -1    0    0    0  501  0.00000000000E+00  0.00000000000E+00 -0.61357914607E+03  0.61357914607E+03  0.25500000920E-02 0.  1.
    10030    2    1    2    0    0  0.00000000000E+00  0.00000000000E+00  0.10479599426E+04  0.22751182348E+04  0.20193917255E+04 0.  0.
        3    1    3    3  502    0  0.75654436397E+03  0.84570494557E+02 -0.22332349215E+03  0.79333784452E+03  0.10100000352E+00 0.  1.
       -3    1    3    3    0  502 -0.75654436397E+03 -0.84570494557E+02  0.12712834348E+04  0.14817803903E+04  0.10100000352E+00 0. -1.
</event>
<event>
 5   0  0.2943244E-05  0.2356071E+04  0.7818609E-02  0.8456135E-01
       -1   -1    0    0    0  501  0.00000000000E+00  0.00000000000E+00  0.12538968351E+04  0.12538968351E+04  0.50400001928E-02 0. -1.
        1   -1    0    0  501    0  0.00000000000E+00  0.00000000000E+00 -0.11067642725E+04  0.11067642725E+04  0.50400001928E-02 0.  1.
    10030    2    1    2    0    0  0.00000000000E+00  0.00000000000E+00  0.14713256255E+03  0.23606611076E+04  0.23560714917E+04 0.  0.
        3    1    3    3  502    0 -0.21612362966E+02  0.23242403443E+03  0.12304931106E+04  0.12524381547E+04  0.10100000352E+00 0. -1.
       -3    1    3    3    0  502  0.21612362966E+02 -0.23242403443E+03 -0.10833605480E+04  0.11082229529E+04  0.10100000352E+00 0.  1.
</event>
<event>
 5   0  0.6714629E-05  0.2387469E+04  0.7818609E-02  0.8444210E-01
        2   -1    0    0  501    0  0.00000000000E+00  0.00000000000E+00  0.23972525099E+04  0.23972525099E+04  0.25500000920E-02 0. -1.
       -2   -1    0    0    0  501  0.00000000000E+00  0.00000000000E+00 -0.59443112132E+03  0.59443112133E+03  0.25500000920E-02 0.  1.
    10030    2    1    2    0    0  0.00000000000E+00  0.00000000000E+00  0.18028213886E+04  0.29916836313E+04  0.23874685318E+04 0.  0.
        3    1    3    3  502    0 -0.99284182411E+03  0.40146496408E+03  0.15622146492E+04  0.18940495309E+04  0.10100000352E+00 0. -1.
       -3    1    3    3    0  502  0.99284182411E+03 -0.40146496408E+03  0.24060673944E+03  0.10976341004E+04  0.10100000352E+00 0.  1.
</event>
<event>
 5   0  0.6703961E-05  0.2476235E+04  0.7818609E-02  0.8411501E-01
       -2   -1    0    0    0  501  0.00000000000E+00  0.00000000000E+00  0.66442989024E+03  0.66442989025E+03  0.25500000920E-02 0.  1.
        2   -1    0    0  501    0  0.00000000000E+00  0.00000000000E+00 -0.23071425198E+04  0.23071425198E+04  0.25500000920E-02 0. -1.
    10030    2    1    2    0    0  0.00000000000E+00  0.00000000000E+00 -0.16427126296E+04  0.29715724100E+04  0.24762346021E+04 0.  0.
        2    1    3    3  502    0  0.96145617499E+02  0.31303051287E+03  0.61152086180E+03  0.69367848905E+03  0.25500000920E-02 0.  1.
       -2    1    3    3    0  502 -0.96145617499E+02 -0.31303051287E+03 -0.22542334914E+04  0.22778939210E+04  0.25500000920E-02 0. -1.
</event>
<event>
 5   0  0.2943244E-05  0.2379400E+04  0.7818609E-02  0.8447256E-01
        1   -1    0    0  501    0  0.00000000000E+00  0.00000000000E+00  0.10961988921E+04  0.10961988921E+04  0.50400001928E-02 0.  1.
       -1   -1    0    0    0  501  0.00000000000E+00  0.00000000000E+00 -0.12911762128E+04  0.12911762128E+04  0.50400001928E-02 0. -1.
    10030    2    1    2    0    0  0.00000000000E+00  0.00000000000E+00 -0.19497732070E+03  0.23873751050E+04  0.23793998689E+04 0.  0.
        3    1    3    3  502    0 -0.33460387402E+03 -0.10241502317E+04 -0.60370173502E+03  0.12350300582E+04  0.10100000352E+00 0. -1.
       -3    1    3    3    0  502  0.33460387402E+03  0.10241502317E+04  0.40872441431E+03  0.11523450467E+04  0.10100000352E+00 0.  1.
</event>
<event>
 5   0  0.6600166E-05  0.2456032E+04  0.7818609E-02  0.8418819E-01
        2   -1    0    0  501    0  0.00000000000E+00  0.00000000000E+00  0.26944999222E+04  0.26944999222E+04  0.25500000920E-02 0.  1.
       -2   -1    0    0    0  501  0.00000000000E+00  0.00000000000E+00 -0.55966711644E+03  0.55966711644E+03  0.25500000920E-02 0. -1.
    10030    2    1    2    0    0  0.00000000000E+00  0.00000000000E+00  0.21348328058E+04  0.32541670387E+04  0.24560317602E+04 0.  0.
        5    1    3    3  502    0  0.34020960201E+03 -0.75492450808E+03  0.22689433225E+04  0.24153218164E+04  0.46999998093E+01 0.  1.
       -5    1    3    3    0  502 -0.34020960201E+03  0.75492450808E+03 -0.13411051671E+03  0.83884522225E+03  0.46999998093E+01 0. -1.
</event>
<event>
 5   0  0.2847158E-05  0.2524657E+04  0.7818609E-02  0.8394254E-01
        1   -1    0    0  501    0  0.00000000000E+00  0.00000000000E+00  0.16058859920E+04  0.16058859920E+04  0.50400001928E-02 0. -1.
       -1   -1    0    0    0  501  0.00000000000E+00  0.00000000000E+00 -0.99227062498E+03  0.99227062500E+03  0.50400001928E-02 0.  1.
    10030    2    1    2    0    0  0.00000000000E+00  0.00000000000E+00  0.61361536706E+03  0.25981566170E+04  0.25246572021E+04 0.  0.
        5    1    3    3  502    0  0.46366277857E+03  0.39676525106E+03  0.14439867202E+04  0.15676496977E+04  0.46999998093E+01 0. -1.
       -5    1    3    3    0  502 -0.46366277857E+03 -0.39676525106E+03 -0.83037135313E+03  0.10305069193E+04  0.46999998093E+01 0.  1.
</event>
<event>
 5   0  0.6600166E-05  0.2336628E+04  0.7818609E-02  0.8463618E-01
        2   -1    0    0  501    0  0.00000000000E+00  0.00000000000E+00  0.17543411784E+04  0.17543411784E+04  0.25500000920E-02 0. -1.
       -2   -1    0    0    0  501  0.00000000000E+00  0.00000000000E+00 -0.77804539176E+03  0.77804539177E+03  0.25500000920E-02 0.  1.
    10030    2    1    2    0    0  0.00000000000E+00  0.00000000000E+00  0.97629578661E+03  0.25323865701E+04  0.23366275436E+04 0.  0.
        5    1    3    3  502    0 -0.11399052604E+03 -0.54752766837E+03  0.15998291602E+04  0.16947730879E+04  0.46999998093E+01 0. -1.
       -5    1    3    3    0  502  0.11399052604E+03  0.54752766837E+03 -0.62353337359E+03  0.83761348224E+03  0.46999998093E+01 0.  1.
</event>
<event>
 5   0  0.6337926E-05  0.2413330E+04  0.7818609E-02  0.8434530E-01
       -2   -1    0    0    0  501  0.00000000000E+00  0.00000000000E+00  0.94951925796E+03  0.94951925797E+03  0.25500000920E-02 0.  1.
        2   -1    0    0  501    0  0.00000000000E+00  0.00000000000E+00 -0.15334500062E+04  0.15334500062E+04  0.25500000920E-02 0. -1.
    10030    2    1    2    0    0  0.00000000000E+00  0.00000000000E+00 -0.58393074822E+03  0.24829692642E+04  0.24133299087E+04 0.  0.
        1    1    3    3  502    0 -0.17597264090E+02 -0.45222967997E+03  0.85889147748E+03  0.97083258972E+03  0.50400001928E-02 0.  1.
       -1    1    3    3    0  502  0.17597264090E+02  0.45222967997E+03 -0.14428222257E+04  0.15121366744E+04  0.50400001928E-02 0. -1.
</event>
<event>
 5   0  0.6978115E-05  0.2410066E+04  0.7818609E-02  0.8435744E-01
       -2   -1    0    0    0  501  0.00000000000E+00  0.00000000000E+00  0.67803921867E+03  0.67803921867E+03  0.25500000920E-02 0. -1.
        2   -1    0    0  501    0  0.00000000000E+00  0.00000000000E+00 -0.21416240995E+04  0.21416240995E+04  0.25500000920E-02 0.  1.
    10030    2    1    2    0    0  0.00000000000E+00  0.00000000000E+00 -0.14635848808E+04  0.28196633181E+04  0.24100664979E+04 0.  0.
        4    1    3    3  502    0 -0.26895187128E+03 -0.50733088856E+03 -0.19712707167E+04  0.20531998419E+04  0.12699999809E+01 0.  1.
       -4    1    3    3    0  502  0.26895187128E+03  0.50733088856E+03  0.50768583586E+03  0.76646347623E+03  0.12699999809E+01 0. -1.
</event>
<event>
 5   0  0.2943244E-05  0.2403951E+04  0.7818609E-02  0.8438026E-01
        1   -1    0    0  501    0  0.00000000000E+00  0.00000000000E+00  0.18152411106E+04  0.18152411107E+04  0.50400001928E-02 0. -1.
       -1   -1    0    0    0  501  0.00000000000E+00  0.00000000000E+00 -0.79589723930E+03  0.79589723932E+03  0.50400001928E-02 0.  1.
    10030    2    1    2    0    0  0.00000000000E+00  0.00000000000E+00  0.10193438713E+04  0.26111383500E+04  0.24039512380E+04 0.  0.
        3    1    3    3  502    0 -0.31096034961E+03  0.70045275890E+02 -0.74915291265E+03  0.81414542708E+03  0.10100000352E+00 0.  1.
       -3    1    3    3    0  502  0.31096034961E+03 -0.70045275890E+02  0.17684967840E+04  0.17969929229E+04  0.10100000352E+00 0. -1.
</event>
<event>
 5   0  0.2901816E-05  0.2462845E+04  0.7818609E-02  0.8416343E-01
        1   -1    0    0  501    0  0.00000000000E+00  0.00000000000E+00  0.25265356396E+04  0.25265356397E+04  0.50400001928E-02 0.  1.
       -1   -1    0    0    0  501  0.00000000000E+00  0.00000000000E+00 -0.60018981513E+03  0.60018981515E+03  0.50400001928E-02 0. -1.
    10030    2    1    2    0    0  0.00000000000E+00  0.00000000000E+00  0.19263458245E+04  0.31267254548E+04  0.24628446630E+04 0.  0.
        4    1    3    3  502    0  0.98305579174E+02  0.10463657259E+04  0.14842278071E+03  0.10614029178E+04  0.12699999809E+01 0. -1.
       -4    1    3    3    0  502 -0.98305579174E+02 -0.10463657259E+04  0.17779230438E+04  0.20653225370E+04  0.12699999809E+01 0.  1.
</event>
<event>
 5   0  0.6337926E-05  0.2337826E+04  0.7818609E-02  0.8463155E-01
        2   -1    0    0  501    0  0.00000000000E+00  0.00000000000E+00  0.11597124408E+04  0.11597124408E+04  0.25500000920E-02 0.  1.
       -2   -1    0    0    0  501  0.00000000000E+00  0.00000000000E+00 -0.11781861943E+04  0.11781861943E+04  0.25500000920E-02 0. -1.
    10030    2    1    2    0    0  0.00000000000E+00  0.00000000000E+00 -0.18473753430E+02  0.23378986351E+04  0.23378256454E+04 0.  0.
        1    1    3    3  502    0  0.78834950092E+03 -0.36660378118E+03 -0.79058317541E+03  0.11751234085E+04  0.50400001928E-02 0. -1.
       -1    1    3    3    0  502 -0.78834950092E+03  0.36660378118E+03  0.77210942198E+03  0.11627752266E+04  0.50400001928E-02 0.  1.
</event>
<event>
 5   0  0.2943123E-05  0.2202864E+04  0.7818609E-02  0.8517237E-01
        1   -1    0    0  501    0  0.00000000000E+00  0.00000000000E+00  0.84575541795E+03  0.84575541796E+03  0.50400001928E-02 0.  1.
       -1   -1    0    0    0  501  0.00000000000E+00  0.00000000000E+00 -0.14344009598E+04  0.14344009598E+04  0.50400001928E-02 0. -1.
    10030    2    1    2    0    0  0.00000000000E+00  0.00000000000E+00 -0.58864554188E+03  0.22801563778E+04  0.22028639389E+04 0.  0.
        1    1    3    3  502    0  0.81872451905E+03  0.10713590978E+03 -0.10488470233E+04  0.13348662928E+04  0.50400001928E-02 0. -1.
       -1    1    3    3    0  502 -0.81872451905E+03 -0.10713590978E+03  0.46020148145E+03  0.94529008501E+03  0.50400001928E-02 0.  1.
</event>
<event>
 5   0  0.6978115E-05  0.2456033E+04  0.7818609E-02  0.8418818E-01
       -2   -1    0    0    0  501  0.00000000000E+00  0.00000000000E+00  0.67503009715E+03  0.67503009715E+03  0.25500000920E-02 0.  1.
        2   -1    0    0  501    0  0.00000000000E+00  0.00000000000E+00 -0.22340111994E+04  0.22340111994E+04  0.25500000920E-02 0. -1.
    10030    2    1    2    0    0  0.00000000000E+00  0.00000000000E+00 -0.15589811023E+04  0.29090412966E+04  0.24560332221E+04 0.  0.
        4    1    3    3  502    0 -0.74368068391E+03 -0.91273818596E+03 -0.36599937742E+03  0.12329270509E+04  0.12699999809E+01 0.  1.
       -4    1    3    3    0  502  0.74368068391E+03  0.91273818596E+03 -0.11929817248E+04  0.16761142456E+04  0.12699999809E+01 0. -1.
</event>
<event>
 5   0  0.6600166E-05  0.2427247E+04  0.7818609E-02  0.8429372E-01
        2   -1    0    0  501    0  0.00000000000E+00  0.00000000000E+00  0.12754986175E+04  0.12754986175E+04  0.25500000920E-02 0. -1.
       -2   -1    0    0    0  501  0.00000000000E+00  0.00000000000E+00 -0.11547503699E+04  0.11547503699E+04  0.25500000920E-02 0.  1.
    10030    2    1    2    0    0  0.00000000000E+00  0.00000000000E+00  0.12074824760E+03  0.24302489874E+04  0.24272474125E+04 0.  0.
        5    1    3    3  502    0  0.11812743060E+04 -0.24990805541E+03 -0.62241141303E+02  0.12090322873E+04  0.46999998093E+01 0.  1.
       -5    1    3    3    0  502 -0.11812743060E+04  0.24990805541E+03  0.18298938890E+03  0.12212167001E+04  0.46999998093E+01 0. -1.
</event>
<event>
 5   0  0.6600166E-05  0.1853385E+04  0.7818609E-02  0.8678414E-01
       -2   -1    0    0    0  501  0.00000000000E+00  0.00000000000E+00  0.10327619223E+04  0.10327619223E+04  0.25500000920E-02 0.  1.
        2   -1    0    0  501    0  0.00000000000E+00  0.00000000000E+00 -0.83151698214E+03  0.83151698215E+03  0.25500000920E-02 0. -1.
    10030    2    1    2    0    0  0.00000000000E+00  0.00000000000E+00  0.20124494018E+03  0.18642789045E+04  0.18533850943E+04 0.  0.
        5    1    3    3  502    0  0.64108307435E+03  0.48954720191E+03  0.55947588850E+03  0.98167170222E+03  0.46999998093E+01 0.  1.
       -5    1    3    3    0  502 -0.64108307435E+03 -0.48954720191E+03 -0.35823094832E+03  0.88260720225E+03  0.46999998093E+01 0. -1.
</event>
<event>
 5   0  0.2901816E-05  0.2388164E+04  0.7818609E-02  0.8443948E-01
        1   -1    0    0  501    0  0.00000000000E+00  0.00000000000E+00  0.12246922119E+04  0.12246922119E+04  0.50400001928E-02 0.  1.
       -1   -1    0    0    0  501  0.00000000000E+00  0.00000000000E+00 -0.11642364839E+04  0.11642364839E+04  0.50400001928E-02 0. -1.
    10030    2    1    2    0    0  0.00000000000E+00  0.00000000000E+00  0.60455727953E+02  0.23889286958E+04  0.23881636080E+04 0.  0.
        4    1    3    3  502    0  0.85339781166E+03 -0.10688675699E+03 -0.79835938333E+03  0.11734955993E+04  0.12699999809E+01 0. -1.
       -4    1    3    3    0  502 -0.85339781166E+03  0.10688675699E+03  0.85881511129E+03  0.12154330965E+04  0.12699999809E+01 0.  1.
</event>
<event>
 5   0  0.2901816E-05  0.2038488E+04  0.7818609E-02  0.8588835E-01
       -1   -1    0    0    0  501  0.00000000000E+00  0.00000000000E+00  0.85466665133E+03  0.85466665134E+03  0.50400001928E-02 0. -1.
        1   -1    0    0  501    0  0.00000000000E+00  0.00000000000E+00 -0.12155132265E+04  0.12155132265E+04  0.50400001928E-02 0.  1.
    10030    2    1    2    0    0  0.00000000000E+00  0.00000000000E+00 -0.36084657516E+03  0.20701798778E+04  0.20384882820E+04 0.  0.
        4    1    3    3  502    0  0.39023579354E+03 -0.22204299551E+03  0.74882680527E+03  0.87311526365E+03  0.12699999809E+01 0. -1.
       -4    1    3    3    0  502 -0.39023579354E+03  0.22204299551E+03 -0.11096733804E+04  0.11970646142E+04  0.12699999809E+01 0.  1.
</event>
<event>
 5   0  0.2943123E-05  0.2254267E+04  0.7818609E-02  0.8496175E-01
        1   -1    0    0  501    0  0.00000000000E+00  0.00000000000E+00  0.11769910170E+04  0.11769910170E+04  0.50400001928E-02 0. -1.
       -1   -1    0    0    0  501  0.00000000000E+00  0.00000000000E+00 -0.10793876234E+04  0.10793876234E+04  0.50400001928E-02 0.  1.
    10030    2    1    2    0    0  0.00000000000E+00  0.00000000000E+00  0.97603393568E+02  0.22563786404E+04  0.22542666538E+04 0.  0.
        1    1    3    3  502    0 -0.77288809545E+03 -0.47373511434E+03 -0.62163817909E+03  0.10991883334E+04  0.50400001928E-02 0.  1.
       -1    1    3    3    0  502  0.77288809545E+03  0.47373511434E+03  0.71924157266E+03  0.11571903070E+04  0.50400001928E-02 0. -1.
</event>
<event>
 5   0  0.6600166E-05  0.2126279E+04  0.7818609E-02  0.8549755E-01
       -2   -1    0    0    0  501  0.00000000000E+00  0.00000000000E+00  0.12651355317E+04  0.12651355317E+04  0.25500000920E-02 0. -1.
        2   -1    0    0  501    0  0.00000000000E+00  0.00000000000E+00 -0.89339486556E+03  0.89339486557E+03  0.25500000920E-02 0.  1.
    10030    2    1    2    0    0  0.00000000000E+00  0.00000000000E+00  0.37174066609E+03  0.21585303972E+04  0.21262789923E+04 0.  0.
        5    1    3    3  502    0 -0.44981084843E+03 -0.68225675411E+03 -0.50447333319E+03  0.96037467261E+03  0.46999998093E+01 0.  1.
       -5    1    3    3    0  502  0.44981084843E+03  0.68225675411E+03  0.87621399927E+03  0.11981557246E+04  0.46999998093E+01 0. -1.
</event>
<event>
 5   0  0.6337926E-05  0.2276773E+04  0.7818609E-02  0.8487136E-01
       -2   -1    0    0    0  501  0.00000000000E+00  0.00000000000E+00  0.13054598691E+04  0.13054598691E+04  0.25500000920E-02 0.  1.
        2   -1    0    0  501    0  0.00000000000E+00  0.00000000000E+00 -0.99269529967E+03  0.99269529967E+03  0.25500000920E-02 0. -1.
    10030    2    1    2    0    0  0.00000000000E+00  0.00000000000E+00  0.31276456939E+03  0.22981551687E+04  0.22767730462E+04 0.  0.
        1    1    3    3  502    0  0.80097019004E+03 -0.25674701475E+01  0.97290697042E+03  0.12602014959E+04  0.50400001928E-02 0.  1.
       -1    1    3    3    0  502 -0.80097019004E+03  0.25674701475E+01 -0.66014240102E+03  0.10379536728E+04  0.50400001928E-02 0. -1.
</event>
<event>
 5   0  0.6337926E-05  0.2489165E+04  0.7818609E-02  0.8406856E-01
        2   -1    0    0  501    0  0.00000000000E+00  0.00000000000E+00  0.17299095473E+04  0.17299095473E+04  0.25500000920E-02 0. -1.
       -2   -1    0    0    0  501  0.00000000000E+00  0.00000000000E+00 -0.89541413365E+03  0.89541413365E+03  0.25500000920E-02 0.  1.
    10030    2    1    2    0    0  0.00000000000E+00  0.00000000000E+00  0.83449541365E+03  0.26253236810E+04  0.24891648869E+04 0.  0.
        1    1    3    3  502    0 -0.73253458914E+03  0.27911742274E+03 -0.60231123084E+03  0.98858094196E+03  0.50400001928E-02 0.  1.
       -1    1    3    3    0  502  0.73253458914E+03 -0.27911742274E+03  0.14368066445E+04  0.16367427390E+04  0.50400001928E-02 0. -1.
</event>
<event>
 5   0  0.6337926E-05  0.2335073E+04  0.7818609E-02  0.8464219E-01
       -2   -1    0    0    0  501  0.00000000000E+00  0.00000000000E+00  0.11660468926E+04  0.11660468926E+04  0.25500000920E-02 0.  1.
        2   -1    0    0  501    0  0.00000000000E+00  0.00000000000E+00 -0.11690285032E+04  0.11690285032E+04  0.25500000920E-02 0. -1.
    10030    2    1    2    0    0  0.00000000000E+00  0.00000000000E+00 -0.29816105641E+01  0.23350753958E+04  0.23350734922E+04 0.  0.
        1    1    3    3  502    0 -0.73811568160E+03  0.72009872348E+03 -0.54901761855E+03  0.11682368238E+04  0.50400001928E-02 0. -1.
       -1    1    3    3    0  502  0.73811568160E+03 -0.72009872348E+03  0.54603600799E+03  0.11668385720E+04  0.50400001928E-02 0.  1.
</event>
<event>
 5   0  0.2915546E-05  0.1513870E+04  0.7818609E-02  0.8875281E-01
       -1   -1    0    0    0  501  0.00000000000E+00  0.00000000000E+00  0.63451515062E+03  0.63451515064E+03  0.50400001928E-02 0. -1.
        1   -1    0    0  501    0  0.00000000000E+00  0.00000000000E+00 -0.90297429510E+03  0.90297429512E+03  0.50400001928E-02 0.  1.
    10030    2    1    2    0    0  0.00000000000E+00  0.00000000000E+00 -0.26845914448E+03  0.15374894458E+04  0.15138703655E+04 0.  0.
        2    1    3    3  502    0 -0.27013328876E+03  0.34786086022E+03 -0.75944091000E+03  0.87791210697E+03  0.25500000920E-02 0.  1.
       -2    1    3    3    0  502  0.27013328876E+03 -0.34786086022E+03  0.49098176552E+03  0.65957733879E+03  0.25500000920E-02 0. -1.
</event>
<event>
 5   0  0.2847158E-05  0.2452544E+04  0.7818609E-02  0.8420090E-01
        1   -1    0    0  501    0  0.00000000000E+00  0.00000000000E+00  0.12345314205E+04  0.12345314205E+04  0.50400001928E-02 0. -1.
       -1   -1    0    0    0  501  0.00000000000E+00  0.00000000000E+00 -0.12180679361E+04  0.12180679361E+04  0.50400001928E-02 0.  1.
    10030    2    1    2    0    0  0.00000000000E+00  0.00000000000E+00  0.16463484408E+02  0.24525993567E+04  0.24525440991E+04 0.  0.
        5    1    3    3  502    0 -0.40968975378E+02  0.22917440979E+03 -0.11957562148E+04  0.12182177073E+04  0.46999998093E+01 0.  1.
       -5    1    3    3    0  502  0.40968975378E+02 -0.22917440979E+03  0.12122196993E+04  0.12343816494E+04  0.46999998093E+01 0. -1.
</event>
<event>
 5   0  0.6600166E-05  0.2445427E+04  0.7818609E-02  0.8422690E-01
        2   -1    0    0  501    0  0.00000000000E+00  0.00000000000E+00  0.17851687352E+04  0.17851687352E+04  0.25500000920E-02 0. -1.
       -2   -1    0    0    0  501  0.00000000000E+00  0.00000000000E+00 -0.83747148325E+03  0.83747148325E+03  0.25500000920E-02 0.  1.
    10030    2    1    2    0    0  0.00000000000E+00  0.00000000000E+00  0.94769725196E+03  0.26226402185E+04  0.24454266773E+04 0.  0.
        5    1    3    3  502    0  0.12080703676E+04 -0.64844621911E+02  0.66379037325E+03  0.13799560093E+04  0.46999998093E+01 0. -1.
       -5    1    3    3    0  502 -0.12080703676E+04  0.64844621911E+02  0.28390687871E+03  0.12426842092E+04  0.46999998093E+01 0.  1.
</event>
<event>
 5   0  0.2901816E-05  0.2416285E+04  0.7818609E-02  0.8433432E-01
       -1   -1    0    0    0  501  0.00000000000E+00  0.00000000000E+00  0.11095895963E+04  0.11095895963E+04  0.50400001928E-02 0.  1.
        1   -1    0    0  501    0  0.00000000000E+00  0.00000000000E+00 -0.13154485981E+04  0.13154485981E+04  0.50400001928E-02 0. -1.
    10030    2    1    2    0    0  0.00000000000E+00  0.00000000000E+00 -0.20585900182E+03  0.24250381944E+04  0.24162848168E+04 0.  0.
        4    1    3    3  502    0  0.41455909008E+03  0.42478909526E+03  0.95316648713E+03  0.11228681934E+04  0.12699999809E+01 0.  1.
       -4    1    3    3    0  502 -0.41455909008E+03 -0.42478909526E+03 -0.11590254889E+04  0.13021700010E+04  0.12699999809E+01 0. -1.
</event>
<event>
 5   0  0.6703961E-05  0.2381237E+04  0.7818609E-02  0.8446562E-01
        2   -1    0    0  501    0  0.00000000000E+00  0.00000000000E+00  0.16477706312E+04  0.16477706312E+04  0.25500000920E-02 0.  1.
       -2   -1    0    0    0  501  0.00000000000E+00  0.00000000000E+00 -0.86029718638E+03  0.86029718638E+03  0.25500000920E-02 0. -1.
    10030    2    1    2    0    0  0.00000000000E+00  0.00000000000E+00  0.78747344484E+03  0.25080678176E+04  0.23812370212E+04 0.  0.
        2    1    3    3  502    0  0.11169531540E+04  0.36171343067E+03  0.60214298312E+03  0.13194685015E+04  0.25500000920E-02 0. -1.
       -2    1    3    3    0  502 -0.11169531540E+04 -0.36171343067E+03  0.18533046172E+03  0.11885993161E+04  0.25500000920E-02 0.  1.
</event>
<event>
 5   0  0.2943123E-05  0.2502494E+04  0.7818609E-02  0.8402098E-01
        1   -1    0    0  501    0  0.00000000000E+00  0.00000000000E+00  0.12398962714E+04  0.12398962714E+04  0.50400001928E-02 0.  1.
       -1   -1    0    0    0  501  0.00000000000E+00  0.00000000000E+00 -0.12627013991E+04  0.12627013992E+04  0.50400001928E-02 0. -1.
    10030    2    1    2    0    0  0.00000000000E+00  0.00000000000E+00 -0.22805127715E+02  0.25025976706E+04  0.25024937616E+04 0.  0.
        1    1    3    3  502    0  0.23650390595E+03 -0.79240274775E+03 -0.95047432530E+03  0.12598562042E+04  0.50400001928E-02 0. -1.
       -1    1    3    3    0  502 -0.23650390595E+03  0.79240274775E+03  0.92766919758E+03  0.12427414664E+04  0.50400001928E-02 0.  1.
</event>
<event>
 5   0  0.6714629E-05  0.2390777E+04  0.7818609E-02  0.8442965E-01
       -2   -1    0    0    0  501  0.00000000000E+00  0.00000000000E+00  0.13377921100E+04  0.13377921100E+04  0.25500000920E-02 0. -1.
        2   -1    0    0  501    0  0.00000000000E+00  0.00000000000E+00 -0.10681431305E+04  0.10681431305E+04  0.25500000920E-02 0.  1.
    10030    2    1    2    0    0  0.00000000000E+00  0.00000000000E+00  0.26964897950E+03  0.24059352406E+04  0.23907768214E+04 0.  0.
        3    1    3    3  502    0  0.72970875685E+03 -0.62390353831E+02 -0.81593339570E+03  0.10964099336E+04  0.10100000352E+00 0.  1.
       -3    1    3    3    0  502 -0.72970875685E+03  0.62390353831E+02  0.10855823752E+04  0.13095253070E+04  0.10100000352E+00 0. -1.
</event>
<event>
 5   0  0.6600166E-05  0.2388557E+04  0.7818609E-02  0.8443800E-01
       -2   -1    0    0    0  501  0.00000000000E+00  0.00000000000E+00  0.66492050487E+03  0.66492050488E+03  0.25500000920E-02 0. -1.
        2   -1    0    0  501    0  0.00000000000E+00  0.00000000000E+00 -0.21450694485E+04  0.21450694485E+04  0.25500000920E-02 0.  1.
    10030    2    1    2    0    0  0.00000000000E+00  0.00000000000E+00 -0.14801489436E+04  0.28099899534E+04  0.23885566024E+04 0.  0.
        5    1    3    3  502    0  0.59725012936E+03 -0.16556865166E+03  0.46090611454E+03  0.77238412195E+03  0.46999998093E+01 0. -1.
       -5    1    3    3    0  502 -0.59725012936E+03  0.16556865166E+03 -0.19410550582E+04  0.20376058314E+04  0.46999998093E+01 0.  1.
</event>
<event>
 5   0  0.2943123E-05  0.2471614E+04  0.7818609E-02  0.8413168E-01
       -1   -1    0    0    0  501  0.00000000000E+00  0.00000000000E+00  0.12723079592E+04  0.12723079592E+04  0.50400001928E-02 0.  1.
        1   -1    0    0  501    0  0.00000000000E+00  0.00000000000E+00 -0.12003536053E+04  0.12003536053E+04  0.50400001928E-02 0. -1.
    10030    2    1    2    0    0  0.00000000000E+00  0.00000000000E+00  0.71954353866E+02  0.24726615645E+04  0.24716144083E+04 0.  0.
        1    1    3    3  502    0  0.37114868395E+03  0.39618812775E+03 -0.10746747241E+04  0.12040108558E+04  0.50400001928E-02 0. -1.
       -1    1    3    3    0  502 -0.37114868395E+03 -0.39618812775E+03  0.11466290780E+04  0.12686507087E+04  0.50400001928E-02 0.  1.
</event>
<event>
 5   0  0.2901816E-05  0.2383369E+04  0.7818609E-02  0.8445756E-01
        1   -1    0    0  501    0  0.00000000000E+00  0.00000000000E+00  0.17683843454E+04  0.17683843454E+04  0.50400001928E-02 0.  1.
       -1   -1    0    0    0  501  0.00000000000E+00  0.00000000000E+00 -0.80305629227E+03  0.80305629228E+03  0.50400001928E-02 0. -1.
    10030    2    1    2    0    0  0.00000000000E+00  0.00000000000E+00  0.96532805308E+03  0.25714406376E+04  0.23833691915E+04 0.  0.
        4    1    3    3  502    0  0.44921134497E+03  0.91212913646E+03 -0.18794611115E+03  0.10339708640E+04  0.12699999809E+01 0. -1.
       -4    1    3    3    0  502 -0.44921134497E+03 -0.91212913646E+03  0.11532741642E+04  0.15374697736E+04  0.12699999809E+01 0.  1.
</event>
<event>
 5   0  0.2847158E-05  0.2410795E+04  0.7818609E-02  0.8435473E-01
        1   -1    0    0  501    0  0.00000000000E+00  0.00000000000E+00  0.24576438328E+04  0.24576438328E+04  0.50400001928E-02 0.  1.
       -1   -1    0    0    0  501  0.00000000000E+00  0.00000000000E+00 -0.59120975315E+03  0.59120975317E+03  0.50400001928E-02 0. -1.
    10030    2    1    2    0    0  0.00000000000E+00  0.00000000000E+00  0.18664340797E+04  0.30488535860E+04  0.24107948928E+04 0.  0.
        5    1    3    3  502    0  0.54036819526E+03  0.59353754119E+02 -0.42736770833E+03  0.69150987173E+03  0.46999998093E+01 0. -1.
       -5    1    3    3    0  502 -0.54036819526E+03 -0.59353754119E+02  0.22938017880E+04  0.23573437143E+04  0.46999998093E+01 0.  1.
</event>
<event>
 5   0  0.2847158E-05  0.2328196E+04  0.7818609E-02  0.8466886E-01
        1   -1    0    0  501    0  0.00000000000E+00  0.00000000000E+00  0.85213132091E+03  0.85213132092E+03  0.50400001928E-02 0.  1.
       -1   -1    0    0    0  501  0.00000000000E+00  0.00000000000E+00 -0.15902763273E+04  0.15902763273E+04  0.50400001928E-02 0. -1.
    10030    2    1    2    0    0  0.00000000000E+00  0.00000000000E+00 -0.73814500638E+03  0.24424076482E+04  0.23281960978E+04 0.  0.
        5    1    3    3  502    0  0.36887604770E+03  0.41369814583E+03  0.70480739613E+03  0.89665559167E+03  0.46999998093E+01 0.  1.
       -5    1    3    3    0  502 -0.36887604770E+03 -0.41369814583E+03 -0.14429524025E+04  0.15457520566E+04  0.46999998093E+01 0. -1.
</event>
<event>
 5   0  0.6600166E-05  0.2202320E+04  0.7818609E-02  0.8517463E-01
        2   -1    0    0  501    0  0.00000000000E+00  0.00000000000E+00  0.18794047534E+04  0.18794047534E+04  0.25500000920E-02 0. -1.
       -2   -1    0    0    0  501  0.00000000000E+00  0.00000000000E+00 -0.64517923653E+03  0.64517923654E+03  0.25500000920E-02 0.  1.
    10030    2    1    2    0    0  0.00000000000E+00  0.00000000000E+00  0.12342255169E+04  0.25245839900E+04  0.22023196171E+04 0.  0.
        5    1    3    3  502    0  0.60658391255E+03  0.18334832283E+03  0.16494270028E+04  0.17669726025E+04  0.46999998093E+01 0. -1.
       -5    1    3    3    0  502 -0.60658391255E+03 -0.18334832283E+03 -0.41520148594E+03  0.75761138743E+03  0.46999998093E+01 0.  1.
</event>
<event>
 5   0  0.6600166E-05  0.2358134E+04  0.7818609E-02  0.8455346E-01
        2   -1    0    0  501    0  0.00000000000E+00  0.00000000000E+00  0.96125702909E+03  0.96125702909E+03  0.25500000920E-02 0. -1.
       -2   -1    0    0    0  501  0.00000000000E+00  0.00000000000E+00 -0.14462298813E+04  0.14462298813E+04  0.25500000920E-02 0.  1.
    10030    2    1    2    0    0  0.00000000000E+00  0.00000000000E+00 -0.48497285216E+03  0.24074869103E+04  0.23581337019E+04 0.  0.
        5    1    3    3  502    0  0.68524215837E+03  0.23952264594E+03 -0.11910434835E+04  0.13948242123E+04  0.46999998093E+01 0.  1.
       -5    1    3    3    0  502 -0.68524215837E+03 -0.23952264594E+03  0.70607063138E+03  0.10126626980E+04  0.46999998093E+01 0. -1.
</event>
<event>
 5   0  0.6714629E-05  0.2375371E+04  0.7818609E-02  0.8448782E-01
       -2   -1    0    0    0  501  0.00000000000E+00  0.00000000000E+00  0.71828046054E+03  0.71828046054E+03  0.25500000920E-02 0. -1.
        2   -1    0    0  501    0  0.00000000000E+00  0.00000000000E+00 -0.19638516995E+04  0.19638516995E+04  0.25500000920E-02 0.  1.
    10030    2    1    2    0    0  0.00000000000E+00  0.00000000000E+00 -0.12455712390E+04  0.26821321601E+04  0.23753705422E+04 0.  0.
        3    1    3    3  502    0  0.10262618130E+04  0.53807136399E+03 -0.32863975484E+03  0.12044659398E+04  0.10100000352E+00 0.  1.
       -3    1    3    3    0  502 -0.10262618130E+04 -0.53807136399E+03 -0.91693148416E+03  0.14776662202E+04  0.10100000352E+00 0. -1.
</event>
<event>
 5   0  0.6600166E-05  0.2593795E+04  0.7818609E-02  0.8370312E-01
       -2   -1    0    0    0  501  0.00000000000E+00  0.00000000000E+00  0.95367204543E+03  0.95367204544E+03  0.25500000920E-02 0.  1.
        2   -1    0    0  501    0  0.00000000000E+00  0.00000000000E+00 -0.17636494739E+04  0.17636494739E+04  0.25500000920E-02 0. -1.
    10030    2    1    2    0    0  0.00000000000E+00  0.00000000000E+00 -0.80997742845E+03  0.27173215193E+04  0.25937950584E+04 0.  0.
        5    1    3    3  502    0 -0.92486436274E+03 -0.65301941649E+03  0.25768007747E+03  0.11611328779E+04  0.46999998093E+01 0.  1.
       -5    1    3    3    0  502  0.92486436274E+03  0.65301941649E+03 -0.10676575059E+04  0.15561886414E+04  0.46999998093E+01 0. -1.
</event>
<event>
 5   0  0.2915546E-05  0.2271318E+04  0.7818609E-02  0.8489316E-01
       -1   -1    0    0    0  501  0.00000000000E+00  0.00000000000E+00  0.16630803760E+04  0.16630803760E+04  0.50400001928E-02 0.  1.
        1   -1    0    0  501    0  0.00000000000E+00  0.00000000000E+00 -0.77550179029E+03  0.77550179031E+03  0.50400001928E-02 0. -1.
    10030    2    1    2    0    0  0.00000000000E+00  0.00000000000E+00  0.88757858572E+03  0.24385821663E+04  0.22713183916E+04 0.  0.
        2    1    3    3  502    0  0.95392270164E+03  0.31854434996E+03  0.10101622996E+04  0.14254356860E+04  0.25500000920E-02 0. -1.
       -2    1    3    3    0  502 -0.95392270164E+03 -0.31854434996E+03 -0.12258371384E+03  0.10131464803E+04  0.25500000920E-02 0.  1.
</event>
<event>
 5   0  0.6714629E-05  0.2434914E+04  0.7818609E-02  0.8426547E-01
       -2   -1    0    0    0  501  0.00000000000E+00  0.00000000000E+00  0.13759491265E+04  0.13759491265E+04  0.25500000920E-02 0. -1.
        2   -1    0    0  501    0  0.00000000000E+00  0.00000000000E+00 -0.10772209208E+04  0.10772209208E+04  0.25500000920E-02 0.  1.
    10030    2    1    2    0    0  0.00000000000E+00  0.00000000000E+00  0.29872820565E+03  0.24531700473E+04  0.24349137028E+04 0.  0.
        3    1    3    3  502    0  0.55735734868E+03 -0.82399500516E+02 -0.93797023210E+03  0.10941778001E+04  0.10100000352E+00 0.  1.
       -3    1    3    3    0  502 -0.55735734868E+03  0.82399500516E+02  0.12366984377E+04  0.13589922472E+04  0.10100000352E+00 0. -1.
</event>
<event>
 5   0  0.6978115E-05  0.1959047E+04  0.7818609E-02  0.8626011E-01
        2   -1    0    0  501    0  0.00000000000E+00  0.00000000000E+00  0.11593309862E+04  0.11593309862E+04  0.25500000920E-02 0. -1.
       -2   -1    0    0    0  501  0.00000000000E+00  0.00000000000E+00 -0.82760307731E+03  0.82760307731E+03  0.25500000920E-02 0.  1.
    10030    2    1    2    0    0  0.00000000000E+00  0.00000000000E+00  0.33172790887E+03  0.19869340635E+04  0.19590465965E+04 0.  0.
        4    1    3    3  502    0 -0.68714676481E+03 -0.67303400114E+03  0.35375451528E+03  0.10248362372E+04  0.12699999809E+01 0. -1.
       -4    1    3    3    0  502  0.68714676481E+03  0.67303400114E+03 -0.22026606406E+02  0.96209782630E+03  0.12699999809E+01 0.  1.
</event>
<event>
 5   0  0.6714629E-05  0.2415671E+04  0.7818609E-02  0.8433660E-01
        2   -1    0    0  501    0  0.00000000000E+00  0.00000000000E+00  0.14190372570E+04  0.14190372570E+04  0.25500000920E-02 0. -1.
       -2   -1    0    0    0  501  0.00000000000E+00  0.00000000000E+00 -0.10280680983E+04  0.10280680983E+04  0.25500000920E-02 0.  1.
    10030    2    1    2    0    0  0.00000000000E+00  0.00000000000E+00  0.39096915864E+03  0.24471053553E+04  0.24156712808E+04 0.  0.
        3    1    3    3  502    0 -0.10413755420E+04 -0.39333996319E+03 -0.27932293305E+03  0.11476936251E+04  0.10100000352E+00 0.  1.
       -3    1    3    3    0  502  0.10413755420E+04  0.39333996319E+03  0.67029209169E+03  0.12994117301E+04  0.10100000352E+00 0. -1.
</event>
<event>
 5   0  0.2915546E-05  0.2113148E+04  0.7818609E-02  0.8555474E-01
       -1   -1    0    0    0  501  0.00000000000E+00  0.00000000000E+00  0.68028467071E+03  0.68028467072E+03  0.50400001928E-02 0. -1.
        1   -1    0    0  501    0  0.00000000000E+00  0.00000000000E+00 -0.16410017401E+04  0.16410017401E+04  0.50400001928E-02 0.  1.
    10030    2    1    2    0    0  0.00000000000E+00  0.00000000000E+00 -0.96071706937E+03  0.23212864108E+04  0.21131477264E+04 0.  0.
        2    1    3    3  502    0 -0.67728045455E+03  0.20124552747E+03  0.38260139615E+03  0.80348765067E+03  0.25500000920E-02 0. -1.
       -2    1    3    3    0  502  0.67728045455E+03 -0.20124552747E+03 -0.13433184655E+04  0.15177987601E+04  0.25500000920E-02 0.  1.
</event>
<event>
 5   0  0.6703961E-05  0.2458153E+04  0.7818609E-02  0.8418047E-01
       -2   -1    0    0    0  501  0.00000000000E+00  0.00000000000E+00  0.57922273713E+03  0.57922273713E+03  0.25500000920E-02 0. -1.
        2   -1    0    0  501    0  0.00000000000E+00  0.00000000000E+00 -0.26080287573E+04  0.26080287573E+04  0.25500000920E-02 0.  1.
    10030    2    1    2    0    0  0.00000000000E+00  0.00000000000E+00 -0.20288060202E+04  0.31872514945E+04  0.24581534170E+04 0.  0.
        2    1    3    3  502    0  0.96744766830E+03  0.74290868624E+03 -0.81878655356E+03  0.14691084804E+04  0.25500000920E-02 0. -1.
       -2    1    3    3    0  502 -0.96744766830E+03 -0.74290868624E+03 -0.12100194667E+04  0.17181430140E+04  0.25500000920E-02 0.  1.
</event>
<event>
 5   0  0.2901816E-05  0.2429528E+04  0.7818609E-02  0.8428531E-01
       -1   -1    0    0    0  501  0.00000000000E+00  0.00000000000E+00  0.71677982552E+03  0.71677982554E+03  0.50400001928E-02 0. -1.
        1   -1    0    0  501    0  0.00000000000E+00  0.00000000000E+00 -0.20587233708E+04  0.20587233708E+04  0.50400001928E-02 0.  1.
    10030    2    1    2    0    0  0.00000000000E+00  0.00000000000E+00 -0.13419435453E+04  0.27755031963E+04  0.24295278377E+04 0.  0.
        4    1    3    3  502    0 -0.24031069990E+02  0.11851973872E+04 -0.97404160922E+03  0.15342845265E+04  0.12699999809E+01 0.  1.
       -4    1    3    3    0  502  0.24031069990E+02 -0.11851973872E+04 -0.36790193604E+03  0.12412186698E+04  0.12699999809E+01 0. -1.
</event>
<event>
 5   0  0.2901816E-05  0.2158572E+04  0.7818609E-02  0.8535872E-01
        1   -1    0    0  501    0  0.00000000000E+00  0.00000000000E+00  0.98273961592E+03  0.98273961593E+03  0.50400001928E-02 0.  1.
       -1   -1    0    0    0  501  0.00000000000E+00  0.00000000000E+00 -0.11853175274E+04  0.11853175274E+04  0.50400001928E-02 0. -1.
    10030    2    1    2    0    0  0.00000000000E+00  0.00000000000E+00 -0.20257791151E+03  0.21680571434E+04  0.21585722056E+04 0.  0.
        4    1    3    3  502    0  0.12460919346E+03 -0.18408894654E+03 -0.11620739926E+04  0.11831457089E+04  0.12699999809E+01 0. -1.
       -4    1    3    3    0  502 -0.12460919346E+03  0.18408894654E+03  0.95949608106E+03  0.98491143449E+03  0.12699999809E+01 0.  1.
</event>
<event>
 5   0  0.6978115E-05  0.2334827E+04  0.7818609E-02  0.8464315E-01
       -2   -1    0    0    0  501  0.00000000000E+00  0.00000000000E+00  0.89199919176E+03  0.89199919177E+03  0.25500000920E-02 0.  1.
        2   -1    0    0  501    0  0.00000000000E+00  0.00000000000E+00 -0.15278643362E+04  0.15278643362E+04  0.25500000920E-02 0. -1.
    10030    2    1    2    0    0  0.00000000000E+00  0.00000000000E+00 -0.63586514441E+03  0.24198635279E+04  0.23348265486E+04 0.  0.
        4    1    3    3  502    0  0.74322021478E+03  0.18049235700E+03 -0.12320409293E+04  0.14501311123E+04  0.12699999809E+01 0. -1.
       -4    1    3    3    0  502 -0.74322021478E+03 -0.18049235700E+03  0.59617578485E+03  0.96973241564E+03  0.12699999809E+01 0.  1.
</event>
<event>
 5   0  0.2943244E-05  0.2406083E+04  0.7818609E-02  0.8437230E-01
       -1   -1    0    0    0  501  0.00000000000E+00  0.00000000000E+00  0.92389254449E+03  0.92389254450E+03  0.50400001928E-02 0.  1.
        1   -1    0    0  501    0  0.00000000000E+00  0.00000000000E+00 -0.15665342344E+04  0.15665342344E+04  0.50400001928E-02 0. -1.
    10030    2    1    2    0    0  0.00000000000E+00  0.00000000000E+00 -0.64264168989E+03  0.24904267789E+04  0.24060833733E+04 0.  0.
        3    1    3    3  502    0 -0.55057036607E+03  0.94606502284E+03  0.19531798530E+03  0.11118974238E+04  0.10100000352E+00 0.  1.
       -3    1    3    3    0  502  0.55057036607E+03 -0.94606502284E+03 -0.83795967519E+03  0.13785293551E+04  0.10100000352E+00 0. -1.
</event>
<event>
 5   0  0.2339125E-05  0.2008482E+04  0.7818609E-02  0.8602665E-01
        4   -1    0    0  501    0  0.00000000000E+00  0.00000000000E+00  0.97220449116E+03  0.97220532067E+03  0.12699999809E+01 0.  1.
       -4   -1    0    0    0  501  0.00000000000E+00  0.00000000000E+00 -0.10373316201E+04  0.10373323975E+04  0.12699999809E+01 0. -1.
    10030    2    1    2    0    0  0.00000000000E+00  0.00000000000E+00 -0.65127128923E+02  0.20095377182E+04  0.20084820880E+04 0.  0.
        5    1    3    3  502    0  0.41869400403E+03  0.84600491264E+03 -0.37545202272E+03  0.10158815347E+04  0.46999998093E+01 0. -1.
       -5    1    3    3    0  502 -0.41869400403E+03 -0.84600491264E+03  0.31032489379E+03  0.99365618346E+03  0.46999998093E+01 0.  1.
</event>
<event>
 5   0  0.6337926E-05  0.2442578E+04  0.7818609E-02  0.8423733E-01
       -2   -1    0    0    0  501  0.00000000000E+00  0.00000000000E+00  0.99632806244E+03  0.99632806244E+03  0.25500000920E-02 0. -1.
        2   -1    0    0  501    0  0.00000000000E+00  0.00000000000E+00 -0.14970438826E+04  0.14970438826E+04  0.25500000920E-02 0.  1.
    10030    2    1    2    0    0  0.00000000000E+00  0.00000000000E+00 -0.50071582015E+03  0.24933719450E+04  0.24425780077E+04 0.  0.
        1    1    3    3  502    0  0.11466872349E+03 -0.12992590198E+03 -0.14844301630E+04  0.14945108113E+04  0.50400001928E-02 0.  1.
       -1    1    3    3    0  502 -0.11466872349E+03  0.12992590198E+03  0.98371434286E+03  0.99886113375E+03  0.50400001928E-02 0. -1.
</event>
<event>
 5   0  0.6714629E-05  0.2377279E+04  0.7818609E-02  0.8448059E-01
       -2   -1    0    0    0  501  0.00000000000E+00  0.00000000000E+00  0.77872218106E+03  0.77872218107E+03  0.25500000920E-02 0.  1.
        2   -1    0    0  501    0  0.00000000000E+00  0.00000000000E+00 -0.18143363157E+04  0.18143363157E+04  0.25500000920E-02 0. -1.
    10030    2    1    2    0    0  0.00000000000E+00  0.00000000000E+00 -0.10356141346E+04  0.25930584968E+04  0.23772790606E+04 0.  0.
        3    1    3    3  502    0  0.24609825634E+03 -0.83385917696E+03 -0.14019199303E+04  0.16496257091E+04  0.10100000352E+00 0. -1.
       -3    1    3    3    0  502 -0.24609825634E+03  0.83385917696E+03  0.36630579568E+03  0.94343278771E+03  0.10100000352E+00 0.  1.
</event>
<event>
 5   0  0.6978115E-05  0.2223393E+04  0.7818609E-02  0.8508754E-01
        2   -1    0    0  501    0  0.00000000000E+00  0.00000000000E+00  0.27463718208E+04  0.27463718208E+04  0.25500000920E-02 0. -1.
       -2   -1    0    0    0  501  0.00000000000E+00  0.00000000000E+00 -0.45000046507E+03  0.45000046508E+03  0.25500000920E-02 0.  1.
    10030    2    1    2    0    0  0.00000000000E+00  0.00000000000E+00  0.22963713557E+04  0.31963722859E+04  0.22233925399E+04 0.  0.
        4    1    3    3  502    0  0.98653323190E+03 -0.24656287889E+01  0.18849004778E+04  0.21274645288E+04  0.12699999809E+01 0. -1.
       -4    1    3    3    0  502 -0.98653323190E+03  0.24656287889E+01  0.41147087791E+03  0.10689077571E+04  0.12699999809E+01 0.  1.
</event>
<event>
 5   0  0.2943123E-05  0.2174111E+04  0.7818609E-02  0.8529282E-01
        1   -1    0    0  501    0  0.00000000000E+00  0.00000000000E+00  0.13139045558E+04  0.13139045558E+04  0.50400001928E-02 0. -1.
       -1   -1    0    0    0  501  0.00000000000E+00  0.00000000000E+00 -0.89937212902E+03  0.89937212903E+03  0.50400001928E-02 0.  1.
    10030    2    1    2    0    0  0.00000000000E+00  0.00000000000E+00  0.41453242676E+03  0.22132766848E+04  0.21741105194E+04 0.  0.
        1    1    3    3  502    0  0.10224738345E+04 -0.13042931825E+03  0.55877566541E+03  0.11724737923E+04  0.50400001928E-02 0. -1.
       -1    1    3    3    0  502 -0.10224738345E+04  0.13042931825E+03 -0.14424323866E+03  0.10408028926E+04  0.50400001928E-02 0.  1.
</event>
<event>
 5   0  0.6978115E-05  0.2385032E+04  0.7818609E-02  0.8445129E-01
       -2   -1    0    0    0  501  0.00000000000E+00  0.00000000000E+00  0.79024804976E+03  0.79024804976E+03  0.25500000920E-02 0. -1.
        2   -1    0    0  501    0  0.00000000000E+00  0.00000000000E+00 -0.17995549783E+04  0.17995549783E+04  0.25500000920E-02 0.  1.
    10030    2    1    2    0    0  0.00000000000E+00  0.00000000000E+00 -0.10093069286E+04  0.25898030281E+04  0.23850323369E+04 0.  0.
        4    1    3    3  502    0  0.65141878297E+03  0.39426633003E+03  0.49191256001E+03  0.90651638121E+03  0.12699999809E+01 0. -1.
       -4    1    3    3    0  502 -0.65141878297E+03 -0.39426633003E+03 -0.15012194886E+04  0.16832866469E+04  0.12699999809E+01 0.  1.
</event>
<event>
 5   0  0.2943244E-05  0.2390685E+04  0.7818609E-02  0.8442999E-01
       -1   -1    0    0    0  501  0.00000000000E+00  0.00000000000E+00  0.11327734875E+04  0.11327734875E+04  0.50400001928E-02 0.  1.
        1   -1    0    0  501    0  0.00000000000E+00  0.00000000000E+00 -0.12613673324E+04  0.12613673325E+04  0.50400001928E-02 0. -1.
    10030    2    1    2    0    0  0.00000000000E+00  0.00000000000E+00 -0.12859384491E+03  0.23941408200E+04  0.23906848159E+04 0.  0.
        3    1    3    3  502    0  0.22195305748E+03  0.11741073262E+04 -0.31811023705E+02  0.11953255308E+04  0.10100000352E+00 0. -1.
       -3    1    3    3    0  502 -0.22195305748E+03 -0.11741073262E+04 -0.96782821205E+02  0.11988152892E+04  0.10100000352E+00 0.  1.
</event>
<event>
 5   0  0.6714629E-05  0.2360863E+04  0.7818609E-02  0.8454303E-01
       -2   -1    0    0    0  501  0.00000000000E+00  0.00000000000E+00  0.18084491645E+04  0.18084491645E+04  0.25500000920E-02 0.  1.
        2   -1    0    0  501    0  0.00000000000E+00  0.00000000000E+00 -0.77050489546E+03  0.77050489546E+03  0.25500000920E-02 0. -1.
    10030    2    1    2    0    0  0.00000000000E+00  0.00000000000E+00  0.10379442691E+04  0.25789540600E+04  0.23608633459E+04 0.  0.
        3    1    3    3  502    0  0.56101012878E+03  0.57795710396E+03 -0.42367571055E+03  0.91009224616E+03  0.10100000352E+00 0. -1.
       -3    1    3    3    0  502 -0.56101012878E+03 -0.57795710396E+03  0.14616199796E+04  0.16688618138E+04  0.10100000352E+00 0.  1.
</event>
<event>
 5   0  0.6714629E-05  0.2409328E+04  0.7818609E-02  0.8436019E-01
       -2   -1    0    0    0  501  0.00000000000E+00  0.00000000000E+00  0.99666824096E+03  0.99666824096E+03  0.25500000920E-02 0.  1.
        2   -1    0    0  501    0  0.00000000000E+00  0.00000000000E+00 -0.14560668348E+04  0.14560668348E+04  0.25500000920E-02 0. -1.
    10030    2    1    2    0    0  0.00000000000E+00  0.00000000000E+00 -0.45939859384E+03  0.24527350758E+04  0.24093281810E+04 0.  0.
        3    1    3    3  502    0  0.19852481356E+03 -0.96449180376E+03  0.47674747050E+03  0.10940496798E+04  0.10100000352E+00 0.  1.
       -3    1    3    3    0  502 -0.19852481356E+03  0.96449180376E+03 -0.93614606434E+03  0.13586853959E+04  0.10100000352E+00 0. -1.
</event>
<event>
 5   0  0.2901816E-05  0.1936445E+04  0.7818609E-02  0.8636925E-01
       -1   -1    0    0    0  501  0.00000000000E+00  0.00000000000E+00  0.92153919002E+03  0.92153919003E+03  0.50400001928E-02 0.  1.
        1   -1    0    0  501    0  0.00000000000E+00  0.00000000000E+00 -0.10172706852E+04  0.10172706853E+04  0.50400001928E-02 0. -1.
    10030    2    1    2    0    0  0.00000000000E+00  0.00000000000E+00 -0.95731495222E+02  0.19388098753E+04  0.19364449936E+04 0.  0.
        4    1    3    3  502    0  0.31080687639E+03 -0.88197152152E+03 -0.29912742408E+03  0.98181134029E+03  0.12699999809E+01 0. -1.
       -4    1    3    3    0  502 -0.31080687639E+03  0.88197152152E+03  0.20339592886E+03  0.95699853499E+03  0.12699999809E+01 0.  1.
</event>
<event>
 5   0  0.2943123E-05  0.2294495E+04  0.7818609E-02  0.8480095E-01
       -1   -1    0    0    0  501  0.00000000000E+00  0.00000000000E+00  0.92776424947E+03  0.92776424948E+03  0.50400001928E-02 0.  1.
        1   -1    0    0  501    0  0.00000000000E+00  0.00000000000E+00 -0.14186549461E+04  0.14186549461E+04  0.50400001928E-02 0. -1.
    10030    2    1    2    0    0  0.00000000000E+00  0.00000000000E+00 -0.49089069664E+03  0.23464191956E+04  0.22944954490E+04 0.  0.
        1    1    3    3  502    0 -0.12653691743E+02  0.85656703672E+03  0.53491568923E+03  0.10099514835E+04  0.50400001928E-02 0.  1.
       -1    1    3    3    0  502  0.12653691743E+02 -0.85656703672E+03 -0.10258063859E+04  0.13364677122E+04  0.50400001928E-02 0. -1.
</event>
<event>
 5   0  0.6337926E-05  0.2378058E+04  0.7818609E-02  0.8447764E-01
       -2   -1    0    0    0  501  0.00000000000E+00  0.00000000000E+00  0.87644270480E+03  0.87644270480E+03  0.25500000920E-02 0. -1.
        2   -1    0    0  501    0  0.00000000000E+00  0.00000000000E+00 -0.16131000890E+04  0.16131000890E+04  0.25500000920E-02 0.  1.
    10030    2    1    2    0    0  0.00000000000E+00  0.00000000000E+00 -0.73665738419E+03  0.24895427938E+04  0.23780578673E+04 0.  0.
        1    1    3    3  502    0 -0.88597544347E+02 -0.11521279371E+04 -0.66171967642E+03  0.13315859861E+04  0.50400001928E-02 0.  1.
       -1    1    3    3    0  502  0.88597544347E+02  0.11521279371E+04 -0.74937707768E+02  0.11579568076E+04  0.50400001928E-02 0. -1.
</event>
<event>
 5   0  0.2901816E-05  0.2398092E+04  0.7818609E-02  0.8440218E-01
        1   -1    0    0  501    0  0.00000000000E+00  0.00000000000E+00  0.88602166041E+03  0.88602166042E+03  0.50400001928E-02 0.  1.
       -1   -1    0    0    0  501  0.00000000000E+00  0.00000000000E+00 -0.16226590078E+04  0.16226590079E+04  0.50400001928E-02 0. -1.
    10030    2    1    2    0    0  0.00000000000E+00  0.00000000000E+00 -0.73663734743E+03  0.25086806683E+04  0.23980917651E+04 0.  0.
        4    1    3    3  502    0 -0.45611532678E+03  0.80379339479E+03  0.43083706691E+03  0.10196799517E+04  0.12699999809E+01 0.  1.
       -4    1    3    3    0  502  0.45611532678E+03 -0.80379339479E+03 -0.11674744143E+04  0.14890007165E+04  0.12699999809E+01 0. -1.
</event>
<event>
 5   0  0.6600166E-05  0.2415899E+04  0.7818609E-02  0.8433575E-01
       -2   -1    0    0    0  501  0.00000000000E+00  0.00000000000E+00  0.15452593715E+04  0.15452593715E+04  0.25500000920E-02 0. -1.
        2   -1    0    0  501    0  0.00000000000E+00  0.00000000000E+00 -0.94426976908E+03  0.94426976908E+03  0.25500000920E-02 0.  1.
    10030    2    1    2    0    0  0.00000000000E+00  0.00000000000E+00  0.60098960238E+03  0.24895291405E+04  0.24158987643E+04 0.  0.
        5    1    3    3  502    0  0.19427621771E+03 -0.38838732266E+03 -0.86103732989E+03  0.96436265722E+03  0.46999998093E+01 0.  1.
       -5    1    3    3    0  502 -0.19427621771E+03  0.38838732266E+03  0.14620269323E+04  0.15251664833E+04  0.46999998093E+01 0. -1.
</event>
<event>
 5   0  0.2915546E-05  0.2370686E+04  0.7818609E-02  0.8450561E-01
       -1   -1    0    0    0  501  0.00000000000E+00  0.00000000000E+00  0.10580843592E+04  0.10580843592E+04  0.50400001928E-02 0. -1.
        1   -1    0    0  501    0  0.00000000000E+00  0.00000000000E+00 -0.13279070535E+04  0.13279070536E+04  0.50400001928E-02 0.  1.
    10030    2    1    2    0    0  0.00000000000E+00  0.00000000000E+00 -0.26982269433E+03  0.23859914128E+04  0.23706857100E+04 0.  0.
        2    1    3    3  502    0  0.35821926174E+03  0.98853877786E+01 -0.12720817121E+04  0.13215939780E+04  0.25500000920E-02 0.  1.
       -2    1    3    3    0  502 -0.35821926174E+03 -0.98853877786E+01  0.10022590178E+04  0.10643974348E+04  0.25500000920E-02 0. -1.
</event>
<event>
 5   0  0.2847158E-05  0.2393369E+04  0.7818609E-02  0.8441990E-01
       -1   -1    0    0    0  501  0.00000000000E+00  0.00000000000E+00  0.10662236680E+04  0.10662236680E+04  0.50400001928E-02 0.  1.
        1   -1    0    0  501    0  0.00000000000E+00  0.00000000000E+00 -0.13431087253E+04  0.13431087253E+04  0.50400001928E-02 0. -1.
    10030    2    1    2    0    0  0.00000000000E+00  0.00000000000E+00 -0.27688505724E+03  0.24093323933E+04  0.23933694338E+04 0.  0.
        5    1    3    3  502    0  0.66054656453E+02 -0.27760505880E+03  0.10314637326E+04  0.10702183459E+04  0.46999998093E+01 0.  1.
       -5    1    3    3    0  502 -0.66054656453E+02  0.27760505880E+03 -0.13083487898E+04  0.13391140474E+04  0.46999998093E+01 0. -1.
</event>
<event>
 5   0  0.2943123E-05  0.2419687E+04  0.7818609E-02  0.8432170E-01
        1   -1    0    0  501    0  0.00000000000E+00  0.00000000000E+00  0.14438965670E+04  0.14438965670E+04  0.50400001928E-02 0.  1.
       -1   -1    0    0    0  501  0.00000000000E+00  0.00000000000E+00 -0.10137301788E+04  0.10137301788E+04  0.50400001928E-02 0. -1.
    10030    2    1    2    0    0  0.00000000000E+00  0.00000000000E+00  0.43016638820E+03  0.24576267458E+04  0.24196871905E+04 0.  0.
        1    1    3    3  502    0 -0.44890329283E+03  0.10146015584E+04 -0.27496616562E+03  0.11430384425E+04  0.50400001928E-02 0. -1.
       -1    1    3    3    0  502  0.44890329283E+03 -0.10146015584E+04  0.70513255381E+03  0.13145883033E+04  0.50400001928E-02 0.  1.
</event>
<event>
 5   0  0.6600166E-05  0.2355462E+04  0.7818609E-02  0.8456369E-01
       -2   -1    0    0    0  501  0.00000000000E+00  0.00000000000E+00  0.87030361434E+03  0.87030361434E+03  0.25500000920E-02 0. -1.
        2   -1    0    0  501    0  0.00000000000E+00  0.00000000000E+00 -0.15937539870E+04  0.15937539870E+04  0.25500000920E-02 0.  1.
    10030    2    1    2    0    0  0.00000000000E+00  0.00000000000E+00 -0.72345037267E+03  0.24640576014E+04  0.23554616153E+04 0.  0.
        5    1    3    3  502    0  0.44889559914E+03  0.10293085102E+04 -0.73312079935E+03  0.13410710140E+04  0.46999998093E+01 0. -1.
       -5    1    3    3    0  502 -0.44889559914E+03 -0.10293085102E+04  0.96704266790E+01  0.11229865873E+04  0.46999998093E+01 0.  1.
</event>
<event>
 5   0  0.2915546E-05  0.2362408E+04  0.7818609E-02  0.8453713E-01
        1   -1    0    0  501    0  0.00000000000E+00  0.00000000000E+00  0.11867364420E+04  0.11867364421E+04  0.50400001928E-02 0. -1.
       -1   -1    0    0    0  501  0.00000000000E+00  0.00000000000E+00 -0.11756970625E+04  0.11756970625E+04  0.50400001928E-02 0.  1.
    10030    2    1    2    0    0  0.00000000000E+00  0.00000000000E+00  0.11039379538E+02  0.23624335046E+04  0.23624077116E+04 0.  0.
        2    1    3    3  502    0 -0.19082534321E+03  0.82165610859E+03 -0.82135660462E+03  0.11773528547E+04  0.25500000920E-02 0.  1.
       -2    1    3    3    0  502  0.19082534321E+03 -0.82165610859E+03  0.83239598416E+03  0.11850806499E+04  0.25500000920E-02 0. -1.
</event>
<event>
 5   0  0.2943244E-05  0.1746477E+04  0.7818609E-02  0.8735292E-01
        1   -1    0    0  501    0  0.00000000000E+00  0.00000000000E+00  0.12578834438E+04  0.12578834438E+04  0.50400001928E-02 0. -1.
       -1   -1    0    0    0  501  0.00000000000E+00  0.00000000000E+00 -0.60621295821E+03  0.60621295823E+03  0.50400001928E-02 0.  1.
    10030    2    1    2    0    0  0.00000000000E+00  0.00000000000E+00  0.65167048560E+03  0.18640964020E+04  0.17464767317E+04 0.  0.
        3    1    3    3  502    0 -0.17355405169E+03 -0.32174009643E+03  0.11722806704E+04  0.12279575232E+04  0.10100000352E+00 0. -1.
       -3    1    3    3    0  502  0.17355405169E+03  0.32174009643E+03 -0.52061018475E+03  0.63613887884E+03  0.10100000352E+00 0.  1.
</event>
<event>
 5   0  0.6714629E-05  0.1936109E+04  0.7818609E-02  0.8637088E-01
        2   -1    0    0  501    0  0.00000000000E+00  0.00000000000E+00  0.10421732585E+04  0.10421732585E+04  0.25500000920E-02 0.  1.
       -2   -1    0    0    0  501  0.00000000000E+00  0.00000000000E+00 -0.89920706073E+03  0.89920706073E+03  0.25500000920E-02 0. -1.
    10030    2    1    2    0    0  0.00000000000E+00  0.00000000000E+00  0.14296619778E+03  0.19413803192E+04  0.19361090388E+04 0.  0.
        3    1    3    3  502    0  0.82818353397E+03  0.43056975267E+03  0.32879677511E+03  0.98963912987E+03  0.10100000352E+00 0.  1.
       -3    1    3    3    0  502 -0.82818353397E+03 -0.43056975267E+03 -0.18583057734E+03  0.95174118936E+03  0.10100000352E+00 0. -1.
</event>
<event>
 5   0  0.6600166E-05  0.2390932E+04  0.7818609E-02  0.8442906E-01
        2   -1    0    0  501    0  0.00000000000E+00  0.00000000000E+00  0.12550807665E+04  0.12550807665E+04  0.25500000920E-02 0. -1.
       -2   -1    0    0    0  501  0.00000000000E+00  0.00000000000E+00 -0.11386827714E+04  0.11386827714E+04  0.25500000920E-02 0.  1.
    10030    2    1    2    0    0  0.00000000000E+00  0.00000000000E+00  0.11639799509E+03  0.23937635380E+04  0.23909319067E+04 0.  0.
        5    1    3    3  502    0 -0.11561450571E+04  0.23516745470E+03  0.25114888247E+03  0.12062640573E+04  0.46999998093E+01 0.  1.
       -5    1    3    3    0  502  0.11561450571E+04 -0.23516745470E+03 -0.13475088737E+03  0.11874994806E+04  0.46999998093E+01 0. -1.
</event>
<event>
 5   0  0.6337926E-05  0.2389721E+04  0.7818609E-02  0.8443362E-01
        2   -1    0    0  501    0  0.00000000000E+00  0.00000000000E+00  0.77203333941E+03  0.77203333941E+03  0.25500000920E-02 0. -1.
       -2   -1    0    0    0  501  0.00000000000E+00  0.00000000000E+00 -0.18492618863E+04  0.18492618863E+04  0.25500000920E-02 0.  1.
    10030    2    1    2    0    0  0.00000000000E+00  0.00000000000E+00 -0.10772285469E+04  0.26212952257E+04  0.23897211800E+04 0.  0.
        1    1    3    3  502    0  0.22296375352E+03 -0.69639553066E+03 -0.15751813584E+04  0.17366277328E+04  0.50400001928E-02 0.  1.
       -1    1    3    3    0  502 -0.22296375352E+03  0.69639553066E+03  0.49795281150E+03  0.88466749291E+03  0.50400001928E-02 0. -1.
</event>
<event>
 5   0  0.2901816E-05  0.2431066E+04  0.7818609E-02  0.8427964E-01
       -1   -1    0    0    0  501  0.00000000000E+00  0.00000000000E+00  0.80935066039E+03  0.80935066040E+03  0.50400001928E-02 0.  1.
        1   -1    0    0  501    0  0.00000000000E+00  0.00000000000E+00 -0.18255634379E+04  0.18255634379E+04  0.50400001928E-02 0. -1.
    10030    2    1    2    0    0  0.00000000000E+00  0.00000000000E+00 -0.10162127775E+04  0.26349140983E+04  0.24310664113E+04 0.  0.
        4    1    3    3  502    0 -0.97182660590E+03 -0.36676120153E+03  0.17614509382E+03  0.10535603627E+04  0.12699999809E+01 0.  1.
       -4    1    3    3    0  502  0.97182660590E+03  0.36676120153E+03 -0.11923578714E+04  0.15813537356E+04  0.12699999809E+01 0. -1.
</event>
<event>
 5   0  0.2943244E-05  0.2361342E+04  0.7818609E-02  0.8454120E-01
       -1   -1    0    0    0  501  0.00000000000E+00  0.00000000000E+00  0.13115548038E+04  0.13115548038E+04  0.50400001928E-02 0. -1.
        1   -1    0    0  501    0  0.00000000000E+00  0.00000000000E+00 -0.10628488997E+04  0.10628488997E+04  0.50400001928E-02 0.  1.
    10030    2    1    2    0    0  0.00000000000E+00  0.00000000000E+00  0.24870590406E+03  0.23744037035E+04  0.23613424827E+04 0.  0.
        3    1    3    3  502    0  0.25883118047E+03  0.11102175406E+04  0.43331133614E+03  0.12195635660E+04  0.10100000352E+00 0. -1.
       -3    1    3    3    0  502 -0.25883118047E+03 -0.11102175406E+04 -0.18460543209E+03  0.11548401375E+04  0.10100000352E+00 0.  1.
</event>
<event>
 5   0  0.2943123E-05  0.2385113E+04  0.7818609E-02  0.8445098E-01
        1   -1    0    0  501    0  0.00000000000E+00  0.00000000000E+00  0.87798070350E+03  0.87798070351E+03  0.50400001928E-02 0. -1.
       -1   -1    0    0    0  501  0.00000000000E+00  0.00000000000E+00 -0.16198430975E+04  0.16198430975E+04  0.50400001928E-02 0.  1.
    10030    2    1    2    0    0  0.00000000000E+00  0.00000000000E+00 -0.74186239401E+03  0.24978238010E+04  0.23851129804E+04 0.  0.
        1    1    3    3  502    0 -0.11876722563E+04 -0.84355495060E+02 -0.30060310905E+03  0.12280242127E+04  0.50400001928E-02 0. -1.
       -1    1    3    3    0  502  0.11876722563E+04  0.84355495060E+02 -0.44125928497E+03  0.12697995883E+04  0.50400001928E-02 0.  1.
</event>
<event>
 5   0  0.6703961E-05  0.2445680E+04  0.7818609E-02  0.8422597E-01
        2   -1    0    0  501    0  0.00000000000E+00  0.00000000000E+00  0.13047656206E+04  0.13047656206E+04  0.25500000920E-02 0.  1.
       -2   -1    0    0    0  501  0.00000000000E+00  0.00000000000E+00 -0.11460582096E+04  0.11460582096E+04  0.25500000920E-02 0. -1.
    10030    2    1    2    0    0  0.00000000000E+00  0.00000000000E+00  0.15870741096E+03  0.24508238302E+04  0.24456797428E+04 0.  0.
        2    1    3    3  502    0  0.49096249488E+02  0.46174893239E+03 -0.10542704986E+04  0.11520020844E+04  0.25500000920E-02 0. -1.
       -2    1    3    3    0  502 -0.49096249488E+02 -0.46174893239E+03  0.12129779095E+04  0.12988217458E+04  0.25500000920E-02 0.  1.
</event>
<event>
 5   0  0.2943123E-05  0.2444505E+04  0.7818609E-02  0.8423027E-01
       -1   -1    0    0    0  501  0.00000000000E+00  0.00000000000E+00  0.74448965683E+03  0.74448965685E+03  0.50400001928E-02 0. -1.
        1   -1    0    0  501    0  0.00000000000E+00  0.00000000000E+00 -0.20066105251E+04  0.20066105251E+04  0.50400001928E-02 0.  1.
    10030    2    1    2    0    0  0.00000000000E+00  0.00000000000E+00 -0.12621208683E+04  0.27511001819E+04  0.24445046789E+04 0.  0.
        1    1    3    3  502    0 -0.99877907924E+03  0.25313636920E+03 -0.13709887033E+04  0.17150066166E+04  0.50400001928E-02 0.  1.
       -1    1    3    3    0  502  0.99877907924E+03 -0.25313636920E+03  0.10886783503E+03  0.10360935653E+04  0.50400001928E-02 0. -1.
</event>
<event>
 5   0  0.2339125E-05  0.2423039E+04  0.7818609E-02  0.8430928E-01
       -4   -1    0    0    0  501  0.00000000000E+00  0.00000000000E+00  0.17918183519E+04  0.17918188020E+04  0.12699999809E+01 0.  1.
        4   -1    0    0  501    0  0.00000000000E+00  0.00000000000E+00 -0.81915522228E+03  0.81915620677E+03  0.12699999809E+01 0. -1.
    10030    2    1    2    0    0  0.00000000000E+00  0.00000000000E+00  0.97266312964E+03  0.26109750088E+04  0.24230387807E+04 0.  0.
        1    1    3    3  502    0  0.31566416551E+03 -0.11652517780E+04  0.59581772644E+03  0.13462742420E+04  0.50400001928E-02 0. -1.
       -1    1    3    3    0  502 -0.31566416551E+03  0.11652517780E+04  0.37684540320E+03  0.12647007668E+04  0.50400001928E-02 0.  1.
</event>
<event>
 5   0  0.2901816E-05  0.2394650E+04  0.7818609E-02  0.8441509E-01
       -1   -1    0    0    0  501  0.00000000000E+00  0.00000000000E+00  0.96636871715E+03  0.96636871717E+03  0.50400001928E-02 0.  1.
        1   -1    0    0  501    0  0.00000000000E+00  0.00000000000E+00 -0.14834788980E+04  0.14834788980E+04  0.50400001928E-02 0. -1.
    10030    2    1    2    0    0  0.00000000000E+00  0.00000000000E+00 -0.51711018088E+03  0.24498476152E+04  0.23946503708E+04 0.  0.
        4    1    3    3  502    0  0.19744443528E+03  0.63460607621E+03 -0.12774416328E+04  0.14399888594E+04  0.12699999809E+01 0. -1.
       -4    1    3    3    0  502 -0.19744443528E+03 -0.63460607621E+03  0.76033145194E+03  0.10098587558E+04  0.12699999809E+01 0.  1.
</event>
<event>
 5   0  0.6337926E-05  0.2403005E+04  0.7818609E-02  0.8438379E-01
       -2   -1    0    0    0  501  0.00000000000E+00  0.00000000000E+00  0.10467093628E+04  0.10467093628E+04  0.25500000920E-02 0.  1.
        2   -1    0    0  501    0  0.00000000000E+00  0.00000000000E+00 -0.13791877800E+04  0.13791877800E+04  0.25500000920E-02 0. -1.
    10030    2    1    2    0    0  0.00000000000E+00  0.00000000000E+00 -0.33247841729E+03  0.24258971428E+04  0.24030054202E+04 0.  0.
        1    1    3    3  502    0 -0.56767545886E+03  0.46700506819E+03  0.79321427949E+03  0.10814518267E+04  0.50400001928E-02 0.  1.
       -1    1    3    3    0  502  0.56767545886E+03 -0.46700506819E+03 -0.11256926968E+04  0.13444453161E+04  0.50400001928E-02 0. -1.
</event>
<event>
 5   0  0.6714629E-05  0.2392771E+04  0.7818609E-02  0.8442215E-01
        2   -1    0    0  501    0  0.00000000000E+00  0.00000000000E+00  0.17574991343E+04  0.17574991343E+04  0.25500000920E-02 0.  1.
       -2   -1    0    0    0  501  0.00000000000E+00  0.00000000000E+00 -0.81441737528E+03  0.81441737528E+03  0.25500000920E-02 0. -1.
    10030    2    1    2    0    0  0.00000000000E+00  0.00000000000E+00  0.94308175900E+03  0.25719165096E+04  0.23927706384E+04 0.  0.
        3    1    3    3  502    0  0.36293193644E+03  0.75525908159E+03  0.13894077747E+04  0.16225257611E+04  0.10100000352E+00 0.  1.
       -3    1    3    3    0  502 -0.36293193644E+03 -0.75525908159E+03 -0.44632601569E+03  0.94939074848E+03  0.10100000352E+00 0. -1.
</event>
<event>
 5   0  0.2915546E-05  0.2426075E+04  0.7818609E-02  0.8429806E-01
       -1   -1    0    0    0  501  0.00000000000E+00  0.00000000000E+00  0.98189200365E+03  0.98189200366E+03  0.50400001928E-02 0. -1.
        1   -1    0    0  501    0  0.00000000000E+00  0.00000000000E+00 -0.14985962547E+04  0.14985962547E+04  0.50400001928E-02 0.  1.
    10030    2    1    2    0    0  0.00000000000E+00  0.00000000000E+00 -0.51670425109E+03  0.24804882584E+04  0.24260747550E+04 0.  0.
        2    1    3    3  502    0  0.46381639383E+03 -0.63282639827E+03 -0.12042311065E+04  0.14372777934E+04  0.25500000920E-02 0.  1.
       -2    1    3    3    0  502 -0.46381639383E+03  0.63282639827E+03  0.68752685536E+03  0.10432104650E+04  0.25500000920E-02 0. -1.
</event>
<event>
 5   0  0.2339125E-05  0.2410695E+04  0.7818609E-02  0.8435511E-01
        3   -1    0    0  501    0  0.00000000000E+00  0.00000000000E+00  0.14188449882E+04  0.14188449918E+04  0.10100000352E+00 0.  1.
       -3   -1    0    0    0  501  0.00000000000E+00  0.00000000000E+00 -0.10239751540E+04  0.10239751590E+04  0.10100000352E+00 0. -1.
    10030    2    1    2    0    0  0.00000000000E+00  0.00000000000E+00  0.39486983419E+03  0.24428201508E+04  0.24106945271E+04 0.  0.
        3    1    3    3  502    0 -0.21486259253E+03 -0.44957556589E+03  0.13095935980E+04  0.14011850432E+04  0.10100000352E+00 0.  1.
       -3    1    3    3    0  502  0.21486259253E+03  0.44957556589E+03 -0.91472376379E+03  0.10416351076E+04  0.10100000352E+00 0. -1.
</event>
<event>
 5   0  0.2847158E-05  0.2442329E+04  0.7818609E-02  0.8423824E-01
       -1   -1    0    0    0  501  0.00000000000E+00  0.00000000000E+00  0.91617522573E+03  0.91617522574E+03  0.50400001928E-02 0. -1.
        1   -1    0    0  501    0  0.00000000000E+00  0.00000000000E+00 -0.16276823693E+04  0.16276823693E+04  0.50400001928E-02 0.  1.
    10030    2    1    2    0    0  0.00000000000E+00  0.00000000000E+00 -0.71150714353E+03  0.25438575950E+04  0.24423286119E+04 0.  0.
        5    1    3    3  502    0  0.20104489215E+03  0.11284212489E+04 -0.79453377361E+03  0.13946539251E+04  0.46999998093E+01 0.  1.
       -5    1    3    3    0  502 -0.20104489215E+03 -0.11284212489E+04  0.83026630081E+02  0.11492036699E+04  0.46999998093E+01 0. -1.
</event>
<event>
 5   0  0.6600166E-05  0.2411614E+04  0.7818609E-02  0.8435168E-01
        2   -1    0    0  501    0  0.00000000000E+00  0.00000000000E+00  0.11785228599E+04  0.11785228599E+04  0.25500000920E-02 0. -1.
       -2   -1    0    0    0  501  0.00000000000E+00  0.00000000000E+00 -0.12337227572E+04  0.12337227572E+04  0.25500000920E-02 0.  1.
    10030    2    1    2    0    0  0.00000000000E+00  0.00000000000E+00 -0.55199897376E+02  0.24122456171E+04  0.24116139593E+04 0.  0.
        5    1    3    3  502    0 -0.25672156347E+03  0.30105869880E+03 -0.11669356374E+04  0.12321944543E+04  0.46999998093E+01 0.  1.
       -5    1    3    3    0  502  0.25672156347E+03 -0.30105869880E+03  0.11117357400E+04  0.11800511628E+04  0.46999998093E+01 0. -1.
</event>
<event>
 5   0  0.6337926E-05  0.2419706E+04  0.7818609E-02  0.8432163E-01
        2   -1    0    0  501    0  0.00000000000E+00  0.00000000000E+00  0.11276012127E+04  0.11276012127E+04  0.25500000920E-02 0.  1.
       -2   -1    0    0    0  501  0.00000000000E+00  0.00000000000E+00 -0.12981045915E+04  0.12981045915E+04  0.25500000920E-02 0. -1.
    10030    2    1    2    0    0  0.00000000000E+00  0.00000000000E+00 -0.17050337879E+03  0.24257058042E+04  0.24197060247E+04 0.  0.
        1    1    3    3  502    0  0.39020020213E+03  0.67280800874E+03  0.84377023568E+03  0.11475517526E+04  0.50400001928E-02 0.  1.
       -1    1    3    3    0  502 -0.39020020213E+03 -0.67280800874E+03 -0.10142736145E+04  0.12781540515E+04  0.50400001928E-02 0. -1.
</event>
<event>
 5   0  0.2847158E-05  0.2418000E+04  0.7818609E-02  0.8432795E-01
       -1   -1    0    0    0  501  0.00000000000E+00  0.00000000000E+00  0.12686718045E+04  0.12686718045E+04  0.50400001928E-02 0.  1.
        1   -1    0    0  501    0  0.00000000000E+00  0.00000000000E+00 -0.11521346485E+04  0.11521346485E+04  0.50400001928E-02 0. -1.
    10030    2    1    2    0    0  0.00000000000E+00  0.00000000000E+00  0.11653715600E+03  0.24208064531E+04  0.24179997879E+04 0.  0.
        5    1    3    3  502    0 -0.84111175684E+03 -0.17036964773E+03 -0.79428539523E+03  0.11693614426E+04  0.46999998093E+01 0. -1.
       -5    1    3    3    0  502  0.84111175684E+03  0.17036964773E+03  0.91082255123E+03  0.12514450105E+04  0.46999998093E+01 0.  1.
</event>
<event>
 5   0  0.2901816E-05  0.2394299E+04  0.7818609E-02  0.8441641E-01
        1   -1    0    0  501    0  0.00000000000E+00  0.00000000000E+00  0.20201194849E+04  0.20201194849E+04  0.50400001928E-02 0.  1.
       -1   -1    0    0    0  501  0.00000000000E+00  0.00000000000E+00 -0.70944633672E+03  0.70944633674E+03  0.50400001928E-02 0. -1.
    10030    2    1    2    0    0  0.00000000000E+00  0.00000000000E+00  0.13106731482E+04  0.27295658217E+04  0.23942985347E+04 0.  0.
        4    1    3    3  502    0 -0.59429927621E+03 -0.98886181695E+03  0.10196559142E+04  0.15397204678E+04  0.12699999809E+01 0. -1.
       -4    1    3    3    0  502  0.59429927621E+03  0.98886181695E+03  0.29101723402E+03  0.11898453539E+04  0.12699999809E+01 0.  1.
</event>
<event>
 5   0  0.6978115E-05  0.2489179E+04  0.7818609E-02  0.8406851E-01
       -2   -1    0    0    0  501  0.00000000000E+00  0.00000000000E+00  0.79216267827E+03  0.79216267827E+03  0.25500000920E-02 0.  1.
        2   -1    0    0  501    0  0.00000000000E+00  0.00000000000E+00 -0.19554107662E+04  0.19554107662E+04  0.25500000920E-02 0. -1.
    10030    2    1    2    0    0  0.00000000000E+00  0.00000000000E+00 -0.11632480880E+04  0.27475734445E+04  0.24891793264E+04 0.  0.
        4    1    3    3  502    0  0.10588743533E+04 -0.13758003754E+02  0.14016581111E+03  0.10682004710E+04  0.12699999809E+01 0.  1.
       -4    1    3    3    0  502 -0.10588743533E+04  0.13758003754E+02 -0.13034138991E+04  0.16793729735E+04  0.12699999809E+01 0. -1.
</event>
<event>
 5   0  0.6337926E-05  0.2255382E+04  0.7818609E-02  0.8495724E-01
       -2   -1    0    0    0  501  0.00000000000E+00  0.00000000000E+00  0.68413884245E+03  0.68413884245E+03  0.25500000920E-02 0. -1.
        2   -1    0    0  501    0  0.00000000000E+00  0.00000000000E+00 -0.18588137708E+04  0.18588137708E+04  0.25500000920E-02 0.  1.
    10030    2    1    2    0    0  0.00000000000E+00  0.00000000000E+00 -0.11746749283E+04  0.25429526132E+04  0.22553817428E+04 0.  0.
        1    1    3    3  502    0 -0.23554734231E+03 -0.16183872468E+03 -0.18173058427E+04  0.18396398695E+04  0.50400001928E-02 0.  1.
       -1    1    3    3    0  502  0.23554734231E+03  0.16183872468E+03  0.64263091444E+03  0.70331274373E+03  0.50400001928E-02 0. -1.
</event>
<event>
 5   0  0.6600166E-05  0.2409992E+04  0.7818609E-02  0.8435772E-01
        2   -1    0    0  501    0  0.00000000000E+00  0.00000000000E+00  0.29471746921E+04  0.29471746921E+04  0.25500000920E-02 0.  1.
       -2   -1    0    0    0  501  0.00000000000E+00  0.00000000000E+00 -0.49268041729E+03  0.49268041729E+03  0.25500000920E-02 0. -1.
    10030    2    1    2    0    0  0.00000000000E+00  0.00000000000E+00  0.24544942748E+04  0.34398551094E+04  0.24099919146E+04 0.  0.
        5    1    3    3  502    0 -0.66090469764E+03 -0.65594224320E+03  0.23188871686E+04  0.24988627486E+04  0.46999998093E+01 0.  1.
       -5    1    3    3    0  502  0.66090469764E+03  0.65594224320E+03  0.13560710621E+03  0.94099236077E+03  0.46999998093E+01 0. -1.
</event>
<event>
 5   0  0.6600166E-05  0.2429171E+04  0.7818609E-02  0.8428663E-01
        2   -1    0    0  501    0  0.00000000000E+00  0.00000000000E+00  0.13924240144E+04  0.13924240144E+04  0.25500000920E-02 0. -1.
       -2   -1    0    0    0  501  0.00000000000E+00  0.00000000000E+00 -0.10594601128E+04  0.10594601128E+04  0.25500000920E-02 0.  1.
    10030    2    1    2    0    0  0.00000000000E+00  0.00000000000E+00  0.33296390155E+03  0.24518841272E+04  0.24291708078E+04 0.  0.
        5    1    3    3  502    0 -0.22072281282E+03  0.10445928453E+04  0.75094963716E+03  0.13053123075E+04  0.46999998093E+01 0. -1.
       -5    1    3    3    0  502  0.22072281282E+03 -0.10445928453E+04 -0.41798573561E+03  0.11465718197E+04  0.46999998093E+01 0.  1.
</event>
<event>
 5   0  0.6600166E-05  0.2425185E+04  0.7818609E-02  0.8430134E-01
        2   -1    0    0  501    0  0.00000000000E+00  0.00000000000E+00  0.10071678891E+04  0.10071678891E+04  0.25500000920E-02 0.  1.
       -2   -1    0    0    0  501  0.00000000000E+00  0.00000000000E+00 -0.14599159538E+04  0.14599159538E+04  0.25500000920E-02 0. -1.
    10030    2    1    2    0    0  0.00000000000E+00  0.00000000000E+00 -0.45274806470E+03  0.24670838430E+04  0.24251849163E+04 0.  0.
        5    1    3    3  502    0  0.12236140984E+03  0.75531225181E+03 -0.11833115096E+04  0.14091547577E+04  0.46999998093E+01 0. -1.
       -5    1    3    3    0  502 -0.12236140984E+03 -0.75531225181E+03  0.73056344494E+03  0.10579290853E+04  0.46999998093E+01 0.  1.
</event>
<event>
 5   0  0.2847158E-05  0.2403892E+04  0.7818609E-02  0.8438048E-01
        1   -1    0    0  501    0  0.00000000000E+00  0.00000000000E+00  0.10096112794E+04  0.10096112794E+04  0.50400001928E-02 0. -1.
       -1   -1    0    0    0  501  0.00000000000E+00  0.00000000000E+00 -0.14309211451E+04  0.14309211451E+04  0.50400001928E-02 0.  1.
    10030    2    1    2    0    0  0.00000000000E+00  0.00000000000E+00 -0.42130986573E+03  0.24405324246E+04  0.24038919511E+04 0.  0.
        5    1    3    3  502    0  0.10552519546E+04 -0.31700476715E+03  0.27687627836E+03  0.11361035488E+04  0.46999998093E+01 0. -1.
       -5    1    3    3    0  502 -0.10552519546E+04  0.31700476715E+03 -0.69818614409E+03  0.13044288758E+04  0.46999998093E+01 0.  1.
</event>
<event>
 5   0  0.6337926E-05  0.1903700E+04  0.7818609E-02  0.8653017E-01
       -2   -1    0    0    0  501  0.00000000000E+00  0.00000000000E+00  0.10838320781E+04  0.10838320781E+04  0.25500000920E-02 0. -1.
        2   -1    0    0  501    0  0.00000000000E+00  0.00000000000E+00 -0.83593943337E+03  0.83593943337E+03  0.25500000920E-02 0.  1.
    10030    2    1    2    0    0  0.00000000000E+00  0.00000000000E+00  0.24789264473E+03  0.19197715115E+04  0.19036995280E+04 0.  0.
        1    1    3    3  502    0  0.42866797619E+03  0.34891100997E+02  0.98025851864E+03  0.10704580263E+04  0.50400001928E-02 0. -1.
       -1    1    3    3    0  502 -0.42866797619E+03 -0.34891100997E+02 -0.73236587391E+03  0.84931348514E+03  0.50400001928E-02 0.  1.
</event>
<event>
 5   0  0.2915546E-05  0.2372174E+04  0.7818609E-02  0.8449995E-01
       -1   -1    0    0    0  501  0.00000000000E+00  0.00000000000E+00  0.14114149395E+04  0.14114149395E+04  0.50400001928E-02 0.  1.
        1   -1    0    0  501    0  0.00000000000E+00  0.00000000000E+00 -0.99673168528E+03  0.99673168530E+03  0.50400001928E-02 0. -1.
    10030    2    1    2    0    0  0.00000000000E+00  0.00000000000E+00  0.41468325417E+03  0.24081466248E+04  0.23721736794E+04 0.  0.
        2    1    3    3  502    0 -0.59967095267E+02  0.97811855278E+03 -0.47099040994E+03  0.10872644214E+04  0.25500000920E-02 0. -1.
       -2    1    3    3    0  502  0.59967095267E+02 -0.97811855278E+03  0.88567366412E+03  0.13208822033E+04  0.25500000920E-02 0.  1.
</event>
<event>
 5   0  0.2915546E-05  0.2480986E+04  0.7818609E-02  0.8409791E-01
       -1   -1    0    0    0  501  0.00000000000E+00  0.00000000000E+00  0.99501946787E+03  0.99501946788E+03  0.50400001928E-02 0. -1.
        1   -1    0    0  501    0  0.00000000000E+00  0.00000000000E+00 -0.15465254422E+04  0.15465254422E+04  0.50400001928E-02 0.  1.
    10030    2    1    2    0    0  0.00000000000E+00  0.00000000000E+00 -0.55150597433E+03  0.25415449101E+04  0.24809860319E+04 0.  0.
        2    1    3    3  502    0  0.48781430012E+03  0.50664251060E+03 -0.13225435583E+04  0.14979221905E+04  0.25500000920E-02 0.  1.
       -2    1    3    3    0  502 -0.48781430012E+03 -0.50664251060E+03  0.77103758401E+03  0.10436227196E+04  0.25500000920E-02 0. -1.
</event>
<event>
 5   0  0.2943244E-05  0.2369441E+04  0.7818609E-02  0.8451034E-01
       -1   -1    0    0    0  501  0.00000000000E+00  0.00000000000E+00  0.10369210051E+04  0.10369210051E+04  0.50400001928E-02 0.  1.
        1   -1    0    0  501    0  0.00000000000E+00  0.00000000000E+00 -0.13535863298E+04  0.13535863298E+04  0.50400001928E-02 0. -1.
    10030    2    1    2    0    0  0.00000000000E+00  0.00000000000E+00 -0.31666532470E+03  0.23905073349E+04  0.23694405227E+04 0.  0.
        3    1    3    3  502    0  0.41631928848E+03  0.10095696974E+04  0.30510906344E+03  0.11338625467E+04  0.10100000352E+00 0.  1.
       -3    1    3    3    0  502 -0.41631928848E+03 -0.10095696974E+04 -0.62177438815E+03  0.12566447883E+04  0.10100000352E+00 0. -1.
</event>
<event>
 5   0  0.6337926E-05  0.2458739E+04  0.7818609E-02  0.8417834E-01
        2   -1    0    0  501    0  0.00000000000E+00  0.00000000000E+00  0.14998330418E+04  0.14998330418E+04  0.25500000920E-02 0.  1.
       -2   -1    0    0    0  501  0.00000000000E+00  0.00000000000E+00 -0.10076780669E+04  0.10076780669E+04  0.25500000920E-02 0. -1.
    10030    2    1    2    0    0  0.00000000000E+00  0.00000000000E+00  0.49215497493E+03  0.25075111088E+04  0.24587385874E+04 0.  0.
        1    1    3    3  502    0 -0.30318698889E+03  0.86317801272E+03 -0.59140023458E+03  0.10893818749E+04  0.50400001928E-02 0. -1.
       -1    1    3    3    0  502  0.30318698889E+03 -0.86317801272E+03  0.10835552095E+04  0.14181292339E+04  0.50400001928E-02 0.  1.
</event>
<event>
 5   0  0.2901816E-05  0.2404619E+04  0.7818609E-02  0.8437776E-01
       -1   -1    0    0    0  501  0.00000000000E+00  0.00000000000E+00  0.95682577320E+03  0.95682577321E+03  0.50400001928E-02 0. -1.
        1   -1    0    0  501    0  0.00000000000E+00  0.00000000000E+00 -0.15107743088E+04  0.15107743088E+04  0.50400001928E-02 0.  1.
    10030    2    1    2    0    0  0.00000000000E+00  0.00000000000E+00 -0.55394853561E+03  0.24676000820E+04  0.24046187192E+04 0.  0.
        4    1    3    3  502    0 -0.66899528122E+03  0.44261860026E+03  0.64207219854E+03  0.10274844197E+04  0.12699999809E+01 0. -1.
       -4    1    3    3    0  502  0.66899528122E+03 -0.44261860026E+03 -0.11960207341E+04  0.14401156624E+04  0.12699999809E+01 0.  1.
</event>
<event>
 5   0  0.2901816E-05  0.2228492E+04  0.7818609E-02  0.8506662E-01
        1   -1    0    0  501    0  0.00000000000E+00  0.00000000000E+00  0.16208198404E+04  0.16208198404E+04  0.50400001928E-02 0. -1.
       -1   -1    0    0    0  501  0.00000000000E+00  0.00000000000E+00 -0.76599756089E+03  0.76599756091E+03  0.50400001928E-02 0.  1.
    10030    2    1    2    0    0  0.00000000000E+00  0.00000000000E+00  0.85482227947E+03  0.23868174013E+04  0.22284919065E+04 0.  0.
        4    1    3    3  502    0 -0.50244918644E+03  0.40508137582E+03  0.14002348376E+04  0.15418188348E+04  0.12699999809E+01 0. -1.
       -4    1    3    3    0  502  0.50244918644E+03 -0.40508137582E+03 -0.54541255809E+03  0.84499856652E+03  0.12699999809E+01 0.  1.
</event>
<event>
 5   0  0.2847158E-05  0.2409816E+04  0.7818609E-02  0.8435838E-01
       -1   -1    0    0    0  501  0.00000000000E+00  0.00000000000E+00  0.10868733139E+04  0.10868733139E+04  0.50400001928E-02 0. -1.
        1   -1    0    0  501    0  0.00000000000E+00  0.00000000000E+00 -0.13357609697E+04  0.13357609697E+04  0.50400001928E-02 0.  1.
    10030    2    1    2    0    0  0.00000000000E+00  0.00000000000E+00 -0.24888765579E+03  0.24226342836E+04  0.24098157205E+04 0.  0.
        5    1    3    3  502    0 -0.24432744239E+03 -0.44591603975E+03 -0.12226114312E+04  0.13241366302E+04  0.46999998093E+01 0.  1.
       -5    1    3    3    0  502  0.24432744239E+03  0.44591603975E+03  0.97372377546E+03  0.10984976534E+04  0.46999998093E+01 0. -1.
</event>
<event>
 5   0  0.6703961E-05  0.2472065E+04  0.7818609E-02  0.8413005E-01
       -2   -1    0    0    0  501  0.00000000000E+00  0.00000000000E+00  0.55699986281E+03  0.55699986281E+03  0.25500000920E-02 0. -1.
        2   -1    0    0  501    0  0.00000000000E+00  0.00000000000E+00 -0.27428675153E+04  0.27428675153E+04  0.25500000920E-02 0.  1.
    10030    2    1    2    0    0  0.00000000000E+00  0.00000000000E+00 -0.21858676525E+04  0.32998673781E+04  0.24720653953E+04 0.  0.
        2    1    3    3  502    0  0.10395533363E+04  0.17325843843E+03 -0.19550185785E+04  0.22209879036E+04  0.25500000920E-02 0.  1.
       -2    1    3    3    0  502 -0.10395533363E+04 -0.17325843843E+03 -0.23084907396E+03  0.10788794745E+04  0.25500000920E-02 0. -1.
</event>
<event>
 5   0  0.6978115E-05  0.2368153E+04  0.7818609E-02  0.8451524E-01
        2   -1    0    0  501    0  0.00000000000E+00  0.00000000000E+00  0.13938861106E+04  0.13938861106E+04  0.25500000920E-02 0.  1.
       -2   -1    0    0    0  501  0.00000000000E+00  0.00000000000E+00 -0.10058478681E+04  0.10058478681E+04  0.25500000920E-02 0. -1.
    10030    2    1    2    0    0  0.00000000000E+00  0.00000000000E+00  0.38803824256E+03  0.23997339787E+04  0.23681531815E+04 0.  0.
        4    1    3    3  502    0 -0.63770259050E+03  0.37127061073E+03 -0.74435882807E+03  0.10481307829E+04  0.12699999809E+01 0. -1.
       -4    1    3    3    0  502  0.63770259050E+03 -0.37127061073E+03  0.11323970706E+04  0.13516031958E+04  0.12699999809E+01 0.  1.
</event>
<event>
 5   0  0.6600166E-05  0.2405639E+04  0.7818609E-02  0.8437395E-01
       -2   -1    0    0    0  501  0.00000000000E+00  0.00000000000E+00  0.12261082843E+04  0.12261082843E+04  0.25500000920E-02 0.  1.
        2   -1    0    0  501    0  0.00000000000E+00  0.00000000000E+00 -0.11799731746E+04  0.11799731746E+04  0.25500000920E-02 0. -1.
    10030    2    1    2    0    0  0.00000000000E+00  0.00000000000E+00  0.46135109732E+02  0.24060814589E+04  0.24056391123E+04 0.  0.
        5    1    3    3  502    0 -0.76229006837E+03 -0.40407608297E+03  0.86130827120E+03  0.12191134718E+04  0.46999998093E+01 0.  1.
       -5    1    3    3    0  502  0.76229006837E+03  0.40407608297E+03 -0.81517316147E+03  0.11869679871E+04  0.46999998093E+01 0. -1.
</event>
<event>
 5   0  0.6714629E-05  0.2394244E+04  0.7818609E-02  0.8441662E-01
        2   -1    0    0  501    0  0.00000000000E+00  0.00000000000E+00  0.16340016627E+04  0.16340016627E+04  0.25500000920E-02 0. -1.
       -2   -1    0    0    0  501  0.00000000000E+00  0.00000000000E+00 -0.87705018537E+03  0.87705018537E+03  0.25500000920E-02 0.  1.
    10030    2    1    2    0    0  0.00000000000E+00  0.00000000000E+00  0.75695147738E+03  0.25110518481E+04  0.23942443160E+04 0.  0.
        3    1    3    3  502    0  0.40016142920E+03 -0.89812561884E+03 -0.33773327958E+03  0.10396261708E+04  0.10100000352E+00 0.  1.
       -3    1    3    3    0  502 -0.40016142920E+03  0.89812561884E+03  0.10946847570E+04  0.14714256773E+04  0.10100000352E+00 0. -1.
</event>
<event>
 5   0  0.6600166E-05  0.2423080E+04  0.7818609E-02  0.8430913E-01
        2   -1    0    0  501    0  0.00000000000E+00  0.00000000000E+00  0.11814649793E+04  0.11814649793E+04  0.25500000920E-02 0. -1.
       -2   -1    0    0    0  501  0.00000000000E+00  0.00000000000E+00 -0.12423803783E+04  0.12423803783E+04  0.25500000920E-02 0.  1.
    10030    2    1    2    0    0  0.00000000000E+00  0.00000000000E+00 -0.60915398980E+02  0.24238453576E+04  0.24230797823E+04 0.  0.
        5    1    3    3  502    0 -0.10314834844E+04  0.10550077188E+03  0.59641264230E+03  0.11961683499E+04  0.46999998093E+01 0. -1.
       -5    1    3    3    0  502  0.10314834844E+04 -0.10550077188E+03 -0.65732804128E+03  0.12276770077E+04  0.46999998093E+01 0.  1.
</event>
<event>
 5   0  0.6703961E-05  0.2273723E+04  0.7818609E-02  0.8488354E-01
       -2   -1    0    0    0  501  0.00000000000E+00  0.00000000000E+00  0.97252667385E+03  0.97252667385E+03  0.25500000920E-02 0.  1.
        2   -1    0    0  501    0  0.00000000000E+00  0.00000000000E+00 -0.13289655922E+04  0.13289655922E+04  0.25500000920E-02 0. -1.
    10030    2    1    2    0    0  0.00000000000E+00  0.00000000000E+00 -0.35643891835E+03  0.23014922661E+04  0.22737233667E+04 0.  0.
        2    1    3    3  502    0  0.75497685340E+03 -0.54531111197E+03 -0.83817938388E+03  0.12529560797E+04  0.25500000920E-02 0. -1.
       -2    1    3    3    0  502 -0.75497685340E+03  0.54531111197E+03  0.48174046553E+03  0.10485361864E+04  0.25500000920E-02 0.  1.
</event>
<event>
 5   0  0.2943123E-05  0.2396355E+04  0.7818609E-02  0.8440869E-01
        1   -1    0    0  501    0  0.00000000000E+00  0.00000000000E+00  0.15500857386E+04  0.15500857386E+04  0.50400001928E-02 0.  1.
       -1   -1    0    0    0  501  0.00000000000E+00  0.00000000000E+00 -0.92616150188E+03  0.92616150190E+03  0.50400001928E-02 0. -1.
    10030    2    1    2    0    0  0.00000000000E+00  0.00000000000E+00  0.62392423668E+03  0.24762472405E+04  0.23963553457E+04 0.  0.
        1    1    3    3  502    0 -0.60297546769E+03 -0.34651067829E+02 -0.75735625904E+03  0.96869428318E+03  0.50400001928E-02 0. -1.
       -1    1    3    3    0  502  0.60297546769E+03  0.34651067829E+02  0.13812804957E+04  0.15075529573E+04  0.50400001928E-02 0.  1.
</event>
<event>
 5   0  0.2901816E-05  0.2411359E+04  0.7818609E-02  0.8435263E-01
       -1   -1    0    0    0  501  0.00000000000E+00  0.00000000000E+00  0.91460356567E+03  0.91460356568E+03  0.50400001928E-02 0. -1.
        1   -1    0    0  501    0  0.00000000000E+00  0.00000000000E+00 -0.15893920228E+04  0.15893920228E+04  0.50400001928E-02 0.  1.
    10030    2    1    2    0    0  0.00000000000E+00  0.00000000000E+00 -0.67478845711E+03  0.25039955885E+04  0.24113594600E+04 0.  0.
        4    1    3    3  502    0  0.93684168676E+03 -0.56965216790E+03 -0.85814336998E+03  0.13923317115E+04  0.12699999809E+01 0.  1.
       -4    1    3    3    0  502 -0.93684168676E+03  0.56965216790E+03  0.18335491287E+03  0.11116638770E+04  0.12699999809E+01 0. -1.
</event>
<event>
 5   0  0.6978115E-05  0.2162328E+04  0.7818609E-02  0.8534274E-01
        2   -1    0    0  501    0  0.00000000000E+00  0.00000000000E+00  0.91200644297E+03  0.91200644297E+03  0.25500000920E-02 0.  1.
       -2   -1    0    0    0  501  0.00000000000E+00  0.00000000000E+00 -0.12816961598E+04  0.12816961598E+04  0.25500000920E-02 0. -1.
    10030    2    1    2    0    0  0.00000000000E+00  0.00000000000E+00 -0.36968971681E+03  0.21937026028E+04  0.21623275937E+04 0.  0.
        4    1    3    3  502    0  0.48140198901E+03 -0.33055226978E+03 -0.11079377958E+04  0.12524138495E+04  0.12699999809E+01 0. -1.
       -4    1    3    3    0  502 -0.48140198901E+03  0.33055226978E+03  0.73824807898E+03  0.94128875330E+03  0.12699999809E+01 0.  1.
</event>
<event>
 5   0  0.6978115E-05  0.2423105E+04  0.7818609E-02  0.8430904E-01
       -2   -1    0    0    0  501  0.00000000000E+00  0.00000000000E+00  0.14524358783E+04  0.14524358783E+04  0.25500000920E-02 0.  1.
        2   -1    0    0  501    0  0.00000000000E+00  0.00000000000E+00 -0.10106193289E+04  0.10106193289E+04  0.25500000920E-02 0. -1.
    10030    2    1    2    0    0  0.00000000000E+00  0.00000000000E+00  0.44181654937E+03  0.24630552072E+04  0.24231052578E+04 0.  0.
        4    1    3    3  502    0 -0.10717386318E+04  0.18862793792E+03 -0.32046435637E+03  0.11344175644E+04  0.12699999809E+01 0. -1.
       -4    1    3    3    0  502  0.10717386318E+04 -0.18862793792E+03  0.76228090573E+03  0.13286376428E+04  0.12699999809E+01 0.  1.
</event>
<event>
 5   0  0.2915546E-05  0.2436372E+04  0.7818609E-02  0.8426010E-01
        1   -1    0    0  501    0  0.00000000000E+00  0.00000000000E+00  0.18011348240E+04  0.18011348240E+04  0.50400001928E-02 0.  1.
       -1   -1    0    0    0  501  0.00000000000E+00  0.00000000000E+00 -0.82391261695E+03  0.82391261696E+03  0.50400001928E-02 0. -1.
    10030    2    1    2    0    0  0.00000000000E+00  0.00000000000E+00  0.97722220706E+03  0.26250474410E+04  0.24363724726E+04 0.  0.
        2    1    3    3  502    0  0.89115753541E+03 -0.24324459315E+03 -0.36702084293E+03  0.99399898600E+03  0.25500000920E-02 0.  1.
       -2    1    3    3    0  502 -0.89115753541E+03  0.24324459315E+03  0.13442430500E+04  0.16310484550E+04  0.25500000920E-02 0. -1.
</event>
<event>
 5   0  0.2915546E-05  0.2412291E+04  0.7818609E-02  0.8434916E-01
       -1   -1    0    0    0  501  0.00000000000E+00  0.00000000000E+00  0.85132266541E+03  0.85132266542E+03  0.50400001928E-02 0.  1.
        1   -1    0    0  501    0  0.00000000000E+00  0.00000000000E+00 -0.17088548899E+04  0.17088548899E+04  0.50400001928E-02 0. -1.
    10030    2    1    2    0    0  0.00000000000E+00  0.00000000000E+00 -0.85753222451E+03  0.25601775553E+04  0.24122909441E+04 0.  0.
        2    1    3    3  502    0  0.87788212907E+03  0.98220282980E+02 -0.13003703829E+04  0.15720328842E+04  0.25500000920E-02 0. -1.
       -2    1    3    3    0  502 -0.87788212907E+03 -0.98220282980E+02  0.44283815835E+03  0.98814467110E+03  0.25500000920E-02 0.  1.
</event>
<event>
 5   0  0.6703961E-05  0.2416826E+04  0.7818609E-02  0.8433231E-01
       -2   -1    0    0    0  501  0.00000000000E+00  0.00000000000E+00  0.80108868637E+03  0.80108868638E+03  0.25500000920E-02 0. -1.
        2   -1    0    0  501    0  0.00000000000E+00  0.00000000000E+00 -0.18228464373E+04  0.18228464373E+04  0.25500000920E-02 0.  1.
    10030    2    1    2    0    0  0.00000000000E+00  0.00000000000E+00 -0.10217577509E+04  0.26239351237E+04  0.24168257347E+04 0.  0.
        2    1    3    3  502    0 -0.80544597982E+03  0.59050759176E+03 -0.12494859230E+04  0.15995804182E+04  0.25500000920E-02 0.  1.
       -2    1    3    3    0  502  0.80544597982E+03 -0.59050759176E+03  0.22772817210E+03  0.10243547055E+04  0.25500000920E-02 0. -1.
</event>
<event>
 5   0  0.6714629E-05  0.2191071E+04  0.7818609E-02  0.8522154E-01
       -2   -1    0    0    0  501  0.00000000000E+00  0.00000000000E+00  0.56086816306E+03  0.56086816306E+03  0.25500000920E-02 0.  1.
        2   -1    0    0  501    0  0.00000000000E+00  0.00000000000E+00 -0.21398942746E+04  0.21398942746E+04  0.25500000920E-02 0. -1.
    10030    2    1    2    0    0  0.00000000000E+00  0.00000000000E+00 -0.15790261115E+04  0.27007624376E+04  0.21910714921E+04 0.  0.
        3    1    3    3  502    0 -0.70950839751E+03 -0.32152680892E+03  0.16001935619E+03  0.79522818081E+03  0.10100000352E+00 0.  1.
       -3    1    3    3    0  502  0.70950839751E+03  0.32152680892E+03 -0.17390454677E+04  0.19055342568E+04  0.10100000352E+00 0. -1.
</event>
<event>
 5   0  0.6703961E-05  0.2552797E+04  0.7818609E-02  0.8384414E-01
        2   -1    0    0  501    0  0.00000000000E+00  0.00000000000E+00  0.14110099570E+04  0.14110099570E+04  0.25500000920E-02 0. -1.
       -2   -1    0    0    0  501  0.00000000000E+00  0.00000000000E+00 -0.11546287048E+04  0.11546287048E+04  0.25500000920E-02 0.  1.
    10030    2    1    2    0    0  0.00000000000E+00  0.00000000000E+00  0.25638125214E+03  0.25656386618E+04  0.25527965835E+04 0.  0.
        2    1    3    3  502    0  0.29007889152E+03 -0.77029457921E+03  0.11086457964E+04  0.13807950623E+04  0.25500000920E-02 0. -1.
       -2    1    3    3    0  502 -0.29007889152E+03  0.77029457921E+03 -0.85226454426E+03  0.11848435996E+04  0.25500000920E-02 0.  1.
</event>
<event>
 5   0  0.6337926E-05  0.2330667E+04  0.7818609E-02  0.8465927E-01
        2   -1    0    0  501    0  0.00000000000E+00  0.00000000000E+00  0.10171295917E+04  0.10171295917E+04  0.25500000920E-02 0.  1.
       -2   -1    0    0    0  501  0.00000000000E+00  0.00000000000E+00 -0.13351323511E+04  0.13351323511E+04  0.25500000920E-02 0. -1.
    10030    2    1    2    0    0  0.00000000000E+00  0.00000000000E+00 -0.31800275933E+03  0.23522619428E+04  0.23306673921E+04 0.  0.
        1    1    3    3  502    0 -0.96559905971E+03  0.36119674629E+03 -0.70731957006E+03  0.12502582165E+04  0.50400001928E-02 0. -1.
       -1    1    3    3    0  502  0.96559905971E+03 -0.36119674629E+03  0.38931681073E+03  0.11020037263E+04  0.50400001928E-02 0.  1.
</event>
<event>
 5   0  0.2943244E-05  0.2372211E+04  0.7818609E-02  0.8449981E-01
        1   -1    0    0  501    0  0.00000000000E+00  0.00000000000E+00  0.12714483712E+04  0.12714483712E+04  0.50400001928E-02 0.  1.
       -1   -1    0    0    0  501  0.00000000000E+00  0.00000000000E+00 -0.11064906803E+04  0.11064906803E+04  0.50400001928E-02 0. -1.
    10030    2    1    2    0    0  0.00000000000E+00  0.00000000000E+00  0.16495769088E+03  0.23779390516E+04  0.23722105921E+04 0.  0.
        3    1    3    3  502    0  0.10398044232E+04  0.34559750480E+03  0.53768433219E+03  0.12205471417E+04  0.10100000352E+00 0.  1.
       -3    1    3    3    0  502 -0.10398044232E+04 -0.34559750480E+03 -0.37272664131E+03  0.11573919099E+04  0.10100000352E+00 0. -1.
</event>
<event>
 5   0  0.6600166E-05  0.2410844E+04  0.7818609E-02  0.8435455E-01
        2   -1    0    0  501    0  0.00000000000E+00  0.00000000000E+00  0.14376926703E+04  0.14376926703E+04  0.25500000920E-02 0.  1.
       -2   -1    0    0    0  501  0.00000000000E+00  0.00000000000E+00 -0.10106766899E+04  0.10106766899E+04  0.25500000920E-02 0. -1.
    10030    2    1    2    0    0  0.00000000000E+00  0.00000000000E+00  0.42701598038E+03  0.24483693602E+04  0.24108442248E+04 0.  0.
        5    1    3    3  502    0 -0.96507175451E+03 -0.72194973955E+03  0.23494246127E+03  0.12279230301E+04  0.46999998093E+01 0.  1.
       -5    1    3    3    0  502  0.96507175451E+03  0.72194973955E+03  0.19207351911E+03  0.12204463301E+04  0.46999998093E+01 0. -1.
</event>
<event>
 5   0  0.6978115E-05  0.2415618E+04  0.7818609E-02  0.8433680E-01
       -2   -1    0    0    0  501  0.00000000000E+00  0.00000000000E+00  0.86586185474E+03  0.86586185474E+03  0.25500000920E-02 0. -1.
        2   -1    0    0  501    0  0.00000000000E+00  0.00000000000E+00 -0.16847981761E+04  0.16847981761E+04  0.25500000920E-02 0.  1.
    10030    2    1    2    0    0  0.00000000000E+00  0.00000000000E+00 -0.81893632140E+03  0.25506600309E+04  0.24156179116E+04 0.  0.
        4    1    3    3  502    0 -0.11311515701E+04 -0.20104249963E+03 -0.15970215332E+02  0.11489902618E+04  0.12699999809E+01 0. -1.
       -4    1    3    3    0  502  0.11311515701E+04  0.20104249963E+03 -0.80296610606E+03  0.14016697691E+04  0.12699999809E+01 0.  1.
</event>
<event>
 5   0  0.6703961E-05  0.2241523E+04  0.7818609E-02  0.8501341E-01
        2   -1    0    0  501    0  0.00000000000E+00  0.00000000000E+00  0.11771607020E+04  0.11771607020E+04  0.25500000920E-02 0. -1.
       -2   -1    0    0    0  501  0.00000000000E+00  0.00000000000E+00 -0.10670642918E+04  0.10670642918E+04  0.25500000920E-02 0.  1.
    10030    2    1    2    0    0  0.00000000000E+00  0.00000000000E+00  0.11009641016E+03  0.22442249937E+04  0.22415228313E+04 0.  0.
        2    1    3    3  502    0 -0.13890643365E+03  0.10869799569E+04 -0.18036441417E+03  0.11105637064E+04  0.25500000920E-02 0.  1.
       -2    1    3    3    0  502  0.13890643365E+03 -0.10869799569E+04  0.29046082434E+03  0.11336612874E+04  0.25500000920E-02 0. -1.
</event>
<event>
 5   0  0.2943244E-05  0.2500043E+04  0.7818609E-02  0.8402970E-01
       -1   -1    0    0    0  501  0.00000000000E+00  0.00000000000E+00  0.12582775252E+04  0.12582775253E+04  0.50400001928E-02 0.  1.
        1   -1    0    0  501    0  0.00000000000E+00  0.00000000000E+00 -0.12418199921E+04  0.12418199921E+04  0.50400001928E-02 0. -1.
    10030    2    1    2    0    0  0.00000000000E+00  0.00000000000E+00  0.16457533151E+02  0.25000975174E+04  0.25000433488E+04 0.  0.
        3    1    3    3  502    0 -0.55609516325E+03 -0.25014624787E+03 -0.10830048475E+04  0.12428654335E+04  0.10100000352E+00 0. -1.
       -3    1    3    3    0  502  0.55609516325E+03  0.25014624787E+03  0.10994623807E+04  0.12572320838E+04  0.10100000352E+00 0.  1.
</event>
<event>
 5   0  0.2847158E-05  0.2189091E+04  0.7818609E-02  0.8522983E-01
       -1   -1    0    0    0  501  0.00000000000E+00  0.00000000000E+00  0.12953218303E+04  0.12953218303E+04  0.50400001928E-02 0.  1.
        1   -1    0    0  501    0  0.00000000000E+00  0.00000000000E+00 -0.92488930930E+03  0.92488930931E+03  0.50400001928E-02 0. -1.
    10030    2    1    2    0    0  0.00000000000E+00  0.00000000000E+00  0.37043252099E+03  0.22202111396E+04  0.21890905079E+04 0.  0.
        5    1    3    3  502    0 -0.75314418416E+03 -0.61808902706E+03 -0.32061946496E+03  0.10257090907E+04  0.46999998093E+01 0. -1.
       -5    1    3    3    0  502  0.75314418416E+03  0.61808902706E+03  0.69105198594E+03  0.11945020489E+04  0.46999998093E+01 0.  1.
</event>
<event>
 5   0  0.6337926E-05  0.2425784E+04  0.7818609E-02  0.8429913E-01
       -2   -1    0    0    0  501  0.00000000000E+00  0.00000000000E+00  0.98399998584E+03  0.98399998584E+03  0.25500000920E-02 0.  1.
        2   -1    0    0  501    0  0.00000000000E+00  0.00000000000E+00 -0.14950271449E+04  0.14950271449E+04  0.25500000920E-02 0. -1.
    10030    2    1    2    0    0  0.00000000000E+00  0.00000000000E+00 -0.51102715904E+03  0.24790271307E+04  0.24257837409E+04 0.  0.
        1    1    3    3  502    0  0.43582549991E+03 -0.44737618869E+03 -0.13180541827E+04  0.14585459023E+04  0.50400001928E-02 0. -1.
       -1    1    3    3    0  502 -0.43582549991E+03  0.44737618869E+03  0.80702702367E+03  0.10204812284E+04  0.50400001928E-02 0.  1.
</event>
<event>
 5   0  0.6600166E-05  0.1855048E+04  0.7818609E-02  0.8677561E-01
        2   -1    0    0  501    0  0.00000000000E+00  0.00000000000E+00  0.11064120337E+04  0.11064120337E+04  0.25500000920E-02 0.  1.
       -2   -1    0    0    0  501  0.00000000000E+00  0.00000000000E+00 -0.77755929891E+03  0.77755929891E+03  0.25500000920E-02 0. -1.
    10030    2    1    2    0    0  0.00000000000E+00  0.00000000000E+00  0.32885273480E+03  0.18839713326E+04  0.18550482099E+04 0.  0.
        5    1    3    3  502    0 -0.81968980027E+03  0.90862652902E+02  0.59546272475E+03  0.10172243297E+04  0.46999998093E+01 0.  1.
       -5    1    3    3    0  502  0.81968980027E+03 -0.90862652902E+02 -0.26660998995E+03  0.86674700293E+03  0.46999998093E+01 0. -1.
</event>
<event>
 5   0  0.6600166E-05  0.2424621E+04  0.7818609E-02  0.8430343E-01
       -2   -1    0    0    0  501  0.00000000000E+00  0.00000000000E+00  0.55431812649E+03  0.55431812650E+03  0.25500000920E-02 0.  1.
        2   -1    0    0  501    0  0.00000000000E+00  0.00000000000E+00 -0.26513590573E+04  0.26513590573E+04  0.25500000920E-02 0. -1.
    10030    2    1    2    0    0  0.00000000000E+00  0.00000000000E+00 -0.20970409308E+04  0.32056771838E+04  0.24246207005E+04 0.  0.
        5    1    3    3  502    0  0.62877752682E+03 -0.85114627839E+03 -0.26648749008E+03  0.10912602063E+04  0.46999998093E+01 0.  1.
       -5    1    3    3    0  502 -0.62877752682E+03  0.85114627839E+03 -0.18305534407E+04  0.21144169775E+04  0.46999998093E+01 0. -1.
</event>
<event>
 5   0  0.2901816E-05  0.2426707E+04  0.7818609E-02  0.8429572E-01
       -1   -1    0    0    0  501  0.00000000000E+00  0.00000000000E+00  0.88656730438E+03  0.88656730439E+03  0.50400001928E-02 0. -1.
        1   -1    0    0  501    0  0.00000000000E+00  0.00000000000E+00 -0.16605920328E+04  0.16605920328E+04  0.50400001928E-02 0.  1.
    10030    2    1    2    0    0  0.00000000000E+00  0.00000000000E+00 -0.77402472839E+03  0.25471593372E+04  0.24267069062E+04 0.  0.
        4    1    3    3  502    0  0.91815838880E+03  0.78516011876E+03 -0.26856730446E+03  0.12375868652E+04  0.12699999809E+01 0. -1.
       -4    1    3    3    0  502 -0.91815838880E+03 -0.78516011876E+03 -0.50545742393E+03  0.13095724720E+04  0.12699999809E+01 0.  1.
</event>
<event>
 5   0  0.2901816E-05  0.2343018E+04  0.7818609E-02  0.8461150E-01
       -1   -1    0    0    0  501  0.00000000000E+00  0.00000000000E+00  0.11868535899E+04  0.11868535899E+04  0.50400001928E-02 0. -1.
        1   -1    0    0  501    0  0.00000000000E+00  0.00000000000E+00 -0.11563624240E+04  0.11563624240E+04  0.50400001928E-02 0.  1.
    10030    2    1    2    0    0  0.00000000000E+00  0.00000000000E+00  0.30491165850E+02  0.23432160139E+04  0.23430176220E+04 0.  0.
        4    1    3    3  502    0  0.35437567359E+03  0.34711326717E+03  0.10766372625E+04  0.11854193968E+04  0.12699999809E+01 0. -1.
       -4    1    3    3    0  502 -0.35437567359E+03 -0.34711326717E+03 -0.10461460967E+04  0.11577966172E+04  0.12699999809E+01 0.  1.
</event>
<event>
 5   0  0.2915546E-05  0.2418972E+04  0.7818609E-02  0.8432435E-01
       -1   -1    0    0    0  501  0.00000000000E+00  0.00000000000E+00  0.12754380911E+04  0.12754380911E+04  0.50400001928E-02 0.  1.
        1   -1    0    0  501    0  0.00000000000E+00  0.00000000000E+00 -0.11469439670E+04  0.11469439670E+04  0.50400001928E-02 0. -1.
    10030    2    1    2    0    0  0.00000000000E+00  0.00000000000E+00  0.12849412411E+03  0.24223820581E+04  0.24189717021E+04 0.  0.
        2    1    3    3  502    0  0.57245679656E+03 -0.93623998396E+03 -0.44500103584E+03  0.11841782017E+04  0.25500000920E-02 0. -1.
       -2    1    3    3    0  502 -0.57245679656E+03  0.93623998396E+03  0.57349515995E+03  0.12382038564E+04  0.25500000920E-02 0.  1.
</event>
<event>
 5   0  0.6337926E-05  0.2344323E+04  0.7818609E-02  0.8460647E-01
        2   -1    0    0  501    0  0.00000000000E+00  0.00000000000E+00  0.11747387623E+04  0.11747387623E+04  0.25500000920E-02 0. -1.
       -2   -1    0    0    0  501  0.00000000000E+00  0.00000000000E+00 -0.11695899483E+04  0.11695899483E+04  0.25500000920E-02 0.  1.
    10030    2    1    2    0    0  0.00000000000E+00  0.00000000000E+00  0.51488140184E+01  0.23443287106E+04  0.23443230565E+04 0.  0.
        1    1    3    3  502    0 -0.11106134709E+04 -0.31820016075E+03 -0.19553973577E+03  0.11717292402E+04  0.50400001928E-02 0.  1.
       -1    1    3    3    0  502  0.11106134709E+04  0.31820016075E+03  0.20068854978E+03  0.11725994704E+04  0.50400001928E-02 0. -1.
</event>
<event>
 5   0  0.6600166E-05  0.2398704E+04  0.7818609E-02  0.8439989E-01
       -2   -1    0    0    0  501  0.00000000000E+00  0.00000000000E+00  0.10546748924E+04  0.10546748924E+04  0.25500000920E-02 0. -1.
        2   -1    0    0  501    0  0.00000000000E+00  0.00000000000E+00 -0.13638756982E+04  0.13638756982E+04  0.25500000920E-02 0.  1.
    10030    2    1    2    0    0  0.00000000000E+00  0.00000000000E+00 -0.30920080575E+03  0.24185505906E+04  0.23987041962E+04 0.  0.
        5    1    3    3  502    0 -0.42558115418E+02  0.11805200295E+04 -0.36364314223E+03  0.12360004685E+04  0.46999998093E+01 0.  1.
       -5    1    3    3    0  502  0.42558115418E+02 -0.11805200295E+04  0.54442336479E+02  0.11825501221E+04  0.46999998093E+01 0. -1.
</event>
<event>
 5   0  0.6714629E-05  0.2287065E+04  0.7818609E-02  0.8483039E-01
        2   -1    0    0  501    0  0.00000000000E+00  0.00000000000E+00  0.22045857839E+04  0.22045857839E+04  0.25500000920E-02 0. -1.
       -2   -1    0    0    0  501  0.00000000000E+00  0.00000000000E+00 -0.59315761736E+03  0.59315761737E+03  0.25500000920E-02 0.  1.
    10030    2    1    2    0    0  0.00000000000E+00  0.00000000000E+00  0.16114281665E+04  0.27977434013E+04  0.22870652381E+04 0.  0.
        3    1    3    3  502    0  0.26136950289E+02 -0.26572675634E+03  0.21659181902E+04  0.21823142455E+04  0.10100000352E+00 0. -1.
       -3    1    3    3    0  502 -0.26136950289E+02  0.26572675634E+03 -0.55449002368E+03  0.61542915577E+03  0.10100000352E+00 0.  1.
</event>
<event>
 5   0  0.2901816E-05  0.2387361E+04  0.7818609E-02  0.8444251E-01
       -1   -1    0    0    0  501  0.00000000000E+00  0.00000000000E+00  0.57819701840E+03  0.57819701842E+03  0.50400001928E-02 0.  1.
        1   -1    0    0  501    0  0.00000000000E+00  0.00000000000E+00 -0.24643379965E+04  0.24643379965E+04  0.50400001928E-02 0. -1.
    10030    2    1    2    0    0  0.00000000000E+00  0.00000000000E+00 -0.18861409781E+04  0.30425350149E+04  0.23873607871E+04 0.  0.
        4    1    3    3  502    0 -0.27782656420E+01  0.69217231884E+03  0.29632022112E+03  0.75293925656E+03  0.12699999809E+01 0.  1.
       -4    1    3    3    0  502  0.27782656420E+01 -0.69217231884E+03 -0.21824611992E+04  0.22895957583E+04  0.12699999809E+01 0. -1.
</event>
<event>
 5   0  0.6337926E-05  0.2416956E+04  0.7818609E-02  0.8433183E-01
       -2   -1    0    0    0  501  0.00000000000E+00  0.00000000000E+00  0.81803090782E+03  0.81803090783E+03  0.25500000920E-02 0. -1.
        2   -1    0    0  501    0  0.00000000000E+00  0.00000000000E+00 -0.17852864992E+04  0.17852864992E+04  0.25500000920E-02 0.  1.
    10030    2    1    2    0    0  0.00000000000E+00  0.00000000000E+00 -0.96725559135E+03  0.26033174070E+04  0.24169563800E+04 0.  0.
        1    1    3    3  502    0 -0.18848515858E+02  0.83892485944E+03 -0.14203192528E+04  0.16496838989E+04  0.50400001928E-02 0.  1.
       -1    1    3    3    0  502  0.18848515858E+02 -0.83892485944E+03  0.45306366149E+03  0.95363350808E+03  0.50400001928E-02 0. -1.
</event>
<event>
 5   0  0.2901816E-05  0.2054779E+04  0.7818609E-02  0.8581430E-01
       -1   -1    0    0    0  501  0.00000000000E+00  0.00000000000E+00  0.83623830486E+03  0.83623830488E+03  0.50400001928E-02 0. -1.
        1   -1    0    0  501    0  0.00000000000E+00  0.00000000000E+00 -0.12622345872E+04  0.12622345872E+04  0.50400001928E-02 0.  1.
    10030    2    1    2    0    0  0.00000000000E+00  0.00000000000E+00 -0.42599628237E+03  0.20984728921E+04  0.20547787342E+04 0.  0.
        4    1    3    3  502    0  0.65447506896E+03 -0.31165969434E+03 -0.95653065440E+03  0.12001757732E+04  0.12699999809E+01 0.  1.
       -4    1    3    3    0  502 -0.65447506896E+03  0.31165969434E+03  0.53053437203E+03  0.89829711887E+03  0.12699999809E+01 0. -1.
</event>
<event>
 5   0  0.6714629E-05  0.2390885E+04  0.7818609E-02  0.8442924E-01
        2   -1    0    0  501    0  0.00000000000E+00  0.00000000000E+00  0.23871665387E+04  0.23871665387E+04  0.25500000920E-02 0.  1.
       -2   -1    0    0    0  501  0.00000000000E+00  0.00000000000E+00 -0.59865228062E+03  0.59865228062E+03  0.25500000920E-02 0. -1.
    10030    2    1    2    0    0  0.00000000000E+00  0.00000000000E+00  0.17885142581E+04  0.29858188193E+04  0.23908849346E+04 0.  0.
        3    1    3    3  502    0  0.31903602252E+03 -0.40242481426E+03  0.22423925478E+04  0.23004464922E+04  0.10100000352E+00 0.  1.
       -3    1    3    3    0  502 -0.31903602252E+03  0.40242481426E+03 -0.45387828969E+03  0.68537232717E+03  0.10100000352E+00 0. -1.
</event>
<event>
 5   0  0.6978115E-05  0.2416516E+04  0.7818609E-02  0.8433346E-01
        2   -1    0    0  501    0  0.00000000000E+00  0.00000000000E+00  0.11347709983E+04  0.11347709983E+04  0.25500000920E-02 0.  1.
       -2   -1    0    0    0  501  0.00000000000E+00  0.00000000000E+00 -0.12865044755E+04  0.12865044755E+04  0.25500000920E-02 0. -1.
    10030    2    1    2    0    0  0.00000000000E+00  0.00000000000E+00 -0.15173347720E+03  0.24212754738E+04  0.24165164746E+04 0.  0.
        4    1    3    3  502    0  0.10622230533E+03  0.57575985291E+03 -0.11348795185E+04  0.12770026314E+04  0.12699999809E+01 0. -1.
       -4    1    3    3    0  502 -0.10622230533E+03 -0.57575985291E+03  0.98314604127E+03  0.11442728424E+04  0.12699999809E+01 0.  1.
</event>
<event>
 5   0  0.2943123E-05  0.2352473E+04  0.7818609E-02  0.8457515E-01
        1   -1    0    0  501    0  0.00000000000E+00  0.00000000000E+00  0.17249793248E+04  0.17249793248E+04  0.50400001928E-02 0. -1.
       -1   -1    0    0    0  501  0.00000000000E+00  0.00000000000E+00 -0.80205706246E+03  0.80205706248E+03  0.50400001928E-02 0.  1.
    10030    2    1    2    0    0  0.00000000000E+00  0.00000000000E+00  0.92292226237E+03  0.25270363873E+04  0.23524726142E+04 0.  0.
        1    1    3    3  502    0  0.33395659681E+03  0.10427899840E+04  0.92298650318E+03  0.14320761308E+04  0.50400001928E-02 0. -1.
       -1    1    3    3    0  502 -0.33395659681E+03 -0.10427899840E+04 -0.64240816526E-01  0.10949602565E+04  0.50400001928E-02 0.  1.
</event>
<event>
 5   0  0.6337926E-05  0.2377514E+04  0.7818609E-02  0.8447970E-01
       -2   -1    0    0    0  501  0.00000000000E+00  0.00000000000E+00  0.66353675034E+03  0.66353675035E+03  0.25500000920E-02 0.  1.
        2   -1    0    0  501    0  0.00000000000E+00  0.00000000000E+00 -0.21297131757E+04  0.21297131757E+04  0.25500000920E-02 0. -1.
    10030    2    1    2    0    0  0.00000000000E+00  0.00000000000E+00 -0.14661764254E+04  0.27932499261E+04  0.23775137937E+04 0.  0.
        1    1    3    3  502    0  0.25731975263E+03  0.10504782588E+04 -0.15343362182E+03  0.10923643639E+04  0.50400001928E-02 0. -1.
       -1    1    3    3    0  502 -0.25731975263E+03 -0.10504782588E+04 -0.13127428036E+04  0.17008855622E+04  0.50400001928E-02 0.  1.
</event>
<event>
 5   0  0.2847158E-05  0.2308380E+04  0.7818609E-02  0.8474624E-01
        1   -1    0    0  501    0  0.00000000000E+00  0.00000000000E+00  0.10142081879E+04  0.10142081879E+04  0.50400001928E-02 0.  1.
       -1   -1    0    0    0  501  0.00000000000E+00  0.00000000000E+00 -0.13134918458E+04  0.13134918458E+04  0.50400001928E-02 0. -1.
    10030    2    1    2    0    0  0.00000000000E+00  0.00000000000E+00 -0.29928365788E+03  0.23277000336E+04  0.23083796782E+04 0.  0.
        5    1    3    3  502    0  0.27236666007E+03  0.10030624445E+04 -0.65565276657E+03  0.12289102918E+04  0.46999998093E+01 0.  1.
       -5    1    3    3    0  502 -0.27236666007E+03 -0.10030624445E+04  0.35636910869E+03  0.10987897418E+04  0.46999998093E+01 0. -1.
</event>
<event>
 5   0  0.2847158E-05  0.2301925E+04  0.7818609E-02  0.8477162E-01
       -1   -1    0    0    0  501  0.00000000000E+00  0.00000000000E+00  0.12148273017E+04  0.12148273017E+04  0.50400001928E-02 0. -1.
        1   -1    0    0  501    0  0.00000000000E+00  0.00000000000E+00 -0.10904552704E+04  0.10904552704E+04  0.50400001928E-02 0.  1.
    10030    2    1    2    0    0  0.00000000000E+00  0.00000000000E+00  0.12437203130E+03  0.23052825722E+04  0.23019251368E+04 0.  0.
        5    1    3    3  502    0 -0.28514903524E+03 -0.37789626254E+03  0.11128001148E+04  0.12093228449E+04  0.46999998093E+01 0. -1.
       -5    1    3    3    0  502  0.28514903524E+03  0.37789626254E+03 -0.98842808353E+03  0.10959597273E+04  0.46999998093E+01 0.  1.
</event>
<event>
 5   0  0.2901816E-05  0.1798757E+04  0.7818609E-02  0.8706961E-01
       -1   -1    0    0    0  501  0.00000000000E+00  0.00000000000E+00  0.88254594907E+03  0.88254594908E+03  0.50400001928E-02 0.  1.
        1   -1    0    0  501    0  0.00000000000E+00  0.00000000000E+00 -0.91653203945E+03  0.91653203946E+03  0.50400001928E-02 0. -1.
    10030    2    1    2    0    0  0.00000000000E+00  0.00000000000E+00 -0.33986090376E+02  0.17990779885E+04  0.17987569470E+04 0.  0.
        4    1    3    3  502    0 -0.72689011867E+01 -0.38216267290E+03 -0.83125067422E+03  0.91492100303E+03  0.12699999809E+01 0. -1.
       -4    1    3    3    0  502  0.72689011867E+01  0.38216267290E+03  0.79726458385E+03  0.88415698552E+03  0.12699999809E+01 0.  1.
</event>
<event>
 5   0  0.2943244E-05  0.2423183E+04  0.7818609E-02  0.8430875E-01
        1   -1    0    0  501    0  0.00000000000E+00  0.00000000000E+00  0.87846099174E+03  0.87846099175E+03  0.50400001928E-02 0. -1.
       -1   -1    0    0    0  501  0.00000000000E+00  0.00000000000E+00 -0.16710522515E+04  0.16710522515E+04  0.50400001928E-02 0.  1.
    10030    2    1    2    0    0  0.00000000000E+00  0.00000000000E+00 -0.79259125975E+03  0.25495132433E+04  0.24231832107E+04 0.  0.
        3    1    3    3  502    0 -0.21175781437E+03 -0.78242824564E+03 -0.13437531036E+04  0.15693016743E+04  0.10100000352E+00 0.  1.
       -3    1    3    3    0  502  0.21175781437E+03  0.78242824564E+03  0.55116184383E+03  0.98021156891E+03  0.10100000352E+00 0. -1.
</event>
<event>
 5   0  0.2943244E-05  0.2380296E+04  0.7818609E-02  0.8446918E-01
       -1   -1    0    0    0  501  0.00000000000E+00  0.00000000000E+00  0.18705758817E+04  0.18705758817E+04  0.50400001928E-02 0. -1.
        1   -1    0    0  501    0  0.00000000000E+00  0.00000000000E+00 -0.75722773800E+03  0.75722773802E+03  0.50400001928E-02 0.  1.
    10030    2    1    2    0    0  0.00000000000E+00  0.00000000000E+00  0.11133481437E+04  0.26278036198E+04  0.23802957326E+04 0.  0.
        3    1    3    3  502    0  0.80475819200E+03  0.69553592279E+03 -0.32738558711E+02  0.10641793979E+04  0.10100000352E+00 0. -1.
       -3    1    3    3    0  502 -0.80475819200E+03 -0.69553592279E+03  0.11460867024E+04  0.15636242219E+04  0.10100000352E+00 0.  1.
</event>
<event>
 5   0  0.2901816E-05  0.2350543E+04  0.7818609E-02  0.8458255E-01
        1   -1    0    0  501    0  0.00000000000E+00  0.00000000000E+00  0.98796096762E+03  0.98796096763E+03  0.50400001928E-02 0.  1.
       -1   -1    0    0    0  501  0.00000000000E+00  0.00000000000E+00 -0.13980943120E+04  0.13980943120E+04  0.50400001928E-02 0. -1.
    10030    2    1    2    0    0  0.00000000000E+00  0.00000000000E+00 -0.41013334436E+03  0.23860552796E+04  0.23505425836E+04 0.  0.
        4    1    3    3  502    0 -0.47677508698E+03  0.47937179777E+03 -0.11809174705E+04  0.13607643033E+04  0.12699999809E+01 0. -1.
       -4    1    3    3    0  502  0.47677508698E+03 -0.47937179777E+03  0.77078412617E+03  0.10252909763E+04  0.12699999809E+01 0.  1.
</event>
<event>
 5   0  0.2943244E-05  0.2376452E+04  0.7818609E-02  0.8448372E-01
        1   -1    0    0  501    0  0.00000000000E+00  0.00000000000E+00  0.29269463517E+04  0.29269463517E+04  0.50400001928E-02 0.  1.
       -1   -1    0    0    0  501  0.00000000000E+00  0.00000000000E+00 -0.48237350631E+03  0.48237350633E+03  0.50400001928E-02 0. -1.
    10030    2    1    2    0    0  0.00000000000E+00  0.00000000000E+00  0.24445728454E+04  0.34093198580E+04  0.23764522924E+04 0.  0.
        3    1    3    3  502    0 -0.54467418312E+03  0.11029112430E+03 -0.28444452721E+03  0.62429383876E+03  0.10100000352E+00 0. -1.
       -3    1    3    3    0  502  0.54467418312E+03 -0.11029112430E+03  0.27290173726E+04  0.27850260192E+04  0.10100000352E+00 0.  1.
</event>
<event>
 5   0  0.2943123E-05  0.2397779E+04  0.7818609E-02  0.8440335E-01
       -1   -1    0    0    0  501  0.00000000000E+00  0.00000000000E+00  0.11783472696E+04  0.11783472696E+04  0.50400001928E-02 0. -1.
        1   -1    0    0  501    0  0.00000000000E+00  0.00000000000E+00 -0.12197901428E+04  0.12197901428E+04  0.50400001928E-02 0.  1.
    10030    2    1    2    0    0  0.00000000000E+00  0.00000000000E+00 -0.41442873178E+02  0.23981374124E+04  0.23977792928E+04 0.  0.
        1    1    3    3  502    0 -0.45085255220E+03  0.30940351764E+03  0.10463670702E+04  0.11806280558E+04  0.50400001928E-02 0. -1.
       -1    1    3    3    0  502  0.45085255220E+03 -0.30940351764E+03 -0.10878099434E+04  0.12175093566E+04  0.50400001928E-02 0.  1.
</event>
<event>
 5   0  0.2847158E-05  0.2385445E+04  0.7818609E-02  0.8444973E-01
        1   -1    0    0  501    0  0.00000000000E+00  0.00000000000E+00  0.20512719831E+04  0.20512719831E+04  0.50400001928E-02 0.  1.
       -1   -1    0    0    0  501  0.00000000000E+00  0.00000000000E+00 -0.69351429838E+03  0.69351429840E+03  0.50400001928E-02 0. -1.
    10030    2    1    2    0    0  0.00000000000E+00  0.00000000000E+00  0.13577576847E+04  0.27447862815E+04  0.23854445709E+04 0.  0.
        5    1    3    3  502    0  0.16368558791E+03  0.17745588759E+03  0.20228535256E+04  0.20372142842E+04  0.46999998093E+01 0.  1.
       -5    1    3    3    0  502 -0.16368558791E+03 -0.17745588759E+03 -0.66509584091E+03  0.70757199727E+03  0.46999998093E+01 0. -1.
</event>
<event>
 5   0  0.6714629E-05  0.2414008E+04  0.7818609E-02  0.8434278E-01
        2   -1    0    0  501    0  0.00000000000E+00  0.00000000000E+00  0.17619211330E+04  0.17619211330E+04  0.25500000920E-02 0.  1.
       -2   -1    0    0    0  501  0.00000000000E+00  0.00000000000E+00 -0.82685805265E+03  0.82685805266E+03  0.25500000920E-02 0. -1.
    10030    2    1    2    0    0  0.00000000000E+00  0.00000000000E+00  0.93506308030E+03  0.25887791856E+04  0.24140080173E+04 0.  0.
        3    1    3    3  502    0 -0.11803042123E+04 -0.17234542318E+03  0.26968141570E+03  0.12229264306E+04  0.10100000352E+00 0.  1.
       -3    1    3    3    0  502  0.11803042123E+04  0.17234542318E+03  0.66538166460E+03  0.13658527550E+04  0.10100000352E+00 0. -1.
</event>
<event>
 5   0  0.6703961E-05  0.2387635E+04  0.7818609E-02  0.8444147E-01
        2   -1    0    0  501    0  0.00000000000E+00  0.00000000000E+00  0.22346597466E+04  0.22346597466E+04  0.25500000920E-02 0. -1.
       -2   -1    0    0    0  501  0.00000000000E+00  0.00000000000E+00 -0.63777062676E+03  0.63777062676E+03  0.25500000920E-02 0.  1.
    10030    2    1    2    0    0  0.00000000000E+00  0.00000000000E+00  0.15968891198E+04  0.28724303733E+04  0.23876351037E+04 0.  0.
        2    1    3    3  502    0 -0.58337699176E+03  0.10369071947E+04  0.91690074727E+03  0.15020693144E+04  0.25500000920E-02 0. -1.
       -2    1    3    3    0  502  0.58337699176E+03 -0.10369071947E+04  0.67998837252E+03  0.13703610589E+04  0.25500000920E-02 0.  1.
</event>
<event>
 5   0  0.2847158E-05  0.2513624E+04  0.7818609E-02  0.8398148E-01
        1   -1    0    0  501    0  0.00000000000E+00  0.00000000000E+00  0.11481252506E+04  0.11481252506E+04  0.50400001928E-02 0. -1.
       -1   -1    0    0    0  501  0.00000000000E+00  0.00000000000E+00 -0.13757873788E+04  0.13757873788E+04  0.50400001928E-02 0.  1.
    10030    2    1    2    0    0  0.00000000000E+00  0.00000000000E+00 -0.22766212813E+03  0.25239126294E+04  0.25136238613E+04 0.  0.
        5    1    3    3  502    0  0.75764916013E+03 -0.20722742017E+03 -0.10989578931E+04  0.13508167878E+04  0.46999998093E+01 0.  1.
       -5    1    3    3    0  502 -0.75764916013E+03  0.20722742017E+03  0.87129576494E+03  0.11730958416E+04  0.46999998093E+01 0. -1.
</event>
<event>
 5   0  0.6714629E-05  0.2195435E+04  0.7818609E-02  0.8520330E-01
        2   -1    0    0  501    0  0.00000000000E+00  0.00000000000E+00  0.14517041136E+04  0.14517041136E+04  0.25500000920E-02 0. -1.
       -2   -1    0    0    0  501  0.00000000000E+00  0.00000000000E+00 -0.83004801287E+03  0.83004801287E+03  0.25500000920E-02 0.  1.
    10030    2    1    2    0    0  0.00000000000E+00  0.00000000000E+00  0.62165610069E+03  0.22817521264E+04  0.21954353689E+04 0.  0.
        3    1    3    3  502    0 -0.21299939880E+03 -0.13256336501E+03  0.14215079319E+04  0.14434772600E+04  0.10100000352E+00 0. -1.
       -3    1    3    3    0  502  0.21299939880E+03  0.13256336501E+03 -0.79985183117E+03  0.83827486641E+03  0.10100000352E+00 0.  1.
</event>
<event>
 5   0  0.6337926E-05  0.2714087E+04  0.7818609E-02  0.8330449E-01
        2   -1    0    0  501    0  0.00000000000E+00  0.00000000000E+00  0.19850900274E+04  0.19850900274E+04  0.25500000920E-02 0.  1.
       -2   -1    0    0    0  501  0.00000000000E+00  0.00000000000E+00 -0.92769981469E+03  0.92769981470E+03  0.25500000920E-02 0. -1.
    10030    2    1    2    0    0  0.00000000000E+00  0.00000000000E+00  0.10573902127E+04  0.29127898421E+04  0.27140874345E+04 0.  0.
        1    1    3    3  502    0 -0.11677441178E+04 -0.62963002434E+02  0.12675581499E+04  0.17246142548E+04  0.50400001928E-02 0.  1.
       -1    1    3    3    0  502  0.11677441178E+04  0.62963002434E+02 -0.21016793722E+03  0.11881755873E+04  0.50400001928E-02 0. -1.
</event>
<event>
 5   0  0.6978115E-05  0.2441212E+04  0.7818609E-02  0.8424234E-01
       -2   -1    0    0    0  501  0.00000000000E+00  0.00000000000E+00  0.89322446949E+03  0.89322446949E+03  0.25500000920E-02 0.  1.
        2   -1    0    0  501    0  0.00000000000E+00  0.00000000000E+00 -0.16679776480E+04  0.16679776481E+04  0.25500000920E-02 0. -1.
    10030    2    1    2    0    0  0.00000000000E+00  0.00000000000E+00 -0.77475317856E+03  0.25612021175E+04  0.24412115433E+04 0.  0.
        4    1    3    3  502    0 -0.49838690811E+03 -0.89142698822E+03 -0.10886978598E+04  0.14927478783E+04  0.12699999809E+01 0. -1.
       -4    1    3    3    0  502  0.49838690811E+03  0.89142698822E+03  0.31394468122E+03  0.10684542392E+04  0.12699999809E+01 0.  1.
</event>
<event>
 5   0  0.6703961E-05  0.2456741E+04  0.7818609E-02  0.8418561E-01
        2   -1    0    0  501    0  0.00000000000E+00  0.00000000000E+00  0.10266458776E+04  0.10266458776E+04  0.25500000920E-02 0. -1.
       -2   -1    0    0    0  501  0.00000000000E+00  0.00000000000E+00 -0.14697319076E+04  0.14697319076E+04  0.25500000920E-02 0.  1.
    10030    2    1    2    0    0  0.00000000000E+00  0.00000000000E+00 -0.44308603000E+03  0.24963777852E+04  0.24567410968E+04 0.  0.
        2    1    3    3  502    0  0.26376977198E+03 -0.11976550289E+04 -0.15010842025E+03  0.12355098537E+04  0.25500000920E-02 0.  1.
       -2    1    3    3    0  502 -0.26376977198E+03  0.11976550289E+04 -0.29297760975E+03  0.12608679315E+04  0.25500000920E-02 0. -1.
</event>
<event>
 5   0  0.2847158E-05  0.2386403E+04  0.7818609E-02  0.8444612E-01
       -1   -1    0    0    0  501  0.00000000000E+00  0.00000000000E+00  0.98646177927E+03  0.98646177928E+03  0.50400001928E-02 0. -1.
        1   -1    0    0  501    0  0.00000000000E+00  0.00000000000E+00 -0.14432691169E+04  0.14432691169E+04  0.50400001928E-02 0.  1.
    10030    2    1    2    0    0  0.00000000000E+00  0.00000000000E+00 -0.45680733762E+03  0.24297308962E+04  0.23864030012E+04 0.  0.
        5    1    3    3  502    0 -0.10924699153E+04 -0.20855460940E+02 -0.71646302490E+03  0.13066242085E+04  0.46999998093E+01 0.  1.
       -5    1    3    3    0  502  0.10924699153E+04  0.20855460940E+02  0.25965568729E+03  0.11231066877E+04  0.46999998093E+01 0. -1.
</event>
<event>
 5   0  0.6703961E-05  0.2422417E+04  0.7818609E-02  0.8431158E-01
        2   -1    0    0  501    0  0.00000000000E+00  0.00000000000E+00  0.28286445846E+04  0.28286445846E+04  0.25500000920E-02 0.  1.
       -2   -1    0    0    0  501  0.00000000000E+00  0.00000000000E+00 -0.51863219307E+03  0.51863219308E+03  0.25500000920E-02 0. -1.
    10030    2    1    2    0    0  0.00000000000E+00  0.00000000000E+00  0.23100123915E+04  0.33472767777E+04  0.24224170940E+04 0.  0.
        2    1    3    3  502    0 -0.22320293733E+03 -0.70218742852E+03 -0.17334052280E+03  0.75692382236E+03  0.25500000920E-02 0. -1.
       -2    1    3    3    0  502  0.22320293733E+03  0.70218742852E+03  0.24833529143E+04  0.25903529553E+04  0.25500000920E-02 0.  1.
</event>
<event>
 5   0  0.2847158E-05  0.2362815E+04  0.7818609E-02  0.8453558E-01
        1   -1    0    0  501    0  0.00000000000E+00  0.00000000000E+00  0.96375543531E+03  0.96375543533E+03  0.50400001928E-02 0.  1.
       -1   -1    0    0    0  501  0.00000000000E+00  0.00000000000E+00 -0.14482132607E+04  0.14482132607E+04  0.50400001928E-02 0. -1.
    10030    2    1    2    0    0  0.00000000000E+00  0.00000000000E+00 -0.48445782541E+03  0.24119686961E+04  0.23628147634E+04 0.  0.
        5    1    3    3  502    0 -0.82275216358E+03  0.15312187815E+02  0.62307605378E+03  0.10321828542E+04  0.46999998093E+01 0.  1.
       -5    1    3    3    0  502  0.82275216358E+03 -0.15312187815E+02 -0.11075338792E+04  0.13797858418E+04  0.46999998093E+01 0. -1.
</event>
<event>
 5   0  0.2915546E-05  0.2484022E+04  0.7818609E-02  0.8408700E-01
        1   -1    0    0  501    0  0.00000000000E+00  0.00000000000E+00  0.15426426987E+04  0.15426426987E+04  0.50400001928E-02 0.  1.
       -1   -1    0    0    0  501  0.00000000000E+00  0.00000000000E+00 -0.99996658113E+03  0.99996658115E+03  0.50400001928E-02 0. -1.
    10030    2    1    2    0    0  0.00000000000E+00  0.00000000000E+00  0.54267611757E+03  0.25426092799E+04  0.24840218561E+04 0.  0.
        2    1    3    3  502    0 -0.91955910014E+03 -0.56417369585E+03  0.90124695722E+03  0.14057478350E+04  0.25500000920E-02 0.  1.
       -2    1    3    3    0  502  0.91955910014E+03  0.56417369585E+03 -0.35857083965E+03  0.11368614449E+04  0.25500000920E-02 0. -1.
</event>
<event>
 5   0  0.2915546E-05  0.2400046E+04  0.7818609E-02  0.8439486E-01
        1   -1    0    0  501    0  0.00000000000E+00  0.00000000000E+00  0.11164123639E+04  0.11164123639E+04  0.50400001928E-02 0.  1.
       -1   -1    0    0    0  501  0.00000000000E+00  0.00000000000E+00 -0.12898959582E+04  0.12898959583E+04  0.50400001928E-02 0. -1.
    10030    2    1    2    0    0  0.00000000000E+00  0.00000000000E+00 -0.17348359433E+03  0.24063083222E+04  0.24000464962E+04 0.  0.
        2    1    3    3  502    0 -0.63746720378E+03  0.92040363050E+03 -0.51978130268E+03  0.12343742875E+04  0.25500000920E-02 0.  1.
       -2    1    3    3    0  502  0.63746720378E+03 -0.92040363050E+03  0.34629770834E+03  0.11719340347E+04  0.25500000920E-02 0. -1.
</event>
<event>
 5   0  0.2901816E-05  0.2407166E+04  0.7818609E-02  0.8436826E-01
        1   -1    0    0  501    0  0.00000000000E+00  0.00000000000E+00  0.17366823656E+04  0.17366823656E+04  0.50400001928E-02 0. -1.
       -1   -1    0    0    0  501  0.00000000000E+00  0.00000000000E+00 -0.83412612296E+03  0.83412612298E+03  0.50400001928E-02 0.  1.
    10030    2    1    2    0    0  0.00000000000E+00  0.00000000000E+00  0.90255624261E+03  0.25708084886E+04  0.24071660752E+04 0.  0.
        4    1    3    3  502    0  0.79675866981E+03 -0.87977152319E+03  0.23824808451E+03  0.12106139243E+04  0.12699999809E+01 0.  1.
       -4    1    3    3    0  502 -0.79675866981E+03  0.87977152319E+03  0.66430815810E+03  0.13601945643E+04  0.12699999809E+01 0. -1.
</event>
<event>
 5   0  0.6337926E-05  0.2406780E+04  0.7818609E-02  0.8436970E-01
        2   -1    0    0  501    0  0.00000000000E+00  0.00000000000E+00  0.25430767294E+04  0.25430767295E+04  0.25500000920E-02 0. -1.
       -2   -1    0    0    0  501  0.00000000000E+00  0.00000000000E+00 -0.56944689713E+03  0.56944689714E+03  0.25500000920E-02 0.  1.
    10030    2    1    2    0    0  0.00000000000E+00  0.00000000000E+00  0.19736298323E+04  0.31125236266E+04  0.24067797180E+04 0.  0.
        1    1    3    3  502    0  0.59525070012E+03 -0.13418770887E+03  0.23281756810E+04  0.24068094521E+04  0.50400001928E-02 0. -1.
       -1    1    3    3    0  502 -0.59525070012E+03  0.13418770887E+03 -0.35454584867E+03  0.70571417447E+03  0.50400001928E-02 0.  1.
</event>
<event>
 5   0  0.6978115E-05  0.2340857E+04  0.7818609E-02  0.8461984E-01
       -2   -1    0    0    0  501  0.00000000000E+00  0.00000000000E+00  0.72288639732E+03  0.72288639732E+03  0.25500000920E-02 0. -1.
        2   -1    0    0  501    0  0.00000000000E+00  0.00000000000E+00 -0.18950454874E+04  0.18950454874E+04  0.25500000920E-02 0.  1.
    10030    2    1    2    0    0  0.00000000000E+00  0.00000000000E+00 -0.11721590900E+04  0.26179318847E+04  0.23408567706E+04 0.  0.
        4    1    3    3  502    0 -0.66431559628E+03 -0.62908362078E+03  0.23028049687E+03  0.94344694262E+03  0.12699999809E+01 0. -1.
       -4    1    3    3    0  502  0.66431559628E+03  0.62908362078E+03 -0.14024395869E+04  0.16744849421E+04  0.12699999809E+01 0.  1.
</event>
<event>
 5   0  0.2943244E-05  0.2394754E+04  0.7818609E-02  0.8441470E-01
       -1   -1    0    0    0  501  0.00000000000E+00  0.00000000000E+00  0.11960954786E+04  0.11960954786E+04  0.50400001928E-02 0.  1.
        1   -1    0    0  501    0  0.00000000000E+00  0.00000000000E+00 -0.11986597802E+04  0.11986597802E+04  0.50400001928E-02 0. -1.
    10030    2    1    2    0    0  0.00000000000E+00  0.00000000000E+00 -0.25643015956E+01  0.23947552589E+04  0.23947538860E+04 0.  0.
        3    1    3    3  502    0  0.18512440815E+03  0.13650814403E+03  0.11737955474E+04  0.11961193574E+04  0.10100000352E+00 0.  1.
       -3    1    3    3    0  502 -0.18512440815E+03 -0.13650814403E+03 -0.11763598490E+04  0.11986359015E+04  0.10100000352E+00 0. -1.
</event>
<event>
 5   0  0.6714629E-05  0.2169427E+04  0.7818609E-02  0.8531262E-01
       -2   -1    0    0    0  501  0.00000000000E+00  0.00000000000E+00  0.80498606015E+03  0.80498606016E+03  0.25500000920E-02 0. -1.
        2   -1    0    0  501    0  0.00000000000E+00  0.00000000000E+00 -0.14616443518E+04  0.14616443518E+04  0.25500000920E-02 0.  1.
    10030    2    1    2    0    0  0.00000000000E+00  0.00000000000E+00 -0.65665829166E+03  0.22666304120E+04  0.21694269549E+04 0.  0.
        3    1    3    3  502    0 -0.39294705124E+02  0.10314705549E+04 -0.67662388729E+03  0.12342185684E+04  0.10100000352E+00 0. -1.
       -3    1    3    3    0  502  0.39294705124E+02 -0.10314705549E+04  0.19965595627E+02  0.10324118436E+04  0.10100000352E+00 0.  1.
</event>
<event>
 5   0  0.2943244E-05  0.2320861E+04  0.7818609E-02  0.8469741E-01
       -1   -1    0    0    0  501  0.00000000000E+00  0.00000000000E+00  0.12800047011E+04  0.12800047011E+04  0.50400001928E-02 0. -1.
        1   -1    0    0  501    0  0.00000000000E+00  0.00000000000E+00 -0.10520263860E+04  0.10520263860E+04  0.50400001928E-02 0.  1.
    10030    2    1    2    0    0  0.00000000000E+00  0.00000000000E+00  0.22797831511E+03  0.23320310872E+04  0.23208608057E+04 0.  0.
        3    1    3    3  502    0  0.47157401677E+03 -0.25254835850E+02  0.11790809030E+04  0.12701384358E+04  0.10100000352E+00 0. -1.
       -3    1    3    3    0  502 -0.47157401677E+03  0.25254835850E+02 -0.95110258793E+03  0.10618926513E+04  0.10100000352E+00 0.  1.
</event>
<event>
 5   0  0.2915546E-05  0.2342965E+04  0.7818609E-02  0.8461171E-01
        1   -1    0    0  501    0  0.00000000000E+00  0.00000000000E+00  0.20317439700E+04  0.20317439700E+04  0.50400001928E-02 0.  1.
       -1   -1    0    0    0  501  0.00000000000E+00  0.00000000000E+00 -0.67546469856E+03  0.67546469857E+03  0.50400001928E-02 0. -1.
    10030    2    1    2    0    0  0.00000000000E+00  0.00000000000E+00  0.13562792715E+04  0.27072086686E+04  0.23429650687E+04 0.  0.
        2    1    3    3  502    0 -0.37024930784E+03 -0.13650803910E+03 -0.59635838388E+03  0.71509601923E+03  0.25500000920E-02 0. -1.
       -2    1    3    3    0  502  0.37024930784E+03  0.13650803910E+03  0.19526376554E+04  0.19921126494E+04  0.25500000920E-02 0.  1.
</event>
<event>
 5   0  0.6703961E-05  0.2257787E+04  0.7818609E-02  0.8494754E-01
        2   -1    0    0  501    0  0.00000000000E+00  0.00000000000E+00  0.19944917522E+04  0.19944917522E+04  0.25500000920E-02 0. -1.
       -2   -1    0    0    0  501  0.00000000000E+00  0.00000000000E+00 -0.63895998745E+03  0.63895998746E+03  0.25500000920E-02 0.  1.
    10030    2    1    2    0    0  0.00000000000E+00  0.00000000000E+00  0.13555317647E+04  0.26334517397E+04  0.22577869031E+04 0.  0.
        2    1    3    3  502    0  0.31215140762E+03  0.10251553481E+04  0.26370952495E+03  0.11035962588E+04  0.25500000920E-02 0.  1.
       -2    1    3    3    0  502 -0.31215140762E+03 -0.10251553481E+04  0.10918222398E+04  0.15298554808E+04  0.25500000920E-02 0. -1.
</event>
<event>
 5   0  0.2847158E-05  0.2387155E+04  0.7818609E-02  0.8444328E-01
        1   -1    0    0  501    0  0.00000000000E+00  0.00000000000E+00  0.18779289230E+04  0.18779289230E+04  0.50400001928E-02 0. -1.
       -1   -1    0    0    0  501  0.00000000000E+00  0.00000000000E+00 -0.75861596112E+03  0.75861596114E+03  0.50400001928E-02 0.  1.
    10030    2    1    2    0    0  0.00000000000E+00  0.00000000000E+00  0.11193129619E+04  0.26365448842E+04  0.23871546702E+04 0.  0.
        5    1    3    3  502    0 -0.94438754415E+03  0.57061380664E+03  0.56986144834E+02  0.11048698840E+04  0.46999998093E+01 0.  1.
       -5    1    3    3    0  502  0.94438754415E+03 -0.57061380664E+03  0.10623268171E+04  0.15316750002E+04  0.46999998093E+01 0. -1.
</event>
<event>
 5   0  0.2943123E-05  0.2429433E+04  0.7818609E-02  0.8428566E-01
        1   -1    0    0  501    0  0.00000000000E+00  0.00000000000E+00  0.14006699583E+04  0.14006699583E+04  0.50400001928E-02 0. -1.
       -1   -1    0    0    0  501  0.00000000000E+00  0.00000000000E+00 -0.10534502451E+04  0.10534502451E+04  0.50400001928E-02 0.  1.
    10030    2    1    2    0    0  0.00000000000E+00  0.00000000000E+00  0.34721971324E+03  0.24541202034E+04  0.24294329469E+04 0.  0.
        1    1    3    3  502    0 -0.65610206242E+03  0.32548182726E+03 -0.80532379129E+03  0.10885562664E+04  0.50400001928E-02 0.  1.
       -1    1    3    3    0  502  0.65610206242E+03 -0.32548182726E+03  0.11525435045E+04  0.13655639370E+04  0.50400001928E-02 0. -1.
</event>
<event>
 5   0  0.6978115E-05  0.2430285E+04  0.7818609E-02  0.8428252E-01
       -2   -1    0    0    0  501  0.00000000000E+00  0.00000000000E+00  0.11701997417E+04  0.11701997417E+04  0.25500000920E-02 0. -1.
        2   -1    0    0  501    0  0.00000000000E+00  0.00000000000E+00 -0.12618112039E+04  0.12618112039E+04  0.25500000920E-02 0.  1.
    10030    2    1    2    0    0  0.00000000000E+00  0.00000000000E+00 -0.91611462162E+02  0.24320109456E+04  0.24302848762E+04 0.  0.
        4    1    3    3  502    0 -0.81136085618E+03  0.40774113557E+03  0.76223928450E+03  0.11855672112E+04  0.12699999809E+01 0. -1.
       -4    1    3    3    0  502  0.81136085618E+03 -0.40774113557E+03 -0.85385074666E+03  0.12464437344E+04  0.12699999809E+01 0.  1.
</event>
<event>
 5   0  0.2943123E-05  0.2414453E+04  0.7818609E-02  0.8434112E-01
        1   -1    0    0  501    0  0.00000000000E+00  0.00000000000E+00  0.21657044619E+04  0.21657044619E+04  0.50400001928E-02 0. -1.
       -1   -1    0    0    0  501  0.00000000000E+00  0.00000000000E+00 -0.67294293454E+03  0.67294293456E+03  0.50400001928E-02 0.  1.
    10030    2    1    2    0    0  0.00000000000E+00  0.00000000000E+00  0.14927615273E+04  0.28386473964E+04  0.24144527462E+04 0.  0.
        1    1    3    3  502    0 -0.66041050670E+03  0.56345450611E+03  0.17326804283E+04  0.19379898051E+04  0.50400001928E-02 0. -1.
       -1    1    3    3    0  502  0.66041050670E+03 -0.56345450611E+03 -0.23991890099E+03  0.90065759137E+03  0.50400001928E-02 0.  1.
</event>
<event>
 5   0  0.6978115E-05  0.2421855E+04  0.7818609E-02  0.8431367E-01
        2   -1    0    0  501    0  0.00000000000E+00  0.00000000000E+00  0.10438987173E+04  0.10438987173E+04  0.25500000920E-02 0.  1.
       -2   -1    0    0    0  501  0.00000000000E+00  0.00000000000E+00 -0.14046814519E+04  0.14046814519E+04  0.25500000920E-02 0. -1.
    10030    2    1    2    0    0  0.00000000000E+00  0.00000000000E+00 -0.36078273454E+03  0.24485801692E+04  0.24218547982E+04 0.  0.
        4    1    3    3  502    0 -0.10572920476E+04  0.58296120293E+03 -0.27433233271E+03  0.12381316892E+04  0.12699999809E+01 0. -1.
       -4    1    3    3    0  502  0.10572920476E+04 -0.58296120293E+03 -0.86450401837E+02  0.12104484801E+04  0.12699999809E+01 0.  1.
</event>
<event>
 5   0  0.6600166E-05  0.2375266E+04  0.7818609E-02  0.8448822E-01
       -2   -1    0    0    0  501  0.00000000000E+00  0.00000000000E+00  0.99562257029E+03  0.99562257029E+03  0.25500000920E-02 0.  1.
        2   -1    0    0  501    0  0.00000000000E+00  0.00000000000E+00 -0.14166739867E+04  0.14166739868E+04  0.25500000920E-02 0. -1.
    10030    2    1    2    0    0  0.00000000000E+00  0.00000000000E+00 -0.42105141646E+03  0.24122965570E+04  0.23752663817E+04 0.  0.
        5    1    3    3  502    0 -0.10689976471E+04 -0.21442427329E+03  0.26768318033E+03  0.11226798802E+04  0.46999998093E+01 0.  1.
       -5    1    3    3    0  502  0.10689976471E+04  0.21442427329E+03 -0.68873459679E+03  0.12896166768E+04  0.46999998093E+01 0. -1.
</event>
<event>
 5   0  0.2901816E-05  0.2383695E+04  0.7818609E-02  0.8445633E-01
       -1   -1    0    0    0  501  0.00000000000E+00  0.00000000000E+00  0.10893964768E+04  0.10893964768E+04  0.50400001928E-02 0. -1.
        1   -1    0    0  501    0  0.00000000000E+00  0.00000000000E+00 -0.13039339109E+04  0.13039339109E+04  0.50400001928E-02 0.  1.
    10030    2    1    2    0    0  0.00000000000E+00  0.00000000000E+00 -0.21453743415E+03  0.23933303877E+04  0.23836954575E+04 0.  0.
        4    1    3    3  502    0 -0.10299844201E+04  0.53692802175E+03 -0.37544341370E+03  0.12207042950E+04  0.12699999809E+01 0.  1.
       -4    1    3    3    0  502  0.10299844201E+04 -0.53692802175E+03  0.16090597955E+03  0.11726260927E+04  0.12699999809E+01 0. -1.
</event>
<event>
 5   0  0.6600166E-05  0.2475315E+04  0.7818609E-02  0.8411833E-01
        2   -1    0    0  501    0  0.00000000000E+00  0.00000000000E+00  0.82750163365E+03  0.82750163365E+03  0.25500000920E-02 0. -1.
       -2   -1    0    0    0  501  0.00000000000E+00  0.00000000000E+00 -0.18511098102E+04  0.18511098102E+04  0.25500000920E-02 0.  1.
    10030    2    1    2    0    0  0.00000000000E+00  0.00000000000E+00 -0.10236081765E+04  0.26786114438E+04  0.24753152462E+04 0.  0.
        5    1    3    3  502    0 -0.86729004200E+03 -0.34147124417E+03 -0.13929124246E+04  0.16760136455E+04  0.46999998093E+01 0. -1.
       -5    1    3    3    0  502  0.86729004200E+03  0.34147124417E+03  0.36930424803E+03  0.10025977983E+04  0.46999998093E+01 0.  1.
</event>
<event>
 5   0  0.2915546E-05  0.2238883E+04  0.7818609E-02  0.8502416E-01
        1   -1    0    0  501    0  0.00000000000E+00  0.00000000000E+00  0.87260496235E+03  0.87260496236E+03  0.50400001928E-02 0. -1.
       -1   -1    0    0    0  501  0.00000000000E+00  0.00000000000E+00 -0.14361016086E+04  0.14361016086E+04  0.50400001928E-02 0.  1.
    10030    2    1    2    0    0  0.00000000000E+00  0.00000000000E+00 -0.56349664624E+03  0.23087065709E+04  0.22388831056E+04 0.  0.
        2    1    3    3  502    0  0.43925957435E+03 -0.10030239091E+04 -0.52169254661E+03  0.12129175772E+04  0.25500000920E-02 0.  1.
       -2    1    3    3    0  502 -0.43925957435E+03  0.10030239091E+04 -0.41804099622E+02  0.10957889937E+04  0.25500000920E-02 0. -1.
</event>
<event>
 5   0  0.6703961E-05  0.2445475E+04  0.7818609E-02  0.8422672E-01
       -2   -1    0    0    0  501  0.00000000000E+00  0.00000000000E+00  0.17199736007E+04  0.17199736007E+04  0.25500000920E-02 0.  1.
        2   -1    0    0  501    0  0.00000000000E+00  0.00000000000E+00 -0.86924981289E+03  0.86924981289E+03  0.25500000920E-02 0. -1.
    10030    2    1    2    0    0  0.00000000000E+00  0.00000000000E+00  0.85072378780E+03  0.25892234136E+04  0.24454747846E+04 0.  0.
        2    1    3    3  502    0 -0.92376357085E+03 -0.30530110447E+03 -0.35880774750E+03  0.10369623421E+04  0.25500000920E-02 0.  1.
       -2    1    3    3    0  502  0.92376357085E+03  0.30530110447E+03  0.12095315353E+04  0.15522610715E+04  0.25500000920E-02 0. -1.
</event>
<event>
 5   0  0.2847158E-05  0.2340011E+04  0.7818609E-02  0.8462310E-01
        1   -1    0    0  501    0  0.00000000000E+00  0.00000000000E+00  0.13714187616E+04  0.13714187616E+04  0.50400001928E-02 0. -1.
       -1   -1    0    0    0  501  0.00000000000E+00  0.00000000000E+00 -0.99817318886E+03  0.99817318887E+03  0.50400001928E-02 0.  1.
    10030    2    1    2    0    0  0.00000000000E+00  0.00000000000E+00  0.37324557274E+03  0.23695919505E+04  0.23400114859E+04 0.  0.
        5    1    3    3  502    0  0.21733381788E+03  0.11479928353E+04  0.24879771907E+03  0.11945894413E+04  0.46999998093E+01 0.  1.
       -5    1    3    3    0  502 -0.21733381788E+03 -0.11479928353E+04  0.12444785368E+03  0.11750025092E+04  0.46999998093E+01 0. -1.
</event>
</LesHouchesEvents>
