<LesHouchesEvents version="3.0">
<header>
<!--
#*********************************************************************
#                                                                    *
#                        MadGraph5_aMC@NLO                           *
#                                                                    *
#                           Going Beyond                             *
#                                                                    *
#                   http://madgraph.hep.uiuc.edu                     *
#                   http://madgraph.phys.ucl.ac.be                   *
#                   http://amcatnlo.cern.ch                          *
#                                                                    *
#                     The MadGraph5_aMC@NLO team                     *
#                                                                    *
#....................................................................*
#                                                                    *
# This file contains all the information necessary to reproduce      *
# the events generated:                                              *
#                                                                    *
# 1. software version                                                *
# 2. proc_card          : code generation info including model       *
# 3. param_card         : model primary parameters in the LH format  *
# 4. run_card           : running parameters (collider and cuts)     *
# 5. pythia_card        : present only if pythia has been run        *
# 6. pgs_card           : present only if pgs has been run           *
# 7. delphes_cards      : present only if delphes has been run       *
#                                                                    *
#                                                                    *
#*********************************************************************
-->
<MGVersion>
#5.2.2.3
</MGVersion>
<MG5ProcCard>
#************************************************************
#*                     MadGraph5_aMC@NLO                    *
#*                                                          *
#*                *                       *                 *
#*                  *        * *        *                   *
#*                    * * * * 5 * * * *                     *
#*                  *        * *        *                   *
#*                *                       *                 *
#*                                                          *
#*                                                          *
#*         VERSION 2.2.3                 2015-02-10         *
#*                                                          *
#*    The MadGraph5_aMC@NLO Development Team - Find us at   *
#*    https://server06.fynu.ucl.ac.be/projects/madgraph     *
#*                                                          *
#************************************************************
#*                                                          *
#*               Command File for MadGraph5_aMC@NLO         *
#*                                                          *
#*     run as ./bin/mg5_aMC  filename                       *
#*                                                          *
#************************************************************
set group_subprocesses Auto
set ignore_six_quark_processes False
set loop_optimized_output True
set gauge unitary
set complex_mass_scheme False
import model sm
define p = g u c d s u~ c~ d~ s~
define j = g u c d s u~ c~ d~ s~
define l+ = e+ mu+
define l- = e- mu-
define vl = ve vm vt
define vl~ = ve~ vm~ vt~
import model Zprime_UFO
generate p p > zph, zph > j j
add process p p > zph, zph > b b~
output Dijet_signal
</MG5ProcCard>
<MGProcCard>
#*********************************************************************
#                        MadGraph/MadEvent                           *
#                   http://madgraph.hep.uiuc.edu                     *
#                                                                    *
#                          proc_card.dat                             *
#*********************************************************************
#                                                                    *
#            This Files is generated by MADGRAPH 5                   *
#                                                                    *
# WARNING: This Files is generated for MADEVENT (compatibility issue)*
#          This files is NOT a valid MG4 proc_card.dat               *
#          Running this in MG4 will NEVER reproduce the result of MG5*
#                                                                    *
#*********************************************************************
#*********************************************************************
# Process(es) requested : mg2 input                                  *
#*********************************************************************
# Begin PROCESS # This is TAG. Do not modify this line
p p > zph , zph > j j           #Process
# Be carefull the coupling are here in MG5 convention
          
end_coup           # End the couplings input

done               # this tells MG there are no more procs
# End PROCESS  # This is TAG. Do not modify this line
#*********************************************************************
# Model information                                                  *
#*********************************************************************
# Begin MODEL  # This is TAG. Do not modify this line
Zprime_UFO
# End   MODEL  # This is TAG. Do not modify this line
#*********************************************************************
# Start multiparticle definitions                                    *
#*********************************************************************
# Begin MULTIPARTICLES # This is TAG. Do not modify this line

# End  MULTIPARTICLES # This is TAG. Do not modify this line
</MGProcCard>
<MGRunCard>
#*********************************************************************
#                       MadGraph5_aMC@NLO                            *
#                                                                    *
#                     run_card.dat MadEvent                          *
#                                                                    *
#  This file is used to set the parameters of the run.               *
#                                                                    *
#  Some notation/conventions:                                        *
#                                                                    *
#   Lines starting with a '# ' are info or comments                  *
#                                                                    *
#   mind the format:   value    = variable     ! comment             *
#*********************************************************************
#
#*******************                                                 
# Running parameters
#*******************                                                 
#                                                                    
#*********************************************************************
# Tag name for the run (one word)                                    *
#*********************************************************************
  tag_1     = run_tag ! name of the run 
#*********************************************************************
# Run to generate the grid pack                                      *
#*********************************************************************
  .false.     = gridpack  !True = setting up the grid pack
#*********************************************************************
# Number of events and rnd seed                                      *
# Warning: Do not generate more than 1M events in a single run       *
# If you want to run Pythia, avoid more than 50k events in a run.    *
#*********************************************************************
  2000 = nevents ! Number of unweighted events requested 
 2172 = iseed   ! rnd seed (0=assigned automatically=default))
#*********************************************************************
# Collider type and energy                                           *
# lpp: 0=No PDF, 1=proton, -1=antiproton, 2=photon from proton,      *
#                                         3=photon from electron     *
#*********************************************************************
        1     = lpp1    ! beam 1 type 
        1     = lpp2    ! beam 2 type
     4000     = ebeam1  ! beam 1 total energy in GeV
     4000     = ebeam2  ! beam 2 total energy in GeV
#*********************************************************************
# Beam polarization from -100 (left-handed) to 100 (right-handed)    *
#*********************************************************************
        0     = polbeam1 ! beam polarization for beam 1
        0     = polbeam2 ! beam polarization for beam 2
#*********************************************************************
# PDF CHOICE: this automatically fixes also alpha_s and its evol.    *
#*********************************************************************
 'nn23lo1'    = pdlabel     ! PDF set                                     
 230000    = lhaid     ! if pdlabel=lhapdf, this is the lhapdf number
#*********************************************************************
# Renormalization and factorization scales                           *
#*********************************************************************
 F        = fixed_ren_scale  ! if .true. use fixed ren scale
 F        = fixed_fac_scale  ! if .true. use fixed fac scale
 91.1880  = scale            ! fixed ren scale
 91.1880  = dsqrt_q2fact1    ! fixed fact scale for pdf1
 91.1880  = dsqrt_q2fact2    ! fixed fact scale for pdf2
 1        = scalefact        ! scale factor for event-by-event scales
#*********************************************************************
# Matching - Warning! ickkw > 1 is still beta
#*********************************************************************
 0        = ickkw            ! 0 no matching, 1 MLM, 2 CKKW matching
 1        = highestmult      ! for ickkw=2, highest mult group
 1        = ktscheme         ! for ickkw=1, 1 Durham kT, 2 Pythia pTE
 1        = alpsfact         ! scale factor for QCD emission vx
 F        = chcluster        ! cluster only according to channel diag
 T        = pdfwgt           ! for ickkw=1, perform pdf reweighting
 5        = asrwgtflavor     ! highest quark flavor for a_s reweight
 T        = clusinfo         ! include clustering tag in output
 3.0      = lhe_version       ! Change the way clustering information pass to shower.        
#*********************************************************************
#**********************************************************
#
#**********************************************************
# Automatic ptj and mjj cuts if xqcut > 0
# (turn off for VBF and single top processes)
#**********************************************************
   T  = auto_ptj_mjj  ! Automatic setting of ptj and mjj
#**********************************************************
#                                                                    
#**********************************
# BW cutoff (M+/-bwcutoff*Gamma)
#**********************************
  15  = bwcutoff      ! (M+/-bwcutoff*Gamma)
#**********************************************************
# Apply pt/E/eta/dr/mij cuts on decay products or not
# (note that etmiss/ptll/ptheavy/ht/sorted cuts always apply)
#**********************************************************
   T  = cut_decays    ! Cut decay products 
#*************************************************************
# Number of helicities to sum per event (0 = all helicities)
# 0 gives more stable result, but longer run time (needed for
# long decay chains e.g.).
# Use >=2 if most helicities contribute, e.g. pure QCD.
#*************************************************************
   0  = nhel          ! Number of helicities used per event
#*******************                                                 
# Standard Cuts
#*******************                                                 
#                                                                    
#*********************************************************************
# Minimum and maximum pt's (for max, -1 means no cut)                *
#*********************************************************************
 20  = ptj       ! minimum pt for the jets 
  0  = ptb       ! minimum pt for the b 
 10  = pta       ! minimum pt for the photons 
 10  = ptl       ! minimum pt for the charged leptons 
  0  = misset    ! minimum missing Et (sum of neutrino's momenta)
  0  = ptheavy   ! minimum pt for one heavy final state
 1.0 = ptonium   ! minimum pt for the quarkonium states
 -1  = ptjmax    ! maximum pt for the jets
 -1  = ptbmax    ! maximum pt for the b
 -1  = ptamax    ! maximum pt for the photons
 -1  = ptlmax    ! maximum pt for the charged leptons
 -1  = missetmax ! maximum missing Et (sum of neutrino's momenta)
#*********************************************************************
# Minimum and maximum E's (in the center of mass frame)              *
#*********************************************************************
  0  = ej     ! minimum E for the jets 
  0  = eb     ! minimum E for the b 
  0  = ea     ! minimum E for the photons 
  0  = el     ! minimum E for the charged leptons 
 -1   = ejmax ! maximum E for the jets
 -1   = ebmax ! maximum E for the b
 -1   = eamax ! maximum E for the photons
 -1   = elmax ! maximum E for the charged leptons
#*********************************************************************
# Maximum and minimum absolute rapidity (for max, -1 means no cut)   *
#*********************************************************************
   5  = etaj    ! max rap for the jets 
  -1  = etab    ! max rap for the b
 2.5  = etaa    ! max rap for the photons 
 2.5  = etal    ! max rap for the charged leptons 
 0.6  = etaonium ! max rap for the quarkonium states
   0  = etajmin ! min rap for the jets
   0  = etabmin ! min rap for the b
   0  = etaamin ! min rap for the photons
   0  = etalmin ! main rap for the charged leptons
#*********************************************************************
# Minimum and maximum DeltaR distance                                *
#*********************************************************************
 0.4 = drjj    ! min distance between jets 
 0   = drbb    ! min distance between b's 
 0.4 = drll    ! min distance between leptons 
 0.4 = draa    ! min distance between gammas 
 0   = drbj    ! min distance between b and jet 
 0.4 = draj    ! min distance between gamma and jet 
 0.4 = drjl    ! min distance between jet and lepton 
 0   = drab    ! min distance between gamma and b 
 0   = drbl    ! min distance between b and lepton 
 0.4 = dral    ! min distance between gamma and lepton 
 -1  = drjjmax ! max distance between jets
 -1  = drbbmax ! max distance between b's
 -1  = drllmax ! max distance between leptons
 -1  = draamax ! max distance between gammas
 -1  = drbjmax ! max distance between b and jet
 -1  = drajmax ! max distance between gamma and jet
 -1  = drjlmax ! max distance between jet and lepton
 -1  = drabmax ! max distance between gamma and b
 -1  = drblmax ! max distance between b and lepton
 -1  = dralmax ! maxdistance between gamma and lepton
#*********************************************************************
# Minimum and maximum invariant mass for pairs                       *
# WARNING: for four lepton final state mmll cut require to have      *
#          different lepton masses for each flavor!                  *           
#*********************************************************************
 0   = mmjj    ! min invariant mass of a jet pair 
 0   = mmbb    ! min invariant mass of a b pair 
 0   = mmaa    ! min invariant mass of gamma gamma pair
 0   = mmll    ! min invariant mass of l+l- (same flavour) lepton pair
 -1  = mmjjmax ! max invariant mass of a jet pair
 -1  = mmbbmax ! max invariant mass of a b pair
 -1  = mmaamax ! max invariant mass of gamma gamma pair
 -1  = mmllmax ! max invariant mass of l+l- (same flavour) lepton pair
#*********************************************************************
# Minimum and maximum invariant mass for all letpons                 *
#*********************************************************************
 0   = mmnl    ! min invariant mass for all letpons (l+- and vl) 
 -1  = mmnlmax ! max invariant mass for all letpons (l+- and vl) 
#*********************************************************************
# Minimum and maximum pt for 4-momenta sum of leptons                *
#*********************************************************************
 0   = ptllmin  ! Minimum pt for 4-momenta sum of leptons(l and vl)
 -1  = ptllmax  ! Maximum pt for 4-momenta sum of leptons(l and vl)
#*********************************************************************
# Inclusive cuts                                                     *
#*********************************************************************
 0  = xptj ! minimum pt for at least one jet  
 0  = xptb ! minimum pt for at least one b 
 0  = xpta ! minimum pt for at least one photon 
 0  = xptl ! minimum pt for at least one charged lepton 
#*********************************************************************
# Control the pt's of the jets sorted by pt                          *
#*********************************************************************
 0   = ptj1min ! minimum pt for the leading jet in pt
 0   = ptj2min ! minimum pt for the second jet in pt
 0   = ptj3min ! minimum pt for the third jet in pt
 0   = ptj4min ! minimum pt for the fourth jet in pt
 -1  = ptj1max ! maximum pt for the leading jet in pt 
 -1  = ptj2max ! maximum pt for the second jet in pt
 -1  = ptj3max ! maximum pt for the third jet in pt
 -1  = ptj4max ! maximum pt for the fourth jet in pt
 0   = cutuse  ! reject event if fails any (0) / all (1) jet pt cuts
#*********************************************************************
# Control the pt's of leptons sorted by pt                           *
#*********************************************************************
 0   = ptl1min ! minimum pt for the leading lepton in pt
 0   = ptl2min ! minimum pt for the second lepton in pt
 0   = ptl3min ! minimum pt for the third lepton in pt
 0   = ptl4min ! minimum pt for the fourth lepton in pt
 -1  = ptl1max ! maximum pt for the leading lepton in pt 
 -1  = ptl2max ! maximum pt for the second lepton in pt
 -1  = ptl3max ! maximum pt for the third lepton in pt
 -1  = ptl4max ! maximum pt for the fourth lepton in pt
#*********************************************************************
# Control the Ht(k)=Sum of k leading jets                            *
#*********************************************************************
 0   = htjmin ! minimum jet HT=Sum(jet pt)
 -1  = htjmax ! maximum jet HT=Sum(jet pt)
 0   = ihtmin  !inclusive Ht for all partons (including b)
 -1  = ihtmax  !inclusive Ht for all partons (including b)
 0   = ht2min ! minimum Ht for the two leading jets
 0   = ht3min ! minimum Ht for the three leading jets
 0   = ht4min ! minimum Ht for the four leading jets
 -1  = ht2max ! maximum Ht for the two leading jets
 -1  = ht3max ! maximum Ht for the three leading jets
 -1  = ht4max ! maximum Ht for the four leading jets
#***********************************************************************
# Photon-isolation cuts, according to hep-ph/9801442                   *
# When ptgmin=0, all the other parameters are ignored                  *
# When ptgmin>0, pta and draj are not going to be used                 *
#***********************************************************************
   0 = ptgmin ! Min photon transverse momentum
 0.4 = R0gamma ! Radius of isolation code
 1.0 = xn ! n parameter of eq.(3.4) in hep-ph/9801442
 1.0 = epsgamma ! epsilon_gamma parameter of eq.(3.4) in hep-ph/9801442
 .true. = isoEM ! isolate photons from EM energy (photons and leptons)
#*********************************************************************
# WBF cuts                                                           *
#*********************************************************************
 0   = xetamin ! minimum rapidity for two jets in the WBF case  
 0   = deltaeta ! minimum rapidity for two jets in the WBF case 
#*********************************************************************
# KT DURHAM CUT                                                      *
#*********************************************************************
 -1    =  ktdurham        
 0.4  =  dparameter 
#*********************************************************************
# maximal pdg code for quark to be considered as a light jet         *
# (otherwise b cuts are applied)                                     *
#*********************************************************************
 4 = maxjetflavor    ! Maximum jet pdg code
#*********************************************************************
# Jet measure cuts                                                   *
#*********************************************************************
 0   = xqcut   ! minimum kt jet measure between partons
#*********************************************************************
#
#*********************************************************************
# Store info for systematics studies                                 *
# WARNING: If use_syst is T, matched Pythia output is                *
#          meaningful ONLY if plotted taking matchscale              *
#          reweighting into account!                                 *
#*********************************************************************
   F  = use_syst      ! Enable systematics studies
#
#**************************************
# Parameter of the systematics study
#  will be used by SysCalc (if installed)
#**************************************                                  
#
0.5 1 2 = sys_scalefact  # factorization/renormalization scale factor
0.5 1 2 = sys_alpsfact  # \alpha_s emission scale factors
30 50 = sys_matchscale # variation of merging scale
# PDF sets and number of members (0 or none for all members).
CT10nlo.LHgrid = sys_pdf # matching scales
# MSTW2008nlo68cl.LHgrid 1  = sys_pdf
</MGRunCard>
<slha>
######################################################################
## PARAM_CARD AUTOMATICALY GENERATED BY MG5 FOLLOWING UFO MODEL   ####
######################################################################
##                                                                  ##
##  Width set on Auto will be computed following the information    ##
##        present in the decay.py files of the model.               ##
##        See  arXiv:1402.1178 for more details.                    ##
##                                                                  ##
######################################################################

###################################
## INFORMATION FOR CKMBLOCK
###################################
Block ckmblock 
    1 2.277360e-01 # cabi 

###################################
## INFORMATION FOR FRBLOCK
###################################
Block frblock 
    1 1.200000e+00 # gz 

###################################
## INFORMATION FOR MASS
###################################
Block mass 
    1 5.040000e-03 # MD 
    2 2.550000e-03 # MU 
    3 1.010000e-01 # MS 
    4 1.270000e+00 # MC 
    5 4.700000e+00 # MB 
    6 1.720000e+02 # MT 
   11 5.110000e-04 # Me 
   13 1.056600e-01 # MM 
   15 1.777000e+00 # MTA 
   23 9.118760e+01 # MZ 
   25 1.200000e+02 # MH 
  10030 1.100000e+03 # MZph 
  10031 3.000000e+02 # MZpl 
## Dependent parameters, given by model restrictions.
## Those values should be edited following the 
## analytical expression. MG5 ignores those values 
## but they are important for interfacing the output of MG5
## to external program such as Pythia.
  12 0.000000 # ve : 0.0 
  14 0.000000 # vm : 0.0 
  16 0.000000 # vt : 0.0 
  21 0.000000 # g : 0.0 
  22 0.000000 # a : 0.0 
  24 79.824360 # w+ : cmath.sqrt(MZ__exp__2/2. + cmath.sqrt(MZ__exp__4/4. - (aEW*cmath.pi*MZ__exp__2)/(Gf*sqrt__2))) 

###################################
## INFORMATION FOR SMINPUTS
###################################
Block sminputs 
    1 1.279000e+02 # aEWM1 
    2 1.166370e-05 # Gf 
    3 1.184000e-01 # aS 

###################################
## INFORMATION FOR YUKAWA
###################################
Block yukawa 
    1 5.040000e-03 # ymdo 
    2 2.550000e-03 # ymup 
    3 1.010000e-01 # yms 
    4 1.270000e+00 # ymc 
    5 4.700000e+00 # ymb 
    6 1.720000e+02 # ymt 
   11 5.110000e-04 # yme 
   13 1.056600e-01 # ymm 
   15 1.777000e+00 # ymtau 

###################################
## INFORMATION FOR DECAY
###################################
DECAY   6 1.508336e+00 # WT 
DECAY  23 2.495200e+00 # WZ 
DECAY  24 2.085000e+00 # WW 
DECAY  25 5.753088e-03 # WH 
## Dependent parameters, given by model restrictions.
## Those values should be edited following the 
## analytical expression. MG5 ignores those values 
## but they are important for interfacing the output of MG5
## to external program such as Pythia.
DECAY  1 0.000000 # d : 0.0 
DECAY  2 0.000000 # u : 0.0 
DECAY  3 0.000000 # s : 0.0 
DECAY  4 0.000000 # c : 0.0 
DECAY  5 0.000000 # b : 0.0 
DECAY  11 0.000000 # e- : 0.0 
DECAY  12 0.000000 # ve : 0.0 
DECAY  13 0.000000 # mu- : 0.0 
DECAY  14 0.000000 # vm : 0.0 
DECAY  15 0.000000 # ta- : 0.0 
DECAY  16 0.000000 # vt : 0.0 
DECAY  21 0.000000 # g : 0.0 
DECAY  22 0.000000 # a : 0.0 
DECAY  10030 0.308725 # zph : (gz__exp__2*MZph*(5 + cmath.sqrt(1 - (4*MT__exp__2)/MZph__exp__2)))/(144.*cmath.pi) 
DECAY  10031 0.132629 # zpl : (5*gz__exp__2*MZpl)/(144.*cmath.pi) 
#===========================================================
# QUANTUM NUMBERS OF NEW STATE(S) (NON SM PDG CODE)
#===========================================================

Block QNUMBERS 10030  # zph 
        1 0  # 3 times electric charge
        2 3  # number of spin states (2S+1)
        3 1  # colour rep (1: singlet, 3: triplet, 8: octet)
        4 0  # Particle/Antiparticle distinction (0=own anti)
Block QNUMBERS 10031  # zpl 
        1 0  # 3 times electric charge
        2 3  # number of spin states (2S+1)
        3 1  # colour rep (1: singlet, 3: triplet, 8: octet)
        4 0  # Particle/Antiparticle distinction (0=own anti)
</slha>
## END BANNER##
<MGGenerationInfo>
#  Number of Events        :         4000
#  Integrated weight (pb)  :  0.17486E+01
#  Max wgt                 :  0.59464E-03
#  Average wgt             :  0.43715E-03
</MGGenerationInfo>
</header>
<init>
     2212     2212  0.40000000000E+04  0.40000000000E+04 0 0  247000  247000 2   1
  0.17495082506E+01  0.33303289277E-02  0.59463590000E-03   0
</init>
<event>
 5   0  0.5723194E-03  0.1097907E+04  0.7818609E-02  0.9207235E-01
       -2   -1    0    0    0  501  0.00000000000E+00  0.00000000000E+00  0.44906008432E+03  0.44906008432E+03  0.25500000920E-02 0.  1.
        2   -1    0    0  501    0  0.00000000000E+00  0.00000000000E+00 -0.67106766358E+03  0.67106766358E+03  0.25500000920E-02 0. -1.
    10030    2    1    2    0    0  0.00000000000E+00  0.00000000000E+00 -0.22200757926E+03  0.11201277479E+04  0.10979065563E+04 0.  0.
        1    1    3    3  502    0 -0.53935148250E+03 -0.44709059274E+02 -0.17215077384E+02  0.54147509691E+03  0.50400001928E-02 0. -1.
       -1    1    3    3    0  502  0.53935148250E+03  0.44709059274E+02 -0.20479250188E+03  0.57865265100E+03  0.50400001928E-02 0.  1.
</event>
<event>
 5   0  0.5723194E-03  0.1106867E+04  0.7818609E-02  0.9198525E-01
       -2   -1    0    0    0  501  0.00000000000E+00  0.00000000000E+00  0.44039664940E+03  0.44039664940E+03  0.25500000920E-02 0. -1.
        2   -1    0    0  501    0  0.00000000000E+00  0.00000000000E+00 -0.69548340298E+03  0.69548340299E+03  0.25500000920E-02 0.  1.
    10030    2    1    2    0    0  0.00000000000E+00  0.00000000000E+00 -0.25508675359E+03  0.11358800524E+04  0.11068668581E+04 0.  0.
        1    1    3    3  502    0 -0.37492075548E+03  0.21580475475E+03 -0.48177430149E+03  0.64749034175E+03  0.50400001928E-02 0.  1.
       -1    1    3    3    0  502  0.37492075548E+03 -0.21580475475E+03  0.22668754790E+03  0.48838971064E+03  0.50400001928E-02 0. -1.
</event>
<event>
 5   0  0.5500363E-03  0.1089219E+04  0.7818609E-02  0.9215764E-01
        2   -1    0    0  501    0  0.00000000000E+00  0.00000000000E+00  0.69800830188E+03  0.69800830188E+03  0.25500000920E-02 0.  1.
       -2   -1    0    0    0  501  0.00000000000E+00  0.00000000000E+00 -0.42492280175E+03  0.42492280176E+03  0.25500000920E-02 0. -1.
    10030    2    1    2    0    0  0.00000000000E+00  0.00000000000E+00  0.27308550013E+03  0.11229311036E+04  0.10892192494E+04 0.  0.
        3    1    3    3  502    0  0.25617977976E+01 -0.35098761546E+03 -0.29275964057E+03  0.45706354740E+03  0.10100000352E+00 0. -1.
       -3    1    3    3    0  502 -0.25617977976E+01  0.35098761546E+03  0.56584514070E+03  0.66586755625E+03  0.10100000352E+00 0.  1.
</event>
<event>
 5   0  0.5723194E-03  0.1089031E+04  0.7818609E-02  0.9215950E-01
        2   -1    0    0  501    0  0.00000000000E+00  0.00000000000E+00  0.91653249061E+03  0.91653249061E+03  0.25500000920E-02 0. -1.
       -2   -1    0    0    0  501  0.00000000000E+00  0.00000000000E+00 -0.32349854170E+03  0.32349854171E+03  0.25500000920E-02 0.  1.
    10030    2    1    2    0    0  0.00000000000E+00  0.00000000000E+00  0.59303394891E+03  0.12400310323E+04  0.10890306224E+04 0.  0.
        1    1    3    3  502    0  0.60185248551E+02 -0.29439777147E+03  0.81357781669E+03  0.86729532216E+03  0.50400001928E-02 0. -1.
       -1    1    3    3    0  502 -0.60185248551E+02  0.29439777147E+03 -0.22054386778E+03  0.37273571016E+03  0.50400001928E-02 0.  1.
</event>
<event>
 5   0  0.5500363E-03  0.1054564E+04  0.7818609E-02  0.9250645E-01
       -2   -1    0    0    0  501  0.00000000000E+00  0.00000000000E+00  0.26099346152E+03  0.26099346153E+03  0.25500000920E-02 0. -1.
        2   -1    0    0  501    0  0.00000000000E+00  0.00000000000E+00 -0.10652615870E+04  0.10652615870E+04  0.25500000920E-02 0.  1.
    10030    2    1    2    0    0  0.00000000000E+00  0.00000000000E+00 -0.80426812544E+03  0.13262550485E+04  0.10545640028E+04 0.  0.
        3    1    3    3  502    0 -0.14812139529E+03  0.43652236719E+03 -0.72408474346E+03  0.85836498688E+03  0.10100000352E+00 0. -1.
       -3    1    3    3    0  502  0.14812139529E+03 -0.43652236719E+03 -0.80183381986E+02  0.46789006161E+03  0.10100000352E+00 0.  1.
</event>
<event>
 5   0  0.3215352E-03  0.1097945E+04  0.7818609E-02  0.9207197E-01
       -1   -1    0    0    0  501  0.00000000000E+00  0.00000000000E+00  0.93184275826E+03  0.93184275827E+03  0.50400001928E-02 0. -1.
        1   -1    0    0  501    0  0.00000000000E+00  0.00000000000E+00 -0.32341393237E+03  0.32341393241E+03  0.50400001928E-02 0.  1.
    10030    2    1    2    0    0  0.00000000000E+00  0.00000000000E+00  0.60842882589E+03  0.12552566907E+04  0.10979452278E+04 0.  0.
        1    1    3    3  502    0 -0.36565438380E+03 -0.33802486334E+03  0.40003387003E+02  0.49956401755E+03  0.50400001928E-02 0.  1.
       -1    1    3    3    0  502  0.36565438380E+03  0.33802486334E+03  0.56842543888E+03  0.75569267313E+03  0.50400001928E-02 0. -1.
</event>
<event>
 5   0  0.3328741E-03  0.1102205E+04  0.7818609E-02  0.9203045E-01
       -1   -1    0    0    0  501  0.00000000000E+00  0.00000000000E+00  0.48096632380E+03  0.48096632383E+03  0.50400001928E-02 0. -1.
        1   -1    0    0  501    0  0.00000000000E+00  0.00000000000E+00 -0.63146637594E+03  0.63146637596E+03  0.50400001928E-02 0.  1.
    10030    2    1    2    0    0  0.00000000000E+00  0.00000000000E+00 -0.15050005214E+03  0.11124326998E+04  0.11022051741E+04 0.  0.
        3    1    3    3  502    0  0.15527681792E+03  0.21555608333E+03  0.41207478128E+03  0.49028660068E+03  0.10100000352E+00 0. -1.
       -3    1    3    3    0  502 -0.15527681792E+03 -0.21555608333E+03 -0.56257483341E+03  0.62214609911E+03  0.10100000352E+00 0.  1.
</event>
<event>
 5   0  0.5723194E-03  0.1100061E+04  0.7818609E-02  0.9205133E-01
        2   -1    0    0  501    0  0.00000000000E+00  0.00000000000E+00  0.58089530302E+03  0.58089530303E+03  0.25500000920E-02 0. -1.
       -2   -1    0    0    0  501  0.00000000000E+00  0.00000000000E+00 -0.52080539503E+03  0.52080539503E+03  0.25500000920E-02 0.  1.
    10030    2    1    2    0    0  0.00000000000E+00  0.00000000000E+00  0.60089907994E+02  0.11017006981E+04  0.11000607397E+04 0.  0.
        1    1    3    3  502    0 -0.51346949140E+03 -0.53010672991E+02  0.22025533857E+03  0.56122496759E+03  0.50400001928E-02 0. -1.
       -1    1    3    3    0  502  0.51346949140E+03  0.53010672991E+02 -0.16016543057E+03  0.54047573047E+03  0.50400001928E-02 0.  1.
</event>
<event>
 5   0  0.3320192E-03  0.1068218E+04  0.7818609E-02  0.9236735E-01
       -1   -1    0    0    0  501  0.00000000000E+00  0.00000000000E+00  0.36846745804E+03  0.36846745807E+03  0.50400001928E-02 0. -1.
        1   -1    0    0  501    0  0.00000000000E+00  0.00000000000E+00 -0.77421291114E+03  0.77421291115E+03  0.50400001928E-02 0.  1.
    10030    2    1    2    0    0  0.00000000000E+00  0.00000000000E+00 -0.40574545310E+03  0.11426803692E+04  0.10682176995E+04 0.  0.
        2    1    3    3  502    0 -0.27948689074E+03  0.42103137091E+03 -0.38781745031E+03  0.63701076298E+03  0.25500000920E-02 0.  1.
       -2    1    3    3    0  502  0.27948689074E+03 -0.42103137091E+03 -0.17928002788E+02  0.50566960624E+03  0.25500000920E-02 0. -1.
</event>
<event>
 5   0  0.5723194E-03  0.1128475E+04  0.7818609E-02  0.9177874E-01
        2   -1    0    0  501    0  0.00000000000E+00  0.00000000000E+00  0.46788177841E+03  0.46788177842E+03  0.25500000920E-02 0. -1.
       -2   -1    0    0    0  501  0.00000000000E+00  0.00000000000E+00 -0.68043702476E+03  0.68043702476E+03  0.25500000920E-02 0.  1.
    10030    2    1    2    0    0  0.00000000000E+00  0.00000000000E+00 -0.21255524634E+03  0.11483188032E+04  0.11284752283E+04 0.  0.
        1    1    3    3  502    0 -0.28599325535E+03 -0.46852249617E+03 -0.23918292725E+03  0.59876033956E+03  0.50400001928E-02 0.  1.
       -1    1    3    3    0  502  0.28599325535E+03  0.46852249617E+03  0.26627680902E+02  0.54955846362E+03  0.50400001928E-02 0. -1.
</event>
<event>
 5   0  0.2185750E-03  0.1101534E+04  0.7818609E-02  0.9203698E-01
        4   -1    0    0  501    0  0.00000000000E+00  0.00000000000E+00  0.59267427523E+03  0.59267563593E+03  0.12699999809E+01 0.  1.
       -4   -1    0    0    0  501  0.00000000000E+00  0.00000000000E+00 -0.51182055896E+03  0.51182213461E+03  0.12699999809E+01 0. -1.
    10030    2    1    2    0    0  0.00000000000E+00  0.00000000000E+00  0.80853716268E+02  0.11044977705E+04  0.11015343852E+04 0.  0.
        3    1    3    3  502    0  0.11532474818E+03 -0.29040969501E+03  0.49519623919E+03  0.58553984835E+03  0.10100000352E+00 0.  1.
       -3    1    3    3    0  502 -0.11532474818E+03  0.29040969501E+03 -0.41434252293E+03  0.51895792219E+03  0.10100000352E+00 0. -1.
</event>
<event>
 5   0  0.5941585E-03  0.1111522E+04  0.7818609E-02  0.9194034E-01
       -2   -1    0    0    0  501  0.00000000000E+00  0.00000000000E+00  0.75764834733E+03  0.75764834733E+03  0.25500000920E-02 0. -1.
        2   -1    0    0  501    0  0.00000000000E+00  0.00000000000E+00 -0.40766953224E+03  0.40766953224E+03  0.25500000920E-02 0.  1.
    10030    2    1    2    0    0  0.00000000000E+00  0.00000000000E+00  0.34997881509E+03  0.11653178796E+04  0.11115217449E+04 0.  0.
        5    1    3    3  502    0  0.26899915780E+03  0.31418573771E+03  0.56413435203E+03  0.69953047240E+03  0.46999998093E+01 0. -1.
       -5    1    3    3    0  502 -0.26899915780E+03 -0.31418573771E+03 -0.21415553694E+03  0.46578740717E+03  0.46999998093E+01 0.  1.
</event>
<event>
 5   0  0.3241189E-03  0.1029837E+04  0.7818609E-02  0.9276412E-01
       -1   -1    0    0    0  501  0.00000000000E+00  0.00000000000E+00  0.37234890934E+03  0.37234890938E+03  0.50400001928E-02 0.  1.
        1   -1    0    0  501    0  0.00000000000E+00  0.00000000000E+00 -0.71207755819E+03  0.71207755821E+03  0.50400001928E-02 0. -1.
    10030    2    1    2    0    0  0.00000000000E+00  0.00000000000E+00 -0.33972864885E+03  0.10844264676E+04  0.10298374672E+04 0.  0.
        5    1    3    3  502    0 -0.39375372426E+03 -0.15833366720E+03  0.13715129340E+03  0.44603151550E+03  0.46999998093E+01 0.  1.
       -5    1    3    3    0  502  0.39375372426E+03  0.15833366720E+03 -0.47687994225E+03  0.63839495209E+03  0.46999998093E+01 0. -1.
</event>
<event>
 5   0  0.2185750E-03  0.1030080E+04  0.7818609E-02  0.9276156E-01
        3   -1    0    0  501    0  0.00000000000E+00  0.00000000000E+00  0.22122498142E+03  0.22122500447E+03  0.10100000352E+00 0.  1.
       -3   -1    0    0    0  501  0.00000000000E+00  0.00000000000E+00 -0.11990779816E+04  0.11990779859E+04  0.10100000352E+00 0. -1.
    10030    2    1    2    0    0  0.00000000000E+00  0.00000000000E+00 -0.97785300019E+03  0.14203029903E+04  0.10300796544E+04 0.  0.
        3    1    3    3  502    0 -0.86006809201E+02  0.42687668558E+03 -0.86815476618E+03  0.97124331872E+03  0.10100000352E+00 0. -1.
       -3    1    3    3    0  502  0.86006809201E+02 -0.42687668558E+03 -0.10969823401E+03  0.44905967162E+03  0.10100000352E+00 0.  1.
</event>
<event>
 5   0  0.3215352E-03  0.9700800E+03  0.7818609E-02  0.9341983E-01
        1   -1    0    0  501    0  0.00000000000E+00  0.00000000000E+00  0.52200437489E+03  0.52200437491E+03  0.50400001928E-02 0.  1.
       -1   -1    0    0    0  501  0.00000000000E+00  0.00000000000E+00 -0.45069315349E+03  0.45069315352E+03  0.50400001928E-02 0. -1.
    10030    2    1    2    0    0  0.00000000000E+00  0.00000000000E+00  0.71311221397E+02  0.97269752844E+03  0.97007999234E+03 0.  0.
        1    1    3    3  502    0 -0.44718314522E+03  0.17469894314E+03 -0.33605453758E+02  0.48127103866E+03  0.50400001928E-02 0.  1.
       -1    1    3    3    0  502  0.44718314522E+03 -0.17469894314E+03  0.10491667515E+03  0.49142648978E+03  0.50400001928E-02 0. -1.
</event>
<event>
 5   0  0.3328741E-03  0.1087154E+04  0.7818609E-02  0.9217804E-01
       -1   -1    0    0    0  501  0.00000000000E+00  0.00000000000E+00  0.32834988061E+03  0.32834988065E+03  0.50400001928E-02 0. -1.
        1   -1    0    0  501    0  0.00000000000E+00  0.00000000000E+00 -0.89988089380E+03  0.89988089381E+03  0.50400001928E-02 0.  1.
    10030    2    1    2    0    0  0.00000000000E+00  0.00000000000E+00 -0.57153101319E+03  0.12282307745E+04  0.10871536857E+04 0.  0.
        3    1    3    3  502    0  0.24886236442E+03  0.30130877946E+03  0.14109571173E+03  0.41548461713E+03  0.10100000352E+00 0. -1.
       -3    1    3    3    0  502 -0.24886236442E+03 -0.30130877946E+03 -0.71262672492E+03  0.81274615734E+03  0.10100000352E+00 0.  1.
</event>
<event>
 5   0  0.3328741E-03  0.1130950E+04  0.7818609E-02  0.9175540E-01
       -1   -1    0    0    0  501  0.00000000000E+00  0.00000000000E+00  0.27928264808E+03  0.27928264813E+03  0.50400001928E-02 0.  1.
        1   -1    0    0  501    0  0.00000000000E+00  0.00000000000E+00 -0.11449410466E+04  0.11449410466E+04  0.50400001928E-02 0. -1.
    10030    2    1    2    0    0  0.00000000000E+00  0.00000000000E+00 -0.86565839849E+03  0.14242236947E+04  0.11309503392E+04 0.  0.
        3    1    3    3  502    0  0.23480886175E+03  0.38237323955E+03 -0.86618330101E+03  0.97550910658E+03  0.10100000352E+00 0. -1.
       -3    1    3    3    0  502 -0.23480886175E+03 -0.38237323955E+03  0.52490251658E+00  0.44871458813E+03  0.10100000352E+00 0.  1.
</event>
<event>
 5   0  0.5723194E-03  0.1100405E+04  0.7818609E-02  0.9204798E-01
       -2   -1    0    0    0  501  0.00000000000E+00  0.00000000000E+00  0.61005326448E+03  0.61005326449E+03  0.25500000920E-02 0. -1.
        2   -1    0    0  501    0  0.00000000000E+00  0.00000000000E+00 -0.49622313061E+03  0.49622313062E+03  0.25500000920E-02 0.  1.
    10030    2    1    2    0    0  0.00000000000E+00  0.00000000000E+00  0.11383013387E+03  0.11062763951E+04  0.11004045452E+04 0.  0.
        1    1    3    3  502    0  0.39998678513E+03  0.17187065080E+03 -0.28132277200E+03  0.51833526887E+03  0.50400001928E-02 0.  1.
       -1    1    3    3    0  502 -0.39998678513E+03 -0.17187065080E+03  0.39515290587E+03  0.58794112624E+03  0.50400001928E-02 0. -1.
</event>
<event>
 5   0  0.3316784E-03  0.1099809E+04  0.7818609E-02  0.9205378E-01
       -1   -1    0    0    0  501  0.00000000000E+00  0.00000000000E+00  0.28129176952E+03  0.28129176957E+03  0.50400001928E-02 0.  1.
        1   -1    0    0  501    0  0.00000000000E+00  0.00000000000E+00 -0.10750232339E+04  0.10750232339E+04  0.50400001928E-02 0. -1.
    10030    2    1    2    0    0  0.00000000000E+00  0.00000000000E+00 -0.79373146441E+03  0.13563150035E+04  0.10998094158E+04 0.  0.
        4    1    3    3  502    0  0.12615367013E+03  0.41454879696E+03 -0.81439672660E+03  0.92250154186E+03  0.12699999809E+01 0. -1.
       -4    1    3    3    0  502 -0.12615367013E+03 -0.41454879696E+03  0.20665262185E+02  0.43381346165E+03  0.12699999809E+01 0.  1.
</event>
<event>
 5   0  0.3215352E-03  0.1107243E+04  0.7818609E-02  0.9198161E-01
        1   -1    0    0  501    0  0.00000000000E+00  0.00000000000E+00  0.88986772142E+03  0.88986772144E+03  0.50400001928E-02 0. -1.
       -1   -1    0    0    0  501  0.00000000000E+00  0.00000000000E+00 -0.34442959023E+03  0.34442959027E+03  0.50400001928E-02 0.  1.
    10030    2    1    2    0    0  0.00000000000E+00  0.00000000000E+00  0.54543813119E+03  0.12342973117E+04  0.11072430170E+04 0.  0.
        1    1    3    3  502    0  0.36700707749E+03  0.13527767172E+02 -0.18908765572E+03  0.41307546161E+03  0.50400001928E-02 0.  1.
       -1    1    3    3    0  502 -0.36700707749E+03 -0.13527767172E+02  0.73452578691E+03  0.82122185010E+03  0.50400001928E-02 0. -1.
</event>
<event>
 5   0  0.5627232E-03  0.1114690E+04  0.7818609E-02  0.9190991E-01
       -2   -1    0    0    0  501  0.00000000000E+00  0.00000000000E+00  0.10714244971E+04  0.10714244971E+04  0.25500000920E-02 0. -1.
        2   -1    0    0  501    0  0.00000000000E+00  0.00000000000E+00 -0.28992568054E+03  0.28992568055E+03  0.25500000920E-02 0.  1.
    10030    2    1    2    0    0  0.00000000000E+00  0.00000000000E+00  0.78149881659E+03  0.13613501777E+04  0.11146900493E+04 0.  0.
        2    1    3    3  502    0 -0.27189308899E+03  0.48591573523E+03  0.36099615467E+03  0.66359488943E+03  0.25500000920E-02 0. -1.
       -2    1    3    3    0  502  0.27189308899E+03 -0.48591573523E+03  0.42050266192E+03  0.69775528825E+03  0.25500000920E-02 0.  1.
</event>
<event>
 5   0  0.3328741E-03  0.1152408E+04  0.7818609E-02  0.9155565E-01
       -1   -1    0    0    0  501  0.00000000000E+00  0.00000000000E+00  0.49857828524E+03  0.49857828526E+03  0.50400001928E-02 0.  1.
        1   -1    0    0  501    0  0.00000000000E+00  0.00000000000E+00 -0.66591555453E+03  0.66591555455E+03  0.50400001928E-02 0. -1.
    10030    2    1    2    0    0  0.00000000000E+00  0.00000000000E+00 -0.16733726929E+03  0.11644938398E+04  0.11524079752E+04 0.  0.
        3    1    3    3  502    0  0.38840388995E+03 -0.34879063230E+03 -0.33014999841E+03  0.61766618700E+03  0.10100000352E+00 0. -1.
       -3    1    3    3    0  502 -0.38840388995E+03  0.34879063230E+03  0.16281272913E+03  0.54682765281E+03  0.10100000352E+00 0.  1.
</event>
<event>
 5   0  0.2185750E-03  0.1102685E+04  0.7818609E-02  0.9202579E-01
        3   -1    0    0  501    0  0.00000000000E+00  0.00000000000E+00  0.14367385273E+04  0.14367385309E+04  0.10100000352E+00 0. -1.
       -3   -1    0    0    0  501  0.00000000000E+00  0.00000000000E+00 -0.21157523556E+03  0.21157525967E+03  0.10100000352E+00 0.  1.
    10030    2    1    2    0    0  0.00000000000E+00  0.00000000000E+00  0.12251632918E+04  0.16483137905E+04  0.11026845698E+04 0.  0.
        5    1    3    3  502    0  0.25755984869E+03 -0.80410913439E+02  0.13312666484E+04  0.13583430973E+04  0.46999998093E+01 0. -1.
       -5    1    3    3    0  502 -0.25755984869E+03  0.80410913439E+02 -0.10610335668E+03  0.28997069327E+03  0.46999998093E+01 0.  1.
</event>
<event>
 5   0  0.5500363E-03  0.1086325E+04  0.7818609E-02  0.9218624E-01
        2   -1    0    0  501    0  0.00000000000E+00  0.00000000000E+00  0.16632268849E+04  0.16632268849E+04  0.25500000920E-02 0.  1.
       -2   -1    0    0    0  501  0.00000000000E+00  0.00000000000E+00 -0.17738149776E+03  0.17738149777E+03  0.25500000920E-02 0. -1.
    10030    2    1    2    0    0  0.00000000000E+00  0.00000000000E+00  0.14858453872E+04  0.18406083827E+04  0.10863253214E+04 0.  0.
        3    1    3    3  502    0 -0.79743997361E+02 -0.51400621235E+03  0.47790994019E+03  0.70637059153E+03  0.10100000352E+00 0. -1.
       -3    1    3    3    0  502  0.79743997361E+02  0.51400621235E+03  0.10079354470E+04  0.11342377912E+04  0.10100000352E+00 0.  1.
</event>
<event>
 5   0  0.3215352E-03  0.1097411E+04  0.7818609E-02  0.9207719E-01
       -1   -1    0    0    0  501  0.00000000000E+00  0.00000000000E+00  0.46934440773E+03  0.46934440776E+03  0.50400001928E-02 0.  1.
        1   -1    0    0  501    0  0.00000000000E+00  0.00000000000E+00 -0.64148570920E+03  0.64148570922E+03  0.50400001928E-02 0. -1.
    10030    2    1    2    0    0  0.00000000000E+00  0.00000000000E+00 -0.17214130147E+03  0.11108301170E+04  0.10974110083E+04 0.  0.
        1    1    3    3  502    0  0.28142611062E+03  0.23907697282E+03  0.32474837219E+03  0.49175192927E+03  0.50400001928E-02 0.  1.
       -1    1    3    3    0  502 -0.28142611062E+03 -0.23907697282E+03 -0.49688967366E+03  0.61907818770E+03  0.50400001928E-02 0. -1.
</event>
<event>
 5   0  0.5627232E-03  0.1103503E+04  0.7818609E-02  0.9201784E-01
       -2   -1    0    0    0  501  0.00000000000E+00  0.00000000000E+00  0.22544740411E+03  0.22544740412E+03  0.25500000920E-02 0.  1.
        2   -1    0    0  501    0  0.00000000000E+00  0.00000000000E+00 -0.13503358152E+04  0.13503358152E+04  0.25500000920E-02 0. -1.
    10030    2    1    2    0    0  0.00000000000E+00  0.00000000000E+00 -0.11248884111E+04  0.15757832193E+04  0.11035029755E+04 0.  0.
        2    1    3    3  502    0  0.31172196398E+02 -0.34189714465E+03  0.54345734740E+02  0.34759002033E+03  0.25500000920E-02 0.  1.
       -2    1    3    3    0  502 -0.31172196398E+02  0.34189714465E+03 -0.11792341459E+04  0.12281931990E+04  0.25500000920E-02 0. -1.
</event>
<event>
 5   0  0.3320192E-03  0.1098744E+04  0.7818609E-02  0.9206417E-01
       -1   -1    0    0    0  501  0.00000000000E+00  0.00000000000E+00  0.25813537044E+03  0.25813537049E+03  0.50400001928E-02 0. -1.
        1   -1    0    0  501    0  0.00000000000E+00  0.00000000000E+00 -0.11691908842E+04  0.11691908842E+04  0.50400001928E-02 0.  1.
    10030    2    1    2    0    0  0.00000000000E+00  0.00000000000E+00 -0.91105551372E+03  0.14273262547E+04  0.10987438683E+04 0.  0.
        2    1    3    3  502    0 -0.45432868401E+03  0.89145642058E+02 -0.71376915460E+02  0.46846148474E+03  0.25500000920E-02 0. -1.
       -2    1    3    3    0  502  0.45432868401E+03 -0.89145642058E+02 -0.83967859826E+03  0.95886476992E+03  0.25500000920E-02 0.  1.
</event>
<event>
 5   0  0.5500363E-03  0.1122995E+04  0.7818609E-02  0.9183065E-01
        2   -1    0    0  501    0  0.00000000000E+00  0.00000000000E+00  0.19116931552E+04  0.19116931552E+04  0.25500000920E-02 0. -1.
       -2   -1    0    0    0  501  0.00000000000E+00  0.00000000000E+00 -0.16492154690E+03  0.16492154692E+03  0.25500000920E-02 0.  1.
    10030    2    1    2    0    0  0.00000000000E+00  0.00000000000E+00  0.17467716083E+04  0.20766147022E+04  0.11229949107E+04 0.  0.
        3    1    3    3  502    0  0.53731644770E+03  0.10071687799E+03  0.11103872643E+04  0.12376642280E+04  0.10100000352E+00 0. -1.
       -3    1    3    3    0  502 -0.53731644770E+03 -0.10071687799E+03  0.63638434409E+03  0.83895047415E+03  0.10100000352E+00 0.  1.
</event>
<event>
 5   0  0.5941585E-03  0.1097333E+04  0.7818609E-02  0.9207795E-01
       -2   -1    0    0    0  501  0.00000000000E+00  0.00000000000E+00  0.39317974262E+03  0.39317974263E+03  0.25500000920E-02 0.  1.
        2   -1    0    0  501    0  0.00000000000E+00  0.00000000000E+00 -0.76564182917E+03  0.76564182917E+03  0.25500000920E-02 0. -1.
    10030    2    1    2    0    0  0.00000000000E+00  0.00000000000E+00 -0.37246208654E+03  0.11588215718E+04  0.10973328708E+04 0.  0.
        5    1    3    3  502    0  0.70572671955E+02  0.13487454117E+02 -0.76063077569E+03  0.76403120379E+03  0.46999998093E+01 0. -1.
       -5    1    3    3    0  502 -0.70572671955E+02 -0.13487454117E+02  0.38816868914E+03  0.39479036801E+03  0.46999998093E+01 0.  1.
</event>
<event>
 5   0  0.3320192E-03  0.1105883E+04  0.7818609E-02  0.9199477E-01
        1   -1    0    0  501    0  0.00000000000E+00  0.00000000000E+00  0.69315450649E+03  0.69315450651E+03  0.50400001928E-02 0. -1.
       -1   -1    0    0    0  501  0.00000000000E+00  0.00000000000E+00 -0.44109082601E+03  0.44109082604E+03  0.50400001928E-02 0.  1.
    10030    2    1    2    0    0  0.00000000000E+00  0.00000000000E+00  0.25206368048E+03  0.11342453325E+04  0.11058826228E+04 0.  0.
        2    1    3    3  502    0  0.54026747689E+02 -0.37361669559E+03 -0.28835469174E+03  0.47503342297E+03  0.25500000920E-02 0.  1.
       -2    1    3    3    0  502 -0.54026747689E+02  0.37361669559E+03  0.54041837221E+03  0.65921190957E+03  0.25500000920E-02 0. -1.
</event>
<event>
 5   0  0.5500363E-03  0.1048243E+04  0.7818609E-02  0.9257160E-01
        2   -1    0    0  501    0  0.00000000000E+00  0.00000000000E+00  0.67855699070E+03  0.67855699070E+03  0.25500000920E-02 0.  1.
       -2   -1    0    0    0  501  0.00000000000E+00  0.00000000000E+00 -0.40483482084E+03  0.40483482084E+03  0.25500000920E-02 0. -1.
    10030    2    1    2    0    0  0.00000000000E+00  0.00000000000E+00  0.27372216986E+03  0.10833918115E+04  0.10482432881E+04 0.  0.
        3    1    3    3  502    0 -0.64460405185E+02 -0.17309648676E+03  0.64380345295E+03  0.66977640582E+03  0.10100000352E+00 0.  1.
       -3    1    3    3    0  502  0.64460405185E+02  0.17309648676E+03 -0.37008128308E+03  0.41361540573E+03  0.10100000352E+00 0. -1.
</event>
<event>
 5   0  0.5723194E-03  0.1071717E+04  0.7818609E-02  0.9233206E-01
       -2   -1    0    0    0  501  0.00000000000E+00  0.00000000000E+00  0.62494600915E+03  0.62494600915E+03  0.25500000920E-02 0. -1.
        2   -1    0    0  501    0  0.00000000000E+00  0.00000000000E+00 -0.45947020887E+03  0.45947020888E+03  0.25500000920E-02 0.  1.
    10030    2    1    2    0    0  0.00000000000E+00  0.00000000000E+00  0.16547580028E+03  0.10844162180E+04  0.10717165173E+04 0.  0.
        1    1    3    3  502    0  0.25041291420E+03  0.28330395400E+03 -0.30146712527E+03  0.48358058852E+03  0.50400001928E-02 0.  1.
       -1    1    3    3    0  502 -0.25041291420E+03 -0.28330395400E+03  0.46694292555E+03  0.60083562951E+03  0.50400001928E-02 0. -1.
</event>
<event>
 5   0  0.3241189E-03  0.1176114E+04  0.7818609E-02  0.9134025E-01
        1   -1    0    0  501    0  0.00000000000E+00  0.00000000000E+00  0.53549552818E+03  0.53549552820E+03  0.50400001928E-02 0.  1.
       -1   -1    0    0    0  501  0.00000000000E+00  0.00000000000E+00 -0.64577765234E+03  0.64577765236E+03  0.50400001928E-02 0. -1.
    10030    2    1    2    0    0  0.00000000000E+00  0.00000000000E+00 -0.11028212416E+03  0.11812731806E+04  0.11761140167E+04 0.  0.
        5    1    3    3  502    0  0.38318306991E+03  0.26523443103E+03 -0.41533710710E+03  0.62426402347E+03  0.46999998093E+01 0. -1.
       -5    1    3    3    0  502 -0.38318306991E+03 -0.26523443103E+03  0.30505498294E+03  0.55700915709E+03  0.46999998093E+01 0.  1.
</event>
<event>
 5   0  0.5500363E-03  0.1077618E+04  0.7818609E-02  0.9227286E-01
        2   -1    0    0  501    0  0.00000000000E+00  0.00000000000E+00  0.16439097508E+04  0.16439097508E+04  0.25500000920E-02 0.  1.
       -2   -1    0    0    0  501  0.00000000000E+00  0.00000000000E+00 -0.17660033182E+03  0.17660033184E+03  0.25500000920E-02 0. -1.
    10030    2    1    2    0    0  0.00000000000E+00  0.00000000000E+00  0.14673094189E+04  0.18205100826E+04  0.10776177569E+04 0.  0.
        3    1    3    3  502    0 -0.66800182478E+02  0.34495235295E+02 -0.16769581717E+03  0.18377726447E+03  0.10100000352E+00 0. -1.
       -3    1    3    3    0  502  0.66800182478E+02 -0.34495235295E+02  0.16350052361E+04  0.16367328181E+04  0.10100000352E+00 0.  1.
</event>
<event>
 5   0  0.3316784E-03  0.1077969E+04  0.7818609E-02  0.9226934E-01
       -1   -1    0    0    0  501  0.00000000000E+00  0.00000000000E+00  0.50988860511E+03  0.50988860514E+03  0.50400001928E-02 0. -1.
        1   -1    0    0  501    0  0.00000000000E+00  0.00000000000E+00 -0.56974118396E+03  0.56974118398E+03  0.50400001928E-02 0.  1.
    10030    2    1    2    0    0  0.00000000000E+00  0.00000000000E+00 -0.59852578849E+02  0.10796297891E+04  0.10779694571E+04 0.  0.
        4    1    3    3  502    0 -0.50197537212E+03 -0.35424146648E+02 -0.22327487226E+03  0.55053376451E+03  0.12699999809E+01 0.  1.
       -4    1    3    3    0  502  0.50197537212E+03  0.35424146648E+02  0.16342229341E+03  0.52909602461E+03  0.12699999809E+01 0. -1.
</event>
<event>
 5   0  0.3215352E-03  0.1094680E+04  0.7818609E-02  0.9210392E-01
       -1   -1    0    0    0  501  0.00000000000E+00  0.00000000000E+00  0.16513116977E+03  0.16513116985E+03  0.50400001928E-02 0. -1.
        1   -1    0    0  501    0  0.00000000000E+00  0.00000000000E+00 -0.18142018328E+04  0.18142018328E+04  0.50400001928E-02 0.  1.
    10030    2    1    2    0    0  0.00000000000E+00  0.00000000000E+00 -0.16490706630E+04  0.19793330026E+04  0.10946803569E+04 0.  0.
        1    1    3    3  502    0  0.46507715498E+03  0.84151599902E+02 -0.13236698782E+04  0.14055177687E+04  0.50400001928E-02 0.  1.
       -1    1    3    3    0  502 -0.46507715498E+03 -0.84151599902E+02 -0.32540078485E+03  0.57381523390E+03  0.50400001928E-02 0. -1.
</event>
<event>
 5   0  0.3328741E-03  0.1094374E+04  0.7818609E-02  0.9210693E-01
       -1   -1    0    0    0  501  0.00000000000E+00  0.00000000000E+00  0.46829370423E+03  0.46829370426E+03  0.50400001928E-02 0. -1.
        1   -1    0    0  501    0  0.00000000000E+00  0.00000000000E+00 -0.63937137693E+03  0.63937137695E+03  0.50400001928E-02 0.  1.
    10030    2    1    2    0    0  0.00000000000E+00  0.00000000000E+00 -0.17107767270E+03  0.11076650812E+04  0.10943739590E+04 0.  0.
        3    1    3    3  502    0  0.17522858893E+03 -0.26026616432E+03 -0.53928020866E+03  0.62391240437E+03  0.10100000352E+00 0.  1.
       -3    1    3    3    0  502 -0.17522858893E+03  0.26026616432E+03  0.36820253596E+03  0.48375267685E+03  0.10100000352E+00 0. -1.
</event>
<event>
 5   0  0.5946359E-03  0.1138497E+04  0.7818609E-02  0.9168462E-01
        2   -1    0    0  501    0  0.00000000000E+00  0.00000000000E+00  0.10749953606E+04  0.10749953606E+04  0.25500000920E-02 0.  1.
       -2   -1    0    0    0  501  0.00000000000E+00  0.00000000000E+00 -0.30143748506E+03  0.30143748507E+03  0.25500000920E-02 0. -1.
    10030    2    1    2    0    0  0.00000000000E+00  0.00000000000E+00  0.77355787550E+03  0.13764328456E+04  0.11384970759E+04 0.  0.
        4    1    3    3  502    0  0.48655346541E+03  0.19313943579E+03  0.65713154140E+03  0.84015509994E+03  0.12699999809E+01 0. -1.
       -4    1    3    3    0  502 -0.48655346541E+03 -0.19313943579E+03  0.11642633410E+03  0.53627774569E+03  0.12699999809E+01 0.  1.
</event>
<event>
 5   0  0.5946359E-03  0.1078422E+04  0.7818609E-02  0.9226483E-01
        2   -1    0    0  501    0  0.00000000000E+00  0.00000000000E+00  0.53013615274E+03  0.53013615275E+03  0.25500000920E-02 0.  1.
       -2   -1    0    0    0  501  0.00000000000E+00  0.00000000000E+00 -0.54844075136E+03  0.54844075137E+03  0.25500000920E-02 0. -1.
    10030    2    1    2    0    0  0.00000000000E+00  0.00000000000E+00 -0.18304598622E+02  0.10785769041E+04  0.10784215687E+04 0.  0.
        4    1    3    3  502    0 -0.64251186474E+01 -0.41995271189E+03  0.32904592288E+03  0.53354886809E+03  0.12699999809E+01 0.  1.
       -4    1    3    3    0  502  0.64251186474E+01  0.41995271189E+03 -0.34735052150E+03  0.54502803603E+03  0.12699999809E+01 0. -1.
</event>
<event>
 5   0  0.2185750E-03  0.1106698E+04  0.7818609E-02  0.9198688E-01
       -4   -1    0    0    0  501  0.00000000000E+00  0.00000000000E+00  0.50531103127E+03  0.50531262721E+03  0.12699999809E+01 0. -1.
        4   -1    0    0  501    0  0.00000000000E+00  0.00000000000E+00 -0.60595002570E+03  0.60595135659E+03  0.12699999809E+01 0.  1.
    10030    2    1    2    0    0  0.00000000000E+00  0.00000000000E+00 -0.10063899444E+03  0.11112639838E+04  0.11066975352E+04 0.  0.
        5    1    3    3  502    0 -0.41497403547E+01  0.35955051615E+03  0.37198567672E+03  0.51738692262E+03  0.46999998093E+01 0. -1.
       -5    1    3    3    0  502  0.41497403547E+01 -0.35955051615E+03 -0.47262467116E+03  0.59387706118E+03  0.46999998093E+01 0.  1.
</event>
<event>
 5   0  0.3328741E-03  0.1088150E+04  0.7818609E-02  0.9216819E-01
       -1   -1    0    0    0  501  0.00000000000E+00  0.00000000000E+00  0.76720204208E+03  0.76720204210E+03  0.50400001928E-02 0. -1.
        1   -1    0    0  501    0  0.00000000000E+00  0.00000000000E+00 -0.38584066549E+03  0.38584066552E+03  0.50400001928E-02 0.  1.
    10030    2    1    2    0    0  0.00000000000E+00  0.00000000000E+00  0.38136137659E+03  0.11530427076E+04  0.10881502589E+04 0.  0.
        3    1    3    3  502    0 -0.14541422068E+03  0.52369696069E+03  0.21693601334E+03  0.58520513181E+03  0.10100000352E+00 0. -1.
       -3    1    3    3    0  502  0.14541422068E+03 -0.52369696069E+03  0.16442536325E+03  0.56783757580E+03  0.10100000352E+00 0.  1.
</event>
<event>
 5   0  0.3241189E-03  0.1099057E+04  0.7818609E-02  0.9206112E-01
       -1   -1    0    0    0  501  0.00000000000E+00  0.00000000000E+00  0.27740260653E+03  0.27740260658E+03  0.50400001928E-02 0. -1.
        1   -1    0    0  501    0  0.00000000000E+00  0.00000000000E+00 -0.10886037447E+04  0.10886037447E+04  0.50400001928E-02 0.  1.
    10030    2    1    2    0    0  0.00000000000E+00  0.00000000000E+00 -0.81120113816E+03  0.13660063513E+04  0.10990568981E+04 0.  0.
        5    1    3    3  502    0 -0.27723168641E+03  0.16252727746E+03  0.14840886690E+03  0.35400537516E+03  0.46999998093E+01 0. -1.
       -5    1    3    3    0  502  0.27723168641E+03 -0.16252727746E+03 -0.95961000506E+03  0.10120009761E+04  0.46999998093E+01 0.  1.
</event>
<event>
 5   0  0.5627232E-03  0.1107250E+04  0.7818609E-02  0.9198154E-01
       -2   -1    0    0    0  501  0.00000000000E+00  0.00000000000E+00  0.22733528340E+03  0.22733528341E+03  0.25500000920E-02 0.  1.
        2   -1    0    0  501    0  0.00000000000E+00  0.00000000000E+00 -0.13482318461E+04  0.13482318461E+04  0.25500000920E-02 0. -1.
    10030    2    1    2    0    0  0.00000000000E+00  0.00000000000E+00 -0.11208965627E+04  0.15755671295E+04  0.11072500509E+04 0.  0.
        2    1    3    3  502    0 -0.42231971214E+03  0.30173292338E+03 -0.83454346704E+03  0.98278150914E+03  0.25500000920E-02 0. -1.
       -2    1    3    3    0  502  0.42231971214E+03 -0.30173292338E+03 -0.28635309562E+03  0.59278562035E+03  0.25500000920E-02 0.  1.
</event>
<event>
 5   0  0.5500363E-03  0.1101309E+04  0.7818609E-02  0.9203917E-01
        2   -1    0    0  501    0  0.00000000000E+00  0.00000000000E+00  0.87999089033E+03  0.87999089033E+03  0.25500000920E-02 0. -1.
       -2   -1    0    0    0  501  0.00000000000E+00  0.00000000000E+00 -0.34457191021E+03  0.34457191022E+03  0.25500000920E-02 0.  1.
    10030    2    1    2    0    0  0.00000000000E+00  0.00000000000E+00  0.53541898012E+03  0.12245628006E+04  0.11013085708E+04 0.  0.
        3    1    3    3  502    0  0.14112932007E+03  0.40946800250E+03 -0.11040512068E+03  0.44695730325E+03  0.10100000352E+00 0.  1.
       -3    1    3    3    0  502 -0.14112932007E+03 -0.40946800250E+03  0.64582410080E+03  0.77760549730E+03  0.10100000352E+00 0. -1.
</event>
<event>
 5   0  0.5723194E-03  0.9567505E+03  0.7818609E-02  0.9357295E-01
        2   -1    0    0  501    0  0.00000000000E+00  0.00000000000E+00  0.23660632955E+03  0.23660632956E+03  0.25500000920E-02 0.  1.
       -2   -1    0    0    0  501  0.00000000000E+00  0.00000000000E+00 -0.96718835607E+03  0.96718835608E+03  0.25500000920E-02 0. -1.
    10030    2    1    2    0    0  0.00000000000E+00  0.00000000000E+00 -0.73058202653E+03  0.12037946856E+04  0.95675051486E+03 0.  0.
        1    1    3    3  502    0 -0.34991555712E+01  0.12298378078E+03 -0.94694097178E+03  0.95490023483E+03  0.50400001928E-02 0. -1.
       -1    1    3    3    0  502  0.34991555712E+01 -0.12298378078E+03  0.21635894525E+03  0.24889445080E+03  0.50400001928E-02 0.  1.
</event>
<event>
 5   0  0.5627232E-03  0.1084067E+04  0.7818609E-02  0.9220862E-01
       -2   -1    0    0    0  501  0.00000000000E+00  0.00000000000E+00  0.16160980139E+03  0.16160980141E+03  0.25500000920E-02 0.  1.
        2   -1    0    0  501    0  0.00000000000E+00  0.00000000000E+00 -0.18179614240E+04  0.18179614240E+04  0.25500000920E-02 0. -1.
    10030    2    1    2    0    0  0.00000000000E+00  0.00000000000E+00 -0.16563516227E+04  0.19795712255E+04  0.10840671284E+04 0.  0.
        2    1    3    3  502    0  0.47689101378E+03 -0.14191976733E+03 -0.12208173831E+04  0.13183176181E+04  0.25500000920E-02 0.  1.
       -2    1    3    3    0  502 -0.47689101378E+03  0.14191976733E+03 -0.43553423958E+03  0.66125360735E+03  0.25500000920E-02 0. -1.
</event>
<event>
 5   0  0.5500363E-03  0.1095148E+04  0.7818609E-02  0.9209934E-01
        2   -1    0    0  501    0  0.00000000000E+00  0.00000000000E+00  0.16681049489E+04  0.16681049489E+04  0.25500000920E-02 0. -1.
       -2   -1    0    0    0  501  0.00000000000E+00  0.00000000000E+00 -0.17974737228E+03  0.17974737230E+03  0.25500000920E-02 0.  1.
    10030    2    1    2    0    0  0.00000000000E+00  0.00000000000E+00  0.14883575766E+04  0.18478523212E+04  0.10951483576E+04 0.  0.
        3    1    3    3  502    0  0.24969486682E+03 -0.22231258686E+03  0.12449111044E+02  0.33455254200E+03  0.10100000352E+00 0.  1.
       -3    1    3    3    0  502 -0.24969486682E+03  0.22231258686E+03  0.14759084655E+04  0.15132997792E+04  0.10100000352E+00 0. -1.
</event>
<event>
 5   0  0.3328741E-03  0.9735145E+03  0.7818609E-02  0.9338080E-01
        1   -1    0    0  501    0  0.00000000000E+00  0.00000000000E+00  0.80516351375E+03  0.80516351376E+03  0.50400001928E-02 0.  1.
       -1   -1    0    0    0  501  0.00000000000E+00  0.00000000000E+00 -0.29426645538E+03  0.29426645542E+03  0.50400001928E-02 0. -1.
    10030    2    1    2    0    0  0.00000000000E+00  0.00000000000E+00  0.51089705837E+03  0.10994299692E+04  0.97351448519E+03 0.  0.
        3    1    3    3  502    0  0.48508582822E+03 -0.73966041321E+01  0.30019143109E+03  0.57050668357E+03  0.10100000352E+00 0. -1.
       -3    1    3    3    0  502 -0.48508582822E+03  0.73966041321E+01  0.21070562728E+03  0.52892328561E+03  0.10100000352E+00 0.  1.
</event>
<event>
 5   0  0.5941585E-03  0.1092098E+04  0.7818609E-02  0.9212929E-01
       -2   -1    0    0    0  501  0.00000000000E+00  0.00000000000E+00  0.86271827969E+03  0.86271827969E+03  0.25500000920E-02 0.  1.
        2   -1    0    0  501    0  0.00000000000E+00  0.00000000000E+00 -0.34561601913E+03  0.34561601914E+03  0.25500000920E-02 0. -1.
    10030    2    1    2    0    0  0.00000000000E+00  0.00000000000E+00  0.51710226055E+03  0.12083342988E+04  0.10920975368E+04 0.  0.
        5    1    3    3  502    0 -0.46157506669E+03  0.96697885812E+02 -0.45959931701E+02  0.47385274995E+03  0.46999998093E+01 0. -1.
       -5    1    3    3    0  502  0.46157506669E+03 -0.96697885812E+02  0.56306219226E+03  0.73448154889E+03  0.46999998093E+01 0.  1.
</event>
<event>
 5   0  0.3241189E-03  0.1164862E+04  0.7818609E-02  0.9144181E-01
        1   -1    0    0  501    0  0.00000000000E+00  0.00000000000E+00  0.57322822827E+03  0.57322822829E+03  0.50400001928E-02 0. -1.
       -1   -1    0    0    0  501  0.00000000000E+00  0.00000000000E+00 -0.59178198670E+03  0.59178198672E+03  0.50400001928E-02 0.  1.
    10030    2    1    2    0    0  0.00000000000E+00  0.00000000000E+00 -0.18553758431E+02  0.11650102150E+04  0.11648624636E+04 0.  0.
        5    1    3    3  502    0  0.11660568043E+03 -0.96845921134E+02 -0.57168976899E+03  0.59146200141E+03  0.46999998093E+01 0.  1.
       -5    1    3    3    0  502 -0.11660568043E+03  0.96845921134E+02  0.55313601056E+03  0.57354821360E+03  0.46999998093E+01 0. -1.
</event>
<event>
 5   0  0.3328741E-03  0.1095122E+04  0.7818609E-02  0.9209959E-01
        1   -1    0    0  501    0  0.00000000000E+00  0.00000000000E+00  0.20291666436E+04  0.20291666437E+04  0.50400001928E-02 0.  1.
       -1   -1    0    0    0  501  0.00000000000E+00  0.00000000000E+00 -0.14775676690E+03  0.14775676698E+03  0.50400001928E-02 0. -1.
    10030    2    1    2    0    0  0.00000000000E+00  0.00000000000E+00  0.18814098767E+04  0.21769234106E+04  0.10951220989E+04 0.  0.
        3    1    3    3  502    0 -0.24382709173E+03 -0.21008641719E+03  0.60124576379E+02  0.32741858261E+03  0.10100000352E+00 0. -1.
       -3    1    3    3    0  502  0.24382709173E+03  0.21008641719E+03  0.18212853004E+04  0.18495048280E+04  0.10100000352E+00 0.  1.
</event>
<event>
 5   0  0.5500363E-03  0.1081319E+04  0.7818609E-02  0.9223593E-01
       -2   -1    0    0    0  501  0.00000000000E+00  0.00000000000E+00  0.47100921780E+03  0.47100921780E+03  0.25500000920E-02 0.  1.
        2   -1    0    0  501    0  0.00000000000E+00  0.00000000000E+00 -0.62060984031E+03  0.62060984032E+03  0.25500000920E-02 0. -1.
    10030    2    1    2    0    0  0.00000000000E+00  0.00000000000E+00 -0.14960062252E+03  0.10916190581E+04  0.10813194818E+04 0.  0.
        3    1    3    3  502    0 -0.87169452050E+02 -0.26500495184E+03  0.39273818320E+03  0.48173584942E+03  0.10100000352E+00 0.  1.
       -3    1    3    3    0  502  0.87169452050E+02  0.26500495184E+03 -0.54233880572E+03  0.60988320870E+03  0.10100000352E+00 0. -1.
</event>
<event>
 5   0  0.3215352E-03  0.1048836E+04  0.7818609E-02  0.9256547E-01
        1   -1    0    0  501    0  0.00000000000E+00  0.00000000000E+00  0.36964121627E+03  0.36964121630E+03  0.50400001928E-02 0.  1.
       -1   -1    0    0    0  501  0.00000000000E+00  0.00000000000E+00 -0.74400278945E+03  0.74400278947E+03  0.50400001928E-02 0. -1.
    10030    2    1    2    0    0  0.00000000000E+00  0.00000000000E+00 -0.37436157318E+03  0.11136440058E+04  0.10488357279E+04 0.  0.
        1    1    3    3  502    0  0.24159372683E+02 -0.41873315938E+03  0.14706067049E+03  0.44446369355E+03  0.50400001928E-02 0.  1.
       -1    1    3    3    0  502 -0.24159372683E+02  0.41873315938E+03 -0.52142224367E+03  0.66918031222E+03  0.50400001928E-02 0. -1.
</event>
<event>
 5   0  0.3328741E-03  0.1108377E+04  0.7818609E-02  0.9197066E-01
        1   -1    0    0  501    0  0.00000000000E+00  0.00000000000E+00  0.12629201399E+04  0.12629201399E+04  0.50400001928E-02 0. -1.
       -1   -1    0    0    0  501  0.00000000000E+00  0.00000000000E+00 -0.24318615668E+03  0.24318615673E+03  0.50400001928E-02 0.  1.
    10030    2    1    2    0    0  0.00000000000E+00  0.00000000000E+00  0.10197339832E+04  0.15061062966E+04  0.11083766419E+04 0.  0.
        3    1    3    3  502    0  0.45960131374E+03  0.97028267092E+02  0.90946024457E+03  0.10236043175E+04  0.10100000352E+00 0. -1.
       -3    1    3    3    0  502 -0.45960131374E+03 -0.97028267092E+02  0.11027373865E+03  0.48250197910E+03  0.10100000352E+00 0.  1.
</event>
<event>
 5   0  0.3320192E-03  0.1100446E+04  0.7818609E-02  0.9204757E-01
        1   -1    0    0  501    0  0.00000000000E+00  0.00000000000E+00  0.17273944425E+04  0.17273944425E+04  0.50400001928E-02 0. -1.
       -1   -1    0    0    0  501  0.00000000000E+00  0.00000000000E+00 -0.17526122377E+03  0.17526122384E+03  0.50400001928E-02 0.  1.
    10030    2    1    2    0    0  0.00000000000E+00  0.00000000000E+00  0.15521332187E+04  0.19026556663E+04  0.11004458442E+04 0.  0.
        2    1    3    3  502    0 -0.22655721785E+03 -0.78259861771E+02 -0.80248576253E+02  0.25276988136E+03  0.25500000920E-02 0.  1.
       -2    1    3    3    0  502  0.22655721785E+03  0.78259861771E+02  0.16323817949E+04  0.16498857849E+04  0.25500000920E-02 0. -1.
</event>
<event>
 5   0  0.3241189E-03  0.1083904E+04  0.7818609E-02  0.9221023E-01
       -1   -1    0    0    0  501  0.00000000000E+00  0.00000000000E+00  0.22686489232E+03  0.22686489238E+03  0.50400001928E-02 0. -1.
        1   -1    0    0  501    0  0.00000000000E+00  0.00000000000E+00 -0.12946563797E+04  0.12946563797E+04  0.50400001928E-02 0.  1.
    10030    2    1    2    0    0  0.00000000000E+00  0.00000000000E+00 -0.10677914874E+04  0.15215212721E+04  0.10839042028E+04 0.  0.
        5    1    3    3  502    0  0.20257433844E+03  0.18669775408E+03 -0.11890048698E+04  0.12205109931E+04  0.46999998093E+01 0.  1.
       -5    1    3    3    0  502 -0.20257433844E+03 -0.18669775408E+03  0.12121338240E+03  0.30101027897E+03  0.46999998093E+01 0. -1.
</event>
<event>
 5   0  0.5946359E-03  0.1142488E+04  0.7818609E-02  0.9164742E-01
       -2   -1    0    0    0  501  0.00000000000E+00  0.00000000000E+00  0.19675595159E+03  0.19675595161E+03  0.25500000920E-02 0.  1.
        2   -1    0    0  501    0  0.00000000000E+00  0.00000000000E+00 -0.16584984834E+04  0.16584984834E+04  0.25500000920E-02 0. -1.
    10030    2    1    2    0    0  0.00000000000E+00  0.00000000000E+00 -0.14617425318E+04  0.18552544350E+04  0.11424875445E+04 0.  0.
        4    1    3    3  502    0 -0.56561347818E+03  0.68561421597E+02 -0.66394565445E+03  0.87489697690E+03  0.12699999809E+01 0.  1.
       -4    1    3    3    0  502  0.56561347818E+03 -0.68561421597E+02 -0.79779687737E+03  0.98035745811E+03  0.12699999809E+01 0. -1.
</event>
<event>
 5   0  0.5723194E-03  0.1090692E+04  0.7818609E-02  0.9214312E-01
        2   -1    0    0  501    0  0.00000000000E+00  0.00000000000E+00  0.86110468926E+03  0.86110468927E+03  0.25500000920E-02 0.  1.
       -2   -1    0    0    0  501  0.00000000000E+00  0.00000000000E+00 -0.34537295005E+03  0.34537295006E+03  0.25500000920E-02 0. -1.
    10030    2    1    2    0    0  0.00000000000E+00  0.00000000000E+00  0.51573173921E+03  0.12064776393E+04  0.10906920131E+04 0.  0.
        1    1    3    3  502    0  0.15073015834E+03 -0.46551791791E+03  0.52420829370E+03  0.71709193814E+03  0.50400001928E-02 0.  1.
       -1    1    3    3    0  502 -0.15073015834E+03  0.46551791791E+03 -0.84765544939E+01  0.48938570119E+03  0.50400001928E-02 0. -1.
</event>
<event>
 5   0  0.3316784E-03  0.1107647E+04  0.7818609E-02  0.9197770E-01
       -1   -1    0    0    0  501  0.00000000000E+00  0.00000000000E+00  0.31368946446E+03  0.31368946450E+03  0.50400001928E-02 0. -1.
        1   -1    0    0  501    0  0.00000000000E+00  0.00000000000E+00 -0.97778402863E+03  0.97778402864E+03  0.50400001928E-02 0.  1.
    10030    2    1    2    0    0  0.00000000000E+00  0.00000000000E+00 -0.66409456417E+03  0.12914734931E+04  0.11076471430E+04 0.  0.
        4    1    3    3  502    0  0.50986001038E+03 -0.66682000421E+02 -0.92201355682E+02  0.52240446232E+03  0.12699999809E+01 0. -1.
       -4    1    3    3    0  502 -0.50986001038E+03  0.66682000421E+02 -0.57189320849E+03  0.76906903083E+03  0.12699999809E+01 0.  1.
</event>
<event>
 5   0  0.5627232E-03  0.1097536E+04  0.7818609E-02  0.9207597E-01
       -2   -1    0    0    0  501  0.00000000000E+00  0.00000000000E+00  0.49288392414E+03  0.49288392414E+03  0.25500000920E-02 0.  1.
        2   -1    0    0  501    0  0.00000000000E+00  0.00000000000E+00 -0.61098814123E+03  0.61098814124E+03  0.25500000920E-02 0. -1.
    10030    2    1    2    0    0  0.00000000000E+00  0.00000000000E+00 -0.11810421709E+03  0.11038720654E+04  0.10975358448E+04 0.  0.
        2    1    3    3  502    0  0.40344116679E+03 -0.24438142508E+03 -0.34113368913E+03  0.58211618243E+03  0.25500000920E-02 0. -1.
       -2    1    3    3    0  502 -0.40344116679E+03  0.24438142508E+03  0.22302947204E+03  0.52175588294E+03  0.25500000920E-02 0.  1.
</event>
<event>
 5   0  0.3241189E-03  0.1020803E+04  0.7818609E-02  0.9286018E-01
       -1   -1    0    0    0  501  0.00000000000E+00  0.00000000000E+00  0.24676044154E+03  0.24676044159E+03  0.50400001928E-02 0.  1.
        1   -1    0    0  501    0  0.00000000000E+00  0.00000000000E+00 -0.10557186268E+04  0.10557186268E+04  0.50400001928E-02 0. -1.
    10030    2    1    2    0    0  0.00000000000E+00  0.00000000000E+00 -0.80895818529E+03  0.13024790684E+04  0.10208028106E+04 0.  0.
        5    1    3    3  502    0  0.35902708318E+03 -0.35174224358E+03 -0.51763132670E+03  0.72151738216E+03  0.46999998093E+01 0.  1.
       -5    1    3    3    0  502 -0.35902708318E+03  0.35174224358E+03 -0.29132685859E+03  0.58096168627E+03  0.46999998093E+01 0. -1.
</event>
<event>
 5   0  0.5627232E-03  0.1088400E+04  0.7818609E-02  0.9216573E-01
       -2   -1    0    0    0  501  0.00000000000E+00  0.00000000000E+00  0.35941750763E+03  0.35941750764E+03  0.25500000920E-02 0. -1.
        2   -1    0    0  501    0  0.00000000000E+00  0.00000000000E+00 -0.82398173283E+03  0.82398173283E+03  0.25500000920E-02 0.  1.
    10030    2    1    2    0    0  0.00000000000E+00  0.00000000000E+00 -0.46456422519E+03  0.11833992405E+04  0.10883996706E+04 0.  0.
        2    1    3    3  502    0 -0.21826017458E+03  0.24495157596E+03  0.23979774960E+03  0.40637635154E+03  0.25500000920E-02 0. -1.
       -2    1    3    3    0  502  0.21826017458E+03 -0.24495157596E+03 -0.70436197479E+03  0.77702288893E+03  0.25500000920E-02 0.  1.
</event>
<event>
 5   0  0.3316784E-03  0.1159417E+04  0.7818609E-02  0.9149140E-01
       -1   -1    0    0    0  501  0.00000000000E+00  0.00000000000E+00  0.79871707703E+03  0.79871707704E+03  0.50400001928E-02 0. -1.
        1   -1    0    0  501    0  0.00000000000E+00  0.00000000000E+00 -0.42075218016E+03  0.42075218019E+03  0.50400001928E-02 0.  1.
    10030    2    1    2    0    0  0.00000000000E+00  0.00000000000E+00  0.37796489687E+03  0.12194692572E+04  0.11594170113E+04 0.  0.
        4    1    3    3  502    0 -0.36549354040E+03 -0.38923261716E+03 -0.48482956959E+02  0.53613409549E+03  0.12699999809E+01 0.  1.
       -4    1    3    3    0  502  0.36549354040E+03  0.38923261716E+03  0.42644785383E+03  0.68333516174E+03  0.12699999809E+01 0. -1.
</event>
<event>
 5   0  0.3316784E-03  0.1101101E+04  0.7818609E-02  0.9204119E-01
        1   -1    0    0  501    0  0.00000000000E+00  0.00000000000E+00  0.11273135062E+04  0.11273135062E+04  0.50400001928E-02 0.  1.
       -1   -1    0    0    0  501  0.00000000000E+00  0.00000000000E+00 -0.26887451496E+03  0.26887451500E+03  0.50400001928E-02 0. -1.
    10030    2    1    2    0    0  0.00000000000E+00  0.00000000000E+00  0.85843899128E+03  0.13961880212E+04  0.11011010348E+04 0.  0.
        4    1    3    3  502    0 -0.48942023600E+03 -0.14725368954E+03  0.16970367116E+03  0.53853204677E+03  0.12699999809E+01 0.  1.
       -4    1    3    3    0  502  0.48942023600E+03  0.14725368954E+03  0.68873532011E+03  0.85765597448E+03  0.12699999809E+01 0. -1.
</event>
<event>
 5   0  0.3320192E-03  0.1103397E+04  0.7818609E-02  0.9201887E-01
       -1   -1    0    0    0  501  0.00000000000E+00  0.00000000000E+00  0.66628384096E+03  0.66628384098E+03  0.50400001928E-02 0.  1.
        1   -1    0    0  501    0  0.00000000000E+00  0.00000000000E+00 -0.45681908510E+03  0.45681908513E+03  0.50400001928E-02 0. -1.
    10030    2    1    2    0    0  0.00000000000E+00  0.00000000000E+00  0.20946475586E+03  0.11231029261E+04  0.11033968908E+04 0.  0.
        2    1    3    3  502    0 -0.23118730074E+03 -0.14627818858E+03 -0.38291290671E+03  0.47060298619E+03  0.25500000920E-02 0. -1.
       -2    1    3    3    0  502  0.23118730074E+03  0.14627818858E+03  0.59237766257E+03  0.65249993992E+03  0.25500000920E-02 0.  1.
</event>
<event>
 5   0  0.5627232E-03  0.1097161E+04  0.7818609E-02  0.9207964E-01
       -2   -1    0    0    0  501  0.00000000000E+00  0.00000000000E+00  0.17744408140E+03  0.17744408142E+03  0.25500000920E-02 0. -1.
        2   -1    0    0  501    0  0.00000000000E+00  0.00000000000E+00 -0.16959730069E+04  0.16959730069E+04  0.25500000920E-02 0.  1.
    10030    2    1    2    0    0  0.00000000000E+00  0.00000000000E+00 -0.15185289255E+04  0.18734170883E+04  0.10971606488E+04 0.  0.
        2    1    3    3  502    0  0.48296448268E+02 -0.54519705443E+03 -0.82241933548E+03  0.98789976134E+03  0.25500000920E-02 0.  1.
       -2    1    3    3    0  502 -0.48296448268E+02  0.54519705443E+03 -0.69610959000E+03  0.88551732698E+03  0.25500000920E-02 0. -1.
</event>
<event>
 5   0  0.2185750E-03  0.1097192E+04  0.7818609E-02  0.9207933E-01
       -3   -1    0    0    0  501  0.00000000000E+00  0.00000000000E+00  0.11575789783E+04  0.11575789827E+04  0.10100000352E+00 0. -1.
        3   -1    0    0  501    0  0.00000000000E+00  0.00000000000E+00 -0.25998891438E+03  0.25998893400E+03  0.10100000352E+00 0.  1.
    10030    2    1    2    0    0  0.00000000000E+00  0.00000000000E+00  0.89759006390E+03  0.14175679167E+04  0.10971922692E+04 0.  0.
        2    1    3    3  502    0  0.13831961370E+03 -0.41858396910E+03  0.26937369422E+02  0.44166783515E+03  0.25500000920E-02 0.  1.
       -2    1    3    3    0  502 -0.13831961370E+03  0.41858396910E+03  0.87065269448E+03  0.97590008153E+03  0.25500000920E-02 0. -1.
</event>
<event>
 5   0  0.5941585E-03  0.1094814E+04  0.7818609E-02  0.9210261E-01
       -2   -1    0    0    0  501  0.00000000000E+00  0.00000000000E+00  0.47957422561E+03  0.47957422562E+03  0.25500000920E-02 0. -1.
        2   -1    0    0  501    0  0.00000000000E+00  0.00000000000E+00 -0.62483469538E+03  0.62483469538E+03  0.25500000920E-02 0.  1.
    10030    2    1    2    0    0  0.00000000000E+00  0.00000000000E+00 -0.14526046977E+03  0.11044089210E+04  0.10948143499E+04 0.  0.
        5    1    3    3  502    0  0.12576688867E+03 -0.27593384769E+03  0.38707801138E+03  0.49174004869E+03  0.46999998093E+01 0. -1.
       -5    1    3    3    0  502 -0.12576688867E+03  0.27593384769E+03 -0.53233848115E+03  0.61266887231E+03  0.46999998093E+01 0.  1.
</event>
<event>
 5   0  0.5941585E-03  0.1103401E+04  0.7818609E-02  0.9201883E-01
       -2   -1    0    0    0  501  0.00000000000E+00  0.00000000000E+00  0.33272544493E+03  0.33272544494E+03  0.25500000920E-02 0. -1.
        2   -1    0    0  501    0  0.00000000000E+00  0.00000000000E+00 -0.91478933459E+03  0.91478933459E+03  0.25500000920E-02 0.  1.
    10030    2    1    2    0    0  0.00000000000E+00  0.00000000000E+00 -0.58206388966E+03  0.12475147795E+04  0.11034014471E+04 0.  0.
        5    1    3    3  502    0  0.43851895698E+03  0.26477939987E+03 -0.59479090827E+02  0.51571974799E+03  0.46999998093E+01 0. -1.
       -5    1    3    3    0  502 -0.43851895698E+03 -0.26477939987E+03 -0.52258479883E+03  0.73179503154E+03  0.46999998093E+01 0.  1.
</event>
<event>
 5   0  0.5946359E-03  0.1116344E+04  0.7818609E-02  0.9189407E-01
       -2   -1    0    0    0  501  0.00000000000E+00  0.00000000000E+00  0.21037548006E+03  0.21037548008E+03  0.25500000920E-02 0. -1.
        2   -1    0    0  501    0  0.00000000000E+00  0.00000000000E+00 -0.14809513016E+04  0.14809513016E+04  0.25500000920E-02 0.  1.
    10030    2    1    2    0    0  0.00000000000E+00  0.00000000000E+00 -0.12705758216E+04  0.16913267817E+04  0.11163437482E+04 0.  0.
        4    1    3    3  502    0 -0.31907332382E+03 -0.44926180455E+03 -0.77003683954E+03  0.94689086074E+03  0.12699999809E+01 0.  1.
       -4    1    3    3    0  502  0.31907332382E+03  0.44926180455E+03 -0.50053898202E+03  0.74443592096E+03  0.12699999809E+01 0. -1.
</event>
<event>
 5   0  0.3316784E-03  0.1119970E+04  0.7818609E-02  0.9185943E-01
       -1   -1    0    0    0  501  0.00000000000E+00  0.00000000000E+00  0.22271348906E+03  0.22271348912E+03  0.50400001928E-02 0.  1.
        1   -1    0    0  501    0  0.00000000000E+00  0.00000000000E+00 -0.14080122815E+04  0.14080122815E+04  0.50400001928E-02 0. -1.
    10030    2    1    2    0    0  0.00000000000E+00  0.00000000000E+00 -0.11852987924E+04  0.16307257706E+04  0.11199702280E+04 0.  0.
        4    1    3    3  502    0 -0.31954150138E+03 -0.43341777812E+03 -0.81644467993E+03  0.97802927859E+03  0.12699999809E+01 0. -1.
       -4    1    3    3    0  502  0.31954150138E+03  0.43341777812E+03 -0.36885411251E+03  0.65269649203E+03  0.12699999809E+01 0.  1.
</event>
<event>
 5   0  0.3320192E-03  0.1083621E+04  0.7818609E-02  0.9221304E-01
        1   -1    0    0  501    0  0.00000000000E+00  0.00000000000E+00  0.12318595925E+04  0.12318595925E+04  0.50400001928E-02 0. -1.
       -1   -1    0    0    0  501  0.00000000000E+00  0.00000000000E+00 -0.23830543267E+03  0.23830543273E+03  0.50400001928E-02 0.  1.
    10030    2    1    2    0    0  0.00000000000E+00  0.00000000000E+00  0.99355415986E+03  0.14701650253E+04  0.10836213974E+04 0.  0.
        2    1    3    3  502    0 -0.98206006225E+02  0.83411441293E+02 -0.21721705573E+03  0.25255719650E+03  0.25500000920E-02 0.  1.
       -2    1    3    3    0  502  0.98206006225E+02 -0.83411441293E+02  0.12107712156E+04  0.12176078288E+04  0.25500000920E-02 0. -1.
</event>
<event>
 5   0  0.5627232E-03  0.1097660E+04  0.7818609E-02  0.9207475E-01
        2   -1    0    0  501    0  0.00000000000E+00  0.00000000000E+00  0.10870946896E+04  0.10870946896E+04  0.25500000920E-02 0.  1.
       -2   -1    0    0    0  501  0.00000000000E+00  0.00000000000E+00 -0.27708213084E+03  0.27708213085E+03  0.25500000920E-02 0. -1.
    10030    2    1    2    0    0  0.00000000000E+00  0.00000000000E+00  0.81001255875E+03  0.13641768204E+04  0.10976602626E+04 0.  0.
        2    1    3    3  502    0  0.53591968253E+03 -0.82572280962E+02  0.51036225712E+03  0.74464603753E+03  0.25500000920E-02 0.  1.
       -2    1    3    3    0  502 -0.53591968253E+03  0.82572280962E+02  0.29965030164E+03  0.61953078292E+03  0.25500000920E-02 0. -1.
</event>
<event>
 5   0  0.3320192E-03  0.1123926E+04  0.7818609E-02  0.9182181E-01
        1   -1    0    0  501    0  0.00000000000E+00  0.00000000000E+00  0.80305384829E+03  0.80305384830E+03  0.50400001928E-02 0.  1.
       -1   -1    0    0    0  501  0.00000000000E+00  0.00000000000E+00 -0.39325180989E+03  0.39325180992E+03  0.50400001928E-02 0. -1.
    10030    2    1    2    0    0  0.00000000000E+00  0.00000000000E+00  0.40980203840E+03  0.11963056582E+04  0.11239259394E+04 0.  0.
        2    1    3    3  502    0  0.24595024411E+03  0.14557454091E+03  0.71991937594E+03  0.77457561116E+03  0.25500000920E-02 0.  1.
       -2    1    3    3    0  502 -0.24595024411E+03 -0.14557454091E+03 -0.31011733755E+03  0.42173004706E+03  0.25500000920E-02 0. -1.
</event>
<event>
 5   0  0.5500363E-03  0.1095562E+04  0.7818609E-02  0.9209528E-01
        2   -1    0    0  501    0  0.00000000000E+00  0.00000000000E+00  0.90432775131E+03  0.90432775131E+03  0.25500000920E-02 0.  1.
       -2   -1    0    0    0  501  0.00000000000E+00  0.00000000000E+00 -0.33180882124E+03  0.33180882125E+03  0.25500000920E-02 0. -1.
    10030    2    1    2    0    0  0.00000000000E+00  0.00000000000E+00  0.57251893007E+03  0.12361365726E+04  0.10955618197E+04 0.  0.
        3    1    3    3  502    0 -0.37848562912E+03 -0.23692970284E+02 -0.15974707726E+03  0.41149953485E+03  0.10100000352E+00 0. -1.
       -3    1    3    3    0  502  0.37848562912E+03  0.23692970284E+02  0.73226600732E+03  0.82463703771E+03  0.10100000352E+00 0.  1.
</event>
<event>
 5   0  0.5941585E-03  0.1096170E+04  0.7818609E-02  0.9208933E-01
        2   -1    0    0  501    0  0.00000000000E+00  0.00000000000E+00  0.88508159479E+03  0.88508159479E+03  0.25500000920E-02 0.  1.
       -2   -1    0    0    0  501  0.00000000000E+00  0.00000000000E+00 -0.33940046270E+03  0.33940046271E+03  0.25500000920E-02 0. -1.
    10030    2    1    2    0    0  0.00000000000E+00  0.00000000000E+00  0.54568113209E+03  0.12244820575E+04  0.10961698825E+04 0.  0.
        5    1    3    3  502    0 -0.33227396011E+02 -0.28092152556E+03 -0.25152610280E+03  0.37856100401E+03  0.46999998093E+01 0. -1.
       -5    1    3    3    0  502  0.33227396011E+02  0.28092152556E+03  0.79720723490E+03  0.84592105349E+03  0.46999998093E+01 0.  1.
</event>
<event>
 5   0  0.3241189E-03  0.1115068E+04  0.7818609E-02  0.9190629E-01
        1   -1    0    0  501    0  0.00000000000E+00  0.00000000000E+00  0.85876986961E+03  0.85876986962E+03  0.50400001928E-02 0. -1.
       -1   -1    0    0    0  501  0.00000000000E+00  0.00000000000E+00 -0.36196445031E+03  0.36196445034E+03  0.50400001928E-02 0.  1.
    10030    2    1    2    0    0  0.00000000000E+00  0.00000000000E+00  0.49680541930E+03  0.12207343200E+04  0.11150680048E+04 0.  0.
        5    1    3    3  502    0  0.18840933743E+03 -0.28184534627E+03 -0.23612969261E+03  0.41317574877E+03  0.46999998093E+01 0.  1.
       -5    1    3    3    0  502 -0.18840933743E+03  0.28184534627E+03  0.73293511191E+03  0.80755857119E+03  0.46999998093E+01 0. -1.
</event>
<event>
 5   0  0.3328741E-03  0.1226924E+04  0.7818609E-02  0.9089611E-01
       -1   -1    0    0    0  501  0.00000000000E+00  0.00000000000E+00  0.17758961703E+03  0.17758961710E+03  0.50400001928E-02 0. -1.
        1   -1    0    0  501    0  0.00000000000E+00  0.00000000000E+00 -0.21191306940E+04  0.21191306940E+04  0.50400001928E-02 0.  1.
    10030    2    1    2    0    0  0.00000000000E+00  0.00000000000E+00 -0.19415410770E+04  0.22967203111E+04  0.12269239723E+04 0.  0.
        3    1    3    3  502    0  0.24889312462E+03 -0.27388615308E+02  0.77575290545E+02  0.26213710084E+03  0.10100000352E+00 0. -1.
       -3    1    3    3    0  502 -0.24889312462E+03  0.27388615308E+02 -0.20191163675E+04  0.20345832103E+04  0.10100000352E+00 0.  1.
</event>
<event>
 5   0  0.5500363E-03  0.1099029E+04  0.7818609E-02  0.9206139E-01
       -2   -1    0    0    0  501  0.00000000000E+00  0.00000000000E+00  0.21345141320E+03  0.21345141321E+03  0.25500000920E-02 0.  1.
        2   -1    0    0  501    0  0.00000000000E+00  0.00000000000E+00 -0.14146830200E+04  0.14146830201E+04  0.25500000920E-02 0. -1.
    10030    2    1    2    0    0  0.00000000000E+00  0.00000000000E+00 -0.12012316068E+04  0.16281344333E+04  0.10990288256E+04 0.  0.
        3    1    3    3  502    0  0.12176976434E+03 -0.51143314505E+03 -0.36370579135E+03  0.63927587959E+03  0.10100000352E+00 0.  1.
       -3    1    3    3    0  502 -0.12176976434E+03  0.51143314505E+03 -0.83752581550E+03  0.98885855368E+03  0.10100000352E+00 0. -1.
</event>
<event>
 5   0  0.5723194E-03  0.1092945E+04  0.7818609E-02  0.9212095E-01
        2   -1    0    0  501    0  0.00000000000E+00  0.00000000000E+00  0.60872746673E+03  0.60872746673E+03  0.25500000920E-02 0. -1.
       -2   -1    0    0    0  501  0.00000000000E+00  0.00000000000E+00 -0.49058444504E+03  0.49058444504E+03  0.25500000920E-02 0.  1.
    10030    2    1    2    0    0  0.00000000000E+00  0.00000000000E+00  0.11814302169E+03  0.10993119118E+04  0.10929450607E+04 0.  0.
        1    1    3    3  502    0 -0.27877878202E+03 -0.33306791612E+03 -0.27449328615E+03  0.51380775610E+03  0.50400001928E-02 0.  1.
       -1    1    3    3    0  502  0.27877878202E+03  0.33306791612E+03  0.39263630784E+03  0.58550415568E+03  0.50400001928E-02 0. -1.
</event>
<event>
 5   0  0.5723194E-03  0.1102192E+04  0.7818609E-02  0.9203058E-01
        2   -1    0    0  501    0  0.00000000000E+00  0.00000000000E+00  0.72138956886E+03  0.72138956887E+03  0.25500000920E-02 0.  1.
       -2   -1    0    0    0  501  0.00000000000E+00  0.00000000000E+00 -0.42100265520E+03  0.42100265521E+03  0.25500000920E-02 0. -1.
    10030    2    1    2    0    0  0.00000000000E+00  0.00000000000E+00  0.30038691366E+03  0.11423922241E+04  0.11021922227E+04 0.  0.
        1    1    3    3  502    0 -0.73789102435E+02  0.16527475609E+03  0.68970351581E+03  0.71305786327E+03  0.50400001928E-02 0.  1.
       -1    1    3    3    0  502  0.73789102435E+02 -0.16527475609E+03 -0.38931660214E+03  0.42933436080E+03  0.50400001928E-02 0. -1.
</event>
<event>
 5   0  0.5627232E-03  0.1087152E+04  0.7818609E-02  0.9217806E-01
        2   -1    0    0  501    0  0.00000000000E+00  0.00000000000E+00  0.50240171924E+03  0.50240171925E+03  0.25500000920E-02 0.  1.
       -2   -1    0    0    0  501  0.00000000000E+00  0.00000000000E+00 -0.58812466191E+03  0.58812466192E+03  0.25500000920E-02 0. -1.
    10030    2    1    2    0    0  0.00000000000E+00  0.00000000000E+00 -0.85722942673E+02  0.10905263812E+04  0.10871519513E+04 0.  0.
        2    1    3    3  502    0 -0.22458233263E+03 -0.73203558784E+02  0.44822818649E+03  0.50666013493E+03  0.25500000920E-02 0.  1.
       -2    1    3    3    0  502  0.22458233263E+03  0.73203558784E+02 -0.53395112917E+03  0.58386624624E+03  0.25500000920E-02 0. -1.
</event>
<event>
 5   0  0.3215352E-03  0.1049677E+04  0.7818609E-02  0.9255678E-01
       -1   -1    0    0    0  501  0.00000000000E+00  0.00000000000E+00  0.13939219862E+03  0.13939219871E+03  0.50400001928E-02 0. -1.
        1   -1    0    0  501    0  0.00000000000E+00  0.00000000000E+00 -0.19761180845E+04  0.19761180845E+04  0.50400001928E-02 0.  1.
    10030    2    1    2    0    0  0.00000000000E+00  0.00000000000E+00 -0.18367258859E+04  0.21155102832E+04  0.10496769877E+04 0.  0.
        1    1    3    3  502    0 -0.34662492573E+02  0.24986212293E+03 -0.18459312353E+04  0.18630874092E+04  0.50400001928E-02 0.  1.
       -1    1    3    3    0  502  0.34662492573E+02 -0.24986212293E+03  0.92053493753E+01  0.25242287406E+03  0.50400001928E-02 0. -1.
</event>
<event>
 5   0  0.5723194E-03  0.1105242E+04  0.7818609E-02  0.9200097E-01
       -2   -1    0    0    0  501  0.00000000000E+00  0.00000000000E+00  0.22403086376E+03  0.22403086378E+03  0.25500000920E-02 0. -1.
        2   -1    0    0  501    0  0.00000000000E+00  0.00000000000E+00 -0.13631608469E+04  0.13631608469E+04  0.25500000920E-02 0.  1.
    10030    2    1    2    0    0  0.00000000000E+00  0.00000000000E+00 -0.11391299831E+04  0.15871917107E+04  0.11052422395E+04 0.  0.
        1    1    3    3  502    0  0.53953286550E+03  0.52699143841E+02 -0.41544990160E+03  0.68298721326E+03  0.50400001928E-02 0.  1.
       -1    1    3    3    0  502 -0.53953286550E+03 -0.52699143841E+02 -0.72368008151E+03  0.90420449740E+03  0.50400001928E-02 0. -1.
</event>
<event>
 5   0  0.5946359E-03  0.1072044E+04  0.7818609E-02  0.9232877E-01
        2   -1    0    0  501    0  0.00000000000E+00  0.00000000000E+00  0.13386161633E+04  0.13386161633E+04  0.25500000920E-02 0. -1.
       -2   -1    0    0    0  501  0.00000000000E+00  0.00000000000E+00 -0.21463907133E+03  0.21463907134E+03  0.25500000920E-02 0.  1.
    10030    2    1    2    0    0  0.00000000000E+00  0.00000000000E+00  0.11239770919E+04  0.15532552346E+04  0.10720435255E+04 0.  0.
        4    1    3    3  502    0  0.38619093188E+03 -0.36612432489E+03  0.46890748435E+03  0.70927166793E+03  0.12699999809E+01 0. -1.
       -4    1    3    3    0  502 -0.38619093188E+03  0.36612432489E+03  0.65506960757E+03  0.84398356667E+03  0.12699999809E+01 0.  1.
</event>
<event>
 5   0  0.5500363E-03  0.1101895E+04  0.7818609E-02  0.9203347E-01
        2   -1    0    0  501    0  0.00000000000E+00  0.00000000000E+00  0.75811960989E+03  0.75811960989E+03  0.25500000920E-02 0.  1.
       -2   -1    0    0    0  501  0.00000000000E+00  0.00000000000E+00 -0.40038968735E+03  0.40038968736E+03  0.25500000920E-02 0. -1.
    10030    2    1    2    0    0  0.00000000000E+00  0.00000000000E+00  0.35772992254E+03  0.11585092972E+04  0.11018952284E+04 0.  0.
        3    1    3    3  502    0  0.81440140324E+02  0.17228969575E+03 -0.36463486746E+03  0.41143022797E+03  0.10100000352E+00 0. -1.
       -3    1    3    3    0  502 -0.81440140324E+02 -0.17228969575E+03  0.72236479000E+03  0.74707906928E+03  0.10100000352E+00 0.  1.
</event>
<event>
 5   0  0.3241189E-03  0.1069603E+04  0.7818609E-02  0.9235336E-01
        1   -1    0    0  501    0  0.00000000000E+00  0.00000000000E+00  0.88041118925E+03  0.88041118926E+03  0.50400001928E-02 0.  1.
       -1   -1    0    0    0  501  0.00000000000E+00  0.00000000000E+00 -0.32486247213E+03  0.32486247217E+03  0.50400001928E-02 0. -1.
    10030    2    1    2    0    0  0.00000000000E+00  0.00000000000E+00  0.55554871712E+03  0.12052736614E+04  0.10696028337E+04 0.  0.
        5    1    3    3  502    0  0.34932287547E+03  0.43557064137E+02 -0.17586436325E+03  0.39354040888E+03  0.46999998093E+01 0. -1.
       -5    1    3    3    0  502 -0.34932287547E+03 -0.43557064137E+02  0.73141308037E+03  0.81173325255E+03  0.46999998093E+01 0.  1.
</event>
<event>
 5   0  0.3320192E-03  0.1105285E+04  0.7818609E-02  0.9200056E-01
       -1   -1    0    0    0  501  0.00000000000E+00  0.00000000000E+00  0.19397501494E+03  0.19397501501E+03  0.50400001928E-02 0. -1.
        1   -1    0    0  501    0  0.00000000000E+00  0.00000000000E+00 -0.15744995937E+04  0.15744995937E+04  0.50400001928E-02 0.  1.
    10030    2    1    2    0    0  0.00000000000E+00  0.00000000000E+00 -0.13805245788E+04  0.17684746087E+04  0.11052847276E+04 0.  0.
        2    1    3    3  502    0 -0.29192246846E+03  0.23400625124E+03 -0.39474228528E+02  0.37621253027E+03  0.25500000920E-02 0. -1.
       -2    1    3    3    0  502  0.29192246846E+03 -0.23400625124E+03 -0.13410503502E+04  0.13922620784E+04  0.25500000920E-02 0.  1.
</event>
<event>
 5   0  0.5723194E-03  0.1125845E+04  0.7818609E-02  0.9180362E-01
       -2   -1    0    0    0  501  0.00000000000E+00  0.00000000000E+00  0.36887977688E+03  0.36887977689E+03  0.25500000920E-02 0. -1.
        2   -1    0    0  501    0  0.00000000000E+00  0.00000000000E+00 -0.85903731270E+03  0.85903731271E+03  0.25500000920E-02 0.  1.
    10030    2    1    2    0    0  0.00000000000E+00  0.00000000000E+00 -0.49015753583E+03  0.12279170896E+04  0.11258445581E+04 0.  0.
        1    1    3    3  502    0  0.22724399315E+03  0.20522166810E+03  0.27010887158E+03  0.40830695317E+03  0.50400001928E-02 0. -1.
       -1    1    3    3    0  502 -0.22724399315E+03 -0.20522166810E+03 -0.76026640740E+03  0.81961013642E+03  0.50400001928E-02 0.  1.
</event>
<event>
 5   0  0.5946359E-03  0.1102087E+04  0.7818609E-02  0.9203160E-01
       -2   -1    0    0    0  501  0.00000000000E+00  0.00000000000E+00  0.61506804544E+03  0.61506804544E+03  0.25500000920E-02 0. -1.
        2   -1    0    0  501    0  0.00000000000E+00  0.00000000000E+00 -0.49368369816E+03  0.49368369817E+03  0.25500000920E-02 0.  1.
    10030    2    1    2    0    0  0.00000000000E+00  0.00000000000E+00  0.12138434728E+03  0.11087517436E+04  0.11020872330E+04 0.  0.
        4    1    3    3  502    0 -0.19497591487E+03 -0.28022535986E+03 -0.37448061516E+03  0.50673385886E+03  0.12699999809E+01 0.  1.
       -4    1    3    3    0  502  0.19497591487E+03  0.28022535986E+03  0.49586496244E+03  0.60201788475E+03  0.12699999809E+01 0. -1.
</event>
<event>
 5   0  0.5500363E-03  0.1102119E+04  0.7818609E-02  0.9203129E-01
       -2   -1    0    0    0  501  0.00000000000E+00  0.00000000000E+00  0.95880554806E+03  0.95880554807E+03  0.25500000920E-02 0. -1.
        2   -1    0    0  501    0  0.00000000000E+00  0.00000000000E+00 -0.31671334461E+03  0.31671334462E+03  0.25500000920E-02 0.  1.
    10030    2    1    2    0    0  0.00000000000E+00  0.00000000000E+00  0.64209220345E+03  0.12755188927E+04  0.11021188901E+04 0.  0.
        3    1    3    3  502    0 -0.99771404845E+02  0.19284012978E+02  0.94786821890E+03  0.95329973093E+03  0.10100000352E+00 0. -1.
       -3    1    3    3    0  502  0.99771404845E+02 -0.19284012978E+02 -0.30577601545E+03  0.32221916176E+03  0.10100000352E+00 0.  1.
</event>
<event>
 5   0  0.3215352E-03  0.1078577E+04  0.7818609E-02  0.9226327E-01
       -1   -1    0    0    0  501  0.00000000000E+00  0.00000000000E+00  0.66897425240E+03  0.66897425242E+03  0.50400001928E-02 0.  1.
        1   -1    0    0  501    0  0.00000000000E+00  0.00000000000E+00 -0.43474336490E+03  0.43474336493E+03  0.50400001928E-02 0. -1.
    10030    2    1    2    0    0  0.00000000000E+00  0.00000000000E+00  0.23423088750E+03  0.11037176174E+04  0.10785770581E+04 0.  0.
        1    1    3    3  502    0  0.14875764559E+02 -0.23933653889E+03 -0.37718501889E+03  0.44695839372E+03  0.50400001928E-02 0. -1.
       -1    1    3    3    0  502 -0.14875764559E+02  0.23933653889E+03  0.61141590639E+03  0.65675922364E+03  0.50400001928E-02 0.  1.
</event>
<event>
 5   0  0.5627232E-03  0.1120942E+04  0.7818609E-02  0.9185017E-01
       -2   -1    0    0    0  501  0.00000000000E+00  0.00000000000E+00  0.15659417557E+03  0.15659417559E+03  0.25500000920E-02 0.  1.
        2   -1    0    0  501    0  0.00000000000E+00  0.00000000000E+00 -0.20059991472E+04  0.20059991472E+04  0.25500000920E-02 0. -1.
    10030    2    1    2    0    0  0.00000000000E+00  0.00000000000E+00 -0.18494049716E+04  0.21625933228E+04  0.11209420729E+04 0.  0.
        2    1    3    3  502    0 -0.52194548812E+03 -0.50352647268E+01 -0.13185528430E+04  0.14181093210E+04  0.25500000920E-02 0. -1.
       -2    1    3    3    0  502  0.52194548812E+03  0.50352647268E+01 -0.53085212855E+03  0.74448400174E+03  0.25500000920E-02 0.  1.
</event>
<event>
 5   0  0.3215352E-03  0.1119646E+04  0.7818609E-02  0.9186253E-01
        1   -1    0    0  501    0  0.00000000000E+00  0.00000000000E+00  0.25278091124E+03  0.25278091129E+03  0.50400001928E-02 0.  1.
       -1   -1    0    0    0  501  0.00000000000E+00  0.00000000000E+00 -0.12398149679E+04  0.12398149679E+04  0.50400001928E-02 0. -1.
    10030    2    1    2    0    0  0.00000000000E+00  0.00000000000E+00 -0.98703405667E+03  0.14925958792E+04  0.11196455821E+04 0.  0.
        1    1    3    3  502    0  0.41441410512E+03 -0.14659273261E+03 -0.31385861286E+02  0.44069666676E+03  0.50400001928E-02 0.  1.
       -1    1    3    3    0  502 -0.41441410512E+03  0.14659273261E+03 -0.95564819538E+03  0.10518992124E+04  0.50400001928E-02 0. -1.
</event>
<event>
 5   0  0.3320192E-03  0.1097123E+04  0.7818609E-02  0.9208000E-01
       -1   -1    0    0    0  501  0.00000000000E+00  0.00000000000E+00  0.35197736254E+03  0.35197736257E+03  0.50400001928E-02 0. -1.
        1   -1    0    0  501    0  0.00000000000E+00  0.00000000000E+00 -0.85494097835E+03  0.85494097837E+03  0.50400001928E-02 0.  1.
    10030    2    1    2    0    0  0.00000000000E+00  0.00000000000E+00 -0.50296361581E+03  0.12069183409E+04  0.10971232761E+04 0.  0.
        2    1    3    3  502    0 -0.43029466150E+03 -0.14421810814E+03 -0.59048984072E+03  0.74473526197E+03  0.25500000920E-02 0.  1.
       -2    1    3    3    0  502  0.43029466150E+03  0.14421810814E+03  0.87526224905E+02  0.46218307896E+03  0.25500000920E-02 0. -1.
</event>
<event>
 5   0  0.5941585E-03  0.1021051E+04  0.7818609E-02  0.9285753E-01
       -2   -1    0    0    0  501  0.00000000000E+00  0.00000000000E+00  0.28449056030E+03  0.28449056031E+03  0.25500000920E-02 0.  1.
        2   -1    0    0  501    0  0.00000000000E+00  0.00000000000E+00 -0.91615161572E+03  0.91615161572E+03  0.25500000920E-02 0. -1.
    10030    2    1    2    0    0  0.00000000000E+00  0.00000000000E+00 -0.63166105542E+03  0.12006421760E+04  0.10210513924E+04 0.  0.
        5    1    3    3  502    0  0.35316713843E+03  0.14600617764E+03 -0.71384661417E+03  0.80971841411E+03  0.46999998093E+01 0. -1.
       -5    1    3    3    0  502 -0.35316713843E+03 -0.14600617764E+03  0.82185558758E+02  0.39092376193E+03  0.46999998093E+01 0.  1.
</event>
<event>
 5   0  0.3215352E-03  0.1097265E+04  0.7818609E-02  0.9207861E-01
       -1   -1    0    0    0  501  0.00000000000E+00  0.00000000000E+00  0.39804492942E+03  0.39804492946E+03  0.50400001928E-02 0. -1.
        1   -1    0    0  501    0  0.00000000000E+00  0.00000000000E+00 -0.75619059457E+03  0.75619059459E+03  0.50400001928E-02 0.  1.
    10030    2    1    2    0    0  0.00000000000E+00  0.00000000000E+00 -0.35814566515E+03  0.11542355240E+04  0.10972653861E+04 0.  0.
        1    1    3    3  502    0 -0.16643933117E+03 -0.35365391159E+03  0.22591598805E+03  0.45145450914E+03  0.50400001928E-02 0. -1.
       -1    1    3    3    0  502  0.16643933117E+03  0.35365391159E+03 -0.58406165320E+03  0.70278101490E+03  0.50400001928E-02 0.  1.
</event>
<event>
 5   0  0.5946359E-03  0.1134651E+04  0.7818609E-02  0.9172061E-01
        2   -1    0    0  501    0  0.00000000000E+00  0.00000000000E+00  0.29966231757E+03  0.29966231758E+03  0.25500000920E-02 0. -1.
       -2   -1    0    0    0  501  0.00000000000E+00  0.00000000000E+00 -0.10740704037E+04  0.10740704037E+04  0.25500000920E-02 0.  1.
    10030    2    1    2    0    0  0.00000000000E+00  0.00000000000E+00 -0.77440808616E+03  0.13737327213E+04  0.11346513587E+04 0.  0.
        4    1    3    3  502    0 -0.16294711017E+03  0.44889780904E+03 -0.75799704093E+03  0.89589180744E+03  0.12699999809E+01 0.  1.
       -4    1    3    3    0  502  0.16294711017E+03 -0.44889780904E+03 -0.16411045230E+02  0.47784091388E+03  0.12699999809E+01 0. -1.
</event>
<event>
 5   0  0.2185750E-03  0.1100102E+04  0.7818609E-02  0.9205092E-01
        3   -1    0    0  501    0  0.00000000000E+00  0.00000000000E+00  0.65581676100E+03  0.65581676878E+03  0.10100000352E+00 0.  1.
       -3   -1    0    0    0  501  0.00000000000E+00  0.00000000000E+00 -0.46134275734E+03  0.46134276839E+03  0.10100000352E+00 0. -1.
    10030    2    1    2    0    0  0.00000000000E+00  0.00000000000E+00  0.19447400366E+03  0.11171595372E+04  0.11001024013E+04 0.  0.
        2    1    3    3  502    0 -0.24954710901E+03  0.36874656704E+03 -0.23073895185E+03  0.50148604589E+03  0.25500000920E-02 0. -1.
       -2    1    3    3    0  502  0.24954710901E+03 -0.36874656704E+03  0.42521295552E+03  0.61567349128E+03  0.25500000920E-02 0.  1.
</event>
<event>
 5   0  0.5500363E-03  0.1134957E+04  0.7818609E-02  0.9171775E-01
        2   -1    0    0  501    0  0.00000000000E+00  0.00000000000E+00  0.10610172121E+04  0.10610172121E+04  0.25500000920E-02 0.  1.
       -2   -1    0    0    0  501  0.00000000000E+00  0.00000000000E+00 -0.30351218266E+03  0.30351218267E+03  0.25500000920E-02 0. -1.
    10030    2    1    2    0    0  0.00000000000E+00  0.00000000000E+00  0.75750502944E+03  0.13645293948E+04  0.11349566510E+04 0.  0.
        3    1    3    3  502    0  0.29625443860E+03 -0.48398839202E+03  0.38415388512E+03  0.68526321487E+03  0.10100000352E+00 0.  1.
       -3    1    3    3    0  502 -0.29625443860E+03  0.48398839202E+03  0.37335114432E+03  0.67926617990E+03  0.10100000352E+00 0. -1.
</event>
<event>
 5   0  0.5500363E-03  0.1104777E+04  0.7818609E-02  0.9200549E-01
        2   -1    0    0  501    0  0.00000000000E+00  0.00000000000E+00  0.17548431093E+04  0.17548431093E+04  0.25500000920E-02 0. -1.
       -2   -1    0    0    0  501  0.00000000000E+00  0.00000000000E+00 -0.17388045502E+03  0.17388045504E+03  0.25500000920E-02 0.  1.
    10030    2    1    2    0    0  0.00000000000E+00  0.00000000000E+00  0.15809626543E+04  0.19287235643E+04  0.11047767528E+04 0.  0.
        3    1    3    3  502    0 -0.32523398824E+03 -0.43984663658E+03  0.92447331004E+03  0.10741941733E+04  0.10100000352E+00 0. -1.
       -3    1    3    3    0  502  0.32523398824E+03  0.43984663658E+03  0.65648934422E+03  0.85452939101E+03  0.10100000352E+00 0.  1.
</event>
<event>
 5   0  0.3328741E-03  0.1122989E+04  0.7818609E-02  0.9183071E-01
        1   -1    0    0  501    0  0.00000000000E+00  0.00000000000E+00  0.41023610813E+03  0.41023610816E+03  0.50400001928E-02 0.  1.
       -1   -1    0    0    0  501  0.00000000000E+00  0.00000000000E+00 -0.76852308637E+03  0.76852308639E+03  0.50400001928E-02 0. -1.
    10030    2    1    2    0    0  0.00000000000E+00  0.00000000000E+00 -0.35828697824E+03  0.11787591946E+04  0.11229887265E+04 0.  0.
        3    1    3    3  502    0  0.15716535297E+02 -0.29358365729E+03  0.32298322666E+03  0.43675685251E+03  0.10100000352E+00 0.  1.
       -3    1    3    3    0  502 -0.15716535297E+02  0.29358365729E+03 -0.68127020490E+03  0.74200234204E+03  0.10100000352E+00 0. -1.
</event>
<event>
 5   0  0.5627232E-03  0.1129677E+04  0.7818609E-02  0.9176739E-01
       -2   -1    0    0    0  501  0.00000000000E+00  0.00000000000E+00  0.29533040419E+03  0.29533040420E+03  0.25500000920E-02 0. -1.
        2   -1    0    0  501    0  0.00000000000E+00  0.00000000000E+00 -0.10802909057E+04  0.10802909057E+04  0.25500000920E-02 0.  1.
    10030    2    1    2    0    0  0.00000000000E+00  0.00000000000E+00 -0.78496050149E+03  0.13756213099E+04  0.11296773873E+04 0.  0.
        2    1    3    3  502    0  0.45262647961E+03 -0.21900989711E+03 -0.70580549003E+03  0.86660109326E+03  0.25500000920E-02 0.  1.
       -2    1    3    3    0  502 -0.45262647961E+03  0.21900989711E+03 -0.79155011454E+02  0.50902021661E+03  0.25500000920E-02 0. -1.
</event>
<event>
 5   0  0.5946359E-03  0.1037698E+04  0.7818609E-02  0.9268138E-01
        2   -1    0    0  501    0  0.00000000000E+00  0.00000000000E+00  0.52970256053E+03  0.52970256053E+03  0.25500000920E-02 0. -1.
       -2   -1    0    0    0  501  0.00000000000E+00  0.00000000000E+00 -0.50821822814E+03  0.50821822814E+03  0.25500000920E-02 0.  1.
    10030    2    1    2    0    0  0.00000000000E+00  0.00000000000E+00  0.21484332392E+02  0.10379207887E+04  0.10376984085E+04 0.  0.
        4    1    3    3  502    0 -0.25942513339E+03  0.15746529369E+03  0.43167218606E+03  0.52767339109E+03  0.12699999809E+01 0. -1.
       -4    1    3    3    0  502  0.25942513339E+03 -0.15746529369E+03 -0.41018785366E+03  0.51024739759E+03  0.12699999809E+01 0.  1.
</event>
<event>
 5   0  0.5946359E-03  0.1098763E+04  0.7818609E-02  0.9206398E-01
        2   -1    0    0  501    0  0.00000000000E+00  0.00000000000E+00  0.26648323279E+03  0.26648323280E+03  0.25500000920E-02 0.  1.
       -2   -1    0    0    0  501  0.00000000000E+00  0.00000000000E+00 -0.11326052368E+04  0.11326052368E+04  0.25500000920E-02 0. -1.
    10030    2    1    2    0    0  0.00000000000E+00  0.00000000000E+00 -0.86612200400E+03  0.13990884696E+04  0.10987634959E+04 0.  0.
        4    1    3    3  502    0  0.22118186421E+03 -0.45517393095E+03 -0.16081255373E+03  0.53100566363E+03  0.12699999809E+01 0.  1.
       -4    1    3    3    0  502 -0.22118186421E+03  0.45517393095E+03 -0.70530945027E+03  0.86808280596E+03  0.12699999809E+01 0. -1.
</event>
<event>
 5   0  0.3316784E-03  0.1102553E+04  0.7818609E-02  0.9202707E-01
        1   -1    0    0  501    0  0.00000000000E+00  0.00000000000E+00  0.77629534927E+03  0.77629534929E+03  0.50400001928E-02 0.  1.
       -1   -1    0    0    0  501  0.00000000000E+00  0.00000000000E+00 -0.39148208392E+03  0.39148208396E+03  0.50400001928E-02 0. -1.
    10030    2    1    2    0    0  0.00000000000E+00  0.00000000000E+00  0.38481326535E+03  0.11677774332E+04  0.11025528942E+04 0.  0.
        4    1    3    3  502    0  0.34761413654E+03 -0.16196929454E+03 -0.22704452973E+03  0.44566856708E+03  0.12699999809E+01 0. -1.
       -4    1    3    3    0  502 -0.34761413654E+03  0.16196929454E+03  0.61185779508E+03  0.72210886617E+03  0.12699999809E+01 0.  1.
</event>
<event>
 5   0  0.3328741E-03  0.1112669E+04  0.7818609E-02  0.9192931E-01
        1   -1    0    0  501    0  0.00000000000E+00  0.00000000000E+00  0.34065595718E+03  0.34065595722E+03  0.50400001928E-02 0. -1.
       -1   -1    0    0    0  501  0.00000000000E+00  0.00000000000E+00 -0.90856457633E+03  0.90856457634E+03  0.50400001928E-02 0.  1.
    10030    2    1    2    0    0  0.00000000000E+00  0.00000000000E+00 -0.56790861915E+03  0.12492205336E+04  0.11126687475E+04 0.  0.
        3    1    3    3  502    0  0.18522119666E+03  0.36524925262E+03 -0.70672237772E+03  0.81680501811E+03  0.10100000352E+00 0.  1.
       -3    1    3    3    0  502 -0.18522119666E+03 -0.36524925262E+03  0.13881375857E+03  0.43241551545E+03  0.10100000352E+00 0. -1.
</event>
<event>
 5   0  0.3215352E-03  0.1080264E+04  0.7818609E-02  0.9224644E-01
        1   -1    0    0  501    0  0.00000000000E+00  0.00000000000E+00  0.60537417913E+03  0.60537417915E+03  0.50400001928E-02 0.  1.
       -1   -1    0    0    0  501  0.00000000000E+00  0.00000000000E+00 -0.48192105136E+03  0.48192105138E+03  0.50400001928E-02 0. -1.
    10030    2    1    2    0    0  0.00000000000E+00  0.00000000000E+00  0.12345312777E+03  0.10872952305E+04  0.10802639694E+04 0.  0.
        1    1    3    3  502    0  0.91792642503E+02  0.14026288573E+03  0.57853037758E+03  0.60232629374E+03  0.50400001928E-02 0.  1.
       -1    1    3    3    0  502 -0.91792642503E+02 -0.14026288573E+03 -0.45507724981E+03  0.48496893679E+03  0.50400001928E-02 0. -1.
</event>
<event>
 5   0  0.3316784E-03  0.1086686E+04  0.7818609E-02  0.9218266E-01
       -1   -1    0    0    0  501  0.00000000000E+00  0.00000000000E+00  0.26319470851E+03  0.26319470856E+03  0.50400001928E-02 0. -1.
        1   -1    0    0  501    0  0.00000000000E+00  0.00000000000E+00 -0.11216856851E+04  0.11216856851E+04  0.50400001928E-02 0.  1.
    10030    2    1    2    0    0  0.00000000000E+00  0.00000000000E+00 -0.85849097654E+03  0.13848803936E+04  0.10866862233E+04 0.  0.
        4    1    3    3  502    0 -0.15062847899E+03  0.24945607075E+03  0.15518207321E+03  0.33015202357E+03  0.12699999809E+01 0. -1.
       -4    1    3    3    0  502  0.15062847899E+03 -0.24945607075E+03 -0.10136730498E+04  0.10547283701E+04  0.12699999809E+01 0.  1.
</event>
<event>
 5   0  0.3215352E-03  0.1102895E+04  0.7818609E-02  0.9202375E-01
        1   -1    0    0  501    0  0.00000000000E+00  0.00000000000E+00  0.56746629656E+03  0.56746629658E+03  0.50400001928E-02 0. -1.
       -1   -1    0    0    0  501  0.00000000000E+00  0.00000000000E+00 -0.53588098842E+03  0.53588098844E+03  0.50400001928E-02 0.  1.
    10030    2    1    2    0    0  0.00000000000E+00  0.00000000000E+00  0.31585308141E+02  0.11033472850E+04  0.11028950991E+04 0.  0.
        1    1    3    3  502    0 -0.48167941815E+03 -0.25647317102E+03  0.95203096240E+02  0.55394690980E+03  0.50400001928E-02 0. -1.
       -1    1    3    3    0  502  0.48167941815E+03  0.25647317102E+03 -0.63617788099E+02  0.54940037523E+03  0.50400001928E-02 0.  1.
</event>
<event>
 5   0  0.5627232E-03  0.1151564E+04  0.7818609E-02  0.9156342E-01
       -2   -1    0    0    0  501  0.00000000000E+00  0.00000000000E+00  0.38878501490E+03  0.38878501491E+03  0.25500000920E-02 0.  1.
        2   -1    0    0  501    0  0.00000000000E+00  0.00000000000E+00 -0.85272062059E+03  0.85272062060E+03  0.25500000920E-02 0. -1.
    10030    2    1    2    0    0  0.00000000000E+00  0.00000000000E+00 -0.46393560569E+03  0.12415056355E+04  0.11515641523E+04 0.  0.
        2    1    3    3  502    0  0.20809251927E+03 -0.95038113924E+02  0.33768559143E+03  0.40788025000E+03  0.25500000920E-02 0.  1.
       -2    1    3    3    0  502 -0.20809251927E+03  0.95038113924E+02 -0.80162119712E+03  0.83362538551E+03  0.25500000920E-02 0. -1.
</event>
<event>
 5   0  0.3316784E-03  0.1099431E+04  0.7818609E-02  0.9205746E-01
        1   -1    0    0  501    0  0.00000000000E+00  0.00000000000E+00  0.10446910864E+04  0.10446910864E+04  0.50400001928E-02 0. -1.
       -1   -1    0    0    0  501  0.00000000000E+00  0.00000000000E+00 -0.28925998996E+03  0.28925999000E+03  0.50400001928E-02 0.  1.
    10030    2    1    2    0    0  0.00000000000E+00  0.00000000000E+00  0.75543109641E+03  0.13339510764E+04  0.10994313679E+04 0.  0.
        4    1    3    3  502    0  0.27344467249E+03  0.32679452201E+03  0.79910122459E+03  0.90561085935E+03  0.12699999809E+01 0. -1.
       -4    1    3    3    0  502 -0.27344467249E+03 -0.32679452201E+03 -0.43670128188E+02  0.42834021703E+03  0.12699999809E+01 0.  1.
</event>
<event>
 5   0  0.5627232E-03  0.1087856E+04  0.7818609E-02  0.9217110E-01
        2   -1    0    0  501    0  0.00000000000E+00  0.00000000000E+00  0.54922686847E+03  0.54922686848E+03  0.25500000920E-02 0. -1.
       -2   -1    0    0    0  501  0.00000000000E+00  0.00000000000E+00 -0.53867997404E+03  0.53867997405E+03  0.25500000920E-02 0.  1.
    10030    2    1    2    0    0  0.00000000000E+00  0.00000000000E+00  0.10546894425E+02  0.10879068425E+04  0.10878557170E+04 0.  0.
        2    1    3    3  502    0  0.47530290899E+02 -0.38895770006E+03  0.38253154292E+03  0.54761081283E+03  0.25500000920E-02 0. -1.
       -2    1    3    3    0  502 -0.47530290899E+02  0.38895770006E+03 -0.37198464849E+03  0.54029602970E+03  0.25500000920E-02 0.  1.
</event>
<event>
 5   0  0.3215352E-03  0.1090714E+04  0.7818609E-02  0.9214290E-01
       -1   -1    0    0    0  501  0.00000000000E+00  0.00000000000E+00  0.29458239374E+03  0.29458239378E+03  0.50400001928E-02 0. -1.
        1   -1    0    0  501    0  0.00000000000E+00  0.00000000000E+00 -0.10096134681E+04  0.10096134681E+04  0.50400001928E-02 0.  1.
    10030    2    1    2    0    0  0.00000000000E+00  0.00000000000E+00 -0.71503107436E+03  0.13041958619E+04  0.10907141738E+04 0.  0.
        1    1    3    3  502    0 -0.49620455013E+03 -0.22330721218E+03 -0.40111097196E+03  0.67599931837E+03  0.50400001928E-02 0. -1.
       -1    1    3    3    0  502  0.49620455013E+03  0.22330721218E+03 -0.31392010240E+03  0.62819654353E+03  0.50400001928E-02 0.  1.
</event>
<event>
 5   0  0.3328741E-03  0.1099136E+04  0.7818609E-02  0.9206035E-01
        1   -1    0    0  501    0  0.00000000000E+00  0.00000000000E+00  0.73554509517E+03  0.73554509519E+03  0.50400001928E-02 0.  1.
       -1   -1    0    0    0  501  0.00000000000E+00  0.00000000000E+00 -0.41061371414E+03  0.41061371417E+03  0.50400001928E-02 0. -1.
    10030    2    1    2    0    0  0.00000000000E+00  0.00000000000E+00  0.32493138104E+03  0.11461588094E+04  0.10991358487E+04 0.  0.
        3    1    3    3  502    0 -0.46416396228E+03 -0.36407436583E+02 -0.14200373981E+03  0.48676355414E+03  0.10100000352E+00 0. -1.
       -3    1    3    3    0  502  0.46416396228E+03  0.36407436583E+02  0.46693512085E+03  0.65939525522E+03  0.10100000352E+00 0.  1.
</event>
<event>
 5   0  0.5627232E-03  0.1076007E+04  0.7818609E-02  0.9228898E-01
       -2   -1    0    0    0  501  0.00000000000E+00  0.00000000000E+00  0.23158527437E+03  0.23158527439E+03  0.25500000920E-02 0. -1.
        2   -1    0    0  501    0  0.00000000000E+00  0.00000000000E+00 -0.12498536677E+04  0.12498536677E+04  0.25500000920E-02 0.  1.
    10030    2    1    2    0    0  0.00000000000E+00  0.00000000000E+00 -0.10182683933E+04  0.14814389421E+04  0.10760068858E+04 0.  0.
        2    1    3    3  502    0 -0.25311376676E+03 -0.14325536909E+02 -0.11624597789E+04  0.11897833994E+04  0.25500000920E-02 0.  1.
       -2    1    3    3    0  502  0.25311376676E+03  0.14325536909E+02  0.14419138554E+03  0.29165554272E+03  0.25500000920E-02 0. -1.
</event>
<event>
 5   0  0.5500363E-03  0.1096002E+04  0.7818609E-02  0.9209097E-01
       -2   -1    0    0    0  501  0.00000000000E+00  0.00000000000E+00  0.40684133103E+03  0.40684133104E+03  0.25500000920E-02 0.  1.
        2   -1    0    0  501    0  0.00000000000E+00  0.00000000000E+00 -0.73813843667E+03  0.73813843667E+03  0.25500000920E-02 0. -1.
    10030    2    1    2    0    0  0.00000000000E+00  0.00000000000E+00 -0.33129710564E+03  0.11449797677E+04  0.10960022337E+04 0.  0.
        3    1    3    3  502    0  0.44575578444E+03  0.17789962786E+03  0.11066824744E+03  0.49253829104E+03  0.10100000352E+00 0.  1.
       -3    1    3    3    0  502 -0.44575578444E+03 -0.17789962786E+03 -0.44196535308E+03  0.65244147667E+03  0.10100000352E+00 0. -1.
</event>
<event>
 5   0  0.5941585E-03  0.1096566E+04  0.7818609E-02  0.9208545E-01
       -2   -1    0    0    0  501  0.00000000000E+00  0.00000000000E+00  0.18491075601E+03  0.18491075603E+03  0.25500000920E-02 0. -1.
        2   -1    0    0  501    0  0.00000000000E+00  0.00000000000E+00 -0.16257262742E+04  0.16257262742E+04  0.25500000920E-02 0.  1.
    10030    2    1    2    0    0  0.00000000000E+00  0.00000000000E+00 -0.14408155182E+04  0.18106370302E+04  0.10965660481E+04 0.  0.
        5    1    3    3  502    0 -0.14662946672E+03 -0.13416035335E+03 -0.15641197152E+04  0.15767028174E+04  0.46999998093E+01 0.  1.
       -5    1    3    3    0  502  0.14662946672E+03  0.13416035335E+03  0.12330419703E+03  0.23393421281E+03  0.46999998093E+01 0. -1.
</event>
<event>
 5   0  0.3316784E-03  0.1140815E+04  0.7818609E-02  0.9166299E-01
       -1   -1    0    0    0  501  0.00000000000E+00  0.00000000000E+00  0.19662921761E+03  0.19662921767E+03  0.50400001928E-02 0.  1.
        1   -1    0    0  501    0  0.00000000000E+00  0.00000000000E+00 -0.16547120395E+04  0.16547120395E+04  0.50400001928E-02 0. -1.
    10030    2    1    2    0    0  0.00000000000E+00  0.00000000000E+00 -0.14580828219E+04  0.18513412572E+04  0.11408150310E+04 0.  0.
        4    1    3    3  502    0 -0.19818001006E+03 -0.19605340480E+03 -0.15366318544E+04  0.15617142257E+04  0.12699999809E+01 0. -1.
       -4    1    3    3    0  502  0.19818001006E+03  0.19605340480E+03  0.78549032555E+02  0.28962703143E+03  0.12699999809E+01 0.  1.
</event>
<event>
 5   0  0.3215352E-03  0.1089873E+04  0.7818609E-02  0.9215119E-01
       -1   -1    0    0    0  501  0.00000000000E+00  0.00000000000E+00  0.55216810628E+03  0.55216810631E+03  0.50400001928E-02 0.  1.
        1   -1    0    0  501    0  0.00000000000E+00  0.00000000000E+00 -0.53779968480E+03  0.53779968483E+03  0.50400001928E-02 0. -1.
    10030    2    1    2    0    0  0.00000000000E+00  0.00000000000E+00  0.14368421479E+02  0.10899677911E+04  0.10898730817E+04 0.  0.
        1    1    3    3  502    0 -0.37135278664E+03 -0.15603147501E+03  0.37424079108E+03  0.54982259236E+03  0.50400001928E-02 0.  1.
       -1    1    3    3    0  502  0.37135278664E+03  0.15603147501E+03 -0.35987236960E+03  0.54014519878E+03  0.50400001928E-02 0. -1.
</event>
<event>
 5   0  0.3328741E-03  0.1101760E+04  0.7818609E-02  0.9203478E-01
        1   -1    0    0  501    0  0.00000000000E+00  0.00000000000E+00  0.37843100368E+03  0.37843100371E+03  0.50400001928E-02 0. -1.
       -1   -1    0    0    0  501  0.00000000000E+00  0.00000000000E+00 -0.80191329031E+03  0.80191329033E+03  0.50400001928E-02 0.  1.
    10030    2    1    2    0    0  0.00000000000E+00  0.00000000000E+00 -0.42348228663E+03  0.11803442940E+04  0.11017601397E+04 0.  0.
        3    1    3    3  502    0 -0.19498443280E+03 -0.41236734405E+03  0.11916349870E+03  0.47145063909E+03  0.10100000352E+00 0. -1.
       -3    1    3    3    0  502  0.19498443280E+03  0.41236734405E+03 -0.54264578534E+03  0.70889365494E+03  0.10100000352E+00 0.  1.
</event>
<event>
 5   0  0.5500363E-03  0.1118194E+04  0.7818609E-02  0.9187638E-01
        2   -1    0    0  501    0  0.00000000000E+00  0.00000000000E+00  0.84392246014E+03  0.84392246014E+03  0.25500000920E-02 0.  1.
       -2   -1    0    0    0  501  0.00000000000E+00  0.00000000000E+00 -0.37040087951E+03  0.37040087952E+03  0.25500000920E-02 0. -1.
    10030    2    1    2    0    0  0.00000000000E+00  0.00000000000E+00  0.47352158063E+03  0.12143233397E+04  0.11181942970E+04 0.  0.
        3    1    3    3  502    0  0.31524003806E+03  0.29320440117E+03 -0.15061867397E+03  0.45610426177E+03  0.10100000352E+00 0. -1.
       -3    1    3    3    0  502 -0.31524003806E+03 -0.29320440117E+03  0.62414025460E+03  0.75821907788E+03  0.10100000352E+00 0.  1.
</event>
<event>
 5   0  0.5627232E-03  0.1145549E+04  0.7818609E-02  0.9161899E-01
        2   -1    0    0  501    0  0.00000000000E+00  0.00000000000E+00  0.33360887064E+03  0.33360887065E+03  0.25500000920E-02 0. -1.
       -2   -1    0    0    0  501  0.00000000000E+00  0.00000000000E+00 -0.98339960195E+03  0.98339960195E+03  0.25500000920E-02 0.  1.
    10030    2    1    2    0    0  0.00000000000E+00  0.00000000000E+00 -0.64979073131E+03  0.13170084726E+04  0.11455493540E+04 0.  0.
        2    1    3    3  502    0  0.16189700290E+03 -0.34573475857E+03 -0.81580443153E+03  0.90071084890E+03  0.25500000920E-02 0.  1.
       -2    1    3    3    0  502 -0.16189700290E+03  0.34573475857E+03  0.16601370022E+03  0.41629762370E+03  0.25500000920E-02 0. -1.
</event>
<event>
 5   0  0.3320192E-03  0.1060677E+04  0.7818609E-02  0.9244390E-01
        1   -1    0    0  501    0  0.00000000000E+00  0.00000000000E+00  0.78753988601E+03  0.78753988602E+03  0.50400001928E-02 0. -1.
       -1   -1    0    0    0  501  0.00000000000E+00  0.00000000000E+00 -0.35713586166E+03  0.35713586169E+03  0.50400001928E-02 0.  1.
    10030    2    1    2    0    0  0.00000000000E+00  0.00000000000E+00  0.43040402435E+03  0.11446757477E+04  0.10606766440E+04 0.  0.
        2    1    3    3  502    0  0.47233960442E+03  0.18303648406E+03  0.38464466069E+03  0.63604918945E+03  0.25500000920E-02 0. -1.
       -2    1    3    3    0  502 -0.47233960442E+03 -0.18303648406E+03  0.45759363661E+02  0.50862655826E+03  0.25500000920E-02 0.  1.
</event>
<event>
 5   0  0.3320192E-03  0.1098595E+04  0.7818609E-02  0.9206563E-01
       -1   -1    0    0    0  501  0.00000000000E+00  0.00000000000E+00  0.86001134620E+03  0.86001134621E+03  0.50400001928E-02 0. -1.
        1   -1    0    0  501    0  0.00000000000E+00  0.00000000000E+00 -0.35084143753E+03  0.35084143756E+03  0.50400001928E-02 0.  1.
    10030    2    1    2    0    0  0.00000000000E+00  0.00000000000E+00  0.50916990867E+03  0.12108527838E+04  0.10985947697E+04 0.  0.
        2    1    3    3  502    0 -0.19421820139E+03 -0.14295953535E+03 -0.28937289828E+03  0.37668927880E+03  0.25500000920E-02 0.  1.
       -2    1    3    3    0  502  0.19421820139E+03  0.14295953535E+03  0.79854280695E+03  0.83416350497E+03  0.25500000920E-02 0. -1.
</event>
<event>
 5   0  0.5723194E-03  0.1076722E+04  0.7818609E-02  0.9228182E-01
        2   -1    0    0  501    0  0.00000000000E+00  0.00000000000E+00  0.81266997017E+03  0.81266997018E+03  0.25500000920E-02 0.  1.
       -2   -1    0    0    0  501  0.00000000000E+00  0.00000000000E+00 -0.35664238955E+03  0.35664238956E+03  0.25500000920E-02 0. -1.
    10030    2    1    2    0    0  0.00000000000E+00  0.00000000000E+00  0.45602758062E+03  0.11693123597E+04  0.10767219884E+04 0.  0.
        1    1    3    3  502    0  0.29754670245E+02 -0.30365630133E+03 -0.25368257492E+03  0.39679634396E+03  0.50400001928E-02 0. -1.
       -1    1    3    3    0  502 -0.29754670245E+02  0.30365630133E+03  0.70971015554E+03  0.77251601578E+03  0.50400001928E-02 0.  1.
</event>
<event>
 5   0  0.3328741E-03  0.1089756E+04  0.7818609E-02  0.9215234E-01
       -1   -1    0    0    0  501  0.00000000000E+00  0.00000000000E+00  0.49653488537E+03  0.49653488540E+03  0.50400001928E-02 0.  1.
        1   -1    0    0  501    0  0.00000000000E+00  0.00000000000E+00 -0.59792777839E+03  0.59792777841E+03  0.50400001928E-02 0. -1.
    10030    2    1    2    0    0  0.00000000000E+00  0.00000000000E+00 -0.10139289302E+03  0.10944626638E+04  0.10897559377E+04 0.  0.
        3    1    3    3  502    0  0.26462497754E+03 -0.35193376461E+03 -0.37303160950E+03  0.57709301269E+03  0.10100000352E+00 0.  1.
       -3    1    3    3    0  502 -0.26462497754E+03  0.35193376461E+03  0.27163871648E+03  0.51736965112E+03  0.10100000352E+00 0. -1.
</event>
<event>
 5   0  0.5723194E-03  0.1119802E+04  0.7818609E-02  0.9186104E-01
        2   -1    0    0  501    0  0.00000000000E+00  0.00000000000E+00  0.38763592684E+03  0.38763592685E+03  0.25500000920E-02 0. -1.
       -2   -1    0    0    0  501  0.00000000000E+00  0.00000000000E+00 -0.80872043811E+03  0.80872043811E+03  0.25500000920E-02 0.  1.
    10030    2    1    2    0    0  0.00000000000E+00  0.00000000000E+00 -0.42108451127E+03  0.11963563650E+04  0.11198019407E+04 0.  0.
        1    1    3    3  502    0 -0.30547800094E+03  0.13200151530E+03 -0.69160034004E+03  0.76749738727E+03  0.50400001928E-02 0.  1.
       -1    1    3    3    0  502  0.30547800094E+03 -0.13200151530E+03  0.27051582877E+03  0.42885897769E+03  0.50400001928E-02 0. -1.
</event>
<event>
 5   0  0.3320192E-03  0.1096031E+04  0.7818609E-02  0.9209069E-01
       -1   -1    0    0    0  501  0.00000000000E+00  0.00000000000E+00  0.20096945788E+03  0.20096945794E+03  0.50400001928E-02 0.  1.
        1   -1    0    0  501    0  0.00000000000E+00  0.00000000000E+00 -0.14943624694E+04  0.14943624694E+04  0.50400001928E-02 0. -1.
    10030    2    1    2    0    0  0.00000000000E+00  0.00000000000E+00 -0.12933930115E+04  0.16953319274E+04  0.10960314145E+04 0.  0.
        2    1    3    3  502    0 -0.43532092482E+03 -0.15258064942E+03 -0.11043378153E+04  0.11968070740E+04  0.25500000920E-02 0. -1.
       -2    1    3    3    0  502  0.43532092482E+03  0.15258064942E+03 -0.18905519627E+03  0.49852485335E+03  0.25500000920E-02 0.  1.
</event>
<event>
 5   0  0.3316784E-03  0.1102380E+04  0.7818609E-02  0.9202875E-01
        1   -1    0    0  501    0  0.00000000000E+00  0.00000000000E+00  0.44722875924E+03  0.44722875927E+03  0.50400001928E-02 0. -1.
       -1   -1    0    0    0  501  0.00000000000E+00  0.00000000000E+00 -0.67931757862E+03  0.67931757864E+03  0.50400001928E-02 0.  1.
    10030    2    1    2    0    0  0.00000000000E+00  0.00000000000E+00 -0.23208881939E+03  0.11265463379E+04  0.11023798943E+04 0.  0.
        4    1    3    3  502    0 -0.55878058225E+02 -0.44025546119E+03 -0.45010746037E+03  0.63209616933E+03  0.12699999809E+01 0.  1.
       -4    1    3    3    0  502  0.55878058225E+02  0.44025546119E+03  0.21801864099E+03  0.49445016858E+03  0.12699999809E+01 0. -1.
</event>
<event>
 5   0  0.5946359E-03  0.1075056E+04  0.7818609E-02  0.9229850E-01
       -2   -1    0    0    0  501  0.00000000000E+00  0.00000000000E+00  0.12403600917E+03  0.12403600920E+03  0.25500000920E-02 0. -1.
        2   -1    0    0  501    0  0.00000000000E+00  0.00000000000E+00 -0.23294570664E+04  0.23294570664E+04  0.25500000920E-02 0.  1.
    10030    2    1    2    0    0  0.00000000000E+00  0.00000000000E+00 -0.22054210573E+04  0.24534930756E+04  0.10750563857E+04 0.  0.
        4    1    3    3  502    0  0.42651002454E+03  0.43373246415E+02 -0.36269031813E+03  0.56154956976E+03  0.12699999809E+01 0. -1.
       -4    1    3    3    0  502 -0.42651002454E+03 -0.43373246415E+02 -0.18427307391E+04  0.18919435059E+04  0.12699999809E+01 0.  1.
</event>
<event>
 5   0  0.5627232E-03  0.1074371E+04  0.7818609E-02  0.9230538E-01
       -2   -1    0    0    0  501  0.00000000000E+00  0.00000000000E+00  0.20993107354E+03  0.20993107356E+03  0.25500000920E-02 0. -1.
        2   -1    0    0  501    0  0.00000000000E+00  0.00000000000E+00 -0.13745852723E+04  0.13745852723E+04  0.25500000920E-02 0.  1.
    10030    2    1    2    0    0  0.00000000000E+00  0.00000000000E+00 -0.11646541988E+04  0.15845163459E+04  0.10743708148E+04 0.  0.
        2    1    3    3  502    0 -0.55904187520E+02  0.26178193607E+03  0.10456008519E+03  0.28738105653E+03  0.25500000920E-02 0. -1.
       -2    1    3    3    0  502  0.55904187520E+02 -0.26178193607E+03 -0.12692142840E+04  0.12971352894E+04  0.25500000920E-02 0.  1.
</event>
<event>
 5   0  0.3241189E-03  0.1055908E+04  0.7818609E-02  0.9249265E-01
        1   -1    0    0  501    0  0.00000000000E+00  0.00000000000E+00  0.51896842678E+03  0.51896842680E+03  0.50400001928E-02 0.  1.
       -1   -1    0    0    0  501  0.00000000000E+00  0.00000000000E+00 -0.53709544816E+03  0.53709544818E+03  0.50400001928E-02 0. -1.
    10030    2    1    2    0    0  0.00000000000E+00  0.00000000000E+00 -0.18127021379E+02  0.10560638750E+04  0.10559082911E+04 0.  0.
        5    1    3    3  502    0 -0.60484801835E+02 -0.19862890402E+03 -0.49452316100E+03  0.53636470757E+03  0.46999998093E+01 0. -1.
       -5    1    3    3    0  502  0.60484801835E+02  0.19862890402E+03  0.47639613962E+03  0.51969916741E+03  0.46999998093E+01 0.  1.
</event>
<event>
 5   0  0.5941585E-03  0.1138700E+04  0.7818609E-02  0.9168272E-01
        2   -1    0    0  501    0  0.00000000000E+00  0.00000000000E+00  0.42337297401E+03  0.42337297402E+03  0.25500000920E-02 0. -1.
       -2   -1    0    0    0  501  0.00000000000E+00  0.00000000000E+00 -0.76565868602E+03  0.76565868602E+03  0.25500000920E-02 0.  1.
    10030    2    1    2    0    0  0.00000000000E+00  0.00000000000E+00 -0.34228571201E+03  0.11890316600E+04  0.11386996004E+04 0.  0.
        5    1    3    3  502    0  0.91878424973E+02 -0.55857702604E+03 -0.23454889084E+03  0.61276848090E+03  0.46999998093E+01 0.  1.
       -5    1    3    3    0  502 -0.91878424973E+02  0.55857702604E+03 -0.10773682117E+03  0.57626317914E+03  0.46999998093E+01 0. -1.
</event>
<event>
 5   0  0.5627232E-03  0.1099138E+04  0.7818609E-02  0.9206033E-01
       -2   -1    0    0    0  501  0.00000000000E+00  0.00000000000E+00  0.31281335393E+03  0.31281335394E+03  0.25500000920E-02 0.  1.
        2   -1    0    0  501    0  0.00000000000E+00  0.00000000000E+00 -0.96551459160E+03  0.96551459160E+03  0.25500000920E-02 0. -1.
    10030    2    1    2    0    0  0.00000000000E+00  0.00000000000E+00 -0.65270123767E+03  0.12783279455E+04  0.10991375850E+04 0.  0.
        2    1    3    3  502    0 -0.30886173913E+02  0.26366748409E+03  0.23329601019E+03  0.35341410029E+03  0.25500000920E-02 0.  1.
       -2    1    3    3    0  502  0.30886173913E+02 -0.26366748409E+03 -0.88599724786E+03  0.92491384525E+03  0.25500000920E-02 0. -1.
</event>
<event>
 5   0  0.2185750E-03  0.1104853E+04  0.7818609E-02  0.9200474E-01
       -4   -1    0    0    0  501  0.00000000000E+00  0.00000000000E+00  0.33826058387E+03  0.33826296797E+03  0.12699999809E+01 0. -1.
        4   -1    0    0  501    0  0.00000000000E+00  0.00000000000E+00 -0.90218351646E+03  0.90218441035E+03  0.12699999809E+01 0.  1.
    10030    2    1    2    0    0  0.00000000000E+00  0.00000000000E+00 -0.56392293259E+03  0.12404473783E+04  0.11048532140E+04 0.  0.
        1    1    3    3  502    0  0.45969555820E+03 -0.84765913851E+02 -0.61248918349E+03  0.77048573400E+03  0.50400001928E-02 0. -1.
       -1    1    3    3    0  502 -0.45969555820E+03  0.84765913851E+02  0.48566250903E+02  0.46996164432E+03  0.50400001928E-02 0.  1.
</event>
<event>
 5   0  0.3328741E-03  0.1097290E+04  0.7818609E-02  0.9207837E-01
        1   -1    0    0  501    0  0.00000000000E+00  0.00000000000E+00  0.42913697170E+03  0.42913697173E+03  0.50400001928E-02 0. -1.
       -1   -1    0    0    0  501  0.00000000000E+00  0.00000000000E+00 -0.70143480375E+03  0.70143480377E+03  0.50400001928E-02 0.  1.
    10030    2    1    2    0    0  0.00000000000E+00  0.00000000000E+00 -0.27229783205E+03  0.11305717755E+04  0.10972904949E+04 0.  0.
        3    1    3    3  502    0 -0.28143583225E+03  0.37244106467E+03  0.16085287140E+03  0.49375310709E+03  0.10100000352E+00 0. -1.
       -3    1    3    3    0  502  0.28143583225E+03 -0.37244106467E+03 -0.43315070345E+03  0.63681866840E+03  0.10100000352E+00 0.  1.
</event>
<event>
 5   0  0.5723194E-03  0.1094576E+04  0.7818609E-02  0.9210494E-01
       -2   -1    0    0    0  501  0.00000000000E+00  0.00000000000E+00  0.72548390098E+03  0.72548390098E+03  0.25500000920E-02 0. -1.
        2   -1    0    0  501    0  0.00000000000E+00  0.00000000000E+00 -0.41286152872E+03  0.41286152873E+03  0.25500000920E-02 0.  1.
    10030    2    1    2    0    0  0.00000000000E+00  0.00000000000E+00  0.31262237226E+03  0.11383454297E+04  0.10945764339E+04 0.  0.
        1    1    3    3  502    0 -0.52868689253E+03 -0.13543402234E+03  0.11378362460E+03  0.55749342417E+03  0.50400001928E-02 0.  1.
       -1    1    3    3    0  502  0.52868689253E+03  0.13543402234E+03  0.19883874766E+03  0.58085200554E+03  0.50400001928E-02 0. -1.
</event>
<event>
 5   0  0.3328741E-03  0.1359273E+04  0.7818609E-02  0.8983838E-01
        1   -1    0    0  501    0  0.00000000000E+00  0.00000000000E+00  0.70302322087E+03  0.70302322089E+03  0.50400001928E-02 0.  1.
       -1   -1    0    0    0  501  0.00000000000E+00  0.00000000000E+00 -0.65702784152E+03  0.65702784154E+03  0.50400001928E-02 0. -1.
    10030    2    1    2    0    0  0.00000000000E+00  0.00000000000E+00  0.45995379350E+02  0.13600510624E+04  0.13592730842E+04 0.  0.
        3    1    3    3  502    0 -0.26369895385E+03  0.14415314426E+03 -0.58693183912E+03  0.65939840858E+03  0.10100000352E+00 0. -1.
       -3    1    3    3    0  502  0.26369895385E+03 -0.14415314426E+03  0.63292721847E+03  0.70065265385E+03  0.10100000352E+00 0.  1.
</event>
<event>
 5   0  0.5627232E-03  0.1107957E+04  0.7818609E-02  0.9197471E-01
       -2   -1    0    0    0  501  0.00000000000E+00  0.00000000000E+00  0.20333841225E+03  0.20333841227E+03  0.25500000920E-02 0.  1.
        2   -1    0    0  501    0  0.00000000000E+00  0.00000000000E+00 -0.15092686624E+04  0.15092686624E+04  0.25500000920E-02 0. -1.
    10030    2    1    2    0    0  0.00000000000E+00  0.00000000000E+00 -0.13059302502E+04  0.17126070747E+04  0.11079572076E+04 0.  0.
        2    1    3    3  502    0  0.44804469384E+03 -0.18901424418E+03 -0.10631583628E+04  0.11690920137E+04  0.25500000920E-02 0. -1.
       -2    1    3    3    0  502 -0.44804469384E+03  0.18901424418E+03 -0.24277188738E+03  0.54351506096E+03  0.25500000920E-02 0.  1.
</event>
<event>
 5   0  0.5500363E-03  0.1098100E+04  0.7818609E-02  0.9207045E-01
       -2   -1    0    0    0  501  0.00000000000E+00  0.00000000000E+00  0.25013074739E+03  0.25013074740E+03  0.25500000920E-02 0.  1.
        2   -1    0    0  501    0  0.00000000000E+00  0.00000000000E+00 -0.12051941779E+04  0.12051941779E+04  0.25500000920E-02 0. -1.
    10030    2    1    2    0    0  0.00000000000E+00  0.00000000000E+00 -0.95506343051E+03  0.14553249253E+04  0.10981003970E+04 0.  0.
        3    1    3    3  502    0  0.45349057701E+02  0.46508375138E+03 -0.95490912808E+02  0.47694649329E+03  0.10100000352E+00 0.  1.
       -3    1    3    3    0  502 -0.45349057701E+02 -0.46508375138E+03 -0.85957251770E+03  0.97837843201E+03  0.10100000352E+00 0. -1.
</event>
<event>
 5   0  0.5723194E-03  0.1092459E+04  0.7818609E-02  0.9212574E-01
        2   -1    0    0  501    0  0.00000000000E+00  0.00000000000E+00  0.88839771973E+03  0.88839771973E+03  0.25500000920E-02 0.  1.
       -2   -1    0    0    0  501  0.00000000000E+00  0.00000000000E+00 -0.33584784118E+03  0.33584784119E+03  0.25500000920E-02 0. -1.
    10030    2    1    2    0    0  0.00000000000E+00  0.00000000000E+00  0.55254987855E+03  0.12242455609E+04  0.10924586148E+04 0.  0.
        1    1    3    3  502    0 -0.36277745436E+03 -0.35773493542E+03  0.55579320736E+02  0.51251422062E+03  0.50400001928E-02 0. -1.
       -1    1    3    3    0  502  0.36277745436E+03  0.35773493542E+03  0.49697055781E+03  0.71173134031E+03  0.50400001928E-02 0.  1.
</event>
<event>
 5   0  0.5941585E-03  0.1092716E+04  0.7818609E-02  0.9212320E-01
        2   -1    0    0  501    0  0.00000000000E+00  0.00000000000E+00  0.11441201439E+04  0.11441201439E+04  0.25500000920E-02 0.  1.
       -2   -1    0    0    0  501  0.00000000000E+00  0.00000000000E+00 -0.26090541294E+03  0.26090541295E+03  0.25500000920E-02 0. -1.
    10030    2    1    2    0    0  0.00000000000E+00  0.00000000000E+00  0.88321473098E+03  0.14050255569E+04  0.10927161363E+04 0.  0.
        5    1    3    3  502    0  0.12476492345E+03 -0.39826410295E+03  0.89494339340E+03  0.98748486024E+03  0.46999998093E+01 0.  1.
       -5    1    3    3    0  502 -0.12476492345E+03  0.39826410295E+03 -0.11728662421E+02  0.41754069663E+03  0.46999998093E+01 0. -1.
</event>
<event>
 5   0  0.3316784E-03  0.1088885E+04  0.7818609E-02  0.9216094E-01
        1   -1    0    0  501    0  0.00000000000E+00  0.00000000000E+00  0.28456574846E+03  0.28456574850E+03  0.50400001928E-02 0.  1.
       -1   -1    0    0    0  501  0.00000000000E+00  0.00000000000E+00 -0.10416482075E+04  0.10416482075E+04  0.50400001928E-02 0. -1.
    10030    2    1    2    0    0  0.00000000000E+00  0.00000000000E+00 -0.75708245905E+03  0.13262139560E+04  0.10888845703E+04 0.  0.
        4    1    3    3  502    0 -0.14571854346E+03  0.45838553293E+03 -0.67867789606E+02  0.48575594744E+03  0.12699999809E+01 0.  1.
       -4    1    3    3    0  502  0.14571854346E+03 -0.45838553293E+03 -0.68921466945E+03  0.84045800858E+03  0.12699999809E+01 0. -1.
</event>
<event>
 5   0  0.3241189E-03  0.1102333E+04  0.7818609E-02  0.9202921E-01
        1   -1    0    0  501    0  0.00000000000E+00  0.00000000000E+00  0.55237822985E+03  0.55237822987E+03  0.50400001928E-02 0.  1.
       -1   -1    0    0    0  501  0.00000000000E+00  0.00000000000E+00 -0.54995756383E+03  0.54995756385E+03  0.50400001928E-02 0. -1.
    10030    2    1    2    0    0  0.00000000000E+00  0.00000000000E+00  0.24206660194E+01  0.11023357937E+04  0.11023331359E+04 0.  0.
        5    1    3    3  502    0 -0.13053119028E+03  0.23193533862E+03  0.48383982436E+03  0.55222772347E+03  0.46999998093E+01 0.  1.
       -5    1    3    3    0  502  0.13053119028E+03 -0.23193533862E+03 -0.48141915834E+03  0.55010807025E+03  0.46999998093E+01 0. -1.
</event>
<event>
 5   0  0.5946359E-03  0.1104827E+04  0.7818609E-02  0.9200500E-01
        2   -1    0    0  501    0  0.00000000000E+00  0.00000000000E+00  0.60230721296E+03  0.60230721297E+03  0.25500000920E-02 0.  1.
       -2   -1    0    0    0  501  0.00000000000E+00  0.00000000000E+00 -0.50665316172E+03  0.50665316173E+03  0.25500000920E-02 0. -1.
    10030    2    1    2    0    0  0.00000000000E+00  0.00000000000E+00  0.95654051242E+02  0.11089603747E+04  0.11048273237E+04 0.  0.
        4    1    3    3  502    0 -0.29754511505E+03  0.38519316920E+02 -0.41774259520E+03  0.51432219669E+03  0.12699999809E+01 0. -1.
       -4    1    3    3    0  502  0.29754511505E+03 -0.38519316920E+02  0.51339664644E+03  0.59463817801E+03  0.12699999809E+01 0.  1.
</event>
<event>
 5   0  0.3316784E-03  0.1103271E+04  0.7818609E-02  0.9202010E-01
        1   -1    0    0  501    0  0.00000000000E+00  0.00000000000E+00  0.40793251196E+03  0.40793251199E+03  0.50400001928E-02 0.  1.
       -1   -1    0    0    0  501  0.00000000000E+00  0.00000000000E+00 -0.74596077671E+03  0.74596077673E+03  0.50400001928E-02 0. -1.
    10030    2    1    2    0    0  0.00000000000E+00  0.00000000000E+00 -0.33802826475E+03  0.11538932887E+04  0.11032708706E+04 0.  0.
        4    1    3    3  502    0 -0.19003110196E+03  0.11996097511E+03 -0.69591296766E+03  0.73129947814E+03  0.12699999809E+01 0. -1.
       -4    1    3    3    0  502  0.19003110196E+03 -0.11996097511E+03  0.35788470291E+03  0.42259381058E+03  0.12699999809E+01 0.  1.
</event>
<event>
 5   0  0.3215352E-03  0.1096565E+04  0.7818609E-02  0.9208546E-01
       -1   -1    0    0    0  501  0.00000000000E+00  0.00000000000E+00  0.56010902976E+03  0.56010902978E+03  0.50400001928E-02 0.  1.
        1   -1    0    0  501    0  0.00000000000E+00  0.00000000000E+00 -0.53670587114E+03  0.53670587117E+03  0.50400001928E-02 0. -1.
    10030    2    1    2    0    0  0.00000000000E+00  0.00000000000E+00  0.23403158617E+02  0.10968149010E+04  0.10965651915E+04 0.  0.
        1    1    3    3  502    0  0.53627031252E+03  0.87424630104E+01  0.12553226635E+03  0.55083629934E+03  0.50400001928E-02 0.  1.
       -1    1    3    3    0  502 -0.53627031252E+03 -0.87424630104E+01 -0.10212910773E+03  0.54597860161E+03  0.50400001928E-02 0. -1.
</event>
<event>
 5   0  0.5723194E-03  0.1114952E+04  0.7818609E-02  0.9190740E-01
       -2   -1    0    0    0  501  0.00000000000E+00  0.00000000000E+00  0.49874449860E+03  0.49874449861E+03  0.25500000920E-02 0. -1.
        2   -1    0    0  501    0  0.00000000000E+00  0.00000000000E+00 -0.62312327082E+03  0.62312327082E+03  0.25500000920E-02 0.  1.
    10030    2    1    2    0    0  0.00000000000E+00  0.00000000000E+00 -0.12437877221E+03  0.11218677694E+04  0.11149516640E+04 0.  0.
        1    1    3    3  502    0 -0.10929405721E+03  0.48359299853E+03 -0.31866642753E+03  0.58936887535E+03  0.50400001928E-02 0.  1.
       -1    1    3    3    0  502  0.10929405721E+03 -0.48359299853E+03  0.19428765531E+03  0.53249889408E+03  0.50400001928E-02 0. -1.
</event>
<event>
 5   0  0.3241189E-03  0.1108944E+04  0.7818609E-02  0.9196518E-01
       -1   -1    0    0    0  501  0.00000000000E+00  0.00000000000E+00  0.25237018396E+03  0.25237018401E+03  0.50400001928E-02 0. -1.
        1   -1    0    0  501    0  0.00000000000E+00  0.00000000000E+00 -0.12182076163E+04  0.12182076163E+04  0.50400001928E-02 0.  1.
    10030    2    1    2    0    0  0.00000000000E+00  0.00000000000E+00 -0.96583743237E+03  0.14705778003E+04  0.11089441470E+04 0.  0.
        5    1    3    3  502    0 -0.10973670863E+03  0.46954856975E+03 -0.84584371213E+03  0.97364864295E+03  0.46999998093E+01 0.  1.
       -5    1    3    3    0  502  0.10973670863E+03 -0.46954856975E+03 -0.11999372024E+03  0.49692915739E+03  0.46999998093E+01 0. -1.
</event>
<event>
 5   0  0.5946359E-03  0.1102786E+04  0.7818609E-02  0.9202480E-01
        2   -1    0    0  501    0  0.00000000000E+00  0.00000000000E+00  0.19318160274E+04  0.19318160274E+04  0.25500000920E-02 0. -1.
       -2   -1    0    0    0  501  0.00000000000E+00  0.00000000000E+00 -0.15738271077E+03  0.15738271079E+03  0.25500000920E-02 0.  1.
    10030    2    1    2    0    0  0.00000000000E+00  0.00000000000E+00  0.17744333166E+04  0.20891987381E+04  0.11027863676E+04 0.  0.
        4    1    3    3  502    0  0.37753714804E+03 -0.16166773817E+03  0.19021009623E+03  0.45260606417E+03  0.12699999809E+01 0.  1.
       -4    1    3    3    0  502 -0.37753714804E+03  0.16166773817E+03  0.15842232203E+04  0.16365926740E+04  0.12699999809E+01 0. -1.
</event>
<event>
 5   0  0.5723194E-03  0.1099245E+04  0.7818609E-02  0.9205928E-01
        2   -1    0    0  501    0  0.00000000000E+00  0.00000000000E+00  0.60468036680E+03  0.60468036681E+03  0.25500000920E-02 0. -1.
       -2   -1    0    0    0  501  0.00000000000E+00  0.00000000000E+00 -0.49957775109E+03  0.49957775110E+03  0.25500000920E-02 0.  1.
    10030    2    1    2    0    0  0.00000000000E+00  0.00000000000E+00  0.10510261571E+03  0.11042581179E+04  0.10992449368E+04 0.  0.
        1    1    3    3  502    0  0.21212344571E+02 -0.10296719945E+03 -0.48938342201E+03  0.50054804114E+03  0.50400001928E-02 0.  1.
       -1    1    3    3    0  502 -0.21212344571E+02  0.10296719945E+03  0.59448603772E+03  0.60371007677E+03  0.50400001928E-02 0. -1.
</event>
<event>
 5   0  0.5500363E-03  0.9268761E+03  0.7818609E-02  0.9392595E-01
        2   -1    0    0  501    0  0.00000000000E+00  0.00000000000E+00  0.19088042208E+03  0.19088042209E+03  0.25500000920E-02 0. -1.
       -2   -1    0    0    0  501  0.00000000000E+00  0.00000000000E+00 -0.11251800593E+04  0.11251800593E+04  0.25500000920E-02 0.  1.
    10030    2    1    2    0    0  0.00000000000E+00  0.00000000000E+00 -0.93429963721E+03  0.13160604814E+04  0.92687613982E+03 0.  0.
        3    1    3    3  502    0  0.54263687241E+02  0.45967807789E+03 -0.49972538962E+03  0.68115633908E+03  0.10100000352E+00 0. -1.
       -3    1    3    3    0  502 -0.54263687241E+02 -0.45967807789E+03 -0.43457424759E+03  0.63490414230E+03  0.10100000352E+00 0.  1.
</event>
<event>
 5   0  0.5627232E-03  0.1073766E+04  0.7818609E-02  0.9231145E-01
       -2   -1    0    0    0  501  0.00000000000E+00  0.00000000000E+00  0.64442573792E+03  0.64442573793E+03  0.25500000920E-02 0. -1.
        2   -1    0    0  501    0  0.00000000000E+00  0.00000000000E+00 -0.44728703651E+03  0.44728703652E+03  0.25500000920E-02 0.  1.
    10030    2    1    2    0    0  0.00000000000E+00  0.00000000000E+00  0.19713870141E+03  0.10917127744E+04  0.10737658564E+04 0.  0.
        2    1    3    3  502    0  0.21216968835E+03 -0.41481971355E+03 -0.17263214147E+03  0.49688351520E+03  0.25500000920E-02 0.  1.
       -2    1    3    3    0  502 -0.21216968835E+03  0.41481971355E+03  0.36977084288E+03  0.59482925924E+03  0.25500000920E-02 0. -1.
</event>
<event>
 5   0  0.5723194E-03  0.1098660E+04  0.7818609E-02  0.9206499E-01
       -2   -1    0    0    0  501  0.00000000000E+00  0.00000000000E+00  0.35649145205E+03  0.35649145206E+03  0.25500000920E-02 0. -1.
        2   -1    0    0  501    0  0.00000000000E+00  0.00000000000E+00 -0.84648103325E+03  0.84648103326E+03  0.25500000920E-02 0.  1.
    10030    2    1    2    0    0  0.00000000000E+00  0.00000000000E+00 -0.48998958120E+03  0.12029724853E+04  0.10986596428E+04 0.  0.
        1    1    3    3  502    0  0.47292598637E+03 -0.20380171920E+02 -0.55018601664E+03  0.72579542085E+03  0.50400001928E-02 0.  1.
       -1    1    3    3    0  502 -0.47292598637E+03  0.20380171920E+02  0.60196435436E+02  0.47717706447E+03  0.50400001928E-02 0. -1.
</event>
<event>
 5   0  0.5941585E-03  0.1073787E+04  0.7818609E-02  0.9231124E-01
        2   -1    0    0  501    0  0.00000000000E+00  0.00000000000E+00  0.15002700383E+04  0.15002700383E+04  0.25500000920E-02 0.  1.
       -2   -1    0    0    0  501  0.00000000000E+00  0.00000000000E+00 -0.19213525266E+03  0.19213525267E+03  0.25500000920E-02 0. -1.
    10030    2    1    2    0    0  0.00000000000E+00  0.00000000000E+00  0.13081347857E+04  0.16924052910E+04  0.10737872469E+04 0.  0.
        5    1    3    3  502    0  0.15259889314E+03  0.19102050753E+03  0.14074034649E+04  0.14284893628E+04  0.46999998093E+01 0.  1.
       -5    1    3    3    0  502 -0.15259889314E+03 -0.19102050753E+03 -0.99268679267E+02  0.26391592822E+03  0.46999998093E+01 0. -1.
</event>
<event>
 5   0  0.5627232E-03  0.1093494E+04  0.7818609E-02  0.9211556E-01
        2   -1    0    0  501    0  0.00000000000E+00  0.00000000000E+00  0.10450455432E+04  0.10450455432E+04  0.25500000920E-02 0. -1.
       -2   -1    0    0    0  501  0.00000000000E+00  0.00000000000E+00 -0.28604714204E+03  0.28604714206E+03  0.25500000920E-02 0.  1.
    10030    2    1    2    0    0  0.00000000000E+00  0.00000000000E+00  0.75899840115E+03  0.13310926853E+04  0.10934940163E+04 0.  0.
        2    1    3    3  502    0  0.13748465668E+02  0.33471571946E+03  0.90548511528E+03  0.96546720668E+03  0.25500000920E-02 0. -1.
       -2    1    3    3    0  502 -0.13748465668E+02 -0.33471571946E+03 -0.14648671413E+03  0.36562547858E+03  0.25500000920E-02 0.  1.
</event>
<event>
 5   0  0.3328741E-03  0.1098558E+04  0.7818609E-02  0.9206598E-01
       -1   -1    0    0    0  501  0.00000000000E+00  0.00000000000E+00  0.69320111278E+03  0.69320111280E+03  0.50400001928E-02 0.  1.
        1   -1    0    0  501    0  0.00000000000E+00  0.00000000000E+00 -0.43523830703E+03  0.43523830706E+03  0.50400001928E-02 0. -1.
    10030    2    1    2    0    0  0.00000000000E+00  0.00000000000E+00  0.25796280575E+03  0.11284394199E+04  0.10985584714E+04 0.  0.
        3    1    3    3  502    0  0.19646211375E+03  0.17956464673E+02  0.65555336442E+03  0.68459478567E+03  0.10100000352E+00 0.  1.
       -3    1    3    3    0  502 -0.19646211375E+03 -0.17956464673E+02 -0.39759055867E+03  0.44384463420E+03  0.10100000352E+00 0. -1.
</event>
<event>
 5   0  0.3215352E-03  0.1113176E+04  0.7818609E-02  0.9192444E-01
       -1   -1    0    0    0  501  0.00000000000E+00  0.00000000000E+00  0.23550321615E+03  0.23550321621E+03  0.50400001928E-02 0. -1.
        1   -1    0    0  501    0  0.00000000000E+00  0.00000000000E+00 -0.13154394859E+04  0.13154394859E+04  0.50400001928E-02 0.  1.
    10030    2    1    2    0    0  0.00000000000E+00  0.00000000000E+00 -0.10799362698E+04  0.15509427021E+04  0.11131760501E+04 0.  0.
        1    1    3    3  502    0  0.31540755604E+03 -0.31493122733E+02 -0.11773997764E+04  0.12193211131E+04  0.50400001928E-02 0.  1.
       -1    1    3    3    0  502 -0.31540755604E+03  0.31493122733E+02  0.97463506662E+02  0.33162158908E+03  0.50400001928E-02 0. -1.
</event>
<event>
 5   0  0.5627232E-03  0.1085016E+04  0.7818609E-02  0.9219920E-01
        2   -1    0    0  501    0  0.00000000000E+00  0.00000000000E+00  0.15749050252E+04  0.15749050252E+04  0.25500000920E-02 0.  1.
       -2   -1    0    0    0  501  0.00000000000E+00  0.00000000000E+00 -0.18687796714E+03  0.18687796715E+03  0.25500000920E-02 0. -1.
    10030    2    1    2    0    0  0.00000000000E+00  0.00000000000E+00  0.13880270581E+04  0.17617829924E+04  0.10850162203E+04 0.  0.
        2    1    3    3  502    0 -0.43136217835E+03 -0.25444457027E+03  0.10326698766E+04  0.11477031159E+04  0.25500000920E-02 0. -1.
       -2    1    3    3    0  502  0.43136217835E+03  0.25444457027E+03  0.35535718151E+03  0.61407987648E+03  0.25500000920E-02 0.  1.
</event>
<event>
 5   0  0.5941585E-03  0.1109615E+04  0.7818609E-02  0.9195871E-01
        2   -1    0    0  501    0  0.00000000000E+00  0.00000000000E+00  0.45902263172E+03  0.45902263173E+03  0.25500000920E-02 0.  1.
       -2   -1    0    0    0  501  0.00000000000E+00  0.00000000000E+00 -0.67058021008E+03  0.67058021009E+03  0.25500000920E-02 0. -1.
    10030    2    1    2    0    0  0.00000000000E+00  0.00000000000E+00 -0.21155757836E+03  0.11296028418E+04  0.11096152357E+04 0.  0.
        5    1    3    3  502    0  0.45385583955E+03 -0.19005296576E+03 -0.36668454307E+03  0.61366513427E+03  0.46999998093E+01 0. -1.
       -5    1    3    3    0  502 -0.45385583955E+03  0.19005296576E+03  0.15512696471E+03  0.51593770755E+03  0.46999998093E+01 0.  1.
</event>
<event>
 5   0  0.5941585E-03  0.1102928E+04  0.7818609E-02  0.9202343E-01
        2   -1    0    0  501    0  0.00000000000E+00  0.00000000000E+00  0.66311373572E+03  0.66311373572E+03  0.25500000920E-02 0.  1.
       -2   -1    0    0    0  501  0.00000000000E+00  0.00000000000E+00 -0.45861286851E+03  0.45861286852E+03  0.25500000920E-02 0. -1.
    10030    2    1    2    0    0  0.00000000000E+00  0.00000000000E+00  0.20450086721E+03  0.11217266042E+04  0.11029279079E+04 0.  0.
        5    1    3    3  502    0 -0.49761212057E+02  0.50529023478E+03  0.32108284325E+03  0.60075842218E+03  0.46999998093E+01 0.  1.
       -5    1    3    3    0  502  0.49761212057E+02 -0.50529023478E+03 -0.11658197605E+03  0.52096818207E+03  0.46999998093E+01 0. -1.
</event>
<event>
 5   0  0.3316784E-03  0.1094729E+04  0.7818609E-02  0.9210345E-01
        1   -1    0    0  501    0  0.00000000000E+00  0.00000000000E+00  0.78987679189E+03  0.78987679190E+03  0.50400001928E-02 0.  1.
       -1   -1    0    0    0  501  0.00000000000E+00  0.00000000000E+00 -0.37930942425E+03  0.37930942428E+03  0.50400001928E-02 0. -1.
    10030    2    1    2    0    0  0.00000000000E+00  0.00000000000E+00  0.41056736764E+03  0.11691862162E+04  0.10947286626E+04 0.  0.
        4    1    3    3  502    0 -0.25030338436E+03  0.30690660988E+03 -0.19825436826E+03  0.44288808840E+03  0.12699999809E+01 0. -1.
       -4    1    3    3    0  502  0.25030338436E+03 -0.30690660988E+03  0.60882173590E+03  0.72629812778E+03  0.12699999809E+01 0.  1.
</event>
<event>
 5   0  0.3241189E-03  0.1084619E+04  0.7818609E-02  0.9220314E-01
        1   -1    0    0  501    0  0.00000000000E+00  0.00000000000E+00  0.10413044422E+04  0.10413044422E+04  0.50400001928E-02 0.  1.
       -1   -1    0    0    0  501  0.00000000000E+00  0.00000000000E+00 -0.28243392260E+03  0.28243392264E+03  0.50400001928E-02 0. -1.
    10030    2    1    2    0    0  0.00000000000E+00  0.00000000000E+00  0.75887051958E+03  0.13237383648E+04  0.10846191926E+04 0.  0.
        5    1    3    3  502    0  0.19118790730E+03 -0.48376960265E+02  0.99596209449E+03  0.10153106568E+04  0.46999998093E+01 0.  1.
       -5    1    3    3    0  502 -0.19118790730E+03  0.48376960265E+02 -0.23709157491E+03  0.30842770802E+03  0.46999998093E+01 0. -1.
</event>
<event>
 5   0  0.5723194E-03  0.1096048E+04  0.7818609E-02  0.9209053E-01
       -2   -1    0    0    0  501  0.00000000000E+00  0.00000000000E+00  0.37882490755E+03  0.37882490756E+03  0.25500000920E-02 0.  1.
        2   -1    0    0  501    0  0.00000000000E+00  0.00000000000E+00 -0.79279419870E+03  0.79279419871E+03  0.25500000920E-02 0. -1.
    10030    2    1    2    0    0  0.00000000000E+00  0.00000000000E+00 -0.41396929115E+03  0.11716191063E+04  0.10960477892E+04 0.  0.
        1    1    3    3  502    0  0.31572621367E+03 -0.40915251060E+03 -0.40187772272E+03  0.65467130911E+03  0.50400001928E-02 0. -1.
       -1    1    3    3    0  502 -0.31572621367E+03  0.40915251060E+03 -0.12091568429E+02  0.51694779715E+03  0.50400001928E-02 0.  1.
</event>
<event>
 5   0  0.5946359E-03  0.1099353E+04  0.7818609E-02  0.9205823E-01
       -2   -1    0    0    0  501  0.00000000000E+00  0.00000000000E+00  0.37574498407E+03  0.37574498408E+03  0.25500000920E-02 0. -1.
        2   -1    0    0  501    0  0.00000000000E+00  0.00000000000E+00 -0.80412079070E+03  0.80412079071E+03  0.25500000920E-02 0.  1.
    10030    2    1    2    0    0  0.00000000000E+00  0.00000000000E+00 -0.42837580663E+03  0.11798657748E+04  0.10993531802E+04 0.  0.
        4    1    3    3  502    0  0.14232963816E+02 -0.54892881024E+03 -0.18752224917E+03  0.58025134450E+03  0.12699999809E+01 0.  1.
       -4    1    3    3    0  502 -0.14232963816E+02  0.54892881024E+03 -0.24085355746E+03  0.59961443029E+03  0.12699999809E+01 0. -1.
</event>
<event>
 5   0  0.5627232E-03  0.1105818E+04  0.7818609E-02  0.9199540E-01
       -2   -1    0    0    0  501  0.00000000000E+00  0.00000000000E+00  0.27105777397E+03  0.27105777399E+03  0.25500000920E-02 0.  1.
        2   -1    0    0  501    0  0.00000000000E+00  0.00000000000E+00 -0.11278337132E+04  0.11278337132E+04  0.25500000920E-02 0. -1.
    10030    2    1    2    0    0  0.00000000000E+00  0.00000000000E+00 -0.85677593918E+03  0.13988914871E+04  0.11058175179E+04 0.  0.
        2    1    3    3  502    0 -0.30519402467E+03  0.68473117021E+02  0.14838231696E+03  0.34619253667E+03  0.25500000920E-02 0.  1.
       -2    1    3    3    0  502  0.30519402467E+03 -0.68473117021E+02 -0.10051582561E+04  0.10526989505E+04  0.25500000920E-02 0. -1.
</event>
<event>
 5   0  0.5627232E-03  0.1088241E+04  0.7818609E-02  0.9216729E-01
       -2   -1    0    0    0  501  0.00000000000E+00  0.00000000000E+00  0.20552860285E+03  0.20552860287E+03  0.25500000920E-02 0.  1.
        2   -1    0    0  501    0  0.00000000000E+00  0.00000000000E+00 -0.14405150553E+04  0.14405150553E+04  0.25500000920E-02 0. -1.
    10030    2    1    2    0    0  0.00000000000E+00  0.00000000000E+00 -0.12349864525E+04  0.16460436582E+04  0.10882408681E+04 0.  0.
        2    1    3    3  502    0  0.35936176823E+03 -0.38565994912E+03 -0.82150881103E+03  0.97608975172E+03  0.25500000920E-02 0. -1.
       -2    1    3    3    0  502 -0.35936176823E+03  0.38565994912E+03 -0.41347764145E+03  0.66995390648E+03  0.25500000920E-02 0.  1.
</event>
<event>
 5   0  0.2185750E-03  0.9161523E+03  0.7818609E-02  0.9405612E-01
       -4   -1    0    0    0  501  0.00000000000E+00  0.00000000000E+00  0.43448797441E+03  0.43448983050E+03  0.12699999809E+01 0. -1.
        4   -1    0    0  501    0  0.00000000000E+00  0.00000000000E+00 -0.48294120478E+03  0.48294287465E+03  0.12699999809E+01 0.  1.
    10030    2    1    2    0    0  0.00000000000E+00  0.00000000000E+00 -0.48453230369E+02  0.91743270515E+03  0.91615230882E+03 0.  0.
        5    1    3    3  502    0 -0.22240984614E+03  0.28754320306E+03 -0.30329950211E+03  0.47345528962E+03  0.46999998093E+01 0.  1.
       -5    1    3    3    0  502  0.22240984614E+03 -0.28754320306E+03  0.25484627174E+03  0.44397741554E+03  0.46999998093E+01 0. -1.
</event>
<event>
 5   0  0.3328741E-03  0.1088882E+04  0.7818609E-02  0.9216096E-01
       -1   -1    0    0    0  501  0.00000000000E+00  0.00000000000E+00  0.23043702893E+03  0.23043702898E+03  0.50400001928E-02 0. -1.
        1   -1    0    0  501    0  0.00000000000E+00  0.00000000000E+00 -0.12863216707E+04  0.12863216707E+04  0.50400001928E-02 0.  1.
    10030    2    1    2    0    0  0.00000000000E+00  0.00000000000E+00 -0.10558846418E+04  0.15167586997E+04  0.10888822601E+04 0.  0.
        3    1    3    3  502    0 -0.20091789642E+03  0.48404391506E+03 -0.73337116376E+03  0.90138770063E+03  0.10100000352E+00 0.  1.
       -3    1    3    3    0  502  0.20091789642E+03 -0.48404391506E+03 -0.32251347804E+03  0.61537099909E+03  0.10100000352E+00 0. -1.
</event>
<event>
 5   0  0.5941585E-03  0.1087750E+04  0.7818609E-02  0.9217215E-01
       -2   -1    0    0    0  501  0.00000000000E+00  0.00000000000E+00  0.48513709400E+03  0.48513709401E+03  0.25500000920E-02 0. -1.
        2   -1    0    0  501    0  0.00000000000E+00  0.00000000000E+00 -0.60972423498E+03  0.60972423498E+03  0.25500000920E-02 0.  1.
    10030    2    1    2    0    0  0.00000000000E+00  0.00000000000E+00 -0.12458714098E+03  0.10948613290E+04  0.10877496835E+04 0.  0.
        5    1    3    3  502    0  0.30857318515E+03  0.41681712742E+03 -0.22714416059E+03  0.56618944532E+03  0.46999998093E+01 0.  1.
       -5    1    3    3    0  502 -0.30857318515E+03 -0.41681712742E+03  0.10255701961E+03  0.52867188367E+03  0.46999998093E+01 0. -1.
</event>
<event>
 5   0  0.5723194E-03  0.1110960E+04  0.7818609E-02  0.9194575E-01
        2   -1    0    0  501    0  0.00000000000E+00  0.00000000000E+00  0.16298640726E+04  0.16298640726E+04  0.25500000920E-02 0. -1.
       -2   -1    0    0    0  501  0.00000000000E+00  0.00000000000E+00 -0.18931508983E+03  0.18931508985E+03  0.25500000920E-02 0.  1.
    10030    2    1    2    0    0  0.00000000000E+00  0.00000000000E+00  0.14405489827E+04  0.18191791624E+04  0.11109596992E+04 0.  0.
        1    1    3    3  502    0  0.39991570573E+02  0.13653754057E+03  0.15995228540E+04  0.16058378456E+04  0.50400001928E-02 0. -1.
       -1    1    3    3    0  502 -0.39991570573E+02 -0.13653754057E+03 -0.15897387128E+03  0.21334131686E+03  0.50400001928E-02 0.  1.
</event>
<event>
 5   0  0.3316784E-03  0.1086484E+04  0.7818609E-02  0.9218466E-01
       -1   -1    0    0    0  501  0.00000000000E+00  0.00000000000E+00  0.17126363049E+03  0.17126363056E+03  0.50400001928E-02 0. -1.
        1   -1    0    0  501    0  0.00000000000E+00  0.00000000000E+00 -0.17231441500E+04  0.17231441500E+04  0.50400001928E-02 0.  1.
    10030    2    1    2    0    0  0.00000000000E+00  0.00000000000E+00 -0.15518805195E+04  0.18944077806E+04  0.10864840966E+04 0.  0.
        4    1    3    3  502    0 -0.22280914500E+03  0.46328953170E+03 -0.46979237932E+03  0.69641050957E+03  0.12699999809E+01 0. -1.
       -4    1    3    3    0  502  0.22280914500E+03 -0.46328953170E+03 -0.10820881402E+04  0.11979972710E+04  0.12699999809E+01 0.  1.
</event>
<event>
 5   0  0.3328741E-03  0.1075293E+04  0.7818609E-02  0.9229613E-01
        1   -1    0    0  501    0  0.00000000000E+00  0.00000000000E+00  0.15589554648E+04  0.15589554648E+04  0.50400001928E-02 0. -1.
       -1   -1    0    0    0  501  0.00000000000E+00  0.00000000000E+00 -0.18542143816E+03  0.18542143822E+03  0.50400001928E-02 0.  1.
    10030    2    1    2    0    0  0.00000000000E+00  0.00000000000E+00  0.13735340266E+04  0.17443769030E+04  0.10752930100E+04 0.  0.
        3    1    3    3  502    0 -0.29204104503E+03 -0.44988068877E+03  0.62643499698E+03  0.82468261880E+03  0.10100000352E+00 0.  1.
       -3    1    3    3    0  502  0.29204104503E+03  0.44988068877E+03  0.74709902962E+03  0.91969428419E+03  0.10100000352E+00 0. -1.
</event>
<event>
 5   0  0.5941585E-03  0.1098532E+04  0.7818609E-02  0.9206624E-01
        2   -1    0    0  501    0  0.00000000000E+00  0.00000000000E+00  0.59669399520E+03  0.59669399520E+03  0.25500000920E-02 0.  1.
       -2   -1    0    0    0  501  0.00000000000E+00  0.00000000000E+00 -0.50560799970E+03  0.50560799970E+03  0.25500000920E-02 0. -1.
    10030    2    1    2    0    0  0.00000000000E+00  0.00000000000E+00  0.91085995497E+02  0.11023019949E+04  0.10985322159E+04 0.  0.
        5    1    3    3  502    0  0.29210199484E+03  0.99354245435E+02 -0.41041299432E+03  0.51347420322E+03  0.46999998093E+01 0. -1.
       -5    1    3    3    0  502 -0.29210199484E+03 -0.99354245435E+02  0.50149898981E+03  0.58882779168E+03  0.46999998093E+01 0.  1.
</event>
<event>
 5   0  0.2185750E-03  0.1081601E+04  0.7818609E-02  0.9223313E-01
        4   -1    0    0  501    0  0.00000000000E+00  0.00000000000E+00  0.38299086573E+03  0.38299297139E+03  0.12699999809E+01 0. -1.
       -4   -1    0    0    0  501  0.00000000000E+00  0.00000000000E+00 -0.76363031900E+03  0.76363137507E+03  0.12699999809E+01 0.  1.
    10030    2    1    2    0    0  0.00000000000E+00  0.00000000000E+00 -0.38063945327E+03  0.11466243465E+04  0.10816011273E+04 0.  0.
        4    1    3    3  502    0 -0.38414234731E+03  0.68635050119E+02 -0.58724496093E+03  0.70507756321E+03  0.12699999809E+01 0.  1.
       -4    1    3    3    0  502  0.38414234731E+03 -0.68635050119E+02  0.20660550766E+03  0.44154678325E+03  0.12699999809E+01 0. -1.
</event>
<event>
 5   0  0.5627232E-03  0.1101726E+04  0.7818609E-02  0.9203511E-01
       -2   -1    0    0    0  501  0.00000000000E+00  0.00000000000E+00  0.25203147337E+03  0.25203147338E+03  0.25500000920E-02 0. -1.
        2   -1    0    0  501    0  0.00000000000E+00  0.00000000000E+00 -0.12040168636E+04  0.12040168636E+04  0.25500000920E-02 0.  1.
    10030    2    1    2    0    0  0.00000000000E+00  0.00000000000E+00 -0.95198539022E+03  0.14560483370E+04  0.11017261803E+04 0.  0.
        2    1    3    3  502    0 -0.39920092993E+03 -0.25555563043E+03 -0.84693839037E+03  0.97055381087E+03  0.25500000920E-02 0.  1.
       -2    1    3    3    0  502  0.39920092993E+03  0.25555563043E+03 -0.10504699986E+03  0.48549452612E+03  0.25500000920E-02 0. -1.
</event>
<event>
 5   0  0.5946359E-03  0.1176887E+04  0.7818609E-02  0.9133331E-01
       -2   -1    0    0    0  501  0.00000000000E+00  0.00000000000E+00  0.12934562387E+03  0.12934562390E+03  0.25500000920E-02 0. -1.
        2   -1    0    0  501    0  0.00000000000E+00  0.00000000000E+00 -0.26770601818E+04  0.26770601818E+04  0.25500000920E-02 0.  1.
    10030    2    1    2    0    0  0.00000000000E+00  0.00000000000E+00 -0.25477145579E+04  0.28064058057E+04  0.11768874532E+04 0.  0.
        4    1    3    3  502    0  0.32095240274E+03 -0.46600930732E+03 -0.88869243156E+03  0.10535421065E+04  0.12699999809E+01 0. -1.
       -4    1    3    3    0  502 -0.32095240274E+03  0.46600930732E+03 -0.16590221264E+04  0.17528636992E+04  0.12699999809E+01 0.  1.
</event>
<event>
 5   0  0.3215352E-03  0.1106142E+04  0.7818609E-02  0.9199226E-01
       -1   -1    0    0    0  501  0.00000000000E+00  0.00000000000E+00  0.70520647541E+03  0.70520647542E+03  0.50400001928E-02 0. -1.
        1   -1    0    0  501    0  0.00000000000E+00  0.00000000000E+00 -0.43375597954E+03  0.43375597956E+03  0.50400001928E-02 0.  1.
    10030    2    1    2    0    0  0.00000000000E+00  0.00000000000E+00  0.27145049587E+03  0.11389624550E+04  0.11061419901E+04 0.  0.
        1    1    3    3  502    0  0.23673219126E+02 -0.10939614803E+03  0.69342271509E+03  0.70239803554E+03  0.50400001928E-02 0. -1.
       -1    1    3    3    0  502 -0.23673219126E+02  0.10939614803E+03 -0.42197221922E+03  0.43656441945E+03  0.50400001928E-02 0.  1.
</event>
<event>
 5   0  0.3215352E-03  0.1118087E+04  0.7818609E-02  0.9187740E-01
       -1   -1    0    0    0  501  0.00000000000E+00  0.00000000000E+00  0.45265219687E+03  0.45265219690E+03  0.50400001928E-02 0.  1.
        1   -1    0    0  501    0  0.00000000000E+00  0.00000000000E+00 -0.69044065676E+03  0.69044065678E+03  0.50400001928E-02 0. -1.
    10030    2    1    2    0    0  0.00000000000E+00  0.00000000000E+00 -0.23778845989E+03  0.11430928537E+04  0.11180867231E+04 0.  0.
        1    1    3    3  502    0 -0.41599046989E+03  0.24218982722E+03 -0.40955084410E+03  0.63200939659E+03  0.50400001928E-02 0. -1.
       -1    1    3    3    0  502  0.41599046989E+03 -0.24218982722E+03  0.17176238421E+03  0.51108345709E+03  0.50400001928E-02 0.  1.
</event>
<event>
 5   0  0.3328741E-03  0.1095899E+04  0.7818609E-02  0.9209198E-01
        1   -1    0    0  501    0  0.00000000000E+00  0.00000000000E+00  0.99527177877E+03  0.99527177878E+03  0.50400001928E-02 0.  1.
       -1   -1    0    0    0  501  0.00000000000E+00  0.00000000000E+00 -0.30167490356E+03  0.30167490361E+03  0.50400001928E-02 0. -1.
    10030    2    1    2    0    0  0.00000000000E+00  0.00000000000E+00  0.69359687521E+03  0.12969466824E+04  0.10958987506E+04 0.  0.
        3    1    3    3  502    0 -0.44489839100E+03  0.31948249423E+03  0.32827953282E+03  0.63856957671E+03  0.10100000352E+00 0.  1.
       -3    1    3    3    0  502  0.44489839100E+03 -0.31948249423E+03  0.36531734239E+03  0.65837710568E+03  0.10100000352E+00 0. -1.
</event>
<event>
 5   0  0.5723194E-03  0.1119634E+04  0.7818609E-02  0.9186263E-01
        2   -1    0    0  501    0  0.00000000000E+00  0.00000000000E+00  0.14043880192E+04  0.14043880192E+04  0.25500000920E-02 0. -1.
       -2   -1    0    0    0  501  0.00000000000E+00  0.00000000000E+00 -0.22315438602E+03  0.22315438603E+03  0.25500000920E-02 0.  1.
    10030    2    1    2    0    0  0.00000000000E+00  0.00000000000E+00  0.11812336332E+04  0.16275424052E+04  0.11196344871E+04 0.  0.
        1    1    3    3  502    0 -0.97472395499E+02 -0.54343738771E+03  0.45604514413E+03  0.71610211266E+03  0.50400001928E-02 0.  1.
       -1    1    3    3    0  502  0.97472395499E+02  0.54343738771E+03  0.72518848904E+03  0.91144029256E+03  0.50400001928E-02 0. -1.
</event>
<event>
 5   0  0.2185750E-03  0.1080003E+04  0.7818609E-02  0.9224904E-01
        3   -1    0    0  501    0  0.00000000000E+00  0.00000000000E+00  0.16390968680E+04  0.16390968712E+04  0.10100000352E+00 0.  1.
       -3   -1    0    0    0  501  0.00000000000E+00  0.00000000000E+00 -0.17790380325E+03  0.17790383192E+03  0.10100000352E+00 0. -1.
    10030    2    1    2    0    0  0.00000000000E+00  0.00000000000E+00  0.14611930648E+04  0.18170007031E+04  0.10800029548E+04 0.  0.
        1    1    3    3  502    0  0.25630462600E+03  0.29473455273E+02 -0.67509936928E+02  0.26668021577E+03  0.50400001928E-02 0. -1.
       -1    1    3    3    0  502 -0.25630462600E+03 -0.29473455273E+02  0.15287030017E+04  0.15503204873E+04  0.50400001928E-02 0.  1.
</event>
<event>
 5   0  0.5946359E-03  0.1097576E+04  0.7818609E-02  0.9207558E-01
        2   -1    0    0  501    0  0.00000000000E+00  0.00000000000E+00  0.19153112272E+04  0.19153112272E+04  0.25500000920E-02 0.  1.
       -2   -1    0    0    0  501  0.00000000000E+00  0.00000000000E+00 -0.15724247139E+03  0.15724247141E+03  0.25500000920E-02 0. -1.
    10030    2    1    2    0    0  0.00000000000E+00  0.00000000000E+00  0.17580687558E+04  0.20725536986E+04  0.10975760035E+04 0.  0.
        4    1    3    3  502    0 -0.10604813664E+03  0.29832067592E+03  0.32609499250E+02  0.31828670300E+03  0.12699999809E+01 0. -1.
       -4    1    3    3    0  502  0.10604813664E+03 -0.29832067592E+03  0.17254592566E+04  0.17542669956E+04  0.12699999809E+01 0.  1.
</event>
<event>
 5   0  0.3316784E-03  0.1088554E+04  0.7818609E-02  0.9216420E-01
        1   -1    0    0  501    0  0.00000000000E+00  0.00000000000E+00  0.44510749411E+03  0.44510749414E+03  0.50400001928E-02 0. -1.
       -1   -1    0    0    0  501  0.00000000000E+00  0.00000000000E+00 -0.66554123768E+03  0.66554123770E+03  0.50400001928E-02 0.  1.
    10030    2    1    2    0    0  0.00000000000E+00  0.00000000000E+00 -0.22043374357E+03  0.11106487318E+04  0.10885538894E+04 0.  0.
        4    1    3    3  502    0 -0.50483257886E+03  0.17582537096E+03 -0.58404654902E+01  0.53460847140E+03  0.12699999809E+01 0.  1.
       -4    1    3    3    0  502  0.50483257886E+03 -0.17582537096E+03 -0.21459327808E+03  0.57604026044E+03  0.12699999809E+01 0. -1.
</event>
<event>
 5   0  0.3241189E-03  0.1184304E+04  0.7818609E-02  0.9126707E-01
        1   -1    0    0  501    0  0.00000000000E+00  0.00000000000E+00  0.14860886962E+04  0.14860886962E+04  0.50400001928E-02 0.  1.
       -1   -1    0    0    0  501  0.00000000000E+00  0.00000000000E+00 -0.23595110469E+03  0.23595110474E+03  0.50400001928E-02 0. -1.
    10030    2    1    2    0    0  0.00000000000E+00  0.00000000000E+00  0.12501375915E+04  0.17220398010E+04  0.11843044703E+04 0.  0.
        5    1    3    3  502    0 -0.29927886223E+03 -0.32195716025E+03  0.12019406146E+04  0.12798076346E+04  0.46999998093E+01 0.  1.
       -5    1    3    3    0  502  0.29927886223E+03  0.32195716025E+03  0.48196976910E+02  0.44223216640E+03  0.46999998093E+01 0. -1.
</event>
<event>
 5   0  0.5723194E-03  0.1115606E+04  0.7818609E-02  0.9190114E-01
        2   -1    0    0  501    0  0.00000000000E+00  0.00000000000E+00  0.74575773200E+03  0.74575773200E+03  0.25500000920E-02 0.  1.
       -2   -1    0    0    0  501  0.00000000000E+00  0.00000000000E+00 -0.41721849927E+03  0.41721849928E+03  0.25500000920E-02 0. -1.
    10030    2    1    2    0    0  0.00000000000E+00  0.00000000000E+00  0.32853923273E+03  0.11629762313E+04  0.11156055248E+04 0.  0.
        1    1    3    3  502    0  0.27712438970E+03 -0.72364614921E+02  0.66324784337E+03  0.72244879862E+03  0.50400001928E-02 0.  1.
       -1    1    3    3    0  502 -0.27712438970E+03  0.72364614921E+02 -0.33470861064E+03  0.44052743266E+03  0.50400001928E-02 0. -1.
</event>
<event>
 5   0  0.3328741E-03  0.1084719E+04  0.7818609E-02  0.9220215E-01
       -1   -1    0    0    0  501  0.00000000000E+00  0.00000000000E+00  0.50553021880E+03  0.50553021882E+03  0.50400001928E-02 0. -1.
        1   -1    0    0  501    0  0.00000000000E+00  0.00000000000E+00 -0.58187159802E+03  0.58187159804E+03  0.50400001928E-02 0.  1.
    10030    2    1    2    0    0  0.00000000000E+00  0.00000000000E+00 -0.76341379220E+02  0.10874018169E+04  0.10847187217E+04 0.  0.
        3    1    3    3  502    0 -0.20631602090E+03  0.45704044551E+03  0.16898361342E+03  0.52915757683E+03  0.10100000352E+00 0. -1.
       -3    1    3    3    0  502  0.20631602090E+03 -0.45704044551E+03 -0.24532499264E+03  0.55824424003E+03  0.10100000352E+00 0.  1.
</event>
<event>
 5   0  0.5627232E-03  0.1097839E+04  0.7818609E-02  0.9207300E-01
       -2   -1    0    0    0  501  0.00000000000E+00  0.00000000000E+00  0.36249909935E+03  0.36249909935E+03  0.25500000920E-02 0.  1.
        2   -1    0    0  501    0  0.00000000000E+00  0.00000000000E+00 -0.83120988838E+03  0.83120988838E+03  0.25500000920E-02 0. -1.
    10030    2    1    2    0    0  0.00000000000E+00  0.00000000000E+00 -0.46871078903E+03  0.11937089877E+04  0.10978393979E+04 0.  0.
        2    1    3    3  502    0  0.38227624785E+03 -0.38865396515E+03 -0.16451385207E+03  0.56943115635E+03  0.25500000920E-02 0.  1.
       -2    1    3    3    0  502 -0.38227624785E+03  0.38865396515E+03 -0.30419693697E+03  0.62427783139E+03  0.25500000920E-02 0. -1.
</event>
<event>
 5   0  0.5627232E-03  0.1090191E+04  0.7818609E-02  0.9214805E-01
       -2   -1    0    0    0  501  0.00000000000E+00  0.00000000000E+00  0.44111598755E+03  0.44111598756E+03  0.25500000920E-02 0. -1.
        2   -1    0    0  501    0  0.00000000000E+00  0.00000000000E+00 -0.67358535124E+03  0.67358535125E+03  0.25500000920E-02 0.  1.
    10030    2    1    2    0    0  0.00000000000E+00  0.00000000000E+00 -0.23246936369E+03  0.11147013388E+04  0.10901912996E+04 0.  0.
        2    1    3    3  502    0  0.24788782537E+03 -0.45850853736E+03  0.46885108571E+02  0.52333227132E+03  0.25500000920E-02 0. -1.
       -2    1    3    3    0  502 -0.24788782537E+03  0.45850853736E+03 -0.27935447226E+03  0.59136906748E+03  0.25500000920E-02 0.  1.
</event>
<event>
 5   0  0.5946359E-03  0.1109375E+04  0.7818609E-02  0.9196102E-01
       -2   -1    0    0    0  501  0.00000000000E+00  0.00000000000E+00  0.91232650318E+03  0.91232650318E+03  0.25500000920E-02 0.  1.
        2   -1    0    0  501    0  0.00000000000E+00  0.00000000000E+00 -0.33724563367E+03  0.33724563368E+03  0.25500000920E-02 0. -1.
    10030    2    1    2    0    0  0.00000000000E+00  0.00000000000E+00  0.57508086951E+03  0.12495721369E+04  0.11093748324E+04 0.  0.
        4    1    3    3  502    0  0.22443109965E+03 -0.42140169656E+03 -0.30504099722E+02  0.47841490503E+03  0.12699999809E+01 0. -1.
       -4    1    3    3    0  502 -0.22443109965E+03  0.42140169656E+03  0.60558496923E+03  0.77115723183E+03  0.12699999809E+01 0.  1.
</event>
<event>
 5   0  0.5941585E-03  0.1363198E+04  0.7818609E-02  0.8980897E-01
        2   -1    0    0  501    0  0.00000000000E+00  0.00000000000E+00  0.12418113429E+04  0.12418113429E+04  0.25500000920E-02 0. -1.
       -2   -1    0    0    0  501  0.00000000000E+00  0.00000000000E+00 -0.37411271360E+03  0.37411271361E+03  0.25500000920E-02 0.  1.
    10030    2    1    2    0    0  0.00000000000E+00  0.00000000000E+00  0.86769862931E+03  0.16159240565E+04  0.13631983147E+04 0.  0.
        5    1    3    3  502    0  0.25577876550E+03  0.53537650130E+03  0.36248796096E+02  0.59446348941E+03  0.46999998093E+01 0.  1.
       -5    1    3    3    0  502 -0.25577876550E+03 -0.53537650130E+03  0.83144983321E+03  0.10214605671E+04  0.46999998093E+01 0. -1.
</event>
<event>
 5   0  0.5723194E-03  0.1053879E+04  0.7818609E-02  0.9251348E-01
       -2   -1    0    0    0  501  0.00000000000E+00  0.00000000000E+00  0.39317123212E+03  0.39317123213E+03  0.25500000920E-02 0.  1.
        2   -1    0    0  501    0  0.00000000000E+00  0.00000000000E+00 -0.70622012093E+03  0.70622012093E+03  0.25500000920E-02 0. -1.
    10030    2    1    2    0    0  0.00000000000E+00  0.00000000000E+00 -0.31304888881E+03  0.10993913531E+04  0.10538793766E+04 0.  0.
        1    1    3    3  502    0 -0.37430995702E+03  0.20942338357E+03  0.16279816624E+03  0.45876937612E+03  0.50400001928E-02 0.  1.
       -1    1    3    3    0  502  0.37430995702E+03 -0.20942338357E+03 -0.47584705505E+03  0.64062197694E+03  0.50400001928E-02 0. -1.
</event>
<event>
 5   0  0.5941585E-03  0.1099384E+04  0.7818609E-02  0.9205793E-01
        2   -1    0    0  501    0  0.00000000000E+00  0.00000000000E+00  0.74388894029E+03  0.74388894030E+03  0.25500000920E-02 0. -1.
       -2   -1    0    0    0  501  0.00000000000E+00  0.00000000000E+00 -0.40619135241E+03  0.40619135242E+03  0.25500000920E-02 0.  1.
    10030    2    1    2    0    0  0.00000000000E+00  0.00000000000E+00  0.33769758788E+03  0.11500802927E+04  0.10993839269E+04 0.  0.
        5    1    3    3  502    0  0.54234541971E+03 -0.91426149189E+01  0.26192951360E+03  0.60237139854E+03  0.46999998093E+01 0. -1.
       -5    1    3    3    0  502 -0.54234541971E+03  0.91426149189E+01  0.75768074285E+02  0.54770889418E+03  0.46999998093E+01 0.  1.
</event>
<event>
 5   0  0.3316784E-03  0.1111503E+04  0.7818609E-02  0.9194052E-01
       -1   -1    0    0    0  501  0.00000000000E+00  0.00000000000E+00  0.22844284893E+03  0.22844284899E+03  0.50400001928E-02 0. -1.
        1   -1    0    0  501    0  0.00000000000E+00  0.00000000000E+00 -0.13520215094E+04  0.13520215094E+04  0.50400001928E-02 0.  1.
    10030    2    1    2    0    0  0.00000000000E+00  0.00000000000E+00 -0.11235786605E+04  0.15804643584E+04  0.11115028484E+04 0.  0.
        4    1    3    3  502    0  0.40909894156E+02 -0.20200132064E+03 -0.12956689640E+04  0.13119595383E+04  0.12699999809E+01 0.  1.
       -4    1    3    3    0  502 -0.40909894156E+02  0.20200132064E+03  0.17209030349E+03  0.26850482013E+03  0.12699999809E+01 0. -1.
</event>
<event>
 5   0  0.3241189E-03  0.1093538E+04  0.7818609E-02  0.9211513E-01
        1   -1    0    0  501    0  0.00000000000E+00  0.00000000000E+00  0.91861753052E+03  0.91861753053E+03  0.50400001928E-02 0. -1.
       -1   -1    0    0    0  501  0.00000000000E+00  0.00000000000E+00 -0.32544181822E+03  0.32544181826E+03  0.50400001928E-02 0.  1.
    10030    2    1    2    0    0  0.00000000000E+00  0.00000000000E+00  0.59317571230E+03  0.12440593488E+04  0.10935384025E+04 0.  0.
        5    1    3    3  502    0 -0.10462935972E+03  0.39998052521E+01 -0.31390637459E+03  0.33094199396E+03  0.46999998093E+01 0.  1.
       -5    1    3    3    0  502  0.10462935972E+03 -0.39998052521E+01  0.90708208689E+03  0.91311735484E+03  0.46999998093E+01 0. -1.
</event>
<event>
 5   0  0.5946359E-03  0.1111389E+04  0.7818609E-02  0.9194162E-01
        2   -1    0    0  501    0  0.00000000000E+00  0.00000000000E+00  0.47367757515E+03  0.47367757516E+03  0.25500000920E-02 0.  1.
       -2   -1    0    0    0  501  0.00000000000E+00  0.00000000000E+00 -0.65191282131E+03  0.65191282132E+03  0.25500000920E-02 0. -1.
    10030    2    1    2    0    0  0.00000000000E+00  0.00000000000E+00 -0.17823524616E+03  0.11255903965E+04  0.11113891927E+04 0.  0.
        4    1    3    3  502    0  0.30944356562E+01 -0.64942773139E+02 -0.64804599369E+03  0.65130051601E+03  0.12699999809E+01 0. -1.
       -4    1    3    3    0  502 -0.30944356562E+01  0.64942773139E+02  0.46981074753E+03  0.47428988046E+03  0.12699999809E+01 0.  1.
</event>
<event>
 5   0  0.5627232E-03  0.1154706E+04  0.7818609E-02  0.9153453E-01
        2   -1    0    0  501    0  0.00000000000E+00  0.00000000000E+00  0.58948130054E+03  0.58948130054E+03  0.25500000920E-02 0.  1.
       -2   -1    0    0    0  501  0.00000000000E+00  0.00000000000E+00 -0.56547408331E+03  0.56547408332E+03  0.25500000920E-02 0. -1.
    10030    2    1    2    0    0  0.00000000000E+00  0.00000000000E+00  0.24007217230E+02  0.11549553839E+04  0.11547058466E+04 0.  0.
        2    1    3    3  502    0 -0.13026521564E+03 -0.26916400696E+03  0.50599100121E+03  0.58774584844E+03  0.25500000920E-02 0.  1.
       -2    1    3    3    0  502  0.13026521564E+03  0.26916400696E+03 -0.48198378398E+03  0.56720953542E+03  0.25500000920E-02 0. -1.
</event>
<event>
 5   0  0.3241189E-03  0.1132680E+04  0.7818609E-02  0.9173913E-01
        1   -1    0    0  501    0  0.00000000000E+00  0.00000000000E+00  0.16107971593E+04  0.16107971593E+04  0.50400001928E-02 0. -1.
       -1   -1    0    0    0  501  0.00000000000E+00  0.00000000000E+00 -0.19911926141E+03  0.19911926147E+03  0.50400001928E-02 0.  1.
    10030    2    1    2    0    0  0.00000000000E+00  0.00000000000E+00  0.14116778979E+04  0.18099164208E+04  0.11326795499E+04 0.  0.
        5    1    3    3  502    0 -0.27064389566E+03 -0.43355710408E+03  0.10956062972E+04  0.12089644863E+04  0.46999998093E+01 0. -1.
       -5    1    3    3    0  502  0.27064389566E+03  0.43355710408E+03  0.31607160071E+03  0.60095193446E+03  0.46999998093E+01 0.  1.
</event>
<event>
 5   0  0.3320192E-03  0.1102918E+04  0.7818609E-02  0.9202353E-01
        1   -1    0    0  501    0  0.00000000000E+00  0.00000000000E+00  0.53741718651E+03  0.53741718654E+03  0.50400001928E-02 0.  1.
       -1   -1    0    0    0  501  0.00000000000E+00  0.00000000000E+00 -0.56586736336E+03  0.56586736338E+03  0.50400001928E-02 0. -1.
    10030    2    1    2    0    0  0.00000000000E+00  0.00000000000E+00 -0.28450176844E+02  0.11032845499E+04  0.11029176694E+04 0.  0.
        2    1    3    3  502    0  0.45127216084E+03  0.49734053465E+02  0.29890748368E+03  0.54356758829E+03  0.25500000920E-02 0.  1.
       -2    1    3    3    0  502 -0.45127216084E+03 -0.49734053465E+02 -0.32735766052E+03  0.55971696163E+03  0.25500000920E-02 0. -1.
</event>
<event>
 5   0  0.5941585E-03  0.1104256E+04  0.7818609E-02  0.9201053E-01
        2   -1    0    0  501    0  0.00000000000E+00  0.00000000000E+00  0.49720089363E+03  0.49720089363E+03  0.25500000920E-02 0.  1.
       -2   -1    0    0    0  501  0.00000000000E+00  0.00000000000E+00 -0.61312353154E+03  0.61312353154E+03  0.25500000920E-02 0. -1.
    10030    2    1    2    0    0  0.00000000000E+00  0.00000000000E+00 -0.11592263791E+03  0.11103244252E+04  0.11042564336E+04 0.  0.
        5    1    3    3  502    0  0.52183721670E+03 -0.17515887267E+03 -0.10096038970E+03  0.55965150022E+03  0.46999998093E+01 0. -1.
       -5    1    3    3    0  502 -0.52183721670E+03  0.17515887267E+03 -0.14962248209E+02  0.55067292496E+03  0.46999998093E+01 0.  1.
</event>
<event>
 5   0  0.3320192E-03  0.1107529E+04  0.7818609E-02  0.9197885E-01
       -1   -1    0    0    0  501  0.00000000000E+00  0.00000000000E+00  0.81738790783E+03  0.81738790784E+03  0.50400001928E-02 0. -1.
        1   -1    0    0  501    0  0.00000000000E+00  0.00000000000E+00 -0.37516466090E+03  0.37516466094E+03  0.50400001928E-02 0.  1.
    10030    2    1    2    0    0  0.00000000000E+00  0.00000000000E+00  0.44222324692E+03  0.11925525688E+04  0.11075288841E+04 0.  0.
        2    1    3    3  502    0 -0.37195596004E+03  0.36555297956E+03  0.42161870011E+03  0.67062847044E+03  0.25500000920E-02 0. -1.
       -2    1    3    3    0  502  0.37195596004E+03 -0.36555297956E+03  0.20604546806E+02  0.52192409834E+03  0.25500000920E-02 0.  1.
</event>
<event>
 5   0  0.3328741E-03  0.1107032E+04  0.7818609E-02  0.9198365E-01
        1   -1    0    0  501    0  0.00000000000E+00  0.00000000000E+00  0.24387868934E+03  0.24387868939E+03  0.50400001928E-02 0.  1.
       -1   -1    0    0    0  501  0.00000000000E+00  0.00000000000E+00 -0.12562804942E+04  0.12562804942E+04  0.50400001928E-02 0. -1.
    10030    2    1    2    0    0  0.00000000000E+00  0.00000000000E+00 -0.10124018049E+04  0.15001591836E+04  0.11070321412E+04 0.  0.
        3    1    3    3  502    0 -0.20045583320E+03  0.47388683009E+03 -0.78268735698E+03  0.93667004744E+03  0.10100000352E+00 0. -1.
       -3    1    3    3    0  502  0.20045583320E+03 -0.47388683009E+03 -0.22971444787E+03  0.56348913615E+03  0.10100000352E+00 0.  1.
</event>
<event>
 5   0  0.3215352E-03  0.1101951E+04  0.7818609E-02  0.9203292E-01
        1   -1    0    0  501    0  0.00000000000E+00  0.00000000000E+00  0.96442038505E+03  0.96442038506E+03  0.50400001928E-02 0. -1.
       -1   -1    0    0    0  501  0.00000000000E+00  0.00000000000E+00 -0.31477373943E+03  0.31477373947E+03  0.50400001928E-02 0.  1.
    10030    2    1    2    0    0  0.00000000000E+00  0.00000000000E+00  0.64964664562E+03  0.12791941245E+04  0.11019513801E+04 0.  0.
        1    1    3    3  502    0 -0.63391355533E+02  0.48824265894E+03  0.61194136909E+03  0.78541173737E+03  0.50400001928E-02 0. -1.
       -1    1    3    3    0  502  0.63391355533E+02 -0.48824265894E+03  0.37705276527E+02  0.49378238716E+03  0.50400001928E-02 0.  1.
</event>
<event>
 5   0  0.5723194E-03  0.1090371E+04  0.7818609E-02  0.9214629E-01
       -2   -1    0    0    0  501  0.00000000000E+00  0.00000000000E+00  0.17866780087E+03  0.17866780089E+03  0.25500000920E-02 0. -1.
        2   -1    0    0  501    0  0.00000000000E+00  0.00000000000E+00 -0.16635733295E+04  0.16635733295E+04  0.25500000920E-02 0.  1.
    10030    2    1    2    0    0  0.00000000000E+00  0.00000000000E+00 -0.14849055287E+04  0.18422411304E+04  0.10903705579E+04 0.  0.
        1    1    3    3  502    0  0.17762039430E+02 -0.37242718643E+03 -0.70422824094E+02  0.37944284605E+03  0.50400001928E-02 0. -1.
       -1    1    3    3    0  502 -0.17762039430E+02  0.37242718643E+03 -0.14144827046E+04  0.14627982844E+04  0.50400001928E-02 0.  1.
</event>
<event>
 5   0  0.2185750E-03  0.1100358E+04  0.7818609E-02  0.9204843E-01
       -3   -1    0    0    0  501  0.00000000000E+00  0.00000000000E+00  0.97393687541E+03  0.97393688065E+03  0.10100000352E+00 0. -1.
        3   -1    0    0  501    0  0.00000000000E+00  0.00000000000E+00 -0.31079707962E+03  0.31079709603E+03  0.10100000352E+00 0.  1.
    10030    2    1    2    0    0  0.00000000000E+00  0.00000000000E+00  0.66313979579E+03  0.12847339767E+04  0.11003576701E+04 0.  0.
        3    1    3    3  502    0  0.50255683875E+03 -0.18618337818E+03  0.47678508960E+03  0.71732256227E+03  0.10100000352E+00 0. -1.
       -3    1    3    3    0  502 -0.50255683875E+03  0.18618337818E+03  0.18635470619E+03  0.56741141441E+03  0.10100000352E+00 0.  1.
</event>
<event>
 5   0  0.5500363E-03  0.1109200E+04  0.7818609E-02  0.9196271E-01
       -2   -1    0    0    0  501  0.00000000000E+00  0.00000000000E+00  0.29306475456E+03  0.29306475457E+03  0.25500000920E-02 0.  1.
        2   -1    0    0  501    0  0.00000000000E+00  0.00000000000E+00 -0.10495328986E+04  0.10495328986E+04  0.25500000920E-02 0. -1.
    10030    2    1    2    0    0  0.00000000000E+00  0.00000000000E+00 -0.75646814401E+03  0.13425976531E+04  0.11091998942E+04 0.  0.
        3    1    3    3  502    0  0.53505196532E+03 -0.51841945162E+02 -0.21309757574E+03  0.57825494366E+03  0.10100000352E+00 0.  1.
       -3    1    3    3    0  502 -0.53505196532E+03  0.51841945162E+02 -0.54337056827E+03  0.76434270948E+03  0.10100000352E+00 0. -1.
</event>
<event>
 5   0  0.5941585E-03  0.1084043E+04  0.7818609E-02  0.9220886E-01
       -2   -1    0    0    0  501  0.00000000000E+00  0.00000000000E+00  0.29037921380E+03  0.29037921381E+03  0.25500000920E-02 0. -1.
        2   -1    0    0  501    0  0.00000000000E+00  0.00000000000E+00 -0.10117367579E+04  0.10117367579E+04  0.25500000920E-02 0.  1.
    10030    2    1    2    0    0  0.00000000000E+00  0.00000000000E+00 -0.72135754411E+03  0.13021159717E+04  0.10840430330E+04 0.  0.
        5    1    3    3  502    0  0.13897513910E+03  0.21524407888E+03  0.21302261771E+03  0.33323389449E+03  0.46999998093E+01 0. -1.
       -5    1    3    3    0  502 -0.13897513910E+03 -0.21524407888E+03 -0.93438016182E+03  0.96888207724E+03  0.46999998093E+01 0.  1.
</event>
<event>
 5   0  0.5946359E-03  0.1002776E+04  0.7818609E-02  0.9305505E-01
        2   -1    0    0  501    0  0.00000000000E+00  0.00000000000E+00  0.15405360734E+04  0.15405360734E+04  0.25500000920E-02 0. -1.
       -2   -1    0    0    0  501  0.00000000000E+00  0.00000000000E+00 -0.16318339136E+03  0.16318339138E+03  0.25500000920E-02 0.  1.
    10030    2    1    2    0    0  0.00000000000E+00  0.00000000000E+00  0.13773526821E+04  0.17037194648E+04  0.10027759490E+04 0.  0.
        4    1    3    3  502    0 -0.24794226307E+03  0.30040444885E+03  0.12250613109E+04  0.12854940790E+04  0.12699999809E+01 0. -1.
       -4    1    3    3    0  502  0.24794226307E+03 -0.30040444885E+03  0.15229137113E+03  0.41822538580E+03  0.12699999809E+01 0.  1.
</event>
<event>
 5   0  0.5723194E-03  0.9545913E+03  0.7818609E-02  0.9359800E-01
        2   -1    0    0  501    0  0.00000000000E+00  0.00000000000E+00  0.88972091947E+03  0.88972091948E+03  0.25500000920E-02 0. -1.
       -2   -1    0    0    0  501  0.00000000000E+00  0.00000000000E+00 -0.25604785838E+03  0.25604785840E+03  0.25500000920E-02 0.  1.
    10030    2    1    2    0    0  0.00000000000E+00  0.00000000000E+00  0.63367306109E+03  0.11457687779E+04  0.95459129684E+03 0.  0.
        1    1    3    3  502    0  0.34968259371E+03 -0.32168029842E+03  0.26242562182E+03  0.54279216810E+03  0.50400001928E-02 0.  1.
       -1    1    3    3    0  502 -0.34968259371E+03  0.32168029842E+03  0.37124743927E+03  0.60297660977E+03  0.50400001928E-02 0. -1.
</event>
<event>
 5   0  0.3320192E-03  0.1105445E+04  0.7818609E-02  0.9199901E-01
        1   -1    0    0  501    0  0.00000000000E+00  0.00000000000E+00  0.22739807681E+04  0.22739807681E+04  0.50400001928E-02 0. -1.
       -1   -1    0    0    0  501  0.00000000000E+00  0.00000000000E+00 -0.13434697303E+03  0.13434697313E+03  0.50400001928E-02 0.  1.
    10030    2    1    2    0    0  0.00000000000E+00  0.00000000000E+00  0.21396337950E+04  0.24083277412E+04  0.11054454904E+04 0.  0.
        2    1    3    3  502    0 -0.53021701409E+03  0.24577283817E+02  0.14056916739E+04  0.15025655417E+04  0.25500000920E-02 0. -1.
       -2    1    3    3    0  502  0.53021701409E+03 -0.24577283817E+02  0.73394212110E+03  0.90576219950E+03  0.25500000920E-02 0.  1.
</event>
<event>
 5   0  0.3328741E-03  0.1090718E+04  0.7818609E-02  0.9214286E-01
       -1   -1    0    0    0  501  0.00000000000E+00  0.00000000000E+00  0.34933439968E+03  0.34933439972E+03  0.50400001928E-02 0. -1.
        1   -1    0    0  501    0  0.00000000000E+00  0.00000000000E+00 -0.85138098140E+03  0.85138098142E+03  0.50400001928E-02 0.  1.
    10030    2    1    2    0    0  0.00000000000E+00  0.00000000000E+00 -0.50204658172E+03  0.12007153811E+04  0.10907184129E+04 0.  0.
        3    1    3    3  502    0  0.27882134105E+03 -0.24970222151E+03  0.18561827609E+03  0.41778785798E+03  0.10100000352E+00 0. -1.
       -3    1    3    3    0  502 -0.27882134105E+03  0.24970222151E+03 -0.68766485781E+03  0.78292752316E+03  0.10100000352E+00 0.  1.
</event>
<event>
 5   0  0.5500363E-03  0.1124857E+04  0.7818609E-02  0.9181298E-01
        2   -1    0    0  501    0  0.00000000000E+00  0.00000000000E+00  0.98589782636E+03  0.98589782637E+03  0.25500000920E-02 0. -1.
       -2   -1    0    0    0  501  0.00000000000E+00  0.00000000000E+00 -0.32085039211E+03  0.32085039212E+03  0.25500000920E-02 0.  1.
    10030    2    1    2    0    0  0.00000000000E+00  0.00000000000E+00  0.66504743426E+03  0.13067482185E+04  0.11248567983E+04 0.  0.
        3    1    3    3  502    0 -0.56067839142E+02  0.32728518213E+03 -0.19482558746E+03  0.38498858783E+03  0.10100000352E+00 0.  1.
       -3    1    3    3    0  502  0.56067839142E+02 -0.32728518213E+03  0.85987302171E+03  0.92175963065E+03  0.10100000352E+00 0. -1.
</event>
<event>
 5   0  0.5500363E-03  0.1086696E+04  0.7818609E-02  0.9218256E-01
        2   -1    0    0  501    0  0.00000000000E+00  0.00000000000E+00  0.59291958959E+03  0.59291958959E+03  0.25500000920E-02 0. -1.
       -2   -1    0    0    0  501  0.00000000000E+00  0.00000000000E+00 -0.49792133787E+03  0.49792133787E+03  0.25500000920E-02 0.  1.
    10030    2    1    2    0    0  0.00000000000E+00  0.00000000000E+00  0.94998251723E+02  0.10908409275E+04  0.10866964899E+04 0.  0.
        3    1    3    3  502    0  0.10414598961E+02  0.25018570133E+03 -0.43654937459E+03  0.50326604861E+03  0.10100000352E+00 0.  1.
       -3    1    3    3    0  502 -0.10414598961E+02 -0.25018570133E+03  0.53154762632E+03  0.58757487886E+03  0.10100000352E+00 0. -1.
</event>
<event>
 5   0  0.3320192E-03  0.1097124E+04  0.7818609E-02  0.9208000E-01
        1   -1    0    0  501    0  0.00000000000E+00  0.00000000000E+00  0.15003995222E+04  0.15003995222E+04  0.50400001928E-02 0.  1.
       -1   -1    0    0    0  501  0.00000000000E+00  0.00000000000E+00 -0.20056005906E+03  0.20056005913E+03  0.50400001928E-02 0. -1.
    10030    2    1    2    0    0  0.00000000000E+00  0.00000000000E+00  0.12998394631E+04  0.17009595813E+04  0.10971239070E+04 0.  0.
        2    1    3    3  502    0  0.16319764014E+03 -0.17546591995E+03  0.14149637481E+04  0.14351112038E+04  0.25500000920E-02 0.  1.
       -2    1    3    3    0  502 -0.16319764014E+03  0.17546591995E+03 -0.11512428501E+03  0.26584837749E+03  0.25500000920E-02 0. -1.
</event>
<event>
 5   0  0.3215352E-03  0.1039674E+04  0.7818609E-02  0.9266070E-01
        1   -1    0    0  501    0  0.00000000000E+00  0.00000000000E+00  0.48574258391E+03  0.48574258393E+03  0.50400001928E-02 0. -1.
       -1   -1    0    0    0  501  0.00000000000E+00  0.00000000000E+00 -0.55632473821E+03  0.55632473824E+03  0.50400001928E-02 0.  1.
    10030    2    1    2    0    0  0.00000000000E+00  0.00000000000E+00 -0.70582154307E+02  0.10420673222E+04  0.10396742102E+04 0.  0.
        1    1    3    3  502    0  0.30357274604E+03  0.40277550652E+03 -0.16146210304E+03  0.52957957998E+03  0.50400001928E-02 0.  1.
       -1    1    3    3    0  502 -0.30357274604E+03 -0.40277550652E+03  0.90879948738E+02  0.51248774219E+03  0.50400001928E-02 0. -1.
</event>
<event>
 5   0  0.5941585E-03  0.1074671E+04  0.7818609E-02  0.9230237E-01
       -2   -1    0    0    0  501  0.00000000000E+00  0.00000000000E+00  0.15210216590E+03  0.15210216592E+03  0.25500000920E-02 0. -1.
        2   -1    0    0  501    0  0.00000000000E+00  0.00000000000E+00 -0.18982582043E+04  0.18982582043E+04  0.25500000920E-02 0.  1.
    10030    2    1    2    0    0  0.00000000000E+00  0.00000000000E+00 -0.17461560384E+04  0.20503603702E+04  0.10746705250E+04 0.  0.
        5    1    3    3  502    0  0.22310936519E+03 -0.48878517438E+03 -0.88125281882E+03  0.10321421202E+04  0.46999998093E+01 0. -1.
       -5    1    3    3    0  502 -0.22310936519E+03  0.48878517438E+03 -0.86490321956E+03  0.10182182501E+04  0.46999998093E+01 0.  1.
</event>
<event>
 5   0  0.3316784E-03  0.1139351E+04  0.7818609E-02  0.9167665E-01
        1   -1    0    0  501    0  0.00000000000E+00  0.00000000000E+00  0.11795861381E+04  0.11795861381E+04  0.50400001928E-02 0.  1.
       -1   -1    0    0    0  501  0.00000000000E+00  0.00000000000E+00 -0.27512190711E+03  0.27512190715E+03  0.50400001928E-02 0. -1.
    10030    2    1    2    0    0  0.00000000000E+00  0.00000000000E+00  0.90446423096E+03  0.14547080452E+04  0.11393506711E+04 0.  0.
        4    1    3    3  502    0  0.92669254459E+02  0.27656443613E+03  0.10770140681E+04  0.11158119885E+04  0.12699999809E+01 0.  1.
       -4    1    3    3    0  502 -0.92669254459E+02 -0.27656443613E+03 -0.17254983711E+03  0.33889605669E+03  0.12699999809E+01 0. -1.
</event>
<event>
 5   0  0.3215352E-03  0.1093790E+04  0.7818609E-02  0.9211266E-01
        1   -1    0    0  501    0  0.00000000000E+00  0.00000000000E+00  0.99330676353E+03  0.99330676354E+03  0.50400001928E-02 0. -1.
       -1   -1    0    0    0  501  0.00000000000E+00  0.00000000000E+00 -0.30110962638E+03  0.30110962642E+03  0.50400001928E-02 0.  1.
    10030    2    1    2    0    0  0.00000000000E+00  0.00000000000E+00  0.69219713715E+03  0.12944163900E+04  0.10937901599E+04 0.  0.
        1    1    3    3  502    0  0.21260099551E+03  0.18748409449E+03  0.89958734663E+03  0.94318972811E+03  0.50400001928E-02 0. -1.
       -1    1    3    3    0  502 -0.21260099551E+03 -0.18748409449E+03 -0.20739020948E+03  0.35122666185E+03  0.50400001928E-02 0.  1.
</event>
<event>
 5   0  0.5946359E-03  0.1103931E+04  0.7818609E-02  0.9201369E-01
        2   -1    0    0  501    0  0.00000000000E+00  0.00000000000E+00  0.25833910783E+04  0.25833910783E+04  0.25500000920E-02 0. -1.
       -2   -1    0    0    0  501  0.00000000000E+00  0.00000000000E+00 -0.11793258897E+03  0.11793258900E+03  0.25500000920E-02 0.  1.
    10030    2    1    2    0    0  0.00000000000E+00  0.00000000000E+00  0.24654584894E+04  0.27013236673E+04  0.11039311541E+04 0.  0.
        4    1    3    3  502    0 -0.41391161875E+03  0.30793597812E+03  0.17129719840E+04  0.17889723378E+04  0.12699999809E+01 0. -1.
       -4    1    3    3    0  502  0.41391161875E+03 -0.30793597812E+03  0.75248650538E+03  0.91235132950E+03  0.12699999809E+01 0.  1.
</event>
<event>
 5   0  0.3328741E-03  0.1092690E+04  0.7818609E-02  0.9212346E-01
        1   -1    0    0  501    0  0.00000000000E+00  0.00000000000E+00  0.82304622920E+03  0.82304622921E+03  0.50400001928E-02 0.  1.
       -1   -1    0    0    0  501  0.00000000000E+00  0.00000000000E+00 -0.36266849401E+03  0.36266849404E+03  0.50400001928E-02 0. -1.
    10030    2    1    2    0    0  0.00000000000E+00  0.00000000000E+00  0.46037773519E+03  0.11857147233E+04  0.10926901418E+04 0.  0.
        3    1    3    3  502    0  0.21170280432E+03  0.38925587755E+03 -0.11663772312E+03  0.45819491947E+03  0.10100000352E+00 0. -1.
       -3    1    3    3    0  502 -0.21170280432E+03 -0.38925587755E+03  0.57701545832E+03  0.72751980379E+03  0.10100000352E+00 0.  1.
</event>
<event>
 5   0  0.3215352E-03  0.1085103E+04  0.7818609E-02  0.9219834E-01
        1   -1    0    0  501    0  0.00000000000E+00  0.00000000000E+00  0.81701798568E+03  0.81701798569E+03  0.50400001928E-02 0. -1.
       -1   -1    0    0    0  501  0.00000000000E+00  0.00000000000E+00 -0.36028834777E+03  0.36028834780E+03  0.50400001928E-02 0.  1.
    10030    2    1    2    0    0  0.00000000000E+00  0.00000000000E+00  0.45672963791E+03  0.11773063335E+04  0.10851028710E+04 0.  0.
        1    1    3    3  502    0 -0.69099146920E+02 -0.28711178914E+03  0.72218112600E+03  0.78022653783E+03  0.50400001928E-02 0. -1.
       -1    1    3    3    0  502  0.69099146920E+02  0.28711178914E+03 -0.26545148809E+03  0.39707979566E+03  0.50400001928E-02 0.  1.
</event>
<event>
 5   0  0.3215352E-03  0.1114480E+04  0.7818609E-02  0.9191193E-01
       -1   -1    0    0    0  501  0.00000000000E+00  0.00000000000E+00  0.34537406188E+03  0.34537406192E+03  0.50400001928E-02 0.  1.
        1   -1    0    0  501    0  0.00000000000E+00  0.00000000000E+00 -0.89907259381E+03  0.89907259382E+03  0.50400001928E-02 0. -1.
    10030    2    1    2    0    0  0.00000000000E+00  0.00000000000E+00 -0.55369853193E+03  0.12444466557E+04  0.11144798853E+04 0.  0.
        1    1    3    3  502    0 -0.90160631092E+02 -0.23617601444E+03 -0.83135737176E+03  0.86894368564E+03  0.50400001928E-02 0. -1.
       -1    1    3    3    0  502  0.90160631092E+02  0.23617601444E+03  0.27765883984E+03  0.37550297011E+03  0.50400001928E-02 0.  1.
</event>
<event>
 5   0  0.3241189E-03  0.1102964E+04  0.7818609E-02  0.9202308E-01
       -1   -1    0    0    0  501  0.00000000000E+00  0.00000000000E+00  0.12915130413E+04  0.12915130413E+04  0.50400001928E-02 0.  1.
        1   -1    0    0  501    0  0.00000000000E+00  0.00000000000E+00 -0.23548539775E+03  0.23548539780E+03  0.50400001928E-02 0. -1.
    10030    2    1    2    0    0  0.00000000000E+00  0.00000000000E+00  0.10560276436E+04  0.15269984391E+04  0.11029641196E+04 0.  0.
        5    1    3    3  502    0  0.40040761909E+02  0.35690202579E+03 -0.51354931467E+02  0.36282466511E+03  0.46999998093E+01 0. -1.
       -5    1    3    3    0  502 -0.40040761909E+02 -0.35690202579E+03  0.11073825750E+04  0.11641737740E+04  0.46999998093E+01 0.  1.
</event>
<event>
 5   0  0.3241189E-03  0.1127879E+04  0.7818609E-02  0.9178437E-01
        1   -1    0    0  501    0  0.00000000000E+00  0.00000000000E+00  0.13054630426E+04  0.13054630426E+04  0.50400001928E-02 0. -1.
       -1   -1    0    0    0  501  0.00000000000E+00  0.00000000000E+00 -0.24361296092E+03  0.24361296098E+03  0.50400001928E-02 0.  1.
    10030    2    1    2    0    0  0.00000000000E+00  0.00000000000E+00  0.10618500816E+04  0.15490760036E+04  0.11278789248E+04 0.  0.
        5    1    3    3  502    0  0.40341308142E+03  0.26890604353E+03  0.13535223184E+03  0.50338344348E+03  0.46999998093E+01 0.  1.
       -5    1    3    3    0  502 -0.40341308142E+03 -0.26890604353E+03  0.92649784980E+03  0.10456925601E+04  0.46999998093E+01 0. -1.
</event>
<event>
 5   0  0.3320192E-03  0.1111579E+04  0.7818609E-02  0.9193979E-01
        1   -1    0    0  501    0  0.00000000000E+00  0.00000000000E+00  0.73824404117E+03  0.73824404119E+03  0.50400001928E-02 0. -1.
       -1   -1    0    0    0  501  0.00000000000E+00  0.00000000000E+00 -0.41842827595E+03  0.41842827598E+03  0.50400001928E-02 0.  1.
    10030    2    1    2    0    0  0.00000000000E+00  0.00000000000E+00  0.31981576523E+03  0.11566723172E+04  0.11115793834E+04 0.  0.
        2    1    3    3  502    0 -0.42039922828E+03  0.29253234226E+03  0.38451483755E+03  0.64043917955E+03  0.25500000920E-02 0. -1.
       -2    1    3    3    0  502  0.42039922828E+03 -0.29253234226E+03 -0.64699072319E+02  0.51623313762E+03  0.25500000920E-02 0.  1.
</event>
<event>
 5   0  0.3320192E-03  0.1094771E+04  0.7818609E-02  0.9210303E-01
        1   -1    0    0  501    0  0.00000000000E+00  0.00000000000E+00  0.81207898009E+03  0.81207898011E+03  0.50400001928E-02 0.  1.
       -1   -1    0    0    0  501  0.00000000000E+00  0.00000000000E+00 -0.36896771947E+03  0.36896771950E+03  0.50400001928E-02 0. -1.
    10030    2    1    2    0    0  0.00000000000E+00  0.00000000000E+00  0.44311126062E+03  0.11810466996E+04  0.10947710799E+04 0.  0.
        2    1    3    3  502    0  0.43017159841E+03 -0.44429790824E+01 -0.14359079393E+03  0.45352580990E+03  0.25500000920E-02 0. -1.
       -2    1    3    3    0  502 -0.43017159841E+03  0.44429790824E+01  0.58670205455E+03  0.72752088971E+03  0.25500000920E-02 0.  1.
</event>
<event>
 5   0  0.3320192E-03  0.1111675E+04  0.7818609E-02  0.9193887E-01
       -1   -1    0    0    0  501  0.00000000000E+00  0.00000000000E+00  0.22573665289E+03  0.22573665294E+03  0.50400001928E-02 0.  1.
        1   -1    0    0  501    0  0.00000000000E+00  0.00000000000E+00 -0.13686530138E+04  0.13686530138E+04  0.50400001928E-02 0. -1.
    10030    2    1    2    0    0  0.00000000000E+00  0.00000000000E+00 -0.11429163609E+04  0.15943896668E+04  0.11116746833E+04 0.  0.
        2    1    3    3  502    0 -0.30387751615E+03  0.34994168620E+03 -0.13137262331E+03  0.48172553879E+03  0.25500000920E-02 0.  1.
       -2    1    3    3    0  502  0.30387751615E+03 -0.34994168620E+03 -0.10115437376E+04  0.11126641280E+04  0.25500000920E-02 0. -1.
</event>
<event>
 5   0  0.5941585E-03  0.1145776E+04  0.7818609E-02  0.9161689E-01
       -2   -1    0    0    0  501  0.00000000000E+00  0.00000000000E+00  0.49194815968E+03  0.49194815969E+03  0.25500000920E-02 0.  1.
        2   -1    0    0  501    0  0.00000000000E+00  0.00000000000E+00 -0.66714528614E+03  0.66714528615E+03  0.25500000920E-02 0. -1.
    10030    2    1    2    0    0  0.00000000000E+00  0.00000000000E+00 -0.17519712646E+03  0.11590934458E+04  0.11457764106E+04 0.  0.
        5    1    3    3  502    0  0.24874253638E+03  0.50571861287E+03 -0.19152841445E+03  0.59525573357E+03  0.46999998093E+01 0.  1.
       -5    1    3    3    0  502 -0.24874253638E+03 -0.50571861287E+03  0.16331287987E+02  0.56383771227E+03  0.46999998093E+01 0. -1.
</event>
<event>
 5   0  0.3215352E-03  0.1087844E+04  0.7818609E-02  0.9217122E-01
        1   -1    0    0  501    0  0.00000000000E+00  0.00000000000E+00  0.12047929321E+04  0.12047929321E+04  0.50400001928E-02 0. -1.
       -1   -1    0    0    0  501  0.00000000000E+00  0.00000000000E+00 -0.24556164144E+03  0.24556164149E+03  0.50400001928E-02 0.  1.
    10030    2    1    2    0    0  0.00000000000E+00  0.00000000000E+00  0.95923129065E+03  0.14503545736E+04  0.10878436102E+04 0.  0.
        1    1    3    3  502    0  0.29222993020E+03  0.13345461401E+03  0.10647879128E+04  0.11121968196E+04  0.50400001928E-02 0. -1.
       -1    1    3    3    0  502 -0.29222993020E+03 -0.13345461401E+03 -0.10555662218E+03  0.33815775404E+03  0.50400001928E-02 0.  1.
</event>
<event>
 5   0  0.2185750E-03  0.1091171E+04  0.7818609E-02  0.9213840E-01
        3   -1    0    0  501    0  0.00000000000E+00  0.00000000000E+00  0.75958614650E+03  0.75958615322E+03  0.10100000352E+00 0. -1.
       -3   -1    0    0    0  501  0.00000000000E+00  0.00000000000E+00 -0.39187614951E+03  0.39187616253E+03  0.10100000352E+00 0.  1.
    10030    2    1    2    0    0  0.00000000000E+00  0.00000000000E+00  0.36770999699E+03  0.11514623157E+04  0.10911713077E+04 0.  0.
        4    1    3    3  502    0  0.49613670653E+03  0.14930623371E+03  0.36423270054E+03  0.63333328985E+03  0.12699999809E+01 0. -1.
       -4    1    3    3    0  502 -0.49613670653E+03 -0.14930623371E+03  0.34772964526E+01  0.51812902590E+03  0.12699999809E+01 0.  1.
</event>
<event>
 5   0  0.5941585E-03  0.1111274E+04  0.7818609E-02  0.9194273E-01
        2   -1    0    0  501    0  0.00000000000E+00  0.00000000000E+00  0.44247619021E+03  0.44247619022E+03  0.25500000920E-02 0. -1.
       -2   -1    0    0    0  501  0.00000000000E+00  0.00000000000E+00 -0.69773770284E+03  0.69773770285E+03  0.25500000920E-02 0.  1.
    10030    2    1    2    0    0  0.00000000000E+00  0.00000000000E+00 -0.25526151263E+03  0.11402138931E+04  0.11112737206E+04 0.  0.
        5    1    3    3  502    0 -0.52142037420E+02  0.20798236243E+03 -0.65355605696E+03  0.68784668694E+03  0.46999998093E+01 0.  1.
       -5    1    3    3    0  502  0.52142037420E+02 -0.20798236243E+03  0.39829454433E+03  0.45236720613E+03  0.46999998093E+01 0. -1.
</event>
<event>
 5   0  0.3316784E-03  0.1102946E+04  0.7818609E-02  0.9202325E-01
       -1   -1    0    0    0  501  0.00000000000E+00  0.00000000000E+00  0.62528798658E+03  0.62528798660E+03  0.50400001928E-02 0. -1.
        1   -1    0    0  501    0  0.00000000000E+00  0.00000000000E+00 -0.48637221296E+03  0.48637221299E+03  0.50400001928E-02 0.  1.
    10030    2    1    2    0    0  0.00000000000E+00  0.00000000000E+00  0.13891577362E+03  0.11116601996E+04  0.11029464208E+04 0.  0.
        4    1    3    3  502    0 -0.11609083234E+02  0.40191189068E+03 -0.31095364193E+03  0.50829294606E+03  0.12699999809E+01 0.  1.
       -4    1    3    3    0  502  0.11609083234E+02 -0.40191189068E+03  0.44986941556E+03  0.60336725353E+03  0.12699999809E+01 0. -1.
</event>
<event>
 5   0  0.5946359E-03  0.1103053E+04  0.7818609E-02  0.9202222E-01
       -2   -1    0    0    0  501  0.00000000000E+00  0.00000000000E+00  0.36129473986E+03  0.36129473986E+03  0.25500000920E-02 0.  1.
        2   -1    0    0  501    0  0.00000000000E+00  0.00000000000E+00 -0.84192027241E+03  0.84192027241E+03  0.25500000920E-02 0. -1.
    10030    2    1    2    0    0  0.00000000000E+00  0.00000000000E+00 -0.48062553255E+03  0.12032150123E+04  0.11030527926E+04 0.  0.
        4    1    3    3  502    0 -0.34045254163E+03  0.42892890114E+03 -0.31177351625E+03  0.63015257968E+03  0.12699999809E+01 0.  1.
       -4    1    3    3    0  502  0.34045254163E+03 -0.42892890114E+03 -0.16885201630E+03  0.57306243259E+03  0.12699999809E+01 0. -1.
</event>
<event>
 5   0  0.5723194E-03  0.1113878E+04  0.7818609E-02  0.9191770E-01
        2   -1    0    0  501    0  0.00000000000E+00  0.00000000000E+00  0.62951725765E+03  0.62951725766E+03  0.25500000920E-02 0. -1.
       -2   -1    0    0    0  501  0.00000000000E+00  0.00000000000E+00 -0.49272868015E+03  0.49272868016E+03  0.25500000920E-02 0.  1.
    10030    2    1    2    0    0  0.00000000000E+00  0.00000000000E+00  0.13678857750E+03  0.11222459378E+04  0.11138782833E+04 0.  0.
        1    1    3    3  502    0  0.25591884406E+03  0.25385955296E+03  0.49613284639E+03  0.61325926709E+03  0.50400001928E-02 0. -1.
       -1    1    3    3    0  502 -0.25591884406E+03 -0.25385955296E+03 -0.35934426889E+03  0.50898667073E+03  0.50400001928E-02 0.  1.
</event>
<event>
 5   0  0.3328741E-03  0.9350256E+03  0.7818609E-02  0.9382827E-01
        1   -1    0    0  501    0  0.00000000000E+00  0.00000000000E+00  0.57204049560E+03  0.57204049563E+03  0.50400001928E-02 0. -1.
       -1   -1    0    0    0  501  0.00000000000E+00  0.00000000000E+00 -0.38208520478E+03  0.38208520482E+03  0.50400001928E-02 0.  1.
    10030    2    1    2    0    0  0.00000000000E+00  0.00000000000E+00  0.18995529082E+03  0.95412570044E+03  0.93502558240E+03 0.  0.
        3    1    3    3  502    0 -0.13513657254E+03  0.27922790754E+02 -0.36083096852E+03  0.38631667519E+03  0.10100000352E+00 0.  1.
       -3    1    3    3    0  502  0.13513657254E+03 -0.27922790754E+02  0.55078625934E+03  0.56780902526E+03  0.10100000352E+00 0. -1.
</event>
<event>
 5   0  0.5500363E-03  0.1089114E+04  0.7818609E-02  0.9215867E-01
        2   -1    0    0  501    0  0.00000000000E+00  0.00000000000E+00  0.19010119711E+04  0.19010119711E+04  0.25500000920E-02 0. -1.
       -2   -1    0    0    0  501  0.00000000000E+00  0.00000000000E+00 -0.15599188566E+03  0.15599188568E+03  0.25500000920E-02 0.  1.
    10030    2    1    2    0    0  0.00000000000E+00  0.00000000000E+00  0.17450200854E+04  0.20570038568E+04  0.10891142126E+04 0.  0.
        3    1    3    3  502    0 -0.14570711767E+03  0.17119130744E+03 -0.64262179164E+02  0.23380903694E+03  0.10100000352E+00 0.  1.
       -3    1    3    3    0  502  0.14570711767E+03 -0.17119130744E+03  0.18092822646E+04  0.18231948198E+04  0.10100000352E+00 0. -1.
</event>
<event>
 5   0  0.3316784E-03  0.1126932E+04  0.7818609E-02  0.9179333E-01
       -1   -1    0    0    0  501  0.00000000000E+00  0.00000000000E+00  0.99461244050E+03  0.99461244051E+03  0.50400001928E-02 0. -1.
        1   -1    0    0  501    0  0.00000000000E+00  0.00000000000E+00 -0.31921365920E+03  0.31921365924E+03  0.50400001928E-02 0.  1.
    10030    2    1    2    0    0  0.00000000000E+00  0.00000000000E+00  0.67539878130E+03  0.13138260997E+04  0.11269318997E+04 0.  0.
        4    1    3    3  502    0  0.21798154340E+03 -0.51304430183E+03  0.24183150823E+03  0.60763023310E+03  0.12699999809E+01 0. -1.
       -4    1    3    3    0  502 -0.21798154340E+03  0.51304430183E+03  0.43356727306E+03  0.70619586665E+03  0.12699999809E+01 0.  1.
</event>
<event>
 5   0  0.5627232E-03  0.1106362E+04  0.7818609E-02  0.9199013E-01
        2   -1    0    0  501    0  0.00000000000E+00  0.00000000000E+00  0.15426354469E+04  0.15426354469E+04  0.25500000920E-02 0.  1.
       -2   -1    0    0    0  501  0.00000000000E+00  0.00000000000E+00 -0.19836769532E+03  0.19836769534E+03  0.25500000920E-02 0. -1.
    10030    2    1    2    0    0  0.00000000000E+00  0.00000000000E+00  0.13442677516E+04  0.17410031423E+04  0.11063616739E+04 0.  0.
        2    1    3    3  502    0 -0.18606761649E+03  0.31513523880E+03  0.19357122033E+02  0.36647793224E+03  0.25500000920E-02 0. -1.
       -2    1    3    3    0  502  0.18606761649E+03 -0.31513523880E+03  0.13249106296E+04  0.13745252100E+04  0.25500000920E-02 0.  1.
</event>
<event>
 5   0  0.3316784E-03  0.1092182E+04  0.7818609E-02  0.9212845E-01
        1   -1    0    0  501    0  0.00000000000E+00  0.00000000000E+00  0.30959679225E+03  0.30959679229E+03  0.50400001928E-02 0. -1.
       -1   -1    0    0    0  501  0.00000000000E+00  0.00000000000E+00 -0.96323818083E+03  0.96323818085E+03  0.50400001928E-02 0.  1.
    10030    2    1    2    0    0  0.00000000000E+00  0.00000000000E+00 -0.65364138859E+03  0.12728349731E+04  0.10921821295E+04 0.  0.
        4    1    3    3  502    0  0.15181003102E+03 -0.16771477472E+03  0.25242133131E+03  0.33895821656E+03  0.12699999809E+01 0. -1.
       -4    1    3    3    0  502 -0.15181003102E+03  0.16771477472E+03 -0.90606271990E+03  0.93387675657E+03  0.12699999809E+01 0.  1.
</event>
<event>
 5   0  0.3316784E-03  0.1208401E+04  0.7818609E-02  0.9105535E-01
       -1   -1    0    0    0  501  0.00000000000E+00  0.00000000000E+00  0.28325831803E+03  0.28325831808E+03  0.50400001928E-02 0.  1.
        1   -1    0    0  501    0  0.00000000000E+00  0.00000000000E+00 -0.12887820671E+04  0.12887820671E+04  0.50400001928E-02 0. -1.
    10030    2    1    2    0    0  0.00000000000E+00  0.00000000000E+00 -0.10055237490E+04  0.15720403852E+04  0.12084009942E+04 0.  0.
        4    1    3    3  502    0  0.28710460644E+03 -0.52915645939E+03 -0.56936388101E+03  0.82862081524E+03  0.12699999809E+01 0.  1.
       -4    1    3    3    0  502 -0.28710460644E+03  0.52915645939E+03 -0.43615986803E+03  0.74341956991E+03  0.12699999809E+01 0. -1.
</event>
<event>
 5   0  0.3320192E-03  0.1087589E+04  0.7818609E-02  0.9217373E-01
       -1   -1    0    0    0  501  0.00000000000E+00  0.00000000000E+00  0.17968375615E+03  0.17968375622E+03  0.50400001928E-02 0.  1.
        1   -1    0    0  501    0  0.00000000000E+00  0.00000000000E+00 -0.16457389920E+04  0.16457389920E+04  0.50400001928E-02 0. -1.
    10030    2    1    2    0    0  0.00000000000E+00  0.00000000000E+00 -0.14660552359E+04  0.18254227483E+04  0.10875891941E+04 0.  0.
        2    1    3    3  502    0 -0.49898334437E+02  0.48985765746E+03 -0.11203816726E+04  0.12238077711E+04  0.25500000920E-02 0. -1.
       -2    1    3    3    0  502  0.49898334437E+02 -0.48985765746E+03 -0.34567356327E+03  0.60161497712E+03  0.25500000920E-02 0.  1.
</event>
<event>
 5   0  0.5627232E-03  0.1104470E+04  0.7818609E-02  0.9200846E-01
        2   -1    0    0  501    0  0.00000000000E+00  0.00000000000E+00  0.23974791767E+04  0.23974791767E+04  0.25500000920E-02 0. -1.
       -2   -1    0    0    0  501  0.00000000000E+00  0.00000000000E+00 -0.12720183261E+03  0.12720183264E+03  0.25500000920E-02 0.  1.
    10030    2    1    2    0    0  0.00000000000E+00  0.00000000000E+00  0.22702773441E+04  0.25246810093E+04  0.11044704522E+04 0.  0.
        2    1    3    3  502    0  0.53791746612E+03  0.10461736986E+03  0.97903250277E+03  0.11219646322E+04  0.25500000920E-02 0.  1.
       -2    1    3    3    0  502 -0.53791746612E+03 -0.10461736986E+03  0.12912448413E+04  0.14027163771E+04  0.25500000920E-02 0. -1.
</event>
<event>
 5   0  0.5723194E-03  0.1101550E+04  0.7818609E-02  0.9203683E-01
       -2   -1    0    0    0  501  0.00000000000E+00  0.00000000000E+00  0.46578945820E+03  0.46578945820E+03  0.25500000920E-02 0. -1.
        2   -1    0    0  501    0  0.00000000000E+00  0.00000000000E+00 -0.65126619363E+03  0.65126619363E+03  0.25500000920E-02 0.  1.
    10030    2    1    2    0    0  0.00000000000E+00  0.00000000000E+00 -0.18547673543E+03  0.11170556518E+04  0.11015496856E+04 0.  0.
        1    1    3    3  502    0 -0.39259346441E+03  0.23997700461E+02 -0.48371373111E+03  0.62344566051E+03  0.50400001928E-02 0.  1.
       -1    1    3    3    0  502  0.39259346441E+03 -0.23997700461E+02  0.29823699568E+03  0.49360999133E+03  0.50400001928E-02 0. -1.
</event>
<event>
 5   0  0.2185750E-03  0.1109605E+04  0.7818609E-02  0.9195880E-01
        4   -1    0    0  501    0  0.00000000000E+00  0.00000000000E+00  0.35813407545E+03  0.35813632726E+03  0.12699999809E+01 0. -1.
       -4   -1    0    0    0  501  0.00000000000E+00  0.00000000000E+00 -0.85946551191E+03  0.85946645023E+03  0.12699999809E+01 0.  1.
    10030    2    1    2    0    0  0.00000000000E+00  0.00000000000E+00 -0.50133143646E+03  0.12176027775E+04  0.11096050264E+04 0.  0.
        4    1    3    3  502    0  0.10158823060E+03  0.39092345844E+03 -0.66803049415E+03  0.78064567697E+03  0.12699999809E+01 0.  1.
       -4    1    3    3    0  502 -0.10158823060E+03 -0.39092345844E+03  0.16669905769E+03  0.43695710051E+03  0.12699999809E+01 0. -1.
</event>
<event>
 5   0  0.5723194E-03  0.1107995E+04  0.7818609E-02  0.9197434E-01
       -2   -1    0    0    0  501  0.00000000000E+00  0.00000000000E+00  0.45323137894E+03  0.45323137895E+03  0.25500000920E-02 0. -1.
        2   -1    0    0  501    0  0.00000000000E+00  0.00000000000E+00 -0.67716735868E+03  0.67716735868E+03  0.25500000920E-02 0.  1.
    10030    2    1    2    0    0  0.00000000000E+00  0.00000000000E+00 -0.22393597974E+03  0.11303987376E+04  0.11079954797E+04 0.  0.
        1    1    3    3  502    0 -0.65024914985E+02 -0.18304491548E+03 -0.64128386623E+03  0.67005871217E+03  0.50400001928E-02 0.  1.
       -1    1    3    3    0  502  0.65024914985E+02  0.18304491548E+03  0.41734788649E+03  0.46034002546E+03  0.50400001928E-02 0. -1.
</event>
<event>
 5   0  0.3215352E-03  0.1110831E+04  0.7818609E-02  0.9194699E-01
       -1   -1    0    0    0  501  0.00000000000E+00  0.00000000000E+00  0.63437545024E+03  0.63437545026E+03  0.50400001928E-02 0. -1.
        1   -1    0    0  501    0  0.00000000000E+00  0.00000000000E+00 -0.48628398815E+03  0.48628398818E+03  0.50400001928E-02 0.  1.
    10030    2    1    2    0    0  0.00000000000E+00  0.00000000000E+00  0.14809146209E+03  0.11206594384E+04  0.11108314435E+04 0.  0.
        1    1    3    3  502    0 -0.27547956985E+03  0.24209083637E+03  0.49485684878E+03  0.61593852556E+03  0.50400001928E-02 0. -1.
       -1    1    3    3    0  502  0.27547956985E+03 -0.24209083637E+03 -0.34676538669E+03  0.50472091287E+03  0.50400001928E-02 0.  1.
</event>
<event>
 5   0  0.5941585E-03  0.1104727E+04  0.7818609E-02  0.9200596E-01
       -2   -1    0    0    0  501  0.00000000000E+00  0.00000000000E+00  0.51055380136E+03  0.51055380137E+03  0.25500000920E-02 0.  1.
        2   -1    0    0  501    0  0.00000000000E+00  0.00000000000E+00 -0.59759752562E+03  0.59759752562E+03  0.25500000920E-02 0. -1.
    10030    2    1    2    0    0  0.00000000000E+00  0.00000000000E+00 -0.87043724258E+02  0.11081513270E+04  0.11047274567E+04 0.  0.
        5    1    3    3  502    0 -0.27178189143E+03  0.15161957094E+03 -0.50125807011E+03  0.59003019723E+03  0.46999998093E+01 0. -1.
       -5    1    3    3    0  502  0.27178189143E+03 -0.15161957094E+03  0.41421434585E+03  0.51812112976E+03  0.46999998093E+01 0.  1.
</event>
<event>
 5   0  0.2185750E-03  0.1116426E+04  0.7818609E-02  0.9189328E-01
        3   -1    0    0  501    0  0.00000000000E+00  0.00000000000E+00  0.40239654037E+03  0.40239655304E+03  0.10100000352E+00 0.  1.
       -3   -1    0    0    0  501  0.00000000000E+00  0.00000000000E+00 -0.77436552599E+03  0.77436553258E+03  0.10100000352E+00 0. -1.
    10030    2    1    2    0    0  0.00000000000E+00  0.00000000000E+00 -0.37196898563E+03  0.11767620856E+04  0.11164264776E+04 0.  0.
        1    1    3    3  502    0  0.19006617250E+03  0.31592262736E+03 -0.62776550698E+03  0.72802595296E+03  0.50400001928E-02 0. -1.
       -1    1    3    3    0  502 -0.19006617250E+03 -0.31592262736E+03  0.25579652135E+03  0.44873613267E+03  0.50400001928E-02 0.  1.
</event>
<event>
 5   0  0.5946359E-03  0.1094567E+04  0.7818609E-02  0.9210503E-01
        2   -1    0    0  501    0  0.00000000000E+00  0.00000000000E+00  0.91388838009E+03  0.91388838010E+03  0.25500000920E-02 0. -1.
       -2   -1    0    0    0  501  0.00000000000E+00  0.00000000000E+00 -0.32774170227E+03  0.32774170228E+03  0.25500000920E-02 0.  1.
    10030    2    1    2    0    0  0.00000000000E+00  0.00000000000E+00  0.58614667783E+03  0.12416300824E+04  0.10945671900E+04 0.  0.
        4    1    3    3  502    0  0.41497043142E+03 -0.27139330570E+03  0.55585013421E+03  0.74486627654E+03  0.12699999809E+01 0.  1.
       -4    1    3    3    0  502 -0.41497043142E+03  0.27139330570E+03  0.30296543618E+02  0.49676380583E+03  0.12699999809E+01 0. -1.
</event>
<event>
 5   0  0.5946359E-03  0.1081671E+04  0.7818609E-02  0.9223243E-01
        2   -1    0    0  501    0  0.00000000000E+00  0.00000000000E+00  0.12168630564E+04  0.12168630564E+04  0.25500000920E-02 0.  1.
       -2   -1    0    0    0  501  0.00000000000E+00  0.00000000000E+00 -0.24037450806E+03  0.24037450807E+03  0.25500000920E-02 0. -1.
    10030    2    1    2    0    0  0.00000000000E+00  0.00000000000E+00  0.97648854835E+03  0.14572375645E+04  0.10816706681E+04 0.  0.
        4    1    3    3  502    0 -0.46282033881E+03  0.27858642169E+03  0.52358602026E+03  0.75230113245E+03  0.12699999809E+01 0.  1.
       -4    1    3    3    0  502  0.46282033881E+03 -0.27858642169E+03  0.45290252809E+03  0.70493643204E+03  0.12699999809E+01 0. -1.
</event>
<event>
 5   0  0.3320192E-03  0.1068314E+04  0.7818609E-02  0.9236638E-01
       -1   -1    0    0    0  501  0.00000000000E+00  0.00000000000E+00  0.49373717914E+03  0.49373717916E+03  0.50400001928E-02 0.  1.
        1   -1    0    0  501    0  0.00000000000E+00  0.00000000000E+00 -0.57788569051E+03  0.57788569054E+03  0.50400001928E-02 0. -1.
    10030    2    1    2    0    0  0.00000000000E+00  0.00000000000E+00 -0.84148511378E+02  0.10716228697E+04  0.10683139065E+04 0.  0.
        2    1    3    3  502    0  0.32850791199E+02 -0.19823205880E+03  0.45438145167E+03  0.49682756289E+03  0.25500000920E-02 0.  1.
       -2    1    3    3    0  502 -0.32850791199E+02  0.19823205880E+03 -0.53852996305E+03  0.57479530681E+03  0.25500000920E-02 0. -1.
</event>
<event>
 5   0  0.3328741E-03  0.1097250E+04  0.7818609E-02  0.9207876E-01
       -1   -1    0    0    0  501  0.00000000000E+00  0.00000000000E+00  0.35092535833E+03  0.35092535837E+03  0.50400001928E-02 0. -1.
        1   -1    0    0  501    0  0.00000000000E+00  0.00000000000E+00 -0.85770245381E+03  0.85770245382E+03  0.50400001928E-02 0.  1.
    10030    2    1    2    0    0  0.00000000000E+00  0.00000000000E+00 -0.50677709548E+03  0.12086278122E+04  0.10972502740E+04 0.  0.
        3    1    3    3  502    0 -0.23786643922E+03  0.54819299847E+02  0.28781303221E+03  0.37738832819E+03  0.10100000352E+00 0. -1.
       -3    1    3    3    0  502  0.23786643922E+03 -0.54819299847E+02 -0.79459012769E+03  0.83123948400E+03  0.10100000352E+00 0.  1.
</event>
<event>
 5   0  0.3241189E-03  0.1097187E+04  0.7818609E-02  0.9207938E-01
       -1   -1    0    0    0  501  0.00000000000E+00  0.00000000000E+00  0.19724397734E+03  0.19724397741E+03  0.50400001928E-02 0. -1.
        1   -1    0    0  501    0  0.00000000000E+00  0.00000000000E+00 -0.15257998398E+04  0.15257998398E+04  0.50400001928E-02 0.  1.
    10030    2    1    2    0    0  0.00000000000E+00  0.00000000000E+00 -0.13285558625E+04  0.17230438172E+04  0.10971870016E+04 0.  0.
        5    1    3    3  502    0 -0.22234033401E+02 -0.18605548016E+03 -0.14739532862E+04  0.14858234666E+04  0.46999998093E+01 0.  1.
       -5    1    3    3    0  502  0.22234033401E+02  0.18605548016E+03  0.14539742373E+03  0.23722035065E+03  0.46999998093E+01 0. -1.
</event>
<event>
 5   0  0.5946359E-03  0.1077445E+04  0.7818609E-02  0.9227459E-01
        2   -1    0    0  501    0  0.00000000000E+00  0.00000000000E+00  0.13654686804E+04  0.13654686804E+04  0.25500000920E-02 0.  1.
       -2   -1    0    0    0  501  0.00000000000E+00  0.00000000000E+00 -0.21254367073E+03  0.21254367075E+03  0.25500000920E-02 0. -1.
    10030    2    1    2    0    0  0.00000000000E+00  0.00000000000E+00  0.11529250097E+04  0.15780123512E+04  0.10774446169E+04 0.  0.
        4    1    3    3  502    0  0.22759011113E+03  0.26328155681E+03  0.11787370866E+04  0.12290391243E+04  0.12699999809E+01 0.  1.
       -4    1    3    3    0  502 -0.22759011113E+03 -0.26328155681E+03 -0.25812076922E+02  0.34897322685E+03  0.12699999809E+01 0. -1.
</event>
<event>
 5   0  0.5941585E-03  0.1044943E+04  0.7818609E-02  0.9260581E-01
        2   -1    0    0  501    0  0.00000000000E+00  0.00000000000E+00  0.13261218563E+04  0.13261218563E+04  0.25500000920E-02 0.  1.
       -2   -1    0    0    0  501  0.00000000000E+00  0.00000000000E+00 -0.20584566880E+03  0.20584566881E+03  0.25500000920E-02 0. -1.
    10030    2    1    2    0    0  0.00000000000E+00  0.00000000000E+00  0.11202761875E+04  0.15319675251E+04  0.10449429466E+04 0.  0.
        5    1    3    3  502    0  0.26108980874E+03 -0.32990218440E+03  0.10600645706E+03  0.43389261164E+03  0.46999998093E+01 0. -1.
       -5    1    3    3    0  502 -0.26108980874E+03  0.32990218440E+03  0.10142697304E+04  0.10980749134E+04  0.46999998093E+01 0.  1.
</event>
<event>
 5   0  0.5723194E-03  0.1111864E+04  0.7818609E-02  0.9193705E-01
        2   -1    0    0  501    0  0.00000000000E+00  0.00000000000E+00  0.77416525672E+03  0.77416525673E+03  0.25500000920E-02 0. -1.
       -2   -1    0    0    0  501  0.00000000000E+00  0.00000000000E+00 -0.39921767681E+03  0.39921767682E+03  0.25500000920E-02 0.  1.
    10030    2    1    2    0    0  0.00000000000E+00  0.00000000000E+00  0.37494757991E+03  0.11733829335E+04  0.11118641199E+04 0.  0.
        1    1    3    3  502    0 -0.78490609893E+02 -0.24770235437E+03 -0.33118946368E+03  0.42095569017E+03  0.50400001928E-02 0.  1.
       -1    1    3    3    0  502  0.78490609893E+02  0.24770235437E+03  0.70613704360E+03  0.75242724337E+03  0.50400001928E-02 0. -1.
</event>
<event>
 5   0  0.5723194E-03  0.1107490E+04  0.7818609E-02  0.9197922E-01
       -2   -1    0    0    0  501  0.00000000000E+00  0.00000000000E+00  0.45763511918E+03  0.45763511919E+03  0.25500000920E-02 0. -1.
        2   -1    0    0  501    0  0.00000000000E+00  0.00000000000E+00 -0.67003904954E+03  0.67003904955E+03  0.25500000920E-02 0.  1.
    10030    2    1    2    0    0  0.00000000000E+00  0.00000000000E+00 -0.21240393036E+03  0.11276741687E+04  0.11074897748E+04 0.  0.
        1    1    3    3  502    0  0.53612126663E+03  0.70137256302E+02  0.15509629765E+02  0.54091200383E+03  0.50400001928E-02 0. -1.
       -1    1    3    3    0  502 -0.53612126663E+03 -0.70137256302E+02 -0.22791356012E+03  0.58676216491E+03  0.50400001928E-02 0.  1.
</event>
<event>
 5   0  0.3241189E-03  0.1108318E+04  0.7818609E-02  0.9197122E-01
       -1   -1    0    0    0  501  0.00000000000E+00  0.00000000000E+00  0.20923496969E+03  0.20923496975E+03  0.50400001928E-02 0.  1.
        1   -1    0    0  501    0  0.00000000000E+00  0.00000000000E+00 -0.14676911398E+04  0.14676911398E+04  0.50400001928E-02 0. -1.
    10030    2    1    2    0    0  0.00000000000E+00  0.00000000000E+00 -0.12584561701E+04  0.16769261095E+04  0.11083182056E+04 0.  0.
        5    1    3    3  502    0  0.17848603370E+03 -0.38922612502E+03 -0.11614127553E+04  0.12378432529E+04  0.46999998093E+01 0. -1.
       -5    1    3    3    0  502 -0.17848603370E+03  0.38922612502E+03 -0.97043414786E+02  0.43908285661E+03  0.46999998093E+01 0.  1.
</event>
<event>
 5   0  0.2185750E-03  0.1111823E+04  0.7818609E-02  0.9193744E-01
        3   -1    0    0  501    0  0.00000000000E+00  0.00000000000E+00  0.20968644849E+03  0.20968647282E+03  0.10100000352E+00 0.  1.
       -3   -1    0    0    0  501  0.00000000000E+00  0.00000000000E+00 -0.14738089397E+04  0.14738089431E+04  0.10100000352E+00 0. -1.
    10030    2    1    2    0    0  0.00000000000E+00  0.00000000000E+00 -0.12641224912E+04  0.16834954160E+04  0.11118233416E+04 0.  0.
        2    1    3    3  502    0 -0.11463450713E+03  0.53959701983E+03 -0.73621814438E+03  0.91995824370E+03  0.25500000920E-02 0. -1.
       -2    1    3    3    0  502  0.11463450713E+03 -0.53959701983E+03 -0.52790434680E+03  0.76353717225E+03  0.25500000920E-02 0.  1.
</event>
<event>
 5   0  0.5946359E-03  0.1108632E+04  0.7818609E-02  0.9196819E-01
       -2   -1    0    0    0  501  0.00000000000E+00  0.00000000000E+00  0.50657408123E+03  0.50657408124E+03  0.25500000920E-02 0. -1.
        2   -1    0    0  501    0  0.00000000000E+00  0.00000000000E+00 -0.60655788486E+03  0.60655788487E+03  0.25500000920E-02 0.  1.
    10030    2    1    2    0    0  0.00000000000E+00  0.00000000000E+00 -0.99983803628E+02  0.11131319661E+04  0.11086324968E+04 0.  0.
        4    1    3    3  502    0  0.22865524964E+03  0.45661503373E+01  0.45699387006E+03  0.51102747782E+03  0.12699999809E+01 0. -1.
       -4    1    3    3    0  502 -0.22865524964E+03 -0.45661503373E+01 -0.55697767369E+03  0.60210448828E+03  0.12699999809E+01 0.  1.
</event>
<event>
 5   0  0.3316784E-03  0.1085493E+04  0.7818609E-02  0.9219447E-01
        1   -1    0    0  501    0  0.00000000000E+00  0.00000000000E+00  0.59098029398E+03  0.59098029401E+03  0.50400001928E-02 0.  1.
       -1   -1    0    0    0  501  0.00000000000E+00  0.00000000000E+00 -0.49844977442E+03  0.49844977444E+03  0.50400001928E-02 0. -1.
    10030    2    1    2    0    0  0.00000000000E+00  0.00000000000E+00  0.92530519567E+02  0.10894300684E+04  0.10854934256E+04 0.  0.
        4    1    3    3  502    0 -0.39392553571E+03  0.57844986852E+02  0.41645114456E+03  0.57615669647E+03  0.12699999809E+01 0.  1.
       -4    1    3    3    0  502  0.39392553571E+03 -0.57844986852E+02 -0.32392062499E+03  0.51327337198E+03  0.12699999809E+01 0. -1.
</event>
<event>
 5   0  0.5946359E-03  0.8305492E+03  0.7818609E-02  0.9516822E-01
       -2   -1    0    0    0  501  0.00000000000E+00  0.00000000000E+00  0.35491791367E+03  0.35491791368E+03  0.25500000920E-02 0. -1.
        2   -1    0    0  501    0  0.00000000000E+00  0.00000000000E+00 -0.48589539013E+03  0.48589539013E+03  0.25500000920E-02 0.  1.
    10030    2    1    2    0    0  0.00000000000E+00  0.00000000000E+00 -0.13097747646E+03  0.84081330381E+03  0.83054916322E+03 0.  0.
        4    1    3    3  502    0 -0.32311957656E+03  0.24317951824E+03 -0.16104177135E+03  0.43529140110E+03  0.12699999809E+01 0.  1.
       -4    1    3    3    0  502  0.32311957656E+03 -0.24317951824E+03  0.30064294896E+02  0.40552190271E+03  0.12699999809E+01 0. -1.
</event>
<event>
 5   0  0.3328741E-03  0.1102634E+04  0.7818609E-02  0.9202629E-01
       -1   -1    0    0    0  501  0.00000000000E+00  0.00000000000E+00  0.29241906198E+03  0.29241906202E+03  0.50400001928E-02 0. -1.
        1   -1    0    0  501    0  0.00000000000E+00  0.00000000000E+00 -0.10394340989E+04  0.10394340989E+04  0.50400001928E-02 0.  1.
    10030    2    1    2    0    0  0.00000000000E+00  0.00000000000E+00 -0.74701503689E+03  0.13318531609E+04  0.11026338363E+04 0.  0.
        3    1    3    3  502    0  0.22194090012E+03 -0.42630275840E+03 -0.47248094515E+02  0.48293291212E+03  0.10100000352E+00 0. -1.
       -3    1    3    3    0  502 -0.22194090012E+03  0.42630275840E+03 -0.69976694237E+03  0.84892024879E+03  0.10100000352E+00 0.  1.
</event>
<event>
 5   0  0.3316784E-03  0.1167952E+04  0.7818609E-02  0.9141380E-01
        1   -1    0    0  501    0  0.00000000000E+00  0.00000000000E+00  0.14718470026E+04  0.14718470026E+04  0.50400001928E-02 0.  1.
       -1   -1    0    0    0  501  0.00000000000E+00  0.00000000000E+00 -0.23170077845E+03  0.23170077851E+03  0.50400001928E-02 0. -1.
    10030    2    1    2    0    0  0.00000000000E+00  0.00000000000E+00  0.12401462241E+04  0.17035477811E+04  0.11679522187E+04 0.  0.
        4    1    3    3  502    0 -0.16231647052E+03 -0.55803523073E+03  0.53658277962E+03  0.79099472035E+03  0.12699999809E+01 0.  1.
       -4    1    3    3    0  502  0.16231647052E+03  0.55803523073E+03  0.70356344452E+03  0.91255306075E+03  0.12699999809E+01 0. -1.
</event>
<event>
 5   0  0.3320192E-03  0.1137791E+04  0.7818609E-02  0.9169121E-01
       -1   -1    0    0    0  501  0.00000000000E+00  0.00000000000E+00  0.32120882708E+03  0.32120882712E+03  0.50400001928E-02 0.  1.
        1   -1    0    0  501    0  0.00000000000E+00  0.00000000000E+00 -0.10075758448E+04  0.10075758448E+04  0.50400001928E-02 0. -1.
    10030    2    1    2    0    0  0.00000000000E+00  0.00000000000E+00 -0.68636701770E+03  0.13287846719E+04  0.11377912908E+04 0.  0.
        2    1    3    3  502    0 -0.44395027383E+03  0.94990710361E+02  0.57186144919E+02  0.45758642448E+03  0.25500000920E-02 0.  1.
       -2    1    3    3    0  502  0.44395027383E+03 -0.94990710361E+02 -0.74355316262E+03  0.87119824743E+03  0.25500000920E-02 0. -1.
</event>
<event>
 5   0  0.5723194E-03  0.1119438E+04  0.7818609E-02  0.9186451E-01
       -2   -1    0    0    0  501  0.00000000000E+00  0.00000000000E+00  0.25831100738E+03  0.25831100739E+03  0.25500000920E-02 0. -1.
        2   -1    0    0  501    0  0.00000000000E+00  0.00000000000E+00 -0.12128221796E+04  0.12128221796E+04  0.25500000920E-02 0.  1.
    10030    2    1    2    0    0  0.00000000000E+00  0.00000000000E+00 -0.95451117222E+03  0.14711331870E+04  0.11194379286E+04 0.  0.
        1    1    3    3  502    0 -0.16267090050E+03 -0.19898412615E+03 -0.11306892705E+04  0.11595321172E+04  0.50400001928E-02 0.  1.
       -1    1    3    3    0  502  0.16267090050E+03  0.19898412615E+03  0.17617809832E+03  0.31160106977E+03  0.50400001928E-02 0. -1.
</event>
<event>
 5   0  0.3215352E-03  0.1099075E+04  0.7818609E-02  0.9206094E-01
       -1   -1    0    0    0  501  0.00000000000E+00  0.00000000000E+00  0.19181236221E+03  0.19181236228E+03  0.50400001928E-02 0. -1.
        1   -1    0    0  501    0  0.00000000000E+00  0.00000000000E+00 -0.15744106649E+04  0.15744106650E+04  0.50400001928E-02 0.  1.
    10030    2    1    2    0    0  0.00000000000E+00  0.00000000000E+00 -0.13825983027E+04  0.17662230272E+04  0.10990749361E+04 0.  0.
        1    1    3    3  502    0 -0.39413908911E+03 -0.17298225923E+02 -0.13060647051E+04  0.13643496121E+04  0.50400001928E-02 0.  1.
       -1    1    3    3    0  502  0.39413908911E+03  0.17298225923E+02 -0.76533597654E+02  0.40187341512E+03  0.50400001928E-02 0. -1.
</event>
<event>
 5   0  0.5500363E-03  0.1105190E+04  0.7818609E-02  0.9200148E-01
        2   -1    0    0  501    0  0.00000000000E+00  0.00000000000E+00  0.16370239466E+04  0.16370239466E+04  0.25500000920E-02 0. -1.
       -2   -1    0    0    0  501  0.00000000000E+00  0.00000000000E+00 -0.18653423690E+03  0.18653423692E+03  0.25500000920E-02 0.  1.
    10030    2    1    2    0    0  0.00000000000E+00  0.00000000000E+00  0.14504897097E+04  0.18235581835E+04  0.11051895995E+04 0.  0.
        3    1    3    3  502    0  0.59370738090E+02 -0.28939174857E+03  0.14957920641E+04  0.15246856652E+04  0.10100000352E+00 0. -1.
       -3    1    3    3    0  502 -0.59370738090E+02  0.28939174857E+03 -0.45302354349E+02  0.29887251829E+03  0.10100000352E+00 0.  1.
</event>
<event>
 5   0  0.5627232E-03  0.1083388E+04  0.7818609E-02  0.9221536E-01
       -2   -1    0    0    0  501  0.00000000000E+00  0.00000000000E+00  0.18467628942E+03  0.18467628944E+03  0.25500000920E-02 0. -1.
        2   -1    0    0  501    0  0.00000000000E+00  0.00000000000E+00 -0.15889006285E+04  0.15889006285E+04  0.25500000920E-02 0.  1.
    10030    2    1    2    0    0  0.00000000000E+00  0.00000000000E+00 -0.14042243390E+04  0.17735769179E+04  0.10833877835E+04 0.  0.
        2    1    3    3  502    0 -0.31241201620E+03  0.16726082993E+03 -0.13728194202E+04  0.14178189636E+04  0.25500000920E-02 0.  1.
       -2    1    3    3    0  502  0.31241201620E+03 -0.16726082993E+03 -0.31404918828E+02  0.35575795427E+03  0.25500000920E-02 0. -1.
</event>
<event>
 5   0  0.5946359E-03  0.1103941E+04  0.7818609E-02  0.9201359E-01
        2   -1    0    0  501    0  0.00000000000E+00  0.00000000000E+00  0.32703162638E+03  0.32703162639E+03  0.25500000920E-02 0. -1.
       -2   -1    0    0    0  501  0.00000000000E+00  0.00000000000E+00 -0.93162737021E+03  0.93162737021E+03  0.25500000920E-02 0.  1.
    10030    2    1    2    0    0  0.00000000000E+00  0.00000000000E+00 -0.60459574383E+03  0.12586589966E+04  0.11039413283E+04 0.  0.
        4    1    3    3  502    0 -0.38873224936E+03 -0.39085907430E+03 -0.33427138357E+03  0.64468794655E+03  0.12699999809E+01 0.  1.
       -4    1    3    3    0  502  0.38873224936E+03  0.39085907430E+03 -0.27032436026E+03  0.61397105005E+03  0.12699999809E+01 0. -1.
</event>
<event>
 5   0  0.3316784E-03  0.1100653E+04  0.7818609E-02  0.9204555E-01
        1   -1    0    0  501    0  0.00000000000E+00  0.00000000000E+00  0.49136974365E+03  0.49136974368E+03  0.50400001928E-02 0.  1.
       -1   -1    0    0    0  501  0.00000000000E+00  0.00000000000E+00 -0.61635767696E+03  0.61635767698E+03  0.50400001928E-02 0. -1.
    10030    2    1    2    0    0  0.00000000000E+00  0.00000000000E+00 -0.12498793330E+03  0.11077274207E+04  0.11006534673E+04 0.  0.
        4    1    3    3  502    0  0.21594049946E+03 -0.33707416547E+03  0.31756866526E+03  0.51098019765E+03  0.12699999809E+01 0.  1.
       -4    1    3    3    0  502 -0.21594049946E+03  0.33707416547E+03 -0.44255659857E+03  0.59674722301E+03  0.12699999809E+01 0. -1.
</event>
<event>
 5   0  0.3215352E-03  0.1086751E+04  0.7818609E-02  0.9218202E-01
       -1   -1    0    0    0  501  0.00000000000E+00  0.00000000000E+00  0.54140033648E+03  0.54140033650E+03  0.50400001928E-02 0. -1.
        1   -1    0    0  501    0  0.00000000000E+00  0.00000000000E+00 -0.54535807357E+03  0.54535807360E+03  0.50400001928E-02 0.  1.
    10030    2    1    2    0    0  0.00000000000E+00  0.00000000000E+00 -0.39577370959E+01  0.10867584101E+04  0.10867512035E+04 0.  0.
        1    1    3    3  502    0  0.23600094321E+03 -0.28978552269E+03  0.39246632873E+03  0.54194272167E+03  0.50400001928E-02 0. -1.
       -1    1    3    3    0  502 -0.23600094321E+03  0.28978552269E+03 -0.39642406583E+03  0.54481568842E+03  0.50400001928E-02 0.  1.
</event>
<event>
 5   0  0.5946359E-03  0.1057278E+04  0.7818609E-02  0.9247862E-01
        2   -1    0    0  501    0  0.00000000000E+00  0.00000000000E+00  0.97825657495E+03  0.97825657496E+03  0.25500000920E-02 0. -1.
       -2   -1    0    0    0  501  0.00000000000E+00  0.00000000000E+00 -0.28567051451E+03  0.28567051452E+03  0.25500000920E-02 0.  1.
    10030    2    1    2    0    0  0.00000000000E+00  0.00000000000E+00  0.69258606044E+03  0.12639270895E+04  0.10572777480E+04 0.  0.
        4    1    3    3  502    0  0.16956312790E+03  0.17462519180E+03 -0.21469456407E+03  0.32456275309E+03  0.12699999809E+01 0.  1.
       -4    1    3    3    0  502 -0.16956312790E+03 -0.17462519180E+03  0.90728062451E+03  0.93936433638E+03  0.12699999809E+01 0. -1.
</event>
<event>
 5   0  0.5941585E-03  0.1054930E+04  0.7818609E-02  0.9250269E-01
        2   -1    0    0  501    0  0.00000000000E+00  0.00000000000E+00  0.82920089009E+03  0.82920089009E+03  0.25500000920E-02 0.  1.
       -2   -1    0    0    0  501  0.00000000000E+00  0.00000000000E+00 -0.33552685427E+03  0.33552685428E+03  0.25500000920E-02 0. -1.
    10030    2    1    2    0    0  0.00000000000E+00  0.00000000000E+00  0.49367403582E+03  0.11647277444E+04  0.10549296966E+04 0.  0.
        5    1    3    3  502    0  0.41127633191E+03 -0.22841999095E+03 -0.16465245767E+02  0.47076226247E+03  0.46999998093E+01 0. -1.
       -5    1    3    3    0  502 -0.41127633191E+03  0.22841999095E+03  0.51013928159E+03  0.69396548190E+03  0.46999998093E+01 0.  1.
</event>
<event>
 5   0  0.3320192E-03  0.1255515E+04  0.7818609E-02  0.9065606E-01
        1   -1    0    0  501    0  0.00000000000E+00  0.00000000000E+00  0.52245302761E+03  0.52245302764E+03  0.50400001928E-02 0.  1.
       -1   -1    0    0    0  501  0.00000000000E+00  0.00000000000E+00 -0.75428676582E+03  0.75428676584E+03  0.50400001928E-02 0. -1.
    10030    2    1    2    0    0  0.00000000000E+00  0.00000000000E+00 -0.23183373821E+03  0.12767397935E+04  0.12555148817E+04 0.  0.
        2    1    3    3  502    0 -0.17182126696E+03  0.60016132442E+02  0.49503502165E+03  0.52743166059E+03  0.25500000920E-02 0.  1.
       -2    1    3    3    0  502  0.17182126696E+03 -0.60016132442E+02 -0.72686875986E+03  0.74930813288E+03  0.25500000920E-02 0. -1.
</event>
<event>
 5   0  0.2185750E-03  0.1060102E+04  0.7818609E-02  0.9244976E-01
        3   -1    0    0  501    0  0.00000000000E+00  0.00000000000E+00  0.35208566490E+03  0.35208567939E+03  0.10100000352E+00 0.  1.
       -3   -1    0    0    0  501  0.00000000000E+00  0.00000000000E+00 -0.79797096029E+03  0.79797096668E+03  0.10100000352E+00 0. -1.
    10030    2    1    2    0    0  0.00000000000E+00  0.00000000000E+00 -0.44588529539E+03  0.11500566461E+04  0.10601021614E+04 0.  0.
        3    1    3    3  502    0  0.45670857910E+03 -0.24097393886E+03 -0.93199430162E+02  0.52472593743E+03  0.10100000352E+00 0. -1.
       -3    1    3    3    0  502 -0.45670857910E+03  0.24097393886E+03 -0.35268586523E+03  0.62533070864E+03  0.10100000352E+00 0.  1.
</event>
<event>
 5   0  0.3328741E-03  0.1103235E+04  0.7818609E-02  0.9202044E-01
       -1   -1    0    0    0  501  0.00000000000E+00  0.00000000000E+00  0.26941220988E+03  0.26941220992E+03  0.50400001928E-02 0. -1.
        1   -1    0    0  501    0  0.00000000000E+00  0.00000000000E+00 -0.11294288958E+04  0.11294288958E+04  0.50400001928E-02 0.  1.
    10030    2    1    2    0    0  0.00000000000E+00  0.00000000000E+00 -0.86001668591E+03  0.13988411057E+04  0.11032351241E+04 0.  0.
        3    1    3    3  502    0  0.40429848908E+02  0.40393736489E+03  0.43534548773E+02  0.40828327736E+03  0.10100000352E+00 0. -1.
       -3    1    3    3    0  502 -0.40429848908E+02 -0.40393736489E+03 -0.90355123468E+03  0.99055782837E+03  0.10100000352E+00 0.  1.
</event>
<event>
 5   0  0.5627232E-03  0.1108383E+04  0.7818609E-02  0.9197060E-01
        2   -1    0    0  501    0  0.00000000000E+00  0.00000000000E+00  0.42981271195E+03  0.42981271196E+03  0.25500000920E-02 0. -1.
       -2   -1    0    0    0  501  0.00000000000E+00  0.00000000000E+00 -0.71456282686E+03  0.71456282686E+03  0.25500000920E-02 0.  1.
    10030    2    1    2    0    0  0.00000000000E+00  0.00000000000E+00 -0.28475011490E+03  0.11443755388E+04  0.11083829419E+04 0.  0.
        2    1    3    3  502    0 -0.42694201096E+03 -0.73593899245E+02  0.21443760308E+03  0.48340358744E+03  0.25500000920E-02 0.  1.
       -2    1    3    3    0  502  0.42694201096E+03  0.73593899245E+02 -0.49918771798E+03  0.66097195139E+03  0.25500000920E-02 0. -1.
</event>
<event>
 5   0  0.5946359E-03  0.8251622E+03  0.7818609E-02  0.9524293E-01
        2   -1    0    0  501    0  0.00000000000E+00  0.00000000000E+00  0.13406236981E+04  0.13406236981E+04  0.25500000920E-02 0.  1.
       -2   -1    0    0    0  501  0.00000000000E+00  0.00000000000E+00 -0.12697311111E+03  0.12697311113E+03  0.25500000920E-02 0. -1.
    10030    2    1    2    0    0  0.00000000000E+00  0.00000000000E+00  0.12136505870E+04  0.14675968092E+04  0.82516219446E+03 0.  0.
        4    1    3    3  502    0  0.10197623575E+03  0.39380560398E+03  0.48438181805E+03  0.63254198670E+03  0.12699999809E+01 0. -1.
       -4    1    3    3    0  502 -0.10197623575E+03 -0.39380560398E+03  0.72926876892E+03  0.83505482252E+03  0.12699999809E+01 0.  1.
</event>
<event>
 5   0  0.3215352E-03  0.1104713E+04  0.7818609E-02  0.9200610E-01
       -1   -1    0    0    0  501  0.00000000000E+00  0.00000000000E+00  0.20695938034E+03  0.20695938040E+03  0.50400001928E-02 0. -1.
        1   -1    0    0  501    0  0.00000000000E+00  0.00000000000E+00 -0.14741914413E+04  0.14741914413E+04  0.50400001928E-02 0.  1.
    10030    2    1    2    0    0  0.00000000000E+00  0.00000000000E+00 -0.12672320609E+04  0.16811508217E+04  0.11047130799E+04 0.  0.
        1    1    3    3  502    0  0.72122964273E+02 -0.44566345576E+03 -0.11179213754E+04  0.12056391829E+04  0.50400001928E-02 0.  1.
       -1    1    3    3    0  502 -0.72122964273E+02  0.44566345576E+03 -0.14931068554E+03  0.47551163878E+03  0.50400001928E-02 0. -1.
</event>
<event>
 5   0  0.3215352E-03  0.1085826E+04  0.7818609E-02  0.9219118E-01
       -1   -1    0    0    0  501  0.00000000000E+00  0.00000000000E+00  0.29807108364E+03  0.29807108369E+03  0.50400001928E-02 0. -1.
        1   -1    0    0  501    0  0.00000000000E+00  0.00000000000E+00 -0.98887341063E+03  0.98887341064E+03  0.50400001928E-02 0.  1.
    10030    2    1    2    0    0  0.00000000000E+00  0.00000000000E+00 -0.69080232699E+03  0.12869444943E+04  0.10858260802E+04 0.  0.
        1    1    3    3  502    0 -0.22727265930E+01 -0.49500467963E+03 -0.81121279639E+02  0.50161285886E+03  0.50400001928E-02 0. -1.
       -1    1    3    3    0  502  0.22727265930E+01  0.49500467963E+03 -0.60968104735E+03  0.78533163546E+03  0.50400001928E-02 0.  1.
</event>
<event>
 5   0  0.5500363E-03  0.1099791E+04  0.7818609E-02  0.9205395E-01
       -2   -1    0    0    0  501  0.00000000000E+00  0.00000000000E+00  0.30881560343E+03  0.30881560344E+03  0.25500000920E-02 0. -1.
        2   -1    0    0  501    0  0.00000000000E+00  0.00000000000E+00 -0.97917747088E+03  0.97917747089E+03  0.25500000920E-02 0.  1.
    10030    2    1    2    0    0  0.00000000000E+00  0.00000000000E+00 -0.67036186745E+03  0.12879930743E+04  0.10997914012E+04 0.  0.
        3    1    3    3  502    0 -0.33373418710E+03 -0.43701539677E+03 -0.34095479165E+03  0.64700165750E+03  0.10100000352E+00 0.  1.
       -3    1    3    3    0  502  0.33373418710E+03  0.43701539677E+03 -0.32940707580E+03  0.64099141683E+03  0.10100000352E+00 0. -1.
</event>
<event>
 5   0  0.3316784E-03  0.1091515E+04  0.7818609E-02  0.9213502E-01
       -1   -1    0    0    0  501  0.00000000000E+00  0.00000000000E+00  0.79401107436E+03  0.79401107437E+03  0.50400001928E-02 0.  1.
        1   -1    0    0  501    0  0.00000000000E+00  0.00000000000E+00 -0.37512203317E+03  0.37512203320E+03  0.50400001928E-02 0. -1.
    10030    2    1    2    0    0  0.00000000000E+00  0.00000000000E+00  0.41888904119E+03  0.11691331076E+04  0.10915146332E+04 0.  0.
        4    1    3    3  502    0 -0.18298878344E+03  0.12199344773E+03  0.74444494513E+03  0.77625201151E+03  0.12699999809E+01 0.  1.
       -4    1    3    3    0  502  0.18298878344E+03 -0.12199344773E+03 -0.32555590394E+03  0.39288109606E+03  0.12699999809E+01 0. -1.
</event>
<event>
 5   0  0.3215352E-03  0.1108828E+04  0.7818609E-02  0.9196630E-01
       -1   -1    0    0    0  501  0.00000000000E+00  0.00000000000E+00  0.18502399766E+03  0.18502399773E+03  0.50400001928E-02 0. -1.
        1   -1    0    0  501    0  0.00000000000E+00  0.00000000000E+00 -0.16612717919E+04  0.16612717919E+04  0.50400001928E-02 0.  1.
    10030    2    1    2    0    0  0.00000000000E+00  0.00000000000E+00 -0.14762477942E+04  0.18462957896E+04  0.11088284776E+04 0.  0.
        1    1    3    3  502    0  0.36562625830E+03 -0.23445705091E+02 -0.14309739183E+04  0.14771318888E+04  0.50400001928E-02 0.  1.
       -1    1    3    3    0  502 -0.36562625830E+03  0.23445705091E+02 -0.45273875920E+02  0.36916390088E+03  0.50400001928E-02 0. -1.
</event>
<event>
 5   0  0.3215352E-03  0.1089442E+04  0.7818609E-02  0.9215544E-01
       -1   -1    0    0    0  501  0.00000000000E+00  0.00000000000E+00  0.27399436567E+03  0.27399436571E+03  0.50400001928E-02 0. -1.
        1   -1    0    0  501    0  0.00000000000E+00  0.00000000000E+00 -0.10829453754E+04  0.10829453754E+04  0.50400001928E-02 0.  1.
    10030    2    1    2    0    0  0.00000000000E+00  0.00000000000E+00 -0.80895100973E+03  0.13569397411E+04  0.10894419328E+04 0.  0.
        1    1    3    3  502    0 -0.22571200447E+03 -0.38599999751E+03 -0.16997465088E+02  0.44747158668E+03  0.50400001928E-02 0. -1.
       -1    1    3    3    0  502  0.22571200447E+03  0.38599999751E+03 -0.79195354464E+03  0.90946815444E+03  0.50400001928E-02 0.  1.
</event>
<event>
 5   0  0.3328741E-03  0.1101291E+04  0.7818609E-02  0.9203934E-01
        1   -1    0    0  501    0  0.00000000000E+00  0.00000000000E+00  0.15335055337E+04  0.15335055338E+04  0.50400001928E-02 0. -1.
       -1   -1    0    0    0  501  0.00000000000E+00  0.00000000000E+00 -0.19772376731E+03  0.19772376738E+03  0.50400001928E-02 0.  1.
    10030    2    1    2    0    0  0.00000000000E+00  0.00000000000E+00  0.13357817664E+04  0.17312293011E+04  0.11012910449E+04 0.  0.
        3    1    3    3  502    0 -0.52725729266E+03  0.13326404432E+03  0.80358390826E+03  0.97031266403E+03  0.10100000352E+00 0. -1.
       -3    1    3    3    0  502  0.52725729266E+03 -0.13326404432E+03  0.53219785817E+03  0.76091663710E+03  0.10100000352E+00 0.  1.
</event>
<event>
 5   0  0.2185750E-03  0.1101561E+04  0.7818609E-02  0.9203671E-01
       -4   -1    0    0    0  501  0.00000000000E+00  0.00000000000E+00  0.35286765849E+03  0.35286994390E+03  0.12699999809E+01 0.  1.
        4   -1    0    0  501    0  0.00000000000E+00  0.00000000000E+00 -0.85969179959E+03  0.85969273766E+03  0.12699999809E+01 0. -1.
    10030    2    1    2    0    0  0.00000000000E+00  0.00000000000E+00 -0.50682414110E+03  0.12125626816E+04  0.11015614130E+04 0.  0.
        2    1    3    3  502    0  0.25576352490E+03 -0.45305823947E+01  0.28351401048E+03  0.38185822106E+03  0.25500000920E-02 0.  1.
       -2    1    3    3    0  502 -0.25576352490E+03  0.45305823947E+01 -0.79033815158E+03  0.83070446050E+03  0.25500000920E-02 0. -1.
</event>
<event>
 5   0  0.3316784E-03  0.1128663E+04  0.7818609E-02  0.9177697E-01
        1   -1    0    0  501    0  0.00000000000E+00  0.00000000000E+00  0.18702061679E+04  0.18702061679E+04  0.50400001928E-02 0.  1.
       -1   -1    0    0    0  501  0.00000000000E+00  0.00000000000E+00 -0.17028601668E+03  0.17028601676E+03  0.50400001928E-02 0. -1.
    10030    2    1    2    0    0  0.00000000000E+00  0.00000000000E+00  0.16999201512E+04  0.20404921846E+04  0.11286628527E+04 0.  0.
        4    1    3    3  502    0  0.43541285015E+03  0.21801686186E+03  0.13656118775E+04  0.14498320989E+04  0.12699999809E+01 0.  1.
       -4    1    3    3    0  502 -0.43541285015E+03 -0.21801686186E+03  0.33430827369E+03  0.59066008574E+03  0.12699999809E+01 0. -1.
</event>
<event>
 5   0  0.3215352E-03  0.1171826E+04  0.7818609E-02  0.9137881E-01
       -1   -1    0    0    0  501  0.00000000000E+00  0.00000000000E+00  0.58989658229E+03  0.58989658231E+03  0.50400001928E-02 0.  1.
        1   -1    0    0  501    0  0.00000000000E+00  0.00000000000E+00 -0.58195607746E+03  0.58195607748E+03  0.50400001928E-02 0. -1.
    10030    2    1    2    0    0  0.00000000000E+00  0.00000000000E+00  0.79405048257E+01  0.11718526598E+04  0.11718257569E+04 0.  0.
        1    1    3    3  502    0  0.31889789228E+03 -0.18439457854E+03  0.45960849376E+03  0.58901374675E+03  0.50400001928E-02 0.  1.
       -1    1    3    3    0  502 -0.31889789228E+03  0.18439457854E+03 -0.45166798894E+03  0.58283891304E+03  0.50400001928E-02 0. -1.
</event>
<event>
 5   0  0.3215352E-03  0.1108812E+04  0.7818609E-02  0.9196645E-01
       -1   -1    0    0    0  501  0.00000000000E+00  0.00000000000E+00  0.12962244231E+04  0.12962244231E+04  0.50400001928E-02 0.  1.
        1   -1    0    0  501    0  0.00000000000E+00  0.00000000000E+00 -0.23712426786E+03  0.23712426791E+03  0.50400001928E-02 0. -1.
    10030    2    1    2    0    0  0.00000000000E+00  0.00000000000E+00  0.10591001553E+04  0.15333486910E+04  0.11088124591E+04 0.  0.
        1    1    3    3  502    0 -0.46088373573E+03 -0.22509832749E+03  0.82055631032E+03  0.96767542768E+03  0.50400001928E-02 0.  1.
       -1    1    3    3    0  502  0.46088373573E+03  0.22509832749E+03  0.23854384494E+03  0.56567326336E+03  0.50400001928E-02 0. -1.
</event>
<event>
 5   0  0.5941585E-03  0.1090441E+04  0.7818609E-02  0.9214559E-01
        2   -1    0    0  501    0  0.00000000000E+00  0.00000000000E+00  0.11222348454E+04  0.11222348454E+04  0.25500000920E-02 0. -1.
       -2   -1    0    0    0  501  0.00000000000E+00  0.00000000000E+00 -0.26488691170E+03  0.26488691171E+03  0.25500000920E-02 0.  1.
    10030    2    1    2    0    0  0.00000000000E+00  0.00000000000E+00  0.85734793369E+03  0.13871217571E+04  0.10904408694E+04 0.  0.
        5    1    3    3  502    0  0.34693618061E+03  0.11917112025E+03 -0.84394382769E+02  0.37644517683E+03  0.46999998093E+01 0.  1.
       -5    1    3    3    0  502 -0.34693618061E+03 -0.11917112025E+03  0.94174231646E+03  0.10106765803E+04  0.46999998093E+01 0. -1.
</event>
<event>
 5   0  0.5946359E-03  0.1090279E+04  0.7818609E-02  0.9214718E-01
        2   -1    0    0  501    0  0.00000000000E+00  0.00000000000E+00  0.13333562632E+04  0.13333562632E+04  0.25500000920E-02 0. -1.
       -2   -1    0    0    0  501  0.00000000000E+00  0.00000000000E+00 -0.22287913231E+03  0.22287913233E+03  0.25500000920E-02 0.  1.
    10030    2    1    2    0    0  0.00000000000E+00  0.00000000000E+00  0.11104771309E+04  0.15562353955E+04  0.10902793899E+04 0.  0.
        4    1    3    3  502    0 -0.23003900977E+03  0.33229438301E+03  0.10774272816E+04  0.11507339671E+04  0.12699999809E+01 0. -1.
       -4    1    3    3    0  502  0.23003900977E+03 -0.33229438301E+03  0.33049849244E+02  0.40550142839E+03  0.12699999809E+01 0.  1.
</event>
<event>
 5   0  0.3241189E-03  0.1100064E+04  0.7818609E-02  0.9205130E-01
       -1   -1    0    0    0  501  0.00000000000E+00  0.00000000000E+00  0.90430024364E+03  0.90430024365E+03  0.50400001928E-02 0.  1.
        1   -1    0    0  501    0  0.00000000000E+00  0.00000000000E+00 -0.33455171095E+03  0.33455171099E+03  0.50400001928E-02 0. -1.
    10030    2    1    2    0    0  0.00000000000E+00  0.00000000000E+00  0.56974853269E+03  0.12388519546E+04  0.11000639868E+04 0.  0.
        5    1    3    3  502    0 -0.15375823307E+03 -0.45168102497E+03 -0.23241611262E+02  0.47772335619E+03  0.46999998093E+01 0. -1.
       -5    1    3    3    0  502  0.15375823307E+03  0.45168102497E+03  0.59299014396E+03  0.76112859845E+03  0.46999998093E+01 0.  1.
</event>
<event>
 5   0  0.5946359E-03  0.1083889E+04  0.7818609E-02  0.9221038E-01
       -2   -1    0    0    0  501  0.00000000000E+00  0.00000000000E+00  0.34431047453E+03  0.34431047454E+03  0.25500000920E-02 0. -1.
        2   -1    0    0  501    0  0.00000000000E+00  0.00000000000E+00 -0.85302052036E+03  0.85302052036E+03  0.25500000920E-02 0.  1.
    10030    2    1    2    0    0  0.00000000000E+00  0.00000000000E+00 -0.50871004583E+03  0.11973309949E+04  0.10838891090E+04 0.  0.
        4    1    3    3  502    0 -0.39897033298E+03  0.12377148582E+03 -0.63575236756E+03  0.76070979556E+03  0.12699999809E+01 0.  1.
       -4    1    3    3    0  502  0.39897033298E+03 -0.12377148582E+03  0.12704232173E+03  0.43662119934E+03  0.12699999809E+01 0. -1.
</event>
<event>
 5   0  0.3328741E-03  0.1102379E+04  0.7818609E-02  0.9202876E-01
       -1   -1    0    0    0  501  0.00000000000E+00  0.00000000000E+00  0.37344733971E+03  0.37344733974E+03  0.50400001928E-02 0. -1.
        1   -1    0    0  501    0  0.00000000000E+00  0.00000000000E+00 -0.81352855254E+03  0.81352855256E+03  0.50400001928E-02 0.  1.
    10030    2    1    2    0    0  0.00000000000E+00  0.00000000000E+00 -0.44008121284E+03  0.11869758923E+04  0.11023793789E+04 0.  0.
        3    1    3    3  502    0 -0.44588054778E+03  0.23392404428E+03  0.21399306729E+02  0.50397208446E+03  0.10100000352E+00 0. -1.
       -3    1    3    3    0  502  0.44588054778E+03 -0.23392404428E+03 -0.46148051956E+03  0.68300380784E+03  0.10100000352E+00 0.  1.
</event>
<event>
 5   0  0.5627232E-03  0.1106522E+04  0.7818609E-02  0.9198858E-01
       -2   -1    0    0    0  501  0.00000000000E+00  0.00000000000E+00  0.35990604900E+03  0.35990604900E+03  0.25500000920E-02 0.  1.
        2   -1    0    0  501    0  0.00000000000E+00  0.00000000000E+00 -0.85049365965E+03  0.85049365965E+03  0.25500000920E-02 0. -1.
    10030    2    1    2    0    0  0.00000000000E+00  0.00000000000E+00 -0.49058761065E+03  0.12103997087E+04  0.11065221421E+04 0.  0.
        2    1    3    3  502    0 -0.32187472299E+03 -0.61958212855E+02  0.24225620297E+03  0.40759075716E+03  0.25500000920E-02 0.  1.
       -2    1    3    3    0  502  0.32187472299E+03  0.61958212855E+02 -0.73284381362E+03  0.80280895150E+03  0.25500000920E-02 0. -1.
</event>
<event>
 5   0  0.5723194E-03  0.1080226E+04  0.7818609E-02  0.9224682E-01
       -2   -1    0    0    0  501  0.00000000000E+00  0.00000000000E+00  0.29987612507E+03  0.29987612508E+03  0.25500000920E-02 0.  1.
        2   -1    0    0  501    0  0.00000000000E+00  0.00000000000E+00 -0.97280939027E+03  0.97280939027E+03  0.25500000920E-02 0. -1.
    10030    2    1    2    0    0  0.00000000000E+00  0.00000000000E+00 -0.67293326520E+03  0.12726855153E+04  0.10802264770E+04 0.  0.
        1    1    3    3  502    0  0.18045597967E+03  0.44987022057E+03 -0.55739855905E+02  0.48790829826E+03  0.50400001928E-02 0.  1.
       -1    1    3    3    0  502 -0.18045597967E+03 -0.44987022057E+03 -0.61719340930E+03  0.78477721709E+03  0.50400001928E-02 0. -1.
</event>
<event>
 5   0  0.3316784E-03  0.1111423E+04  0.7818609E-02  0.9194129E-01
        1   -1    0    0  501    0  0.00000000000E+00  0.00000000000E+00  0.84187378116E+03  0.84187378118E+03  0.50400001928E-02 0.  1.
       -1   -1    0    0    0  501  0.00000000000E+00  0.00000000000E+00 -0.36681911604E+03  0.36681911608E+03  0.50400001928E-02 0. -1.
    10030    2    1    2    0    0  0.00000000000E+00  0.00000000000E+00  0.47505466512E+03  0.12086928973E+04  0.11114232250E+04 0.  0.
        4    1    3    3  502    0  0.42627847598E+03  0.30454659246E+03  0.43909058652E+03  0.68356720381E+03  0.12699999809E+01 0.  1.
       -4    1    3    3    0  502 -0.42627847598E+03 -0.30454659246E+03  0.35964078595E+02  0.52512569344E+03  0.12699999809E+01 0. -1.
</event>
<event>
 5   0  0.5723194E-03  0.1094623E+04  0.7818609E-02  0.9210448E-01
       -2   -1    0    0    0  501  0.00000000000E+00  0.00000000000E+00  0.10049596531E+04  0.10049596531E+04  0.25500000920E-02 0. -1.
        2   -1    0    0  501    0  0.00000000000E+00  0.00000000000E+00 -0.29807164649E+03  0.29807164650E+03  0.25500000920E-02 0.  1.
    10030    2    1    2    0    0  0.00000000000E+00  0.00000000000E+00  0.70688800657E+03  0.13030312996E+04  0.10946231835E+04 0.  0.
        1    1    3    3  502    0 -0.16737751298E+03 -0.45898454100E+02 -0.26444665991E+03  0.31631303467E+03  0.50400001928E-02 0.  1.
       -1    1    3    3    0  502  0.16737751298E+03  0.45898454100E+02  0.97133466649E+03  0.98671826490E+03  0.50400001928E-02 0. -1.
</event>
<event>
 5   0  0.3320192E-03  0.9549846E+03  0.7818609E-02  0.9359343E-01
        1   -1    0    0  501    0  0.00000000000E+00  0.00000000000E+00  0.69359210979E+03  0.69359210981E+03  0.50400001928E-02 0. -1.
       -1   -1    0    0    0  501  0.00000000000E+00  0.00000000000E+00 -0.32872184259E+03  0.32872184262E+03  0.50400001928E-02 0.  1.
    10030    2    1    2    0    0  0.00000000000E+00  0.00000000000E+00  0.36487026720E+03  0.10223139524E+04  0.95498455770E+03 0.  0.
        2    1    3    3  502    0  0.93099255444E+02  0.13930668501E+03 -0.29621870751E+03  0.34032241557E+03  0.25500000920E-02 0.  1.
       -2    1    3    3    0  502 -0.93099255444E+02 -0.13930668501E+03  0.66108897472E+03  0.68199153686E+03  0.25500000920E-02 0. -1.
</event>
<event>
 5   0  0.5946359E-03  0.1062721E+04  0.7818609E-02  0.9242308E-01
       -2   -1    0    0    0  501  0.00000000000E+00  0.00000000000E+00  0.38505943852E+03  0.38505943853E+03  0.25500000920E-02 0. -1.
        2   -1    0    0  501    0  0.00000000000E+00  0.00000000000E+00 -0.73324837681E+03  0.73324837681E+03  0.25500000920E-02 0.  1.
    10030    2    1    2    0    0  0.00000000000E+00  0.00000000000E+00 -0.34818893829E+03  0.11183078153E+04  0.10627214278E+04 0.  0.
        4    1    3    3  502    0 -0.52119736145E+03  0.82912722772E+02 -0.10904370716E+03  0.53890013189E+03  0.12699999809E+01 0.  1.
       -4    1    3    3    0  502  0.52119736145E+03 -0.82912722772E+02 -0.23914523113E+03  0.57940768346E+03  0.12699999809E+01 0. -1.
</event>
<event>
 5   0  0.5500363E-03  0.1095348E+04  0.7818609E-02  0.9209738E-01
       -2   -1    0    0    0  501  0.00000000000E+00  0.00000000000E+00  0.39585206697E+03  0.39585206698E+03  0.25500000920E-02 0. -1.
        2   -1    0    0  501    0  0.00000000000E+00  0.00000000000E+00 -0.75772411011E+03  0.75772411011E+03  0.25500000920E-02 0.  1.
    10030    2    1    2    0    0  0.00000000000E+00  0.00000000000E+00 -0.36187204313E+03  0.11535761771E+04  0.10953477168E+04 0.  0.
        3    1    3    3  502    0 -0.41064371964E+03  0.36203091422E+03 -0.16421770596E+03  0.57154362256E+03  0.10100000352E+00 0.  1.
       -3    1    3    3    0  502  0.41064371964E+03 -0.36203091422E+03 -0.19765433717E+03  0.58203255454E+03  0.10100000352E+00 0. -1.
</event>
<event>
 5   0  0.3320192E-03  0.1148185E+04  0.7818609E-02  0.9159460E-01
        1   -1    0    0  501    0  0.00000000000E+00  0.00000000000E+00  0.75768277378E+03  0.75768277380E+03  0.50400001928E-02 0. -1.
       -1   -1    0    0    0  501  0.00000000000E+00  0.00000000000E+00 -0.43498691963E+03  0.43498691966E+03  0.50400001928E-02 0.  1.
    10030    2    1    2    0    0  0.00000000000E+00  0.00000000000E+00  0.32269585415E+03  0.11926696935E+04  0.11481848211E+04 0.  0.
        2    1    3    3  502    0 -0.21096478166E+03  0.14848376950E+03  0.69408118338E+03  0.74047434664E+03  0.25500000920E-02 0. -1.
       -2    1    3    3    0  502  0.21096478166E+03 -0.14848376950E+03 -0.37138532924E+03  0.45219534682E+03  0.25500000920E-02 0.  1.
</event>
<event>
 5   0  0.3316784E-03  0.1099147E+04  0.7818609E-02  0.9206024E-01
        1   -1    0    0  501    0  0.00000000000E+00  0.00000000000E+00  0.79256316629E+03  0.79256316631E+03  0.50400001928E-02 0. -1.
       -1   -1    0    0    0  501  0.00000000000E+00  0.00000000000E+00 -0.38108115156E+03  0.38108115159E+03  0.50400001928E-02 0.  1.
    10030    2    1    2    0    0  0.00000000000E+00  0.00000000000E+00  0.41148201474E+03  0.11736443179E+04  0.10991467311E+04 0.  0.
        4    1    3    3  502    0  0.38780121806E+03 -0.14863658447E+03 -0.17857982390E+03  0.45207851682E+03  0.12699999809E+01 0.  1.
       -4    1    3    3    0  502 -0.38780121806E+03  0.14863658447E+03  0.59006183863E+03  0.72156580108E+03  0.12699999809E+01 0. -1.
</event>
<event>
 5   0  0.3328741E-03  0.1081406E+04  0.7818609E-02  0.9223507E-01
       -1   -1    0    0    0  501  0.00000000000E+00  0.00000000000E+00  0.11220093555E+04  0.11220093555E+04  0.50400001928E-02 0.  1.
        1   -1    0    0  501    0  0.00000000000E+00  0.00000000000E+00 -0.26056793067E+03  0.26056793072E+03  0.50400001928E-02 0. -1.
    10030    2    1    2    0    0  0.00000000000E+00  0.00000000000E+00  0.86144142480E+03  0.13825772862E+04  0.10814058553E+04 0.  0.
        3    1    3    3  502    0 -0.12625176679E+03  0.38694745192E+03 -0.24345892146E+02  0.40775062456E+03  0.10100000352E+00 0. -1.
       -3    1    3    3    0  502  0.12625176679E+03 -0.38694745192E+03  0.88578731695E+03  0.97482666163E+03  0.10100000352E+00 0.  1.
</event>
<event>
 5   0  0.3328741E-03  0.1078785E+04  0.7818609E-02  0.9226119E-01
        1   -1    0    0  501    0  0.00000000000E+00  0.00000000000E+00  0.11430473475E+04  0.11430473475E+04  0.50400001928E-02 0. -1.
       -1   -1    0    0    0  501  0.00000000000E+00  0.00000000000E+00 -0.25453406244E+03  0.25453406249E+03  0.50400001928E-02 0.  1.
    10030    2    1    2    0    0  0.00000000000E+00  0.00000000000E+00  0.88851328509E+03  0.13975814100E+04  0.10787854003E+04 0.  0.
        3    1    3    3  502    0 -0.27664379246E+03  0.35597824543E+03  0.82789540153E+03  0.94268929409E+03  0.10100000352E+00 0. -1.
       -3    1    3    3    0  502  0.27664379246E+03 -0.35597824543E+03  0.60617883557E+02  0.45489211593E+03  0.10100000352E+00 0.  1.
</event>
<event>
 5   0  0.5500363E-03  0.1104578E+04  0.7818609E-02  0.9200741E-01
        2   -1    0    0  501    0  0.00000000000E+00  0.00000000000E+00  0.20795663955E+04  0.20795663955E+04  0.25500000920E-02 0. -1.
       -2   -1    0    0    0  501  0.00000000000E+00  0.00000000000E+00 -0.14667628319E+03  0.14667628321E+03  0.25500000920E-02 0.  1.
    10030    2    1    2    0    0  0.00000000000E+00  0.00000000000E+00  0.19328901124E+04  0.22262426788E+04  0.11045778733E+04 0.  0.
        3    1    3    3  502    0  0.17266628654E+03 -0.52302132101E+03  0.88437534270E+03  0.10418659730E+04  0.10100000352E+00 0.  1.
       -3    1    3    3    0  502 -0.17266628654E+03  0.52302132101E+03  0.10485147696E+04  0.11843767057E+04  0.10100000352E+00 0. -1.
</event>
<event>
 5   0  0.5941585E-03  0.1099628E+04  0.7818609E-02  0.9205555E-01
       -2   -1    0    0    0  501  0.00000000000E+00  0.00000000000E+00  0.22929382496E+03  0.22929382498E+03  0.25500000920E-02 0. -1.
        2   -1    0    0  501    0  0.00000000000E+00  0.00000000000E+00 -0.13183748151E+04  0.13183748151E+04  0.25500000920E-02 0.  1.
    10030    2    1    2    0    0  0.00000000000E+00  0.00000000000E+00 -0.10890809901E+04  0.15476686401E+04  0.10996275808E+04 0.  0.
        5    1    3    3  502    0 -0.53431820231E+03 -0.31311042825E+02 -0.36764498911E+03  0.64935448773E+03  0.46999998093E+01 0. -1.
       -5    1    3    3    0  502  0.53431820231E+03  0.31311042825E+02 -0.72143600100E+03  0.89831415232E+03  0.46999998093E+01 0.  1.
</event>
<event>
 5   0  0.5627232E-03  0.1081590E+04  0.7818609E-02  0.9223324E-01
        2   -1    0    0  501    0  0.00000000000E+00  0.00000000000E+00  0.16353553983E+04  0.16353553983E+04  0.25500000920E-02 0. -1.
       -2   -1    0    0    0  501  0.00000000000E+00  0.00000000000E+00 -0.17883527222E+03  0.17883527224E+03  0.25500000920E-02 0.  1.
    10030    2    1    2    0    0  0.00000000000E+00  0.00000000000E+00  0.14565201261E+04  0.18141906705E+04  0.10815899923E+04 0.  0.
        2    1    3    3  502    0  0.17573002774E+02  0.96590687955E+02  0.16202826104E+04  0.16232542342E+04  0.25500000920E-02 0. -1.
       -2    1    3    3    0  502 -0.17573002774E+02 -0.96590687955E+02 -0.16376248432E+03  0.19093643629E+03  0.25500000920E-02 0.  1.
</event>
<event>
 5   0  0.3215352E-03  0.1086828E+04  0.7818609E-02  0.9218126E-01
       -1   -1    0    0    0  501  0.00000000000E+00  0.00000000000E+00  0.33826977069E+03  0.33826977073E+03  0.50400001928E-02 0.  1.
        1   -1    0    0  501    0  0.00000000000E+00  0.00000000000E+00 -0.87296872814E+03  0.87296872815E+03  0.50400001928E-02 0. -1.
    10030    2    1    2    0    0  0.00000000000E+00  0.00000000000E+00 -0.53469895745E+03  0.12112384989E+04  0.10868282873E+04 0.  0.
        1    1    3    3  502    0 -0.27788427642E+03 -0.89821981864E+02  0.24337895334E+03  0.38015914359E+03  0.50400001928E-02 0.  1.
       -1    1    3    3    0  502  0.27788427642E+03  0.89821981864E+02 -0.77807791078E+03  0.83107935528E+03  0.50400001928E-02 0. -1.
</event>
<event>
 5   0  0.5627232E-03  0.1099933E+04  0.7818609E-02  0.9205257E-01
        2   -1    0    0  501    0  0.00000000000E+00  0.00000000000E+00  0.70517156379E+03  0.70517156379E+03  0.25500000920E-02 0. -1.
       -2   -1    0    0    0  501  0.00000000000E+00  0.00000000000E+00 -0.42892135286E+03  0.42892135287E+03  0.25500000920E-02 0.  1.
    10030    2    1    2    0    0  0.00000000000E+00  0.00000000000E+00  0.27625021093E+03  0.11340929167E+04  0.10999329819E+04 0.  0.
        2    1    3    3  502    0 -0.45810236655E+01  0.23164183916E+03 -0.37614801172E+03  0.44177624897E+03  0.25500000920E-02 0.  1.
       -2    1    3    3    0  502  0.45810236655E+01 -0.23164183916E+03  0.65239822265E+03  0.69231666768E+03  0.25500000920E-02 0. -1.
</event>
<event>
 5   0  0.3215352E-03  0.1099364E+04  0.7818609E-02  0.9205812E-01
        1   -1    0    0  501    0  0.00000000000E+00  0.00000000000E+00  0.63658529665E+03  0.63658529667E+03  0.50400001928E-02 0.  1.
       -1   -1    0    0    0  501  0.00000000000E+00  0.00000000000E+00 -0.47464195952E+03  0.47464195955E+03  0.50400001928E-02 0. -1.
    10030    2    1    2    0    0  0.00000000000E+00  0.00000000000E+00  0.16194333713E+03  0.11112272562E+04  0.10993636207E+04 0.  0.
        1    1    3    3  502    0  0.29311927220E+01 -0.86004970108E+02  0.62973424452E+03  0.63558686702E+03  0.50400001928E-02 0.  1.
       -1    1    3    3    0  502 -0.29311927220E+01  0.86004970108E+02 -0.46779090740E+03  0.47564038920E+03  0.50400001928E-02 0. -1.
</event>
<event>
 5   0  0.3241189E-03  0.1089610E+04  0.7818609E-02  0.9215378E-01
       -1   -1    0    0    0  501  0.00000000000E+00  0.00000000000E+00  0.17230951055E+03  0.17230951063E+03  0.50400001928E-02 0. -1.
        1   -1    0    0  501    0  0.00000000000E+00  0.00000000000E+00 -0.17225536182E+04  0.17225536182E+04  0.50400001928E-02 0.  1.
    10030    2    1    2    0    0  0.00000000000E+00  0.00000000000E+00 -0.15502441076E+04  0.18948631288E+04  0.10896097851E+04 0.  0.
        5    1    3    3  502    0 -0.11537570584E+03 -0.19484631352E+03 -0.16367993784E+04  0.16523955139E+04  0.46999998093E+01 0.  1.
       -5    1    3    3    0  502  0.11537570584E+03  0.19484631352E+03  0.86555270728E+02  0.24246761491E+03  0.46999998093E+01 0. -1.
</event>
<event>
 5   0  0.5946359E-03  0.1093799E+04  0.7818609E-02  0.9211257E-01
       -2   -1    0    0    0  501  0.00000000000E+00  0.00000000000E+00  0.15565028216E+03  0.15565028218E+03  0.25500000920E-02 0. -1.
        2   -1    0    0  501    0  0.00000000000E+00  0.00000000000E+00 -0.19216083797E+04  0.19216083797E+04  0.25500000920E-02 0.  1.
    10030    2    1    2    0    0  0.00000000000E+00  0.00000000000E+00 -0.17659580976E+04  0.20772586619E+04  0.10937986771E+04 0.  0.
        4    1    3    3  502    0 -0.10034394471E+03 -0.12576326550E+03  0.10968671610E+03  0.19472569111E+03  0.12699999809E+01 0. -1.
       -4    1    3    3    0  502  0.10034394471E+03  0.12576326550E+03 -0.18756448137E+04  0.18825329708E+04  0.12699999809E+01 0.  1.
</event>
<event>
 5   0  0.3328741E-03  0.8208738E+03  0.7818609E-02  0.9530285E-01
       -1   -1    0    0    0  501  0.00000000000E+00  0.00000000000E+00  0.14206121085E+03  0.14206121094E+03  0.50400001928E-02 0.  1.
        1   -1    0    0  501    0  0.00000000000E+00  0.00000000000E+00 -0.11858160277E+04  0.11858160277E+04  0.50400001928E-02 0. -1.
    10030    2    1    2    0    0  0.00000000000E+00  0.00000000000E+00 -0.10437548168E+04  0.13278772386E+04  0.82087382903E+03 0.  0.
        3    1    3    3  502    0 -0.19779131080E+03  0.31729473302E+03 -0.24801782268E+03  0.44867605329E+03  0.10100000352E+00 0.  1.
       -3    1    3    3    0  502  0.19779131080E+03 -0.31729473302E+03 -0.79573699414E+03  0.87920118533E+03  0.10100000352E+00 0. -1.
</event>
<event>
 5   0  0.2185750E-03  0.1115589E+04  0.7818609E-02  0.9190130E-01
       -3   -1    0    0    0  501  0.00000000000E+00  0.00000000000E+00  0.61700617804E+03  0.61700618630E+03  0.10100000352E+00 0.  1.
        3   -1    0    0  501    0  0.00000000000E+00  0.00000000000E+00 -0.50426474424E+03  0.50426475435E+03  0.10100000352E+00 0. -1.
    10030    2    1    2    0    0  0.00000000000E+00  0.00000000000E+00  0.11274143380E+03  0.11212709407E+04  0.11155885852E+04 0.  0.
        4    1    3    3  502    0  0.32134695934E+02 -0.52627148819E+03 -0.12659646687E+03  0.54223850498E+03  0.12699999809E+01 0. -1.
       -4    1    3    3    0  502 -0.32134695934E+02  0.52627148819E+03  0.23933790067E+03  0.57903243567E+03  0.12699999809E+01 0.  1.
</event>
<event>
 5   0  0.3215352E-03  0.1091574E+04  0.7818609E-02  0.9213443E-01
        1   -1    0    0  501    0  0.00000000000E+00  0.00000000000E+00  0.26154416134E+03  0.26154416139E+03  0.50400001928E-02 0.  1.
       -1   -1    0    0    0  501  0.00000000000E+00  0.00000000000E+00 -0.11389418108E+04  0.11389418108E+04  0.50400001928E-02 0. -1.
    10030    2    1    2    0    0  0.00000000000E+00  0.00000000000E+00 -0.87739764942E+03  0.14004859722E+04  0.10915742407E+04 0.  0.
        1    1    3    3  502    0  0.97028992493E+02 -0.25933683315E+03  0.16473710179E+03  0.32219331331E+03  0.50400001928E-02 0.  1.
       -1    1    3    3    0  502 -0.97028992493E+02  0.25933683315E+03 -0.10421347512E+04  0.10782926588E+04  0.50400001928E-02 0. -1.
</event>
<event>
 5   0  0.3320192E-03  0.1030336E+04  0.7818609E-02  0.9275884E-01
        1   -1    0    0  501    0  0.00000000000E+00  0.00000000000E+00  0.18447176436E+04  0.18447176436E+04  0.50400001928E-02 0.  1.
       -1   -1    0    0    0  501  0.00000000000E+00  0.00000000000E+00 -0.14386926169E+03  0.14386926177E+03  0.50400001928E-02 0. -1.
    10030    2    1    2    0    0  0.00000000000E+00  0.00000000000E+00  0.17008483819E+04  0.19885869054E+04  0.10303361888E+04 0.  0.
        2    1    3    3  502    0 -0.14711523811E+03 -0.46246224428E+03  0.51677921911E+03  0.70892523017E+03  0.25500000920E-02 0.  1.
       -2    1    3    3    0  502  0.14711523811E+03  0.46246224428E+03  0.11840691628E+04  0.12796616752E+04  0.25500000920E-02 0. -1.
</event>
<event>
 5   0  0.3316784E-03  0.1100741E+04  0.7818609E-02  0.9204470E-01
        1   -1    0    0  501    0  0.00000000000E+00  0.00000000000E+00  0.73601574426E+03  0.73601574427E+03  0.50400001928E-02 0.  1.
       -1   -1    0    0    0  501  0.00000000000E+00  0.00000000000E+00 -0.41155040416E+03  0.41155040419E+03  0.50400001928E-02 0. -1.
    10030    2    1    2    0    0  0.00000000000E+00  0.00000000000E+00  0.32446534009E+03  0.11475661485E+04  0.11007407997E+04 0.  0.
        4    1    3    3  502    0 -0.47255193987E+03 -0.22305278985E+03 -0.17882740926E+02  0.52285685255E+03  0.12699999809E+01 0. -1.
       -4    1    3    3    0  502  0.47255193987E+03  0.22305278985E+03  0.34234808102E+03  0.62470929592E+03  0.12699999809E+01 0.  1.
</event>
<event>
 5   0  0.3241189E-03  0.1052228E+04  0.7818609E-02  0.9253047E-01
        1   -1    0    0  501    0  0.00000000000E+00  0.00000000000E+00  0.52357967628E+03  0.52357967630E+03  0.50400001928E-02 0. -1.
       -1   -1    0    0    0  501  0.00000000000E+00  0.00000000000E+00 -0.52866035700E+03  0.52866035703E+03  0.50400001928E-02 0.  1.
    10030    2    1    2    0    0  0.00000000000E+00  0.00000000000E+00 -0.50806807227E+01  0.10522400333E+04  0.10522277674E+04 0.  0.
        5    1    3    3  502    0 -0.43693848824E+03 -0.28078191485E+03  0.81246090913E+02  0.52571545868E+03  0.46999998093E+01 0.  1.
       -5    1    3    3    0  502  0.43693848824E+03  0.28078191485E+03 -0.86326771635E+02  0.52652457465E+03  0.46999998093E+01 0. -1.
</event>
<event>
 5   0  0.5723194E-03  0.1087981E+04  0.7818609E-02  0.9216986E-01
        2   -1    0    0  501    0  0.00000000000E+00  0.00000000000E+00  0.79647429096E+03  0.79647429097E+03  0.25500000920E-02 0.  1.
       -2   -1    0    0    0  501  0.00000000000E+00  0.00000000000E+00 -0.37154441904E+03  0.37154441905E+03  0.25500000920E-02 0. -1.
    10030    2    1    2    0    0  0.00000000000E+00  0.00000000000E+00  0.42492987192E+03  0.11680187100E+04  0.10879808412E+04 0.  0.
        1    1    3    3  502    0 -0.29350920528E+03 -0.45798802387E+03  0.21782138350E+03  0.58595805202E+03  0.50400001928E-02 0. -1.
       -1    1    3    3    0  502  0.29350920528E+03  0.45798802387E+03  0.20710848842E+03  0.58206065800E+03  0.50400001928E-02 0.  1.
</event>
<event>
 5   0  0.3320192E-03  0.1060428E+04  0.7818609E-02  0.9244643E-01
        1   -1    0    0  501    0  0.00000000000E+00  0.00000000000E+00  0.58362032621E+03  0.58362032623E+03  0.50400001928E-02 0.  1.
       -1   -1    0    0    0  501  0.00000000000E+00  0.00000000000E+00 -0.48169493685E+03  0.48169493687E+03  0.50400001928E-02 0. -1.
    10030    2    1    2    0    0  0.00000000000E+00  0.00000000000E+00  0.10192538936E+03  0.10653152631E+04  0.10604281328E+04 0.  0.
        2    1    3    3  502    0  0.18480992289E+03  0.47553930324E+03  0.19596993816E+03  0.54653138354E+03  0.25500000920E-02 0.  1.
       -2    1    3    3    0  502 -0.18480992289E+03 -0.47553930324E+03 -0.94044548803E+02  0.51878387956E+03  0.25500000920E-02 0. -1.
</event>
<event>
 5   0  0.5500363E-03  0.1059847E+04  0.7818609E-02  0.9245236E-01
        2   -1    0    0  501    0  0.00000000000E+00  0.00000000000E+00  0.45561668220E+03  0.45561668221E+03  0.25500000920E-02 0. -1.
       -2   -1    0    0    0  501  0.00000000000E+00  0.00000000000E+00 -0.61634945983E+03  0.61634945983E+03  0.25500000920E-02 0.  1.
    10030    2    1    2    0    0  0.00000000000E+00  0.00000000000E+00 -0.16073277763E+03  0.10719661420E+04  0.10598473399E+04 0.  0.
        3    1    3    3  502    0 -0.43146415702E+02 -0.44955491536E+03 -0.36076888268E+03  0.57802718970E+03  0.10100000352E+00 0.  1.
       -3    1    3    3    0  502  0.43146415702E+02  0.44955491536E+03  0.20003610506E+03  0.49393895234E+03  0.10100000352E+00 0. -1.
</event>
<event>
 5   0  0.3316784E-03  0.1096176E+04  0.7818609E-02  0.9208927E-01
        1   -1    0    0  501    0  0.00000000000E+00  0.00000000000E+00  0.73501967832E+03  0.73501967834E+03  0.50400001928E-02 0. -1.
       -1   -1    0    0    0  501  0.00000000000E+00  0.00000000000E+00 -0.40869715427E+03  0.40869715430E+03  0.50400001928E-02 0.  1.
    10030    2    1    2    0    0  0.00000000000E+00  0.00000000000E+00  0.32632252406E+03  0.11437168326E+04  0.10961759911E+04 0.  0.
        4    1    3    3  502    0  0.10899046940E+03  0.52831499020E+03  0.61985669483E+02  0.54299124064E+03  0.12699999809E+01 0.  1.
       -4    1    3    3    0  502 -0.10899046940E+03 -0.52831499020E+03  0.26433685457E+03  0.60072559199E+03  0.12699999809E+01 0. -1.
</event>
<event>
 5   0  0.5723194E-03  0.1115140E+04  0.7818609E-02  0.9190560E-01
        2   -1    0    0  501    0  0.00000000000E+00  0.00000000000E+00  0.19490964475E+04  0.19490964475E+04  0.25500000920E-02 0. -1.
       -2   -1    0    0    0  501  0.00000000000E+00  0.00000000000E+00 -0.15950166990E+03  0.15950166992E+03  0.25500000920E-02 0.  1.
    10030    2    1    2    0    0  0.00000000000E+00  0.00000000000E+00  0.17895947776E+04  0.21085981174E+04  0.11151397010E+04 0.  0.
        1    1    3    3  502    0 -0.17207272238E+03 -0.48265875992E+03  0.47916594552E+03  0.70154722128E+03  0.50400001928E-02 0.  1.
       -1    1    3    3    0  502  0.17207272238E+03  0.48265875992E+03  0.13104288320E+04  0.14070508961E+04  0.50400001928E-02 0. -1.
</event>
<event>
 5   0  0.3328741E-03  0.9395632E+03  0.7818609E-02  0.9377434E-01
       -1   -1    0    0    0  501  0.00000000000E+00  0.00000000000E+00  0.39230282653E+03  0.39230282657E+03  0.50400001928E-02 0. -1.
        1   -1    0    0  501    0  0.00000000000E+00  0.00000000000E+00 -0.56256216797E+03  0.56256216799E+03  0.50400001928E-02 0.  1.
    10030    2    1    2    0    0  0.00000000000E+00  0.00000000000E+00 -0.17025934144E+03  0.95486499456E+03  0.93956315088E+03 0.  0.
        3    1    3    3  502    0 -0.43252883792E+03 -0.11213502434E+03 -0.23254112059E+03  0.50371702600E+03  0.10100000352E+00 0. -1.
       -3    1    3    3    0  502  0.43252883792E+03  0.11213502434E+03  0.62281779153E+02  0.45114796856E+03  0.10100000352E+00 0.  1.
</event>
<event>
 5   0  0.5946359E-03  0.1193804E+04  0.7818609E-02  0.9118297E-01
        2   -1    0    0  501    0  0.00000000000E+00  0.00000000000E+00  0.79326832195E+03  0.79326832196E+03  0.25500000920E-02 0. -1.
       -2   -1    0    0    0  501  0.00000000000E+00  0.00000000000E+00 -0.44914464232E+03  0.44914464232E+03  0.25500000920E-02 0.  1.
    10030    2    1    2    0    0  0.00000000000E+00  0.00000000000E+00  0.34412367964E+03  0.12424129643E+04  0.11938043671E+04 0.  0.
        4    1    3    3  502    0 -0.26752780223E+03 -0.53051724081E+03  0.11254102893E+03  0.60472040139E+03  0.12699999809E+01 0. -1.
       -4    1    3    3    0  502  0.26752780223E+03  0.53051724081E+03  0.23158265071E+03  0.63769256289E+03  0.12699999809E+01 0.  1.
</event>
<event>
 5   0  0.2185750E-03  0.1100604E+04  0.7818609E-02  0.9204603E-01
       -3   -1    0    0    0  501  0.00000000000E+00  0.00000000000E+00  0.44946661678E+03  0.44946662813E+03  0.10100000352E+00 0. -1.
        3   -1    0    0  501    0  0.00000000000E+00  0.00000000000E+00 -0.67375982998E+03  0.67375983755E+03  0.10100000352E+00 0.  1.
    10030    2    1    2    0    0  0.00000000000E+00  0.00000000000E+00 -0.22429321319E+03  0.11232264657E+04  0.11006044920E+04 0.  0.
        3    1    3    3  502    0 -0.42897866283E+03 -0.30029587679E+03  0.60542024649E+02  0.52712963655E+03  0.10100000352E+00 0. -1.
       -3    1    3    3    0  502  0.42897866283E+03  0.30029587679E+03 -0.28483523784E+03  0.59609682913E+03  0.10100000352E+00 0.  1.
</event>
<event>
 5   0  0.5946359E-03  0.1103172E+04  0.7818609E-02  0.9202105E-01
        2   -1    0    0  501    0  0.00000000000E+00  0.00000000000E+00  0.14610913089E+04  0.14610913089E+04  0.25500000920E-02 0.  1.
       -2   -1    0    0    0  501  0.00000000000E+00  0.00000000000E+00 -0.20823293789E+03  0.20823293791E+03  0.25500000920E-02 0. -1.
    10030    2    1    2    0    0  0.00000000000E+00  0.00000000000E+00  0.12528583710E+04  0.16693242468E+04  0.11031723996E+04 0.  0.
        4    1    3    3  502    0  0.52031342661E+03 -0.18293619704E+03  0.61530855067E+03  0.82631588362E+03  0.12699999809E+01 0.  1.
       -4    1    3    3    0  502 -0.52031342661E+03  0.18293619704E+03  0.63754982037E+03  0.84300836321E+03  0.12699999809E+01 0. -1.
</event>
<event>
 5   0  0.5941585E-03  0.1086274E+04  0.7818609E-02  0.9218674E-01
       -2   -1    0    0    0  501  0.00000000000E+00  0.00000000000E+00  0.28314669590E+03  0.28314669591E+03  0.25500000920E-02 0.  1.
        2   -1    0    0  501    0  0.00000000000E+00  0.00000000000E+00 -0.10418550292E+04  0.10418550292E+04  0.25500000920E-02 0. -1.
    10030    2    1    2    0    0  0.00000000000E+00  0.00000000000E+00 -0.75870833331E+03  0.13250017251E+04  0.10862740154E+04 0.  0.
        5    1    3    3  502    0 -0.21911117471E+03 -0.87091065517E+02 -0.97614485054E+03  0.10042287687E+04  0.46999998093E+01 0. -1.
       -5    1    3    3    0  502  0.21911117471E+03  0.87091065517E+02  0.21743651722E+03  0.32077295646E+03  0.46999998093E+01 0.  1.
</event>
<event>
 5   0  0.5627232E-03  0.1016739E+04  0.7818609E-02  0.9290373E-01
       -2   -1    0    0    0  501  0.00000000000E+00  0.00000000000E+00  0.29308902906E+03  0.29308902908E+03  0.25500000920E-02 0.  1.
        2   -1    0    0  501    0  0.00000000000E+00  0.00000000000E+00 -0.88177913579E+03  0.88177913579E+03  0.25500000920E-02 0. -1.
    10030    2    1    2    0    0  0.00000000000E+00  0.00000000000E+00 -0.58869010672E+03  0.11748681649E+04  0.10167394765E+04 0.  0.
        2    1    3    3  502    0  0.62093548851E+02  0.55218307212E+02  0.28518874073E+03  0.29704761926E+03  0.25500000920E-02 0.  1.
       -2    1    3    3    0  502 -0.62093548851E+02 -0.55218307212E+02 -0.87387884745E+03  0.87782054561E+03  0.25500000920E-02 0. -1.
</event>
<event>
 5   0  0.5500363E-03  0.1105968E+04  0.7818609E-02  0.9199394E-01
        2   -1    0    0  501    0  0.00000000000E+00  0.00000000000E+00  0.11256251140E+04  0.11256251140E+04  0.25500000920E-02 0.  1.
       -2   -1    0    0    0  501  0.00000000000E+00  0.00000000000E+00 -0.27166365588E+03  0.27166365589E+03  0.25500000920E-02 0. -1.
    10030    2    1    2    0    0  0.00000000000E+00  0.00000000000E+00  0.85396145811E+03  0.13972887699E+04  0.11059682339E+04 0.  0.
        3    1    3    3  502    0  0.13044739586E+03 -0.38443261673E+02  0.11041684474E+04  0.11125117428E+04  0.10100000352E+00 0.  1.
       -3    1    3    3    0  502 -0.13044739586E+03  0.38443261673E+02 -0.25020698929E+03  0.28477702707E+03  0.10100000352E+00 0. -1.
</event>
<event>
 5   0  0.5500363E-03  0.1102104E+04  0.7818609E-02  0.9203144E-01
       -2   -1    0    0    0  501  0.00000000000E+00  0.00000000000E+00  0.15203673954E+03  0.15203673956E+03  0.25500000920E-02 0.  1.
        2   -1    0    0  501    0  0.00000000000E+00  0.00000000000E+00 -0.19972681647E+04  0.19972681647E+04  0.25500000920E-02 0. -1.
    10030    2    1    2    0    0  0.00000000000E+00  0.00000000000E+00 -0.18452314252E+04  0.21493049043E+04  0.11021036971E+04 0.  0.
        3    1    3    3  502    0  0.41488666691E+03  0.19667079958E+03 -0.15168549599E+04  0.15848215450E+04  0.10100000352E+00 0. -1.
       -3    1    3    3    0  502 -0.41488666691E+03 -0.19667079958E+03 -0.32837646526E+03  0.56448335929E+03  0.10100000352E+00 0.  1.
</event>
<event>
 5   0  0.5627232E-03  0.1105688E+04  0.7818609E-02  0.9199666E-01
       -2   -1    0    0    0  501  0.00000000000E+00  0.00000000000E+00  0.28949287006E+03  0.28949287007E+03  0.25500000920E-02 0.  1.
        2   -1    0    0  501    0  0.00000000000E+00  0.00000000000E+00 -0.10557644850E+04  0.10557644850E+04  0.25500000920E-02 0. -1.
    10030    2    1    2    0    0  0.00000000000E+00  0.00000000000E+00 -0.76627161491E+03  0.13452573550E+04  0.11056876428E+04 0.  0.
        2    1    3    3  502    0 -0.27015964759E+03 -0.16255759182E+03 -0.93565028827E+03  0.98734627553E+03  0.25500000920E-02 0. -1.
       -2    1    3    3    0  502  0.27015964759E+03  0.16255759182E+03  0.16937867336E+03  0.35791107952E+03  0.25500000920E-02 0.  1.
</event>
<event>
 5   0  0.2185750E-03  0.1089526E+04  0.7818609E-02  0.9215461E-01
        3   -1    0    0  501    0  0.00000000000E+00  0.00000000000E+00  0.32768296581E+03  0.32768298138E+03  0.10100000352E+00 0.  1.
       -3   -1    0    0    0  501  0.00000000000E+00  0.00000000000E+00 -0.90565125730E+03  0.90565126293E+03  0.10100000352E+00 0. -1.
    10030    2    1    2    0    0  0.00000000000E+00  0.00000000000E+00 -0.57796829149E+03  0.12333342443E+04  0.10895255904E+04 0.  0.
        1    1    3    3  502    0  0.17381366800E+03  0.58526117140E+02 -0.86965301353E+03  0.88878167260E+03  0.50400001928E-02 0. -1.
       -1    1    3    3    0  502 -0.17381366800E+03 -0.58526117140E+02  0.29168472205E+03  0.34455257171E+03  0.50400001928E-02 0.  1.
</event>
<event>
 5   0  0.2185750E-03  0.1093129E+04  0.7818609E-02  0.9211915E-01
        4   -1    0    0  501    0  0.00000000000E+00  0.00000000000E+00  0.33382464681E+03  0.33382706259E+03  0.12699999809E+01 0.  1.
       -4   -1    0    0    0  501  0.00000000000E+00  0.00000000000E+00 -0.89487255223E+03  0.89487345342E+03  0.12699999809E+01 0. -1.
    10030    2    1    2    0    0  0.00000000000E+00  0.00000000000E+00 -0.56104790542E+03  0.12287005160E+04  0.10931286319E+04 0.  0.
        4    1    3    3  502    0  0.46929217295E+03  0.28016187858E+03 -0.27798138517E+03  0.61318927355E+03  0.12699999809E+01 0.  1.
       -4    1    3    3    0  502 -0.46929217295E+03 -0.28016187858E+03 -0.28306652026E+03  0.61551124245E+03  0.12699999809E+01 0. -1.
</event>
<event>
 5   0  0.5500363E-03  0.1090135E+04  0.7818609E-02  0.9214860E-01
       -2   -1    0    0    0  501  0.00000000000E+00  0.00000000000E+00  0.31122098236E+03  0.31122098237E+03  0.25500000920E-02 0.  1.
        2   -1    0    0  501    0  0.00000000000E+00  0.00000000000E+00 -0.95462294785E+03  0.95462294785E+03  0.25500000920E-02 0. -1.
    10030    2    1    2    0    0  0.00000000000E+00  0.00000000000E+00 -0.64340196549E+03  0.12658439302E+04  0.10901352056E+04 0.  0.
        3    1    3    3  502    0 -0.31982694106E+03  0.33399325114E+03 -0.65675325672E+03  0.80322202065E+03  0.10100000352E+00 0. -1.
       -3    1    3    3    0  502  0.31982694106E+03 -0.33399325114E+03  0.13351291229E+02  0.46262190957E+03  0.10100000352E+00 0.  1.
</event>
<event>
 5   0  0.3316784E-03  0.1021732E+04  0.7818609E-02  0.9285025E-01
        1   -1    0    0  501    0  0.00000000000E+00  0.00000000000E+00  0.11629642633E+04  0.11629642633E+04  0.50400001928E-02 0. -1.
       -1   -1    0    0    0  501  0.00000000000E+00  0.00000000000E+00 -0.22441295058E+03  0.22441295064E+03  0.50400001928E-02 0.  1.
    10030    2    1    2    0    0  0.00000000000E+00  0.00000000000E+00  0.93855131267E+03  0.13873772139E+04  0.10217323363E+04 0.  0.
        4    1    3    3  502    0  0.33277487579E+02 -0.37709374956E+03  0.34745430129E+01  0.37857730054E+03  0.12699999809E+01 0.  1.
       -4    1    3    3    0  502 -0.33277487579E+02  0.37709374956E+03  0.93507676966E+03  0.10087999134E+04  0.12699999809E+01 0. -1.
</event>
<event>
 5   0  0.5723194E-03  0.1095230E+04  0.7818609E-02  0.9209854E-01
       -2   -1    0    0    0  501  0.00000000000E+00  0.00000000000E+00  0.18058133894E+03  0.18058133896E+03  0.25500000920E-02 0. -1.
        2   -1    0    0  501    0  0.00000000000E+00  0.00000000000E+00 -0.16606479660E+04  0.16606479660E+04  0.25500000920E-02 0.  1.
    10030    2    1    2    0    0  0.00000000000E+00  0.00000000000E+00 -0.14800666271E+04  0.18412293049E+04  0.10952297169E+04 0.  0.
        1    1    3    3  502    0 -0.29724757715E+03  0.35680321565E+02  0.30823259778E+02  0.30096391949E+03  0.50400001928E-02 0. -1.
       -1    1    3    3    0  502  0.29724757715E+03 -0.35680321565E+02 -0.15108898868E+04  0.15402653854E+04  0.50400001928E-02 0.  1.
</event>
<event>
 5   0  0.5627232E-03  0.1123267E+04  0.7818609E-02  0.9182807E-01
        2   -1    0    0  501    0  0.00000000000E+00  0.00000000000E+00  0.13396004467E+04  0.13396004467E+04  0.25500000920E-02 0.  1.
       -2   -1    0    0    0  501  0.00000000000E+00  0.00000000000E+00 -0.23546722138E+03  0.23546722139E+03  0.25500000920E-02 0. -1.
    10030    2    1    2    0    0  0.00000000000E+00  0.00000000000E+00  0.11041332254E+04  0.15750676681E+04  0.11232666557E+04 0.  0.
        2    1    3    3  502    0 -0.36768483333E+03  0.21322943273E+02  0.11466233529E+04  0.12043221820E+04  0.25500000920E-02 0.  1.
       -2    1    3    3    0  502  0.36768483333E+03 -0.21322943273E+02 -0.42490127531E+02  0.37074548617E+03  0.25500000920E-02 0. -1.
</event>
<event>
 5   0  0.3320192E-03  0.1103217E+04  0.7818609E-02  0.9202062E-01
       -1   -1    0    0    0  501  0.00000000000E+00  0.00000000000E+00  0.19555687436E+03  0.19555687442E+03  0.50400001928E-02 0.  1.
        1   -1    0    0  501    0  0.00000000000E+00  0.00000000000E+00 -0.15559269413E+04  0.15559269413E+04  0.50400001928E-02 0. -1.
    10030    2    1    2    0    0  0.00000000000E+00  0.00000000000E+00 -0.13603700669E+04  0.17514838157E+04  0.11032174934E+04 0.  0.
        2    1    3    3  502    0 -0.21009567456E+02  0.39723407628E+03 -0.73483910277E+02  0.40451971319E+03  0.25500000920E-02 0.  1.
       -2    1    3    3    0  502  0.21009567456E+02 -0.39723407628E+03 -0.12868861566E+04  0.13469641025E+04  0.25500000920E-02 0. -1.
</event>
<event>
 5   0  0.5941585E-03  0.1108848E+04  0.7818609E-02  0.9196611E-01
       -2   -1    0    0    0  501  0.00000000000E+00  0.00000000000E+00  0.35415400004E+03  0.35415400005E+03  0.25500000920E-02 0.  1.
        2   -1    0    0  501    0  0.00000000000E+00  0.00000000000E+00 -0.86794407365E+03  0.86794407365E+03  0.25500000920E-02 0. -1.
    10030    2    1    2    0    0  0.00000000000E+00  0.00000000000E+00 -0.51379007361E+03  0.12220980737E+04  0.11088478083E+04 0.  0.
        5    1    3    3  502    0  0.33772346564E+03  0.35122271163E+03 -0.54838635678E+03  0.73359676847E+03  0.46999998093E+01 0. -1.
       -5    1    3    3    0  502 -0.33772346564E+03 -0.35122271163E+03  0.34596283175E+02  0.48850130523E+03  0.46999998093E+01 0.  1.
</event>
<event>
 5   0  0.3328741E-03  0.1106430E+04  0.7818609E-02  0.9198948E-01
       -1   -1    0    0    0  501  0.00000000000E+00  0.00000000000E+00  0.19109373791E+03  0.19109373798E+03  0.50400001928E-02 0.  1.
        1   -1    0    0  501    0  0.00000000000E+00  0.00000000000E+00 -0.16015524934E+04  0.16015524934E+04  0.50400001928E-02 0. -1.
    10030    2    1    2    0    0  0.00000000000E+00  0.00000000000E+00 -0.14104587555E+04  0.17926462314E+04  0.11064296679E+04 0.  0.
        3    1    3    3  502    0  0.40489407066E+03 -0.49524927712E+01 -0.13159487505E+04  0.13768387196E+04  0.10100000352E+00 0. -1.
       -3    1    3    3    0  502 -0.40489407066E+03  0.49524927712E+01 -0.94510005025E+02  0.41580751183E+03  0.10100000352E+00 0.  1.
</event>
<event>
 5   0  0.3328741E-03  0.1099317E+04  0.7818609E-02  0.9205857E-01
        1   -1    0    0  501    0  0.00000000000E+00  0.00000000000E+00  0.55210803384E+03  0.55210803387E+03  0.50400001928E-02 0. -1.
       -1   -1    0    0    0  501  0.00000000000E+00  0.00000000000E+00 -0.54722027443E+03  0.54722027446E+03  0.50400001928E-02 0.  1.
    10030    2    1    2    0    0  0.00000000000E+00  0.00000000000E+00  0.48877594112E+01  0.10993283083E+04  0.10993174425E+04 0.  0.
        3    1    3    3  502    0 -0.19500318247E+03 -0.43589641378E+03 -0.26975869119E+03  0.54845390544E+03  0.10100000352E+00 0.  1.
       -3    1    3    3    0  502  0.19500318247E+03  0.43589641378E+03  0.27464645060E+03  0.55087440288E+03  0.10100000352E+00 0. -1.
</event>
<event>
 5   0  0.3316784E-03  0.1082403E+04  0.7818609E-02  0.9222515E-01
       -1   -1    0    0    0  501  0.00000000000E+00  0.00000000000E+00  0.71902992998E+03  0.71902993000E+03  0.50400001928E-02 0. -1.
        1   -1    0    0  501    0  0.00000000000E+00  0.00000000000E+00 -0.40735324416E+03  0.40735324419E+03  0.50400001928E-02 0.  1.
    10030    2    1    2    0    0  0.00000000000E+00  0.00000000000E+00  0.31167668582E+03  0.11263831742E+04  0.10824032052E+04 0.  0.
        4    1    3    3  502    0 -0.27823352732E+03  0.13070475614E+03 -0.30768098173E+03  0.43493313098E+03  0.12699999809E+01 0.  1.
       -4    1    3    3    0  502  0.27823352732E+03 -0.13070475614E+03  0.61935766755E+03  0.69145004321E+03  0.12699999809E+01 0. -1.
</event>
<event>
 5   0  0.5946359E-03  0.1110768E+04  0.7818609E-02  0.9194760E-01
       -2   -1    0    0    0  501  0.00000000000E+00  0.00000000000E+00  0.29409035104E+03  0.29409035105E+03  0.25500000920E-02 0. -1.
        2   -1    0    0  501    0  0.00000000000E+00  0.00000000000E+00 -0.10488324285E+04  0.10488324285E+04  0.25500000920E-02 0.  1.
    10030    2    1    2    0    0  0.00000000000E+00  0.00000000000E+00 -0.75474207751E+03  0.13429227796E+04  0.11107681974E+04 0.  0.
        4    1    3    3  502    0  0.12762936853E+03  0.34823426499E+03  0.12242223609E+03  0.39057032122E+03  0.12699999809E+01 0. -1.
       -4    1    3    3    0  502 -0.12762936853E+03 -0.34823426499E+03 -0.87716431360E+03  0.95235245838E+03  0.12699999809E+01 0.  1.
</event>
<event>
 5   0  0.5627232E-03  0.1098801E+04  0.7818609E-02  0.9206361E-01
        2   -1    0    0  501    0  0.00000000000E+00  0.00000000000E+00  0.29054455929E+03  0.29054455930E+03  0.25500000920E-02 0. -1.
       -2   -1    0    0    0  501  0.00000000000E+00  0.00000000000E+00 -0.10388806350E+04  0.10388806350E+04  0.25500000920E-02 0.  1.
    10030    2    1    2    0    0  0.00000000000E+00  0.00000000000E+00 -0.74833607569E+03  0.13294251943E+04  0.10988013765E+04 0.  0.
        2    1    3    3  502    0  0.25680765809E+02  0.10468321471E+03 -0.10259624800E+04  0.10316089799E+04  0.25500000920E-02 0.  1.
       -2    1    3    3    0  502 -0.25680765809E+02 -0.10468321471E+03  0.27762640427E+03  0.29781621435E+03  0.25500000920E-02 0. -1.
</event>
<event>
 5   0  0.5946359E-03  0.1087691E+04  0.7818609E-02  0.9217272E-01
       -2   -1    0    0    0  501  0.00000000000E+00  0.00000000000E+00  0.11339606518E+04  0.11339606518E+04  0.25500000920E-02 0.  1.
        2   -1    0    0  501    0  0.00000000000E+00  0.00000000000E+00 -0.26082750231E+03  0.26082750233E+03  0.25500000920E-02 0. -1.
    10030    2    1    2    0    0  0.00000000000E+00  0.00000000000E+00  0.87313314949E+03  0.13947881541E+04  0.10876913616E+04 0.  0.
        4    1    3    3  502    0  0.29808870239E+03  0.41142640895E+03  0.68534661572E+03  0.85312962735E+03  0.12699999809E+01 0. -1.
       -4    1    3    3    0  502 -0.29808870239E+03 -0.41142640895E+03  0.18778653377E+03  0.54165852679E+03  0.12699999809E+01 0.  1.
</event>
<event>
 5   0  0.5723194E-03  0.1018787E+04  0.7818609E-02  0.9288176E-01
        2   -1    0    0  501    0  0.00000000000E+00  0.00000000000E+00  0.87455012174E+03  0.87455012174E+03  0.25500000920E-02 0.  1.
       -2   -1    0    0    0  501  0.00000000000E+00  0.00000000000E+00 -0.29670320590E+03  0.29670320592E+03  0.25500000920E-02 0. -1.
    10030    2    1    2    0    0  0.00000000000E+00  0.00000000000E+00  0.57784691584E+03  0.11712533277E+04  0.10187871708E+04 0.  0.
        1    1    3    3  502    0 -0.93350929934E+02 -0.50483741506E+02  0.86169934181E+03  0.86821008977E+03  0.50400001928E-02 0.  1.
       -1    1    3    3    0  502  0.93350929934E+02  0.50483741506E+02 -0.28385242597E+03  0.30304323789E+03  0.50400001928E-02 0. -1.
</event>
<event>
 5   0  0.5500363E-03  0.1100591E+04  0.7818609E-02  0.9204617E-01
       -2   -1    0    0    0  501  0.00000000000E+00  0.00000000000E+00  0.46086268876E+03  0.46086268876E+03  0.25500000920E-02 0. -1.
        2   -1    0    0  501    0  0.00000000000E+00  0.00000000000E+00 -0.65708262768E+03  0.65708262769E+03  0.25500000920E-02 0.  1.
    10030    2    1    2    0    0  0.00000000000E+00  0.00000000000E+00 -0.19621993893E+03  0.11179453165E+04  0.11005905079E+04 0.  0.
        3    1    3    3  502    0 -0.50362873480E+03 -0.14131356001E+03  0.75504567066E+02  0.52850011788E+03  0.10100000352E+00 0. -1.
       -3    1    3    3    0  502  0.50362873480E+03  0.14131356001E+03 -0.27172450599E+03  0.58944519857E+03  0.10100000352E+00 0.  1.
</event>
<event>
 5   0  0.3215352E-03  0.1096009E+04  0.7818609E-02  0.9209091E-01
        1   -1    0    0  501    0  0.00000000000E+00  0.00000000000E+00  0.53351434027E+03  0.53351434029E+03  0.50400001928E-02 0.  1.
       -1   -1    0    0    0  501  0.00000000000E+00  0.00000000000E+00 -0.56288800998E+03  0.56288801000E+03  0.50400001928E-02 0. -1.
    10030    2    1    2    0    0  0.00000000000E+00  0.00000000000E+00 -0.29373669707E+02  0.10964023503E+04  0.10960088053E+04 0.  0.
        1    1    3    3  502    0 -0.46077543634E+03 -0.25810949288E+03 -0.16093889395E+03  0.55211940797E+03  0.50400001928E-02 0.  1.
       -1    1    3    3    0  502  0.46077543634E+03  0.25810949288E+03  0.13156522424E+03  0.54428294232E+03  0.50400001928E-02 0. -1.
</event>
<event>
 5   0  0.5627232E-03  0.1114056E+04  0.7818609E-02  0.9191599E-01
       -2   -1    0    0    0  501  0.00000000000E+00  0.00000000000E+00  0.54515616137E+03  0.54515616138E+03  0.25500000920E-02 0. -1.
        2   -1    0    0  501    0  0.00000000000E+00  0.00000000000E+00 -0.56915814519E+03  0.56915814520E+03  0.25500000920E-02 0.  1.
    10030    2    1    2    0    0  0.00000000000E+00  0.00000000000E+00 -0.24001983817E+02  0.11143143066E+04  0.11140557790E+04 0.  0.
        2    1    3    3  502    0  0.60457661512E+02  0.52633323586E+02  0.53935707266E+03  0.54528107195E+03  0.25500000920E-02 0. -1.
       -2    1    3    3    0  502 -0.60457661512E+02 -0.52633323586E+02 -0.56335905648E+03  0.56903323463E+03  0.25500000920E-02 0.  1.
</event>
<event>
 5   0  0.3320192E-03  0.1113105E+04  0.7818609E-02  0.9192512E-01
       -1   -1    0    0    0  501  0.00000000000E+00  0.00000000000E+00  0.17009891734E+03  0.17009891741E+03  0.50400001928E-02 0.  1.
        1   -1    0    0  501    0  0.00000000000E+00  0.00000000000E+00 -0.18210033975E+04  0.18210033975E+04  0.50400001928E-02 0. -1.
    10030    2    1    2    0    0  0.00000000000E+00  0.00000000000E+00 -0.16509044802E+04  0.19911023149E+04  0.11131050381E+04 0.  0.
        2    1    3    3  502    0 -0.77525579609E+02 -0.49585388935E+03 -0.12557627578E+04  0.13523392322E+04  0.25500000920E-02 0. -1.
       -2    1    3    3    0  502  0.77525579609E+02  0.49585388935E+03 -0.39514172233E+03  0.63876308269E+03  0.25500000920E-02 0.  1.
</event>
<event>
 5   0  0.5627232E-03  0.1087748E+04  0.7818609E-02  0.9217216E-01
        2   -1    0    0  501    0  0.00000000000E+00  0.00000000000E+00  0.41049325803E+03  0.41049325804E+03  0.25500000920E-02 0.  1.
       -2   -1    0    0    0  501  0.00000000000E+00  0.00000000000E+00 -0.72059385429E+03  0.72059385429E+03  0.25500000920E-02 0. -1.
    10030    2    1    2    0    0  0.00000000000E+00  0.00000000000E+00 -0.31010059625E+03  0.11310871123E+04  0.10877479836E+04 0.  0.
        2    1    3    3  502    0 -0.17939140169E+01 -0.44751543284E+03 -0.47643688029E+03  0.65365539978E+03  0.25500000920E-02 0. -1.
       -2    1    3    3    0  502  0.17939140169E+01  0.44751543284E+03  0.16633628403E+03  0.47743171255E+03  0.25500000920E-02 0.  1.
</event>
<event>
 5   0  0.5946359E-03  0.1063330E+04  0.7818609E-02  0.9241689E-01
        2   -1    0    0  501    0  0.00000000000E+00  0.00000000000E+00  0.12994825508E+04  0.12994825508E+04  0.25500000920E-02 0. -1.
       -2   -1    0    0    0  501  0.00000000000E+00  0.00000000000E+00 -0.21752333599E+03  0.21752333600E+03  0.25500000920E-02 0.  1.
    10030    2    1    2    0    0  0.00000000000E+00  0.00000000000E+00  0.10819592148E+04  0.15170058868E+04  0.10633302018E+04 0.  0.
        4    1    3    3  502    0  0.12458553572E+03  0.31008493711E+03  0.11309183796E+04  0.11792591819E+04  0.12699999809E+01 0. -1.
       -4    1    3    3    0  502 -0.12458553572E+03 -0.31008493711E+03 -0.48959164801E+02  0.33774670487E+03  0.12699999809E+01 0.  1.
</event>
<event>
 5   0  0.3215352E-03  0.1081257E+04  0.7818609E-02  0.9223655E-01
        1   -1    0    0  501    0  0.00000000000E+00  0.00000000000E+00  0.38651286071E+03  0.38651286075E+03  0.50400001928E-02 0.  1.
       -1   -1    0    0    0  501  0.00000000000E+00  0.00000000000E+00 -0.75619521240E+03  0.75619521241E+03  0.50400001928E-02 0. -1.
    10030    2    1    2    0    0  0.00000000000E+00  0.00000000000E+00 -0.36968235168E+03  0.11427080732E+04  0.10812569997E+04 0.  0.
        1    1    3    3  502    0  0.46656465274E+03  0.49600681024E+02 -0.46868765529E+03  0.66318241909E+03  0.50400001928E-02 0. -1.
       -1    1    3    3    0  502 -0.46656465274E+03 -0.49600681024E+02  0.99005303607E+02  0.47952565407E+03  0.50400001928E-02 0.  1.
</event>
<event>
 5   0  0.3328741E-03  0.1107595E+04  0.7818609E-02  0.9197821E-01
       -1   -1    0    0    0  501  0.00000000000E+00  0.00000000000E+00  0.52440831027E+03  0.52440831030E+03  0.50400001928E-02 0. -1.
        1   -1    0    0  501    0  0.00000000000E+00  0.00000000000E+00 -0.58483339114E+03  0.58483339116E+03  0.50400001928E-02 0.  1.
    10030    2    1    2    0    0  0.00000000000E+00  0.00000000000E+00 -0.60425080863E+02  0.11092417015E+04  0.11075946740E+04 0.  0.
        3    1    3    3  502    0  0.97328250686E+01  0.28505401259E+03  0.44519427326E+03  0.52872343349E+03  0.10100000352E+00 0. -1.
       -3    1    3    3    0  502 -0.97328250686E+01 -0.28505401259E+03 -0.50561935412E+03  0.58051826797E+03  0.10100000352E+00 0.  1.
</event>
<event>
 5   0  0.5500363E-03  0.1087389E+04  0.7818609E-02  0.9217571E-01
        2   -1    0    0  501    0  0.00000000000E+00  0.00000000000E+00  0.13276756808E+04  0.13276756808E+04  0.25500000920E-02 0. -1.
       -2   -1    0    0    0  501  0.00000000000E+00  0.00000000000E+00 -0.22264759068E+03  0.22264759069E+03  0.25500000920E-02 0.  1.
    10030    2    1    2    0    0  0.00000000000E+00  0.00000000000E+00  0.11050280901E+04  0.15503232715E+04  0.10873891512E+04 0.  0.
        3    1    3    3  502    0  0.56201754607E+02  0.25402513761E+03 -0.12813781154E+03  0.29001158029E+03  0.10100000352E+00 0.  1.
       -3    1    3    3    0  502 -0.56201754607E+02 -0.25402513761E+03  0.12331659017E+04  0.12603116912E+04  0.10100000352E+00 0. -1.
</event>
<event>
 5   0  0.3241189E-03  0.1149624E+04  0.7818609E-02  0.9158131E-01
        1   -1    0    0  501    0  0.00000000000E+00  0.00000000000E+00  0.41498033584E+03  0.41498033588E+03  0.50400001928E-02 0. -1.
       -1   -1    0    0    0  501  0.00000000000E+00  0.00000000000E+00 -0.79620322369E+03  0.79620322370E+03  0.50400001928E-02 0.  1.
    10030    2    1    2    0    0  0.00000000000E+00  0.00000000000E+00 -0.38122288784E+03  0.12111835596E+04  0.11496237318E+04 0.  0.
        5    1    3    3  502    0  0.38403925349E+03  0.35405633470E+03 -0.44334119179E+03  0.68513906522E+03  0.46999998093E+01 0.  1.
       -5    1    3    3    0  502 -0.38403925349E+03 -0.35405633470E+03  0.62118303947E+02  0.52604449436E+03  0.46999998093E+01 0. -1.
</event>
<event>
 5   0  0.3316784E-03  0.1126145E+04  0.7818609E-02  0.9180077E-01
        1   -1    0    0  501    0  0.00000000000E+00  0.00000000000E+00  0.17947299210E+04  0.17947299210E+04  0.50400001928E-02 0.  1.
       -1   -1    0    0    0  501  0.00000000000E+00  0.00000000000E+00 -0.17665651123E+03  0.17665651130E+03  0.50400001928E-02 0. -1.
    10030    2    1    2    0    0  0.00000000000E+00  0.00000000000E+00  0.16180734098E+04  0.19713864323E+04  0.11261451532E+04 0.  0.
        4    1    3    3  502    0  0.40289914130E+02 -0.52911559110E+03  0.47937975565E+03  0.71511757701E+03  0.12699999809E+01 0.  1.
       -4    1    3    3    0  502 -0.40289914130E+02  0.52911559110E+03  0.11386936541E+04  0.12562688553E+04  0.12699999809E+01 0. -1.
</event>
<event>
 5   0  0.5946359E-03  0.1067790E+04  0.7818609E-02  0.9237167E-01
       -2   -1    0    0    0  501  0.00000000000E+00  0.00000000000E+00  0.35249870936E+03  0.35249870937E+03  0.25500000920E-02 0.  1.
        2   -1    0    0  501    0  0.00000000000E+00  0.00000000000E+00 -0.80863831788E+03  0.80863831788E+03  0.25500000920E-02 0. -1.
    10030    2    1    2    0    0  0.00000000000E+00  0.00000000000E+00 -0.45613960852E+03  0.11611370272E+04  0.10677901730E+04 0.  0.
        4    1    3    3  502    0 -0.25521285716E+03 -0.31929772483E+03 -0.60154410501E+03  0.72728368792E+03  0.12699999809E+01 0. -1.
       -4    1    3    3    0  502  0.25521285716E+03  0.31929772483E+03  0.14540449649E+03  0.43385333932E+03  0.12699999809E+01 0.  1.
</event>
<event>
 5   0  0.5723194E-03  0.1119783E+04  0.7818609E-02  0.9186122E-01
        2   -1    0    0  501    0  0.00000000000E+00  0.00000000000E+00  0.10195642862E+04  0.10195642862E+04  0.25500000920E-02 0.  1.
       -2   -1    0    0    0  501  0.00000000000E+00  0.00000000000E+00 -0.30746324369E+03  0.30746324370E+03  0.25500000920E-02 0. -1.
    10030    2    1    2    0    0  0.00000000000E+00  0.00000000000E+00  0.71210104246E+03  0.13270275299E+04  0.11197830907E+04 0.  0.
        1    1    3    3  502    0 -0.10413076757E+03 -0.44220637579E+03 -0.31758715535E+02  0.45541004774E+03  0.50400001928E-02 0. -1.
       -1    1    3    3    0  502  0.10413076757E+03  0.44220637579E+03  0.74385975800E+03  0.87161748212E+03  0.50400001928E-02 0.  1.
</event>
<event>
 5   0  0.3320192E-03  0.1107989E+04  0.7818609E-02  0.9197440E-01
       -1   -1    0    0    0  501  0.00000000000E+00  0.00000000000E+00  0.30557325361E+03  0.30557325365E+03  0.50400001928E-02 0.  1.
        1   -1    0    0  501    0  0.00000000000E+00  0.00000000000E+00 -0.10043739481E+04  0.10043739482E+04  0.50400001928E-02 0. -1.
    10030    2    1    2    0    0  0.00000000000E+00  0.00000000000E+00 -0.69880069454E+03  0.13099472018E+04  0.11079888361E+04 0.  0.
        2    1    3    3  502    0 -0.33682518869E+03 -0.80137486770E+02  0.16190660248E+03  0.38221325521E+03  0.25500000920E-02 0.  1.
       -2    1    3    3    0  502  0.33682518869E+03  0.80137486770E+02 -0.86070729702E+03  0.92773394660E+03  0.25500000920E-02 0. -1.
</event>
<event>
 5   0  0.5627232E-03  0.1116965E+04  0.7818609E-02  0.9188813E-01
        2   -1    0    0  501    0  0.00000000000E+00  0.00000000000E+00  0.11062156434E+04  0.11062156434E+04  0.25500000920E-02 0. -1.
       -2   -1    0    0    0  501  0.00000000000E+00  0.00000000000E+00 -0.28195452598E+03  0.28195452599E+03  0.25500000920E-02 0.  1.
    10030    2    1    2    0    0  0.00000000000E+00  0.00000000000E+00  0.82426111740E+03  0.13881701694E+04  0.11169646501E+04 0.  0.
        2    1    3    3  502    0 -0.16522861149E+02 -0.36397118871E+03 -0.11390743251E+03  0.38173673433E+03  0.25500000920E-02 0.  1.
       -2    1    3    3    0  502  0.16522861149E+02  0.36397118871E+03  0.93816854990E+03  0.10064334350E+04  0.25500000920E-02 0. -1.
</event>
<event>
 5   0  0.5723194E-03  0.1091180E+04  0.7818609E-02  0.9213831E-01
       -2   -1    0    0    0  501  0.00000000000E+00  0.00000000000E+00  0.16461082101E+03  0.16461082103E+03  0.25500000920E-02 0.  1.
        2   -1    0    0  501    0  0.00000000000E+00  0.00000000000E+00 -0.18083160282E+04  0.18083160282E+04  0.25500000920E-02 0. -1.
    10030    2    1    2    0    0  0.00000000000E+00  0.00000000000E+00 -0.16437052072E+04  0.19729268492E+04  0.10911798863E+04 0.  0.
        1    1    3    3  502    0 -0.33971438409E+03 -0.31360691022E+03 -0.29809559433E+03  0.55010557194E+03  0.50400001928E-02 0.  1.
       -1    1    3    3    0  502  0.33971438409E+03  0.31360691022E+03 -0.13456096128E+04  0.14228212773E+04  0.50400001928E-02 0. -1.
</event>
<event>
 5   0  0.5500363E-03  0.1258483E+04  0.7818609E-02  0.9063152E-01
       -2   -1    0    0    0  501  0.00000000000E+00  0.00000000000E+00  0.28367290869E+03  0.28367290870E+03  0.25500000920E-02 0. -1.
        2   -1    0    0  501    0  0.00000000000E+00  0.00000000000E+00 -0.13957806685E+04  0.13957806685E+04  0.25500000920E-02 0.  1.
    10030    2    1    2    0    0  0.00000000000E+00  0.00000000000E+00 -0.11121077598E+04  0.16794535772E+04  0.12584834717E+04 0.  0.
        3    1    3    3  502    0  0.15361021974E+03 -0.54800343167E+03 -0.19786571525E+03  0.60254021625E+03  0.10100000352E+00 0. -1.
       -3    1    3    3    0  502 -0.15361021974E+03  0.54800343167E+03 -0.91424204458E+03  0.10769133610E+04  0.10100000352E+00 0.  1.
</event>
<event>
 5   0  0.5627232E-03  0.1098058E+04  0.7818609E-02  0.9207087E-01
       -2   -1    0    0    0  501  0.00000000000E+00  0.00000000000E+00  0.38659620943E+03  0.38659620944E+03  0.25500000920E-02 0.  1.
        2   -1    0    0  501    0  0.00000000000E+00  0.00000000000E+00 -0.77970910484E+03  0.77970910485E+03  0.25500000920E-02 0. -1.
    10030    2    1    2    0    0  0.00000000000E+00  0.00000000000E+00 -0.39311289542E+03  0.11663053143E+04  0.10980575293E+04 0.  0.
        2    1    3    3  502    0 -0.66095560594E+02 -0.10402213136E+03  0.37171373477E+03  0.39161247116E+03  0.25500000920E-02 0.  1.
       -2    1    3    3    0  502  0.66095560594E+02  0.10402213136E+03 -0.76482663019E+03  0.77469284313E+03  0.25500000920E-02 0. -1.
</event>
<event>
 5   0  0.3241189E-03  0.1092878E+04  0.7818609E-02  0.9212162E-01
        1   -1    0    0  501    0  0.00000000000E+00  0.00000000000E+00  0.98966354483E+03  0.98966354484E+03  0.50400001928E-02 0.  1.
       -1   -1    0    0    0  501  0.00000000000E+00  0.00000000000E+00 -0.30171398066E+03  0.30171398070E+03  0.50400001928E-02 0. -1.
    10030    2    1    2    0    0  0.00000000000E+00  0.00000000000E+00  0.68794956417E+03  0.12913775255E+04  0.10928775369E+04 0.  0.
        5    1    3    3  502    0 -0.35693981427E+03 -0.80637814910E+02 -0.13551796600E+03  0.39025081334E+03  0.46999998093E+01 0. -1.
       -5    1    3    3    0  502  0.35693981427E+03  0.80637814910E+02  0.82346753017E+03  0.90112671220E+03  0.46999998093E+01 0.  1.
</event>
<event>
 5   0  0.5946359E-03  0.1075039E+04  0.7818609E-02  0.9229868E-01
        2   -1    0    0  501    0  0.00000000000E+00  0.00000000000E+00  0.86772023314E+03  0.86772023315E+03  0.25500000920E-02 0. -1.
       -2   -1    0    0    0  501  0.00000000000E+00  0.00000000000E+00 -0.33297286016E+03  0.33297286017E+03  0.25500000920E-02 0.  1.
    10030    2    1    2    0    0  0.00000000000E+00  0.00000000000E+00  0.53474737298E+03  0.12006930933E+04  0.10750391395E+04 0.  0.
        4    1    3    3  502    0  0.26137851787E+03 -0.46950526489E+03  0.25273648258E+03  0.59382763988E+03  0.12699999809E+01 0. -1.
       -4    1    3    3    0  502 -0.26137851787E+03  0.46950526489E+03  0.28201089040E+03  0.60686545343E+03  0.12699999809E+01 0.  1.
</event>
<event>
 5   0  0.3328741E-03  0.1088698E+04  0.7818609E-02  0.9216278E-01
       -1   -1    0    0    0  501  0.00000000000E+00  0.00000000000E+00  0.44107173326E+03  0.44107173328E+03  0.50400001928E-02 0. -1.
        1   -1    0    0  501    0  0.00000000000E+00  0.00000000000E+00 -0.67180910938E+03  0.67180910939E+03  0.50400001928E-02 0.  1.
    10030    2    1    2    0    0  0.00000000000E+00  0.00000000000E+00 -0.23073737612E+03  0.11128808427E+04  0.10886983206E+04 0.  0.
        3    1    3    3  502    0  0.38864168330E+03  0.38100623569E+03 -0.10475103199E+03  0.55423902654E+03  0.10100000352E+00 0. -1.
       -3    1    3    3    0  502 -0.38864168330E+03 -0.38100623569E+03 -0.12598634413E+03  0.55864181614E+03  0.10100000352E+00 0.  1.
</event>
<event>
 5   0  0.3215352E-03  0.1098108E+04  0.7818609E-02  0.9207038E-01
       -1   -1    0    0    0  501  0.00000000000E+00  0.00000000000E+00  0.55337806438E+03  0.55337806440E+03  0.50400001928E-02 0.  1.
        1   -1    0    0  501    0  0.00000000000E+00  0.00000000000E+00 -0.54476333281E+03  0.54476333283E+03  0.50400001928E-02 0. -1.
    10030    2    1    2    0    0  0.00000000000E+00  0.00000000000E+00  0.86147315734E+01  0.10981413972E+04  0.10981076062E+04 0.  0.
        1    1    3    3  502    0  0.36905227320E+03 -0.86972060918E+02  0.40142959428E+03  0.55218605463E+03  0.50400001928E-02 0.  1.
       -1    1    3    3    0  502 -0.36905227320E+03  0.86972060918E+02 -0.39281486271E+03  0.54595534261E+03  0.50400001928E-02 0. -1.
</event>
<event>
 5   0  0.5500363E-03  0.1094821E+04  0.7818609E-02  0.9210254E-01
        2   -1    0    0  501    0  0.00000000000E+00  0.00000000000E+00  0.81816256619E+03  0.81816256620E+03  0.25500000920E-02 0. -1.
       -2   -1    0    0    0  501  0.00000000000E+00  0.00000000000E+00 -0.36625753490E+03  0.36625753490E+03  0.25500000920E-02 0.  1.
    10030    2    1    2    0    0  0.00000000000E+00  0.00000000000E+00  0.45190503130E+03  0.11844201011E+04  0.10948209071E+04 0.  0.
        3    1    3    3  502    0  0.82289618991E+02 -0.52088582837E+03  0.38481928231E+03  0.65282426260E+03  0.10100000352E+00 0. -1.
       -3    1    3    3    0  502 -0.82289618991E+02  0.52088582837E+03  0.67085748983E+02  0.53159583850E+03  0.10100000352E+00 0.  1.
</event>
<event>
 5   0  0.2185750E-03  0.1083492E+04  0.7818609E-02  0.9221432E-01
        3   -1    0    0  501    0  0.00000000000E+00  0.00000000000E+00  0.29507437408E+03  0.29507439136E+03  0.10100000352E+00 0.  1.
       -3   -1    0    0    0  501  0.00000000000E+00  0.00000000000E+00 -0.99462661562E+03  0.99462662075E+03  0.10100000352E+00 0. -1.
    10030    2    1    2    0    0  0.00000000000E+00  0.00000000000E+00 -0.69955224154E+03  0.12897010121E+04  0.10834922067E+04 0.  0.
        4    1    3    3  502    0  0.27256695032E+03  0.39897839218E+03 -0.64136952461E+03  0.80301493127E+03  0.12699999809E+01 0. -1.
       -4    1    3    3    0  502 -0.27256695032E+03 -0.39897839218E+03 -0.58182716933E+02  0.48668608084E+03  0.12699999809E+01 0.  1.
</event>
<event>
 5   0  0.3328741E-03  0.1091716E+04  0.7818609E-02  0.9213304E-01
        1   -1    0    0  501    0  0.00000000000E+00  0.00000000000E+00  0.88889977396E+03  0.88889977398E+03  0.50400001928E-02 0.  1.
       -1   -1    0    0    0  501  0.00000000000E+00  0.00000000000E+00 -0.33520177963E+03  0.33520177967E+03  0.50400001928E-02 0. -1.
    10030    2    1    2    0    0  0.00000000000E+00  0.00000000000E+00  0.55369799433E+03  0.12241015536E+04  0.10917156886E+04 0.  0.
        3    1    3    3  502    0  0.22712571423E+03  0.49497889027E+03  0.23533823174E+03  0.59327420759E+03  0.10100000352E+00 0.  1.
       -3    1    3    3    0  502 -0.22712571423E+03 -0.49497889027E+03  0.31835976260E+03  0.63082734605E+03  0.10100000352E+00 0. -1.
</event>
<event>
 5   0  0.3316784E-03  0.1103694E+04  0.7818609E-02  0.9201599E-01
        1   -1    0    0  501    0  0.00000000000E+00  0.00000000000E+00  0.17507472974E+04  0.17507472974E+04  0.50400001928E-02 0. -1.
       -1   -1    0    0    0  501  0.00000000000E+00  0.00000000000E+00 -0.17394570659E+03  0.17394570666E+03  0.50400001928E-02 0.  1.
    10030    2    1    2    0    0  0.00000000000E+00  0.00000000000E+00  0.15768015908E+04  0.19246930041E+04  0.11036937543E+04 0.  0.
        4    1    3    3  502    0  0.37362818924E+03  0.40556962788E+03  0.82533683122E+03  0.99260628888E+03  0.12699999809E+01 0.  1.
       -4    1    3    3    0  502 -0.37362818924E+03 -0.40556962788E+03  0.75146475962E+03  0.93208671523E+03  0.12699999809E+01 0. -1.
</event>
<event>
 5   0  0.3241189E-03  0.1103033E+04  0.7818609E-02  0.9202241E-01
        1   -1    0    0  501    0  0.00000000000E+00  0.00000000000E+00  0.34990984734E+03  0.34990984738E+03  0.50400001928E-02 0. -1.
       -1   -1    0    0    0  501  0.00000000000E+00  0.00000000000E+00 -0.86928190522E+03  0.86928190523E+03  0.50400001928E-02 0.  1.
    10030    2    1    2    0    0  0.00000000000E+00  0.00000000000E+00 -0.51937205787E+03  0.12191917526E+04  0.11030327262E+04 0.  0.
        5    1    3    3  502    0  0.49838134262E+03 -0.12801745456E+03 -0.47901610494E+03  0.70302983588E+03  0.46999998093E+01 0.  1.
       -5    1    3    3    0  502 -0.49838134262E+03  0.12801745456E+03 -0.40355952929E+02  0.51616191673E+03  0.46999998093E+01 0. -1.
</event>
<event>
 5   0  0.3316784E-03  0.1087078E+04  0.7818609E-02  0.9217878E-01
        1   -1    0    0  501    0  0.00000000000E+00  0.00000000000E+00  0.14975347289E+04  0.14975347289E+04  0.50400001928E-02 0. -1.
       -1   -1    0    0    0  501  0.00000000000E+00  0.00000000000E+00 -0.19728079505E+03  0.19728079512E+03  0.50400001928E-02 0.  1.
    10030    2    1    2    0    0  0.00000000000E+00  0.00000000000E+00  0.13002539338E+04  0.16948155240E+04  0.10870783633E+04 0.  0.
        4    1    3    3  502    0 -0.36739904635E+02 -0.46502173309E+03  0.10850956235E+04  0.11811135246E+04  0.12699999809E+01 0. -1.
       -4    1    3    3    0  502  0.36739904635E+02  0.46502173309E+03  0.21515831034E+03  0.51370199946E+03  0.12699999809E+01 0.  1.
</event>
<event>
 5   0  0.5500363E-03  0.1081147E+04  0.7818609E-02  0.9223764E-01
        2   -1    0    0  501    0  0.00000000000E+00  0.00000000000E+00  0.67669849659E+03  0.67669849659E+03  0.25500000920E-02 0. -1.
       -2   -1    0    0    0  501  0.00000000000E+00  0.00000000000E+00 -0.43183180367E+03  0.43183180368E+03  0.25500000920E-02 0.  1.
    10030    2    1    2    0    0  0.00000000000E+00  0.00000000000E+00  0.24486669292E+03  0.11085303003E+04  0.10811474133E+04 0.  0.
        3    1    3    3  502    0 -0.47389062963E+03  0.21359333927E+03  0.27460204736E+03  0.58787816599E+03  0.10100000352E+00 0.  1.
       -3    1    3    3    0  502  0.47389062963E+03 -0.21359333927E+03 -0.29735354444E+02  0.52065213428E+03  0.10100000352E+00 0. -1.
</event>
<event>
 5   0  0.3215352E-03  0.1099207E+04  0.7818609E-02  0.9205965E-01
        1   -1    0    0  501    0  0.00000000000E+00  0.00000000000E+00  0.31235741082E+03  0.31235741087E+03  0.50400001928E-02 0. -1.
       -1   -1    0    0    0  501  0.00000000000E+00  0.00000000000E+00 -0.96704615376E+03  0.96704615378E+03  0.50400001928E-02 0.  1.
    10030    2    1    2    0    0  0.00000000000E+00  0.00000000000E+00 -0.65468874294E+03  0.12794035646E+04  0.10992070465E+04 0.  0.
        1    1    3    3  502    0 -0.35926747765E+03  0.39915742884E+03 -0.46340143677E+03  0.70932409033E+03  0.50400001928E-02 0.  1.
       -1    1    3    3    0  502  0.35926747765E+03 -0.39915742884E+03 -0.19128730617E+03  0.57007947431E+03  0.50400001928E-02 0. -1.
</event>
<event>
 5   0  0.5500363E-03  0.1103329E+04  0.7818609E-02  0.9201953E-01
       -2   -1    0    0    0  501  0.00000000000E+00  0.00000000000E+00  0.47003760667E+03  0.47003760668E+03  0.25500000920E-02 0.  1.
        2   -1    0    0  501    0  0.00000000000E+00  0.00000000000E+00 -0.64746721544E+03  0.64746721545E+03  0.25500000920E-02 0. -1.
    10030    2    1    2    0    0  0.00000000000E+00  0.00000000000E+00 -0.17742960877E+03  0.11175048221E+04  0.11033293984E+04 0.  0.
        3    1    3    3  502    0 -0.46436438364E+03 -0.35310289087E+02  0.21080887131E+03  0.51119613431E+03  0.10100000352E+00 0.  1.
       -3    1    3    3    0  502  0.46436438364E+03  0.35310289087E+02 -0.38823848008E+03  0.60630868782E+03  0.10100000352E+00 0. -1.
</event>
<event>
 5   0  0.5946359E-03  0.1103575E+04  0.7818609E-02  0.9201714E-01
        2   -1    0    0  501    0  0.00000000000E+00  0.00000000000E+00  0.60696905863E+03  0.60696905864E+03  0.25500000920E-02 0. -1.
       -2   -1    0    0    0  501  0.00000000000E+00  0.00000000000E+00 -0.50162277251E+03  0.50162277252E+03  0.25500000920E-02 0.  1.
    10030    2    1    2    0    0  0.00000000000E+00  0.00000000000E+00  0.10534628612E+03  0.11085918312E+04  0.11035751031E+04 0.  0.
        4    1    3    3  502    0 -0.49970235000E+02  0.53015427104E+03  0.19792406483E+03  0.56809869198E+03  0.12699999809E+01 0. -1.
       -4    1    3    3    0  502  0.49970235000E+02 -0.53015427104E+03 -0.92577778711E+02  0.54049313918E+03  0.12699999809E+01 0.  1.
</event>
<event>
 5   0  0.3316784E-03  0.1106063E+04  0.7818609E-02  0.9199303E-01
       -1   -1    0    0    0  501  0.00000000000E+00  0.00000000000E+00  0.93636207370E+03  0.93636207372E+03  0.50400001928E-02 0.  1.
        1   -1    0    0  501    0  0.00000000000E+00  0.00000000000E+00 -0.32662972624E+03  0.32662972628E+03  0.50400001928E-02 0. -1.
    10030    2    1    2    0    0  0.00000000000E+00  0.00000000000E+00  0.60973234746E+03  0.12629918000E+04  0.11060627249E+04 0.  0.
        4    1    3    3  502    0  0.42333832580E+03  0.22595773960E+03  0.61876884854E+03  0.78303814658E+03  0.12699999809E+01 0.  1.
       -4    1    3    3    0  502 -0.42333832580E+03 -0.22595773960E+03 -0.90365010793E+01  0.47995365342E+03  0.12699999809E+01 0. -1.
</event>
<event>
 5   0  0.3215352E-03  0.1082893E+04  0.7818609E-02  0.9222028E-01
        1   -1    0    0  501    0  0.00000000000E+00  0.00000000000E+00  0.56652086049E+03  0.56652086052E+03  0.50400001928E-02 0. -1.
       -1   -1    0    0    0  501  0.00000000000E+00  0.00000000000E+00 -0.51748181260E+03  0.51748181262E+03  0.50400001928E-02 0.  1.
    10030    2    1    2    0    0  0.00000000000E+00  0.00000000000E+00  0.49039047894E+02  0.10840026731E+04  0.10828928697E+04 0.  0.
        1    1    3    3  502    0  0.53772007079E+03 -0.40896497760E+02 -0.23995016170E+02  0.53980659396E+03  0.50400001928E-02 0.  1.
       -1    1    3    3    0  502 -0.53772007079E+03  0.40896497760E+02  0.73034064064E+02  0.54419607918E+03  0.50400001928E-02 0. -1.
</event>
<event>
 5   0  0.5627232E-03  0.1099770E+04  0.7818609E-02  0.9205416E-01
       -2   -1    0    0    0  501  0.00000000000E+00  0.00000000000E+00  0.56049375301E+03  0.56049375301E+03  0.25500000920E-02 0.  1.
        2   -1    0    0  501    0  0.00000000000E+00  0.00000000000E+00 -0.53947681873E+03  0.53947681874E+03  0.25500000920E-02 0. -1.
    10030    2    1    2    0    0  0.00000000000E+00  0.00000000000E+00  0.21016934274E+02  0.10999705717E+04  0.10997697701E+04 0.  0.
        2    1    3    3  502    0  0.30159972349E+03  0.33424559192E+03 -0.30528780475E+03  0.54395142491E+03  0.25500000920E-02 0. -1.
       -2    1    3    3    0  502 -0.30159972349E+03 -0.33424559192E+03  0.32630473903E+03  0.55601914683E+03  0.25500000920E-02 0.  1.
</event>
<event>
 5   0  0.5500363E-03  0.1071861E+04  0.7818609E-02  0.9233060E-01
        2   -1    0    0  501    0  0.00000000000E+00  0.00000000000E+00  0.14121760511E+04  0.14121760511E+04  0.25500000920E-02 0.  1.
       -2   -1    0    0    0  501  0.00000000000E+00  0.00000000000E+00 -0.20338941414E+03  0.20338941415E+03  0.25500000920E-02 0. -1.
    10030    2    1    2    0    0  0.00000000000E+00  0.00000000000E+00  0.12087866370E+04  0.16155654653E+04  0.10718612965E+04 0.  0.
        3    1    3    3  502    0 -0.26534132986E+03  0.46423471123E+03  0.65877487195E+03  0.84847170286E+03  0.10100000352E+00 0.  1.
       -3    1    3    3    0  502  0.26534132986E+03 -0.46423471123E+03  0.55001176503E+03  0.76709376241E+03  0.10100000352E+00 0. -1.
</event>
<event>
 5   0  0.3316784E-03  0.1113695E+04  0.7818609E-02  0.9191946E-01
       -1   -1    0    0    0  501  0.00000000000E+00  0.00000000000E+00  0.86764271950E+03  0.86764271951E+03  0.50400001928E-02 0.  1.
        1   -1    0    0  501    0  0.00000000000E+00  0.00000000000E+00 -0.35738122610E+03  0.35738122614E+03  0.50400001928E-02 0. -1.
    10030    2    1    2    0    0  0.00000000000E+00  0.00000000000E+00  0.51026149340E+03  0.12250239456E+04  0.11136951449E+04 0.  0.
        4    1    3    3  502    0  0.23695494444E+03  0.50378708581E+03  0.24266022084E+03  0.60731760159E+03  0.12699999809E+01 0. -1.
       -4    1    3    3    0  502 -0.23695494444E+03 -0.50378708581E+03  0.26760127255E+03  0.61770634406E+03  0.12699999809E+01 0.  1.
</event>
<event>
 5   0  0.3320192E-03  0.1095263E+04  0.7818609E-02  0.9209821E-01
       -1   -1    0    0    0  501  0.00000000000E+00  0.00000000000E+00  0.50557333341E+03  0.50557333344E+03  0.50400001928E-02 0. -1.
        1   -1    0    0  501    0  0.00000000000E+00  0.00000000000E+00 -0.59318894970E+03  0.59318894972E+03  0.50400001928E-02 0.  1.
    10030    2    1    2    0    0  0.00000000000E+00  0.00000000000E+00 -0.87615616285E+02  0.10987622832E+04  0.10952634654E+04 0.  0.
        2    1    3    3  502    0  0.24373109098E+03 -0.10264270151E+03 -0.52488130280E+03  0.58774207857E+03  0.25500000920E-02 0.  1.
       -2    1    3    3    0  502 -0.24373109098E+03  0.10264270151E+03  0.43726568652E+03  0.51102020459E+03  0.25500000920E-02 0. -1.
</event>
<event>
 5   0  0.3215352E-03  0.1085783E+04  0.7818609E-02  0.9219161E-01
        1   -1    0    0  501    0  0.00000000000E+00  0.00000000000E+00  0.38039965427E+03  0.38039965430E+03  0.50400001928E-02 0. -1.
       -1   -1    0    0    0  501  0.00000000000E+00  0.00000000000E+00 -0.77479307473E+03  0.77479307475E+03  0.50400001928E-02 0.  1.
    10030    2    1    2    0    0  0.00000000000E+00  0.00000000000E+00 -0.39439342046E+03  0.11551927291E+04  0.10857826998E+04 0.  0.
        1    1    3    3  502    0  0.38483754417E+03 -0.37799192955E+03 -0.13201714919E+03  0.55534346302E+03  0.50400001928E-02 0. -1.
       -1    1    3    3    0  502 -0.38483754417E+03  0.37799192955E+03 -0.26237627127E+03  0.59984926603E+03  0.50400001928E-02 0.  1.
</event>
<event>
 5   0  0.5627232E-03  0.1108280E+04  0.7818609E-02  0.9197159E-01
        2   -1    0    0  501    0  0.00000000000E+00  0.00000000000E+00  0.35849967184E+03  0.35849967185E+03  0.25500000920E-02 0. -1.
       -2   -1    0    0    0  501  0.00000000000E+00  0.00000000000E+00 -0.85654564292E+03  0.85654564292E+03  0.25500000920E-02 0.  1.
    10030    2    1    2    0    0  0.00000000000E+00  0.00000000000E+00 -0.49804597108E+03  0.12150453148E+04  0.11082803470E+04 0.  0.
        2    1    3    3  502    0 -0.50897390121E+03  0.80570045439E+02 -0.25614540519E+02  0.51594773866E+03  0.25500000920E-02 0. -1.
       -2    1    3    3    0  502  0.50897390121E+03 -0.80570045439E+02 -0.47243143056E+03  0.69909757611E+03  0.25500000920E-02 0.  1.
</event>
<event>
 5   0  0.3241189E-03  0.1115664E+04  0.7818609E-02  0.9190058E-01
        1   -1    0    0  501    0  0.00000000000E+00  0.00000000000E+00  0.53040186224E+03  0.53040186226E+03  0.50400001928E-02 0. -1.
       -1   -1    0    0    0  501  0.00000000000E+00  0.00000000000E+00 -0.58668037739E+03  0.58668037741E+03  0.50400001928E-02 0.  1.
    10030    2    1    2    0    0  0.00000000000E+00  0.00000000000E+00 -0.56278515148E+02  0.11170822397E+04  0.11156636854E+04 0.  0.
        5    1    3    3  502    0 -0.28734798631E+03  0.10364777046E+03 -0.49546876684E+03  0.58208514366E+03  0.46999998093E+01 0.  1.
       -5    1    3    3    0  502  0.28734798631E+03 -0.10364777046E+03  0.43919025169E+03  0.53499709601E+03  0.46999998093E+01 0. -1.
</event>
<event>
 5   0  0.3328741E-03  0.9943819E+03  0.7818609E-02  0.9314728E-01
        1   -1    0    0  501    0  0.00000000000E+00  0.00000000000E+00  0.10472559327E+04  0.10472559327E+04  0.50400001928E-02 0. -1.
       -1   -1    0    0    0  501  0.00000000000E+00  0.00000000000E+00 -0.23604434160E+03  0.23604434165E+03  0.50400001928E-02 0.  1.
    10030    2    1    2    0    0  0.00000000000E+00  0.00000000000E+00  0.81121159112E+03  0.12833002744E+04  0.99438189277E+03 0.  0.
        3    1    3    3  502    0  0.38237181168E+03  0.17666915065E+03  0.74651310808E+03  0.85714760800E+03  0.10100000352E+00 0. -1.
       -3    1    3    3    0  502 -0.38237181168E+03 -0.17666915065E+03  0.64698483040E+02  0.42615266639E+03  0.10100000352E+00 0.  1.
</event>
<event>
 5   0  0.5500363E-03  0.1111492E+04  0.7818609E-02  0.9194063E-01
       -2   -1    0    0    0  501  0.00000000000E+00  0.00000000000E+00  0.17663399657E+03  0.17663399659E+03  0.25500000920E-02 0.  1.
        2   -1    0    0  501    0  0.00000000000E+00  0.00000000000E+00 -0.17485500499E+04  0.17485500499E+04  0.25500000920E-02 0. -1.
    10030    2    1    2    0    0  0.00000000000E+00  0.00000000000E+00 -0.15719160533E+04  0.19251840465E+04  0.11114915808E+04 0.  0.
        3    1    3    3  502    0 -0.16616588792E+03 -0.51650119440E+03 -0.57761347800E+03  0.79247834437E+03  0.10100000352E+00 0.  1.
       -3    1    3    3    0  502  0.16616588792E+03  0.51650119440E+03 -0.99430257533E+03  0.11327057021E+04  0.10100000352E+00 0. -1.
</event>
<event>
 5   0  0.5500363E-03  0.1088729E+04  0.7818609E-02  0.9216247E-01
        2   -1    0    0  501    0  0.00000000000E+00  0.00000000000E+00  0.12021703155E+04  0.12021703155E+04  0.25500000920E-02 0. -1.
       -2   -1    0    0    0  501  0.00000000000E+00  0.00000000000E+00 -0.24649822712E+03  0.24649822714E+03  0.25500000920E-02 0.  1.
    10030    2    1    2    0    0  0.00000000000E+00  0.00000000000E+00  0.95567208840E+03  0.14486685427E+04  0.10887292620E+04 0.  0.
        3    1    3    3  502    0  0.78640064287E+02  0.30879961037E+03 -0.10942880058E+03  0.33692155122E+03  0.10100000352E+00 0.  1.
       -3    1    3    3    0  502 -0.78640064287E+02 -0.30879961037E+03  0.10651008890E+04  0.11117469914E+04  0.10100000352E+00 0. -1.
</event>
<event>
 5   0  0.3215352E-03  0.1058463E+04  0.7818609E-02  0.9246650E-01
       -1   -1    0    0    0  501  0.00000000000E+00  0.00000000000E+00  0.53410898367E+03  0.53410898370E+03  0.50400001928E-02 0.  1.
        1   -1    0    0  501    0  0.00000000000E+00  0.00000000000E+00 -0.52439807108E+03  0.52439807111E+03  0.50400001928E-02 0. -1.
    10030    2    1    2    0    0  0.00000000000E+00  0.00000000000E+00  0.97109125902E+01  0.10585070548E+04  0.10584625091E+04 0.  0.
        1    1    3    3  502    0  0.12927253056E+03  0.15259804997E+03 -0.48515309214E+03  0.52475811080E+03  0.50400001928E-02 0. -1.
       -1    1    3    3    0  502 -0.12927253056E+03 -0.15259804997E+03  0.49486400474E+03  0.53374894400E+03  0.50400001928E-02 0.  1.
</event>
<event>
 5   0  0.5723194E-03  0.1087803E+04  0.7818609E-02  0.9217162E-01
       -2   -1    0    0    0  501  0.00000000000E+00  0.00000000000E+00  0.41207082036E+03  0.41207082037E+03  0.25500000920E-02 0. -1.
        2   -1    0    0  501    0  0.00000000000E+00  0.00000000000E+00 -0.71790821766E+03  0.71790821766E+03  0.25500000920E-02 0.  1.
    10030    2    1    2    0    0  0.00000000000E+00  0.00000000000E+00 -0.30583739729E+03  0.11299790380E+04  0.10878033429E+04 0.  0.
        1    1    3    3  502    0  0.14380417896E+03 -0.24951114497E+02  0.39134879158E+03  0.41767939463E+03  0.50400001928E-02 0. -1.
       -1    1    3    3    0  502 -0.14380417896E+03  0.24951114497E+02 -0.69718618888E+03  0.71229964340E+03  0.50400001928E-02 0.  1.
</event>
<event>
 5   0  0.3320192E-03  0.1090406E+04  0.7818609E-02  0.9214594E-01
        1   -1    0    0  501    0  0.00000000000E+00  0.00000000000E+00  0.69497898569E+03  0.69497898571E+03  0.50400001928E-02 0. -1.
       -1   -1    0    0    0  501  0.00000000000E+00  0.00000000000E+00 -0.42770543086E+03  0.42770543089E+03  0.50400001928E-02 0.  1.
    10030    2    1    2    0    0  0.00000000000E+00  0.00000000000E+00  0.26727355483E+03  0.11226844166E+04  0.10904059548E+04 0.  0.
        2    1    3    3  502    0 -0.28157489373E+03  0.36802235031E+03 -0.16213233236E+03  0.49092949017E+03  0.25500000920E-02 0. -1.
       -2    1    3    3    0  502  0.28157489373E+03 -0.36802235031E+03  0.42940588719E+03  0.63175492643E+03  0.25500000920E-02 0.  1.
</event>
<event>
 5   0  0.3215352E-03  0.1102742E+04  0.7818609E-02  0.9202523E-01
        1   -1    0    0  501    0  0.00000000000E+00  0.00000000000E+00  0.40514238299E+03  0.40514238303E+03  0.50400001928E-02 0. -1.
       -1   -1    0    0    0  501  0.00000000000E+00  0.00000000000E+00 -0.75037837237E+03  0.75037837239E+03  0.50400001928E-02 0.  1.
    10030    2    1    2    0    0  0.00000000000E+00  0.00000000000E+00 -0.34523598937E+03  0.11555207554E+04  0.11027421856E+04 0.  0.
        1    1    3    3  502    0 -0.18448260451E+03 -0.29135134563E+03 -0.62343054186E+03  0.71245005335E+03  0.50400001928E-02 0.  1.
       -1    1    3    3    0  502  0.18448260451E+03  0.29135134563E+03  0.27819455249E+03  0.44307070206E+03  0.50400001928E-02 0. -1.
</event>
<event>
 5   0  0.2185750E-03  0.1101415E+04  0.7818609E-02  0.9203814E-01
       -4   -1    0    0    0  501  0.00000000000E+00  0.00000000000E+00  0.32369316019E+03  0.32369565158E+03  0.12699999809E+01 0. -1.
        4   -1    0    0  501    0  0.00000000000E+00  0.00000000000E+00 -0.93692647968E+03  0.93692734042E+03  0.12699999809E+01 0.  1.
    10030    2    1    2    0    0  0.00000000000E+00  0.00000000000E+00 -0.61323331949E+03  0.12606229920E+04  0.11014151006E+04 0.  0.
        3    1    3    3  502    0  0.36958159662E+03  0.21989344772E+03 -0.70033986166E+03  0.82183916732E+03  0.10100000352E+00 0.  1.
       -3    1    3    3    0  502 -0.36958159662E+03 -0.21989344772E+03  0.87106542169E+02  0.43878382468E+03  0.10100000352E+00 0. -1.
</event>
<event>
 5   0  0.5500363E-03  0.1090705E+04  0.7818609E-02  0.9214299E-01
       -2   -1    0    0    0  501  0.00000000000E+00  0.00000000000E+00  0.16684752269E+03  0.16684752271E+03  0.25500000920E-02 0. -1.
        2   -1    0    0  501    0  0.00000000000E+00  0.00000000000E+00 -0.17825203163E+04  0.17825203163E+04  0.25500000920E-02 0.  1.
    10030    2    1    2    0    0  0.00000000000E+00  0.00000000000E+00 -0.16156727936E+04  0.19493678390E+04  0.10907045410E+04 0.  0.
        3    1    3    3  502    0  0.32519784554E+03  0.26779863693E+03 -0.14268034076E+04  0.14876954402E+04  0.10100000352E+00 0.  1.
       -3    1    3    3    0  502 -0.32519784554E+03 -0.26779863693E+03 -0.18886938609E+03  0.46167239888E+03  0.10100000352E+00 0. -1.
</event>
<event>
 5   0  0.3320192E-03  0.1088495E+04  0.7818609E-02  0.9216478E-01
       -1   -1    0    0    0  501  0.00000000000E+00  0.00000000000E+00  0.15722566885E+03  0.15722566893E+03  0.50400001928E-02 0. -1.
        1   -1    0    0  501    0  0.00000000000E+00  0.00000000000E+00 -0.18839507160E+04  0.18839507160E+04  0.50400001928E-02 0.  1.
    10030    2    1    2    0    0  0.00000000000E+00  0.00000000000E+00 -0.17267250472E+04  0.20411763849E+04  0.10884951291E+04 0.  0.
        2    1    3    3  502    0  0.27728343794E+03  0.24579196233E+03 -0.11584105360E+03  0.38822537707E+03  0.25500000920E-02 0. -1.
       -2    1    3    3    0  502 -0.27728343794E+03 -0.24579196233E+03 -0.16108839936E+04  0.16529510079E+04  0.25500000920E-02 0.  1.
</event>
<event>
 5   0  0.3320192E-03  0.1082228E+04  0.7818609E-02  0.9222689E-01
       -1   -1    0    0    0  501  0.00000000000E+00  0.00000000000E+00  0.31030662875E+03  0.31030662880E+03  0.50400001928E-02 0.  1.
        1   -1    0    0  501    0  0.00000000000E+00  0.00000000000E+00 -0.94359626689E+03  0.94359626690E+03  0.50400001928E-02 0. -1.
    10030    2    1    2    0    0  0.00000000000E+00  0.00000000000E+00 -0.63328963814E+03  0.12539028957E+04  0.10822276591E+04 0.  0.
        2    1    3    3  502    0 -0.11089164719E+03  0.18236578331E+03  0.25947574029E+03  0.33597901146E+03  0.25500000920E-02 0.  1.
       -2    1    3    3    0  502  0.11089164719E+03 -0.18236578331E+03 -0.89276537842E+03  0.91792388424E+03  0.25500000920E-02 0. -1.
</event>
<event>
 5   0  0.5627232E-03  0.1087605E+04  0.7818609E-02  0.9217358E-01
       -2   -1    0    0    0  501  0.00000000000E+00  0.00000000000E+00  0.56429508901E+03  0.56429508902E+03  0.25500000920E-02 0.  1.
        2   -1    0    0  501    0  0.00000000000E+00  0.00000000000E+00 -0.52405368958E+03  0.52405368959E+03  0.25500000920E-02 0. -1.
    10030    2    1    2    0    0  0.00000000000E+00  0.00000000000E+00  0.40241399433E+02  0.10883487786E+04  0.10876045668E+04 0.  0.
        2    1    3    3  502    0 -0.44853695517E+03  0.14092236656E+01 -0.28755275372E+03  0.53279824723E+03  0.25500000920E-02 0. -1.
       -2    1    3    3    0  502  0.44853695517E+03 -0.14092236656E+01  0.32779415316E+03  0.55555053138E+03  0.25500000920E-02 0.  1.
</event>
<event>
 5   0  0.2185750E-03  0.1093167E+04  0.7818609E-02  0.9211878E-01
       -3   -1    0    0    0  501  0.00000000000E+00  0.00000000000E+00  0.69470904249E+03  0.69470904983E+03  0.10100000352E+00 0. -1.
        3   -1    0    0  501    0  0.00000000000E+00  0.00000000000E+00 -0.43004085415E+03  0.43004086601E+03  0.10100000352E+00 0.  1.
    10030    2    1    2    0    0  0.00000000000E+00  0.00000000000E+00  0.26466818834E+03  0.11247499158E+04  0.10931665579E+04 0.  0.
        5    1    3    3  502    0 -0.32630037607E+02 -0.22489461256E+03 -0.37910772547E+03  0.44202608931E+03  0.46999998093E+01 0.  1.
       -5    1    3    3    0  502  0.32630037607E+02  0.22489461256E+03  0.64377591381E+03  0.68272382653E+03  0.46999998093E+01 0. -1.
</event>
<event>
 5   0  0.3328741E-03  0.1095464E+04  0.7818609E-02  0.9209625E-01
       -1   -1    0    0    0  501  0.00000000000E+00  0.00000000000E+00  0.61576050357E+03  0.61576050359E+03  0.50400001928E-02 0.  1.
        1   -1    0    0  501    0  0.00000000000E+00  0.00000000000E+00 -0.48721885808E+03  0.48721885811E+03  0.50400001928E-02 0. -1.
    10030    2    1    2    0    0  0.00000000000E+00  0.00000000000E+00  0.12854164549E+03  0.11029793617E+04  0.10954636086E+04 0.  0.
        3    1    3    3  502    0 -0.34189117133E+03  0.60691561293E+01 -0.36654761887E+03  0.50128193144E+03  0.10100000352E+00 0. -1.
       -3    1    3    3    0  502  0.34189117133E+03 -0.60691561293E+01  0.49508926436E+03  0.60169743025E+03  0.10100000352E+00 0.  1.
</event>
<event>
 5   0  0.5941585E-03  0.1094737E+04  0.7818609E-02  0.9210337E-01
        2   -1    0    0  501    0  0.00000000000E+00  0.00000000000E+00  0.66571080062E+03  0.66571080063E+03  0.25500000920E-02 0. -1.
       -2   -1    0    0    0  501  0.00000000000E+00  0.00000000000E+00 -0.45006351440E+03  0.45006351440E+03  0.25500000920E-02 0.  1.
    10030    2    1    2    0    0  0.00000000000E+00  0.00000000000E+00  0.21564728623E+03  0.11157743150E+04  0.10947367583E+04 0.  0.
        5    1    3    3  502    0  0.52968754220E+03 -0.13580287883E+03  0.83304360798E+02  0.55314828101E+03  0.46999998093E+01 0.  1.
       -5    1    3    3    0  502 -0.52968754220E+03  0.13580287883E+03  0.13234292543E+03  0.56262603403E+03  0.46999998093E+01 0. -1.
</event>
<event>
 5   0  0.3328741E-03  0.1051810E+04  0.7818609E-02  0.9253477E-01
        1   -1    0    0  501    0  0.00000000000E+00  0.00000000000E+00  0.17409980113E+04  0.17409980113E+04  0.50400001928E-02 0.  1.
       -1   -1    0    0    0  501  0.00000000000E+00  0.00000000000E+00 -0.15886077692E+03  0.15886077700E+03  0.50400001928E-02 0. -1.
    10030    2    1    2    0    0  0.00000000000E+00  0.00000000000E+00  0.15821372344E+04  0.18998587883E+04  0.10518104331E+04 0.  0.
        3    1    3    3  502    0  0.42389562115E+03  0.17253434918E+03  0.12590321870E+04  0.13396334041E+04  0.10100000352E+00 0.  1.
       -3    1    3    3    0  502 -0.42389562115E+03 -0.17253434918E+03  0.32310504737E+03  0.56022538421E+03  0.10100000352E+00 0. -1.
</event>
<event>
 5   0  0.5627232E-03  0.1112861E+04  0.7818609E-02  0.9192747E-01
       -2   -1    0    0    0  501  0.00000000000E+00  0.00000000000E+00  0.28946911742E+03  0.28946911743E+03  0.25500000920E-02 0. -1.
        2   -1    0    0  501    0  0.00000000000E+00  0.00000000000E+00 -0.10695951968E+04  0.10695951968E+04  0.25500000920E-02 0.  1.
    10030    2    1    2    0    0  0.00000000000E+00  0.00000000000E+00 -0.78012607933E+03  0.13590643142E+04  0.11128607777E+04 0.  0.
        2    1    3    3  502    0  0.47908627523E+02  0.44838275113E+03  0.80528562393E+01  0.45100684763E+03  0.25500000920E-02 0. -1.
       -2    1    3    3    0  502 -0.47908627523E+02 -0.44838275113E+03 -0.78817893557E+03  0.90805746657E+03  0.25500000920E-02 0.  1.
</event>
<event>
 5   0  0.5627232E-03  0.1105247E+04  0.7818609E-02  0.9200093E-01
        2   -1    0    0  501    0  0.00000000000E+00  0.00000000000E+00  0.48244088779E+03  0.48244088780E+03  0.25500000920E-02 0. -1.
       -2   -1    0    0    0  501  0.00000000000E+00  0.00000000000E+00 -0.63301594502E+03  0.63301594502E+03  0.25500000920E-02 0.  1.
    10030    2    1    2    0    0  0.00000000000E+00  0.00000000000E+00 -0.15057505723E+03  0.11154568328E+04  0.11052470756E+04 0.  0.
        2    1    3    3  502    0 -0.57413931467E+02 -0.19592475886E+03 -0.59355817708E+03  0.62768955722E+03  0.25500000920E-02 0.  1.
       -2    1    3    3    0  502  0.57413931467E+02  0.19592475886E+03  0.44298311985E+03  0.48776727560E+03  0.25500000920E-02 0. -1.
</event>
<event>
 5   0  0.3215352E-03  0.1095833E+04  0.7818609E-02  0.9209263E-01
        1   -1    0    0  501    0  0.00000000000E+00  0.00000000000E+00  0.50958939598E+03  0.50958939601E+03  0.50400001928E-02 0.  1.
       -1   -1    0    0    0  501  0.00000000000E+00  0.00000000000E+00 -0.58912623004E+03  0.58912623006E+03  0.50400001928E-02 0. -1.
    10030    2    1    2    0    0  0.00000000000E+00  0.00000000000E+00 -0.79536834057E+02  0.10987156261E+04  0.10958329795E+04 0.  0.
        1    1    3    3  502    0  0.30080786236E+03  0.45632369617E+03 -0.99118323199E+00  0.54655070050E+03  0.50400001928E-02 0.  1.
       -1    1    3    3    0  502 -0.30080786236E+03 -0.45632369617E+03 -0.78545650825E+02  0.55216492557E+03  0.50400001928E-02 0. -1.
</event>
<event>
 5   0  0.5500363E-03  0.1094524E+04  0.7818609E-02  0.9210546E-01
       -2   -1    0    0    0  501  0.00000000000E+00  0.00000000000E+00  0.18544378920E+03  0.18544378921E+03  0.25500000920E-02 0.  1.
        2   -1    0    0  501    0  0.00000000000E+00  0.00000000000E+00 -0.16150200265E+04  0.16150200265E+04  0.25500000920E-02 0. -1.
    10030    2    1    2    0    0  0.00000000000E+00  0.00000000000E+00 -0.14295762373E+04  0.18004638158E+04  0.10945235189E+04 0.  0.
        3    1    3    3  502    0 -0.26768942503E+02  0.38677624426E+03 -0.13501467647E+04  0.14047094845E+04  0.10100000352E+00 0. -1.
       -3    1    3    3    0  502  0.26768942503E+02 -0.38677624426E+03 -0.79429472681E+02  0.39575433129E+03  0.10100000352E+00 0.  1.
</event>
<event>
 5   0  0.5627232E-03  0.1105950E+04  0.7818609E-02  0.9199412E-01
        2   -1    0    0  501    0  0.00000000000E+00  0.00000000000E+00  0.87510457703E+03  0.87510457703E+03  0.25500000920E-02 0. -1.
       -2   -1    0    0    0  501  0.00000000000E+00  0.00000000000E+00 -0.34942289970E+03  0.34942289971E+03  0.25500000920E-02 0.  1.
    10030    2    1    2    0    0  0.00000000000E+00  0.00000000000E+00  0.52568167733E+03  0.12245274767E+04  0.11059504127E+04 0.  0.
        2    1    3    3  502    0  0.33916783728E+03 -0.39954795416E+03  0.45812645029E+03  0.69609858065E+03  0.25500000920E-02 0. -1.
       -2    1    3    3    0  502 -0.33916783728E+03  0.39954795416E+03  0.67555227041E+02  0.52842889609E+03  0.25500000920E-02 0.  1.
</event>
<event>
 5   0  0.3328741E-03  0.1261372E+04  0.7818609E-02  0.9060771E-01
       -1   -1    0    0    0  501  0.00000000000E+00  0.00000000000E+00  0.98267619299E+03  0.98267619301E+03  0.50400001928E-02 0. -1.
        1   -1    0    0  501    0  0.00000000000E+00  0.00000000000E+00 -0.40477701058E+03  0.40477701061E+03  0.50400001928E-02 0.  1.
    10030    2    1    2    0    0  0.00000000000E+00  0.00000000000E+00  0.57789918242E+03  0.13874532036E+04  0.12613718433E+04 0.  0.
        3    1    3    3  502    0 -0.16178610514E+03  0.30675721075E+03  0.86837678463E+03  0.93506843624E+03  0.10100000352E+00 0. -1.
       -3    1    3    3    0  502  0.16178610514E+03 -0.30675721075E+03 -0.29047760222E+03  0.45238476737E+03  0.10100000352E+00 0.  1.
</event>
<event>
 5   0  0.3328741E-03  0.1155693E+04  0.7818609E-02  0.9152548E-01
       -1   -1    0    0    0  501  0.00000000000E+00  0.00000000000E+00  0.15638668905E+03  0.15638668913E+03  0.50400001928E-02 0. -1.
        1   -1    0    0  501    0  0.00000000000E+00  0.00000000000E+00 -0.21351334019E+04  0.21351334019E+04  0.50400001928E-02 0.  1.
    10030    2    1    2    0    0  0.00000000000E+00  0.00000000000E+00 -0.19787467128E+04  0.22915200910E+04  0.11556927680E+04 0.  0.
        3    1    3    3  502    0 -0.38729770114E+03 -0.39311310648E+03 -0.64957136198E+03  0.85233818892E+03  0.10100000352E+00 0. -1.
       -3    1    3    3    0  502  0.38729770114E+03  0.39311310648E+03 -0.13291753509E+04  0.14391819021E+04  0.10100000352E+00 0.  1.
</event>
<event>
 5   0  0.3316784E-03  0.1139673E+04  0.7818609E-02  0.9167364E-01
       -1   -1    0    0    0  501  0.00000000000E+00  0.00000000000E+00  0.18467616386E+03  0.18467616393E+03  0.50400001928E-02 0. -1.
        1   -1    0    0  501    0  0.00000000000E+00  0.00000000000E+00 -0.17582852776E+04  0.17582852777E+04  0.50400001928E-02 0.  1.
    10030    2    1    2    0    0  0.00000000000E+00  0.00000000000E+00 -0.15736091138E+04  0.19429614416E+04  0.11396725497E+04 0.  0.
        4    1    3    3  502    0  0.32238308586E+03 -0.21416882352E+03 -0.73796106784E+02  0.39401347349E+03  0.12699999809E+01 0. -1.
       -4    1    3    3    0  502 -0.32238308586E+03  0.21416882352E+03 -0.14998130070E+04  0.15489479681E+04  0.12699999809E+01 0.  1.
</event>
<event>
 5   0  0.5500363E-03  0.1095422E+04  0.7818609E-02  0.9209665E-01
       -2   -1    0    0    0  501  0.00000000000E+00  0.00000000000E+00  0.22641800605E+03  0.22641800606E+03  0.25500000920E-02 0. -1.
        2   -1    0    0  501    0  0.00000000000E+00  0.00000000000E+00 -0.13249275619E+04  0.13249275619E+04  0.25500000920E-02 0.  1.
    10030    2    1    2    0    0  0.00000000000E+00  0.00000000000E+00 -0.10985095559E+04  0.15513455680E+04  0.10954222140E+04 0.  0.
        3    1    3    3  502    0 -0.13829079737E+03  0.74514188040E+01 -0.12997214629E+04  0.13070790946E+04  0.10100000352E+00 0.  1.
       -3    1    3    3    0  502  0.13829079737E+03 -0.74514188040E+01  0.20121190702E+03  0.24426647336E+03  0.10100000352E+00 0. -1.
</event>
<event>
 5   0  0.5627232E-03  0.1111185E+04  0.7818609E-02  0.9194358E-01
       -2   -1    0    0    0  501  0.00000000000E+00  0.00000000000E+00  0.30097688840E+03  0.30097688841E+03  0.25500000920E-02 0.  1.
        2   -1    0    0  501    0  0.00000000000E+00  0.00000000000E+00 -0.10256046109E+04  0.10256046109E+04  0.25500000920E-02 0. -1.
    10030    2    1    2    0    0  0.00000000000E+00  0.00000000000E+00 -0.72462772248E+03  0.13265814993E+04  0.11111854652E+04 0.  0.
        2    1    3    3  502    0 -0.20545623183E+03 -0.51614430792E+03 -0.37201817947E+03  0.66859160604E+03  0.25500000920E-02 0.  1.
       -2    1    3    3    0  502  0.20545623183E+03  0.51614430792E+03 -0.35260954301E+03  0.65798989325E+03  0.25500000920E-02 0. -1.
</event>
<event>
 5   0  0.5946359E-03  0.1096779E+04  0.7818609E-02  0.9208337E-01
        2   -1    0    0  501    0  0.00000000000E+00  0.00000000000E+00  0.58710595598E+03  0.58710595599E+03  0.25500000920E-02 0.  1.
       -2   -1    0    0    0  501  0.00000000000E+00  0.00000000000E+00 -0.51222584618E+03  0.51222584618E+03  0.25500000920E-02 0. -1.
    10030    2    1    2    0    0  0.00000000000E+00  0.00000000000E+00  0.74880109806E+02  0.10993318022E+04  0.10967786378E+04 0.  0.
        4    1    3    3  502    0 -0.10124814561E+03  0.48474807838E+03  0.27356719927E+03  0.56574951339E+03  0.12699999809E+01 0.  1.
       -4    1    3    3    0  502  0.10124814561E+03 -0.48474807838E+03 -0.19868708946E+03  0.53358228878E+03  0.12699999809E+01 0. -1.
</event>
<event>
 5   0  0.3320192E-03  0.1093277E+04  0.7818609E-02  0.9211770E-01
       -1   -1    0    0    0  501  0.00000000000E+00  0.00000000000E+00  0.38024656206E+03  0.38024656209E+03  0.50400001928E-02 0. -1.
        1   -1    0    0  501    0  0.00000000000E+00  0.00000000000E+00 -0.78584117345E+03  0.78584117347E+03  0.50400001928E-02 0.  1.
    10030    2    1    2    0    0  0.00000000000E+00  0.00000000000E+00 -0.40559461140E+03  0.11660877356E+04  0.10932765516E+04 0.  0.
        2    1    3    3  502    0 -0.46361218923E+03 -0.10043219775E+03  0.86938032663E+02  0.48226663774E+03  0.25500000920E-02 0. -1.
       -2    1    3    3    0  502  0.46361218923E+03  0.10043219775E+03 -0.49253264406E+03  0.68382109782E+03  0.25500000920E-02 0.  1.
</event>
<event>
 5   0  0.2185750E-03  0.1150301E+04  0.7818609E-02  0.9157506E-01
        3   -1    0    0  501    0  0.00000000000E+00  0.00000000000E+00  0.61593162986E+03  0.61593163815E+03  0.10100000352E+00 0.  1.
       -3   -1    0    0    0  501  0.00000000000E+00  0.00000000000E+00 -0.53706972151E+03  0.53706973101E+03  0.10100000352E+00 0. -1.
    10030    2    1    2    0    0  0.00000000000E+00  0.00000000000E+00  0.78861908355E+02  0.11530013692E+04  0.11503012461E+04 0.  0.
        4    1    3    3  502    0  0.36222321125E+03 -0.32802898715E+03  0.34343804610E+03  0.59729387708E+03  0.12699999809E+01 0.  1.
       -4    1    3    3    0  502 -0.36222321125E+03  0.32802898715E+03 -0.26457613775E+03  0.55570749208E+03  0.12699999809E+01 0. -1.
</event>
<event>
 5   0  0.5500363E-03  0.1107287E+04  0.7818609E-02  0.9198118E-01
       -2   -1    0    0    0  501  0.00000000000E+00  0.00000000000E+00  0.31376157854E+03  0.31376157855E+03  0.25500000920E-02 0. -1.
        2   -1    0    0  501    0  0.00000000000E+00  0.00000000000E+00 -0.97692380497E+03  0.97692380497E+03  0.25500000920E-02 0.  1.
    10030    2    1    2    0    0  0.00000000000E+00  0.00000000000E+00 -0.66316222643E+03  0.12906853835E+04  0.11072870543E+04 0.  0.
        3    1    3    3  502    0  0.29186732795E+03  0.10877160177E+03 -0.86510719086E+03  0.91947172896E+03  0.10100000352E+00 0.  1.
       -3    1    3    3    0  502 -0.29186732795E+03 -0.10877160177E+03  0.20194496443E+03  0.37121365457E+03  0.10100000352E+00 0. -1.
</event>
<event>
 5   0  0.5627232E-03  0.1061941E+04  0.7818609E-02  0.9243101E-01
        2   -1    0    0  501    0  0.00000000000E+00  0.00000000000E+00  0.20188743344E+04  0.20188743344E+04  0.25500000920E-02 0.  1.
       -2   -1    0    0    0  501  0.00000000000E+00  0.00000000000E+00 -0.13964705485E+03  0.13964705487E+03  0.25500000920E-02 0. -1.
    10030    2    1    2    0    0  0.00000000000E+00  0.00000000000E+00  0.18792272795E+04  0.21585213892E+04  0.10619413448E+04 0.  0.
        2    1    3    3  502    0 -0.24703831672E+03 -0.32153303534E+03  0.16364147297E+04  0.16859017144E+04  0.25500000920E-02 0.  1.
       -2    1    3    3    0  502  0.24703831672E+03  0.32153303534E+03  0.24281254976E+03  0.47261967486E+03  0.25500000920E-02 0. -1.
</event>
<event>
 5   0  0.3215352E-03  0.1102843E+04  0.7818609E-02  0.9202426E-01
       -1   -1    0    0    0  501  0.00000000000E+00  0.00000000000E+00  0.42684563884E+03  0.42684563887E+03  0.50400001928E-02 0. -1.
        1   -1    0    0  501    0  0.00000000000E+00  0.00000000000E+00 -0.71235473584E+03  0.71235473586E+03  0.50400001928E-02 0.  1.
    10030    2    1    2    0    0  0.00000000000E+00  0.00000000000E+00 -0.28550909700E+03  0.11392003747E+04  0.11028427129E+04 0.  0.
        1    1    3    3  502    0  0.12017255074E+03 -0.17987228382E+03  0.38118495162E+03  0.43828922848E+03  0.50400001928E-02 0. -1.
       -1    1    3    3    0  502 -0.12017255074E+03  0.17987228382E+03 -0.66669404862E+03  0.70091114624E+03  0.50400001928E-02 0.  1.
</event>
<event>
 5   0  0.3328741E-03  0.9938439E+03  0.7818609E-02  0.9315323E-01
       -1   -1    0    0    0  501  0.00000000000E+00  0.00000000000E+00  0.37787410833E+03  0.37787410836E+03  0.50400001928E-02 0. -1.
        1   -1    0    0  501    0  0.00000000000E+00  0.00000000000E+00 -0.65347540818E+03  0.65347540820E+03  0.50400001928E-02 0.  1.
    10030    2    1    2    0    0  0.00000000000E+00  0.00000000000E+00 -0.27560129985E+03  0.10313495166E+04  0.99384392579E+03 0.  0.
        3    1    3    3  502    0  0.13130337499E+03  0.60849812294E+02 -0.63112268693E+03  0.64750222555E+03  0.10100000352E+00 0.  1.
       -3    1    3    3    0  502 -0.13130337499E+03 -0.60849812294E+02  0.35552138708E+03  0.38384729100E+03  0.10100000352E+00 0. -1.
</event>
<event>
 5   0  0.3316784E-03  0.1142413E+04  0.7818609E-02  0.9164811E-01
        1   -1    0    0  501    0  0.00000000000E+00  0.00000000000E+00  0.73070943776E+03  0.73070943778E+03  0.50400001928E-02 0. -1.
       -1   -1    0    0    0  501  0.00000000000E+00  0.00000000000E+00 -0.44652076735E+03  0.44652076738E+03  0.50400001928E-02 0.  1.
    10030    2    1    2    0    0  0.00000000000E+00  0.00000000000E+00  0.28418867041E+03  0.11772302052E+04  0.11424131282E+04 0.  0.
        4    1    3    3  502    0  0.99227097030E+02 -0.51118004664E+03  0.38403542556E+03  0.64702077081E+03  0.12699999809E+01 0. -1.
       -4    1    3    3    0  502 -0.99227097030E+02  0.51118004664E+03 -0.99846755152E+02  0.53020943436E+03  0.12699999809E+01 0.  1.
</event>
<event>
 5   0  0.2185750E-03  0.9000656E+03  0.7818609E-02  0.9425499E-01
        3   -1    0    0  501    0  0.00000000000E+00  0.00000000000E+00  0.75566454943E+03  0.75566455618E+03  0.10100000352E+00 0. -1.
       -3   -1    0    0    0  501  0.00000000000E+00  0.00000000000E+00 -0.26801511691E+03  0.26801513594E+03  0.10100000352E+00 0.  1.
    10030    2    1    2    0    0  0.00000000000E+00  0.00000000000E+00  0.48764943252E+03  0.10236796921E+04  0.90006563261E+03 0.  0.
        3    1    3    3  502    0 -0.22823719237E+03 -0.76744485216E+02 -0.18858489791E+03  0.30585324245E+03  0.10100000352E+00 0.  1.
       -3    1    3    3    0  502  0.22823719237E+03  0.76744485216E+02  0.67623433043E+03  0.71782644967E+03  0.10100000352E+00 0. -1.
</event>
<event>
 5   0  0.3215352E-03  0.1137362E+04  0.7818609E-02  0.9169523E-01
       -1   -1    0    0    0  501  0.00000000000E+00  0.00000000000E+00  0.27935300935E+03  0.27935300939E+03  0.50400001928E-02 0.  1.
        1   -1    0    0  501    0  0.00000000000E+00  0.00000000000E+00 -0.11576674135E+04  0.11576674135E+04  0.50400001928E-02 0. -1.
    10030    2    1    2    0    0  0.00000000000E+00  0.00000000000E+00 -0.87831440411E+03  0.14370204229E+04  0.11373616414E+04 0.  0.
        1    1    3    3  502    0 -0.33132932406E+03  0.11177817937E+03 -0.10057835130E+04  0.10648351785E+04  0.50400001928E-02 0. -1.
       -1    1    3    3    0  502  0.33132932406E+03 -0.11177817937E+03  0.12746910888E+03  0.37218524435E+03  0.50400001928E-02 0.  1.
</event>
<event>
 5   0  0.5500363E-03  0.1107416E+04  0.7818609E-02  0.9197993E-01
        2   -1    0    0  501    0  0.00000000000E+00  0.00000000000E+00  0.12555545510E+04  0.12555545510E+04  0.25500000920E-02 0.  1.
       -2   -1    0    0    0  501  0.00000000000E+00  0.00000000000E+00 -0.24418909729E+03  0.24418909731E+03  0.25500000920E-02 0. -1.
    10030    2    1    2    0    0  0.00000000000E+00  0.00000000000E+00  0.10113654537E+04  0.14997436483E+04  0.11074163308E+04 0.  0.
        3    1    3    3  502    0 -0.22451214259E+03  0.39639868162E+03  0.93191324256E+03  0.10373041593E+04  0.10100000352E+00 0.  1.
       -3    1    3    3    0  502  0.22451214259E+03 -0.39639868162E+03  0.79452211130E+02  0.46243948903E+03  0.10100000352E+00 0. -1.
</event>
<event>
 5   0  0.3320192E-03  0.1096614E+04  0.7818609E-02  0.9208498E-01
        1   -1    0    0  501    0  0.00000000000E+00  0.00000000000E+00  0.12477805003E+04  0.12477805003E+04  0.50400001928E-02 0.  1.
       -1   -1    0    0    0  501  0.00000000000E+00  0.00000000000E+00 -0.24094033520E+03  0.24094033525E+03  0.50400001928E-02 0. -1.
    10030    2    1    2    0    0  0.00000000000E+00  0.00000000000E+00  0.10068401651E+04  0.14887208355E+04  0.10966141565E+04 0.  0.
        2    1    3    3  502    0 -0.18365397014E+03 -0.45648661263E+03  0.83185968742E+03  0.96648815193E+03  0.25500000920E-02 0.  1.
       -2    1    3    3    0  502  0.18365397014E+03  0.45648661263E+03  0.17498047765E+03  0.52223268360E+03  0.25500000920E-02 0. -1.
</event>
<event>
 5   0  0.5723194E-03  0.1090410E+04  0.7818609E-02  0.9214590E-01
       -2   -1    0    0    0  501  0.00000000000E+00  0.00000000000E+00  0.35562188720E+03  0.35562188721E+03  0.25500000920E-02 0.  1.
        2   -1    0    0  501    0  0.00000000000E+00  0.00000000000E+00 -0.83585491698E+03  0.83585491698E+03  0.25500000920E-02 0. -1.
    10030    2    1    2    0    0  0.00000000000E+00  0.00000000000E+00 -0.48023302978E+03  0.11914768042E+04  0.10904096533E+04 0.  0.
        1    1    3    3  502    0 -0.35824831556E+03  0.14871860751E+03 -0.65875870169E+03  0.76447505316E+03  0.50400001928E-02 0. -1.
       -1    1    3    3    0  502  0.35824831556E+03 -0.14871860751E+03  0.17852567192E+03  0.42700175103E+03  0.50400001928E-02 0.  1.
</event>
<event>
 5   0  0.3320192E-03  0.1089218E+04  0.7818609E-02  0.9215765E-01
        1   -1    0    0  501    0  0.00000000000E+00  0.00000000000E+00  0.12664243487E+04  0.12664243487E+04  0.50400001928E-02 0.  1.
       -1   -1    0    0    0  501  0.00000000000E+00  0.00000000000E+00 -0.23420199492E+03  0.23420199497E+03  0.50400001928E-02 0. -1.
    10030    2    1    2    0    0  0.00000000000E+00  0.00000000000E+00  0.10322223537E+04  0.15006263436E+04  0.10892182681E+04 0.  0.
        2    1    3    3  502    0 -0.51943448256E+03 -0.16239484992E+03  0.54417184070E+03  0.76961500841E+03  0.25500000920E-02 0.  1.
       -2    1    3    3    0  502  0.51943448256E+03  0.16239484992E+03  0.48805051304E+03  0.73101133523E+03  0.25500000920E-02 0. -1.
</event>
<event>
 5   0  0.3328741E-03  0.1083975E+04  0.7818609E-02  0.9220953E-01
       -1   -1    0    0    0  501  0.00000000000E+00  0.00000000000E+00  0.53735398795E+03  0.53735398798E+03  0.50400001928E-02 0.  1.
        1   -1    0    0  501    0  0.00000000000E+00  0.00000000000E+00 -0.54666124359E+03  0.54666124362E+03  0.50400001928E-02 0. -1.
    10030    2    1    2    0    0  0.00000000000E+00  0.00000000000E+00 -0.93072556418E+01  0.10840152316E+04  0.10839752752E+04 0.  0.
        3    1    3    3  502    0 -0.26853143574E+03 -0.34563319329E+03  0.31501289501E+03  0.53926298827E+03  0.10100000352E+00 0.  1.
       -3    1    3    3    0  502  0.26853143574E+03  0.34563319329E+03 -0.32432015065E+03  0.54475224333E+03  0.10100000352E+00 0. -1.
</event>
<event>
 5   0  0.5723194E-03  0.1139127E+04  0.7818609E-02  0.9167873E-01
       -2   -1    0    0    0  501  0.00000000000E+00  0.00000000000E+00  0.24697574036E+03  0.24697574037E+03  0.25500000920E-02 0.  1.
        2   -1    0    0  501    0  0.00000000000E+00  0.00000000000E+00 -0.13135007390E+04  0.13135007390E+04  0.25500000920E-02 0. -1.
    10030    2    1    2    0    0  0.00000000000E+00  0.00000000000E+00 -0.10665249987E+04  0.15604764794E+04  0.11391274160E+04 0.  0.
        1    1    3    3  502    0 -0.51334292131E+03  0.18537481805E+03 -0.75633992742E+03  0.93270298802E+03  0.50400001928E-02 0. -1.
       -1    1    3    3    0  502  0.51334292131E+03 -0.18537481805E+03 -0.31018507125E+03  0.62777349138E+03  0.50400001928E-02 0.  1.
</event>
<event>
 5   0  0.3316784E-03  0.1127832E+04  0.7818609E-02  0.9178481E-01
       -1   -1    0    0    0  501  0.00000000000E+00  0.00000000000E+00  0.18100025121E+04  0.18100025121E+04  0.50400001928E-02 0. -1.
        1   -1    0    0  501    0  0.00000000000E+00  0.00000000000E+00 -0.17569114067E+03  0.17569114074E+03  0.50400001928E-02 0.  1.
    10030    2    1    2    0    0  0.00000000000E+00  0.00000000000E+00  0.16343113714E+04  0.19856936528E+04  0.11278322677E+04 0.  0.
        4    1    3    3  502    0  0.22743097274E+03  0.46085029474E+03  0.12258792598E+04  0.13292439257E+04  0.12699999809E+01 0. -1.
       -4    1    3    3    0  502 -0.22743097274E+03 -0.46085029474E+03  0.40843211156E+03  0.65644972708E+03  0.12699999809E+01 0.  1.
</event>
<event>
 5   0  0.5627232E-03  0.1100206E+04  0.7818609E-02  0.9204991E-01
        2   -1    0    0  501    0  0.00000000000E+00  0.00000000000E+00  0.11724923970E+04  0.11724923970E+04  0.25500000920E-02 0.  1.
       -2   -1    0    0    0  501  0.00000000000E+00  0.00000000000E+00 -0.25809390566E+03  0.25809390567E+03  0.25500000920E-02 0. -1.
    10030    2    1    2    0    0  0.00000000000E+00  0.00000000000E+00  0.91439849136E+03  0.14305863027E+04  0.11002056937E+04 0.  0.
        2    1    3    3  502    0  0.19610349432E+03 -0.22457513583E+03  0.10583250460E+04  0.10995192018E+04  0.25500000920E-02 0.  1.
       -2    1    3    3    0  502 -0.19610349432E+03  0.22457513583E+03 -0.14392655469E+03  0.33106710085E+03  0.25500000920E-02 0. -1.
</event>
<event>
 5   0  0.3241189E-03  0.1174713E+04  0.7818609E-02  0.9135283E-01
       -1   -1    0    0    0  501  0.00000000000E+00  0.00000000000E+00  0.89693471936E+03  0.89693471937E+03  0.50400001928E-02 0. -1.
        1   -1    0    0  501    0  0.00000000000E+00  0.00000000000E+00 -0.38462970685E+03  0.38462970688E+03  0.50400001928E-02 0.  1.
    10030    2    1    2    0    0  0.00000000000E+00  0.00000000000E+00  0.51230501251E+03  0.12815644263E+04  0.11747131364E+04 0.  0.
        5    1    3    3  502    0 -0.40361121557E+03  0.27211919090E+03 -0.10239789491E+03  0.49745179291E+03  0.46999998093E+01 0.  1.
       -5    1    3    3    0  502  0.40361121557E+03 -0.27211919090E+03  0.61470290742E+03  0.78411263335E+03  0.46999998093E+01 0. -1.
</event>
<event>
 5   0  0.5500363E-03  0.1080633E+04  0.7818609E-02  0.9224276E-01
       -2   -1    0    0    0  501  0.00000000000E+00  0.00000000000E+00  0.53962624549E+03  0.53962624549E+03  0.25500000920E-02 0. -1.
        2   -1    0    0  501    0  0.00000000000E+00  0.00000000000E+00 -0.54100783905E+03  0.54100783906E+03  0.25500000920E-02 0.  1.
    10030    2    1    2    0    0  0.00000000000E+00  0.00000000000E+00 -0.13815935633E+01  0.10806340846E+04  0.10806332014E+04 0.  0.
        3    1    3    3  502    0  0.48521619240E+03  0.13438661230E+03  0.19538971394E+03  0.54006635282E+03  0.10100000352E+00 0. -1.
       -3    1    3    3    0  502 -0.48521619240E+03 -0.13438661230E+03 -0.19677130751E+03  0.54056773173E+03  0.10100000352E+00 0.  1.
</event>
<event>
 5   0  0.3320192E-03  0.1102021E+04  0.7818609E-02  0.9203224E-01
        1   -1    0    0  501    0  0.00000000000E+00  0.00000000000E+00  0.48236786043E+03  0.48236786046E+03  0.50400001928E-02 0.  1.
       -1   -1    0    0    0  501  0.00000000000E+00  0.00000000000E+00 -0.62942113010E+03  0.62942113012E+03  0.50400001928E-02 0. -1.
    10030    2    1    2    0    0  0.00000000000E+00  0.00000000000E+00 -0.14705326967E+03  0.11117889906E+04  0.11020209143E+04 0.  0.
        2    1    3    3  502    0 -0.48610906234E+03 -0.23447872707E+03 -0.18555245184E+03  0.57071184176E+03  0.25500000920E-02 0. -1.
       -2    1    3    3    0  502  0.48610906234E+03  0.23447872707E+03  0.38499182178E+02  0.54107714881E+03  0.25500000920E-02 0.  1.
</event>
<event>
 5   0  0.5627232E-03  0.1062175E+04  0.7818609E-02  0.9242864E-01
        2   -1    0    0  501    0  0.00000000000E+00  0.00000000000E+00  0.29812127157E+03  0.29812127158E+03  0.25500000920E-02 0.  1.
       -2   -1    0    0    0  501  0.00000000000E+00  0.00000000000E+00 -0.94610421963E+03  0.94610421963E+03  0.25500000920E-02 0. -1.
    10030    2    1    2    0    0  0.00000000000E+00  0.00000000000E+00 -0.64798294806E+03  0.12442254912E+04  0.10621747370E+04 0.  0.
        2    1    3    3  502    0 -0.22466714858E+03  0.19275187303E+03  0.19251929716E+03  0.35311795762E+03  0.25500000920E-02 0.  1.
       -2    1    3    3    0  502  0.22466714858E+03 -0.19275187303E+03 -0.84050224522E+03  0.89110753360E+03  0.25500000920E-02 0. -1.
</event>
<event>
 5   0  0.5723194E-03  0.1097252E+04  0.7818609E-02  0.9207875E-01
        2   -1    0    0  501    0  0.00000000000E+00  0.00000000000E+00  0.46876153915E+03  0.46876153915E+03  0.25500000920E-02 0.  1.
       -2   -1    0    0    0  501  0.00000000000E+00  0.00000000000E+00 -0.64209669682E+03  0.64209669682E+03  0.25500000920E-02 0. -1.
    10030    2    1    2    0    0  0.00000000000E+00  0.00000000000E+00 -0.17333515767E+03  0.11108582360E+04  0.10972515407E+04 0.  0.
        1    1    3    3  502    0  0.95888050217E+02 -0.25373765845E+03  0.39612435511E+03  0.48009563863E+03  0.50400001928E-02 0.  1.
       -1    1    3    3    0  502 -0.95888050217E+02  0.25373765845E+03 -0.56945951279E+03  0.63076259735E+03  0.50400001928E-02 0. -1.
</event>
<event>
 5   0  0.3328741E-03  0.1059394E+04  0.7818609E-02  0.9245699E-01
        1   -1    0    0  501    0  0.00000000000E+00  0.00000000000E+00  0.71087912209E+03  0.71087912211E+03  0.50400001928E-02 0. -1.
       -1   -1    0    0    0  501  0.00000000000E+00  0.00000000000E+00 -0.39469250500E+03  0.39469250504E+03  0.50400001928E-02 0.  1.
    10030    2    1    2    0    0  0.00000000000E+00  0.00000000000E+00  0.31618661709E+03  0.11055716271E+04  0.10593935274E+04 0.  0.
        3    1    3    3  502    0 -0.25498968373E+03 -0.39873641243E+03 -0.90114645702E+02  0.48179988063E+03  0.10100000352E+00 0.  1.
       -3    1    3    3    0  502  0.25498968373E+03  0.39873641243E+03  0.40630126279E+03  0.62377174651E+03  0.10100000352E+00 0. -1.
</event>
<event>
 5   0  0.3316784E-03  0.1094266E+04  0.7818609E-02  0.9210798E-01
        1   -1    0    0  501    0  0.00000000000E+00  0.00000000000E+00  0.40205421809E+03  0.40205421812E+03  0.50400001928E-02 0. -1.
       -1   -1    0    0    0  501  0.00000000000E+00  0.00000000000E+00 -0.74456286675E+03  0.74456286677E+03  0.50400001928E-02 0.  1.
    10030    2    1    2    0    0  0.00000000000E+00  0.00000000000E+00 -0.34250864866E+03  0.11466170849E+04  0.10942662222E+04 0.  0.
        4    1    3    3  502    0  0.33455164309E+03 -0.41743535815E+03 -0.50976280974E+02  0.53738000916E+03  0.12699999809E+01 0. -1.
       -4    1    3    3    0  502 -0.33455164309E+03  0.41743535815E+03 -0.29153236769E+03  0.60923707572E+03  0.12699999809E+01 0.  1.
</event>
<event>
 5   0  0.5627232E-03  0.1139283E+04  0.7818609E-02  0.9167727E-01
       -2   -1    0    0    0  501  0.00000000000E+00  0.00000000000E+00  0.39528346827E+03  0.39528346828E+03  0.25500000920E-02 0.  1.
        2   -1    0    0  501    0  0.00000000000E+00  0.00000000000E+00 -0.82090860857E+03  0.82090860857E+03  0.25500000920E-02 0. -1.
    10030    2    1    2    0    0  0.00000000000E+00  0.00000000000E+00 -0.42562514030E+03  0.12161920768E+04  0.11392832869E+04 0.  0.
        2    1    3    3  502    0 -0.41276364385E+03 -0.20931210196E+03 -0.56735681901E+03  0.73217425644E+03  0.25500000920E-02 0. -1.
       -2    1    3    3    0  502  0.41276364385E+03  0.20931210196E+03  0.14173167871E+03  0.48401782041E+03  0.25500000920E-02 0.  1.
</event>
<event>
 5   0  0.5946359E-03  0.1098820E+04  0.7818609E-02  0.9206343E-01
       -2   -1    0    0    0  501  0.00000000000E+00  0.00000000000E+00  0.17103322513E+03  0.17103322515E+03  0.25500000920E-02 0. -1.
        2   -1    0    0  501    0  0.00000000000E+00  0.00000000000E+00 -0.17648690317E+04  0.17648690317E+04  0.25500000920E-02 0.  1.
    10030    2    1    2    0    0  0.00000000000E+00  0.00000000000E+00 -0.15938358066E+04  0.19359022568E+04  0.10988198077E+04 0.  0.
        4    1    3    3  502    0 -0.14844886372E+03 -0.52246795000E+03 -0.65121143680E+03  0.84799043169E+03  0.12699999809E+01 0.  1.
       -4    1    3    3    0  502  0.14844886372E+03  0.52246795000E+03 -0.94262436977E+03  0.10879118252E+04  0.12699999809E+01 0. -1.
</event>
<event>
 5   0  0.5500363E-03  0.1104365E+04  0.7818609E-02  0.9200948E-01
       -2   -1    0    0    0  501  0.00000000000E+00  0.00000000000E+00  0.43523787899E+03  0.43523787899E+03  0.25500000920E-02 0.  1.
        2   -1    0    0  501    0  0.00000000000E+00  0.00000000000E+00 -0.70054955298E+03  0.70054955298E+03  0.25500000920E-02 0. -1.
    10030    2    1    2    0    0  0.00000000000E+00  0.00000000000E+00 -0.26531167399E+03  0.11357874320E+04  0.11043653409E+04 0.  0.
        3    1    3    3  502    0  0.82337501421E+02  0.47579334874E+03  0.14282152204E+03  0.50354421078E+03  0.10100000352E+00 0.  1.
       -3    1    3    3    0  502 -0.82337501421E+02 -0.47579334874E+03 -0.40813319604E+03  0.63224322120E+03  0.10100000352E+00 0. -1.
</event>
<event>
 5   0  0.5941585E-03  0.1074687E+04  0.7818609E-02  0.9230221E-01
       -2   -1    0    0    0  501  0.00000000000E+00  0.00000000000E+00  0.24721040166E+03  0.24721040167E+03  0.25500000920E-02 0.  1.
        2   -1    0    0  501    0  0.00000000000E+00  0.00000000000E+00 -0.11679855401E+04  0.11679855401E+04  0.25500000920E-02 0. -1.
    10030    2    1    2    0    0  0.00000000000E+00  0.00000000000E+00 -0.92077513846E+03  0.14151959418E+04  0.10746872559E+04 0.  0.
        5    1    3    3  502    0  0.31170532202E+03  0.37390761068E+03 -0.16082651284E+03  0.51269324779E+03  0.46999998093E+01 0.  1.
       -5    1    3    3    0  502 -0.31170532202E+03 -0.37390761068E+03 -0.75994862562E+03  0.90250269400E+03  0.46999998093E+01 0. -1.
</event>
<event>
 5   0  0.3316784E-03  0.1191982E+04  0.7818609E-02  0.9119904E-01
        1   -1    0    0  501    0  0.00000000000E+00  0.00000000000E+00  0.84160902060E+03  0.84160902061E+03  0.50400001928E-02 0. -1.
       -1   -1    0    0    0  501  0.00000000000E+00  0.00000000000E+00 -0.42205497470E+03  0.42205497473E+03  0.50400001928E-02 0.  1.
    10030    2    1    2    0    0  0.00000000000E+00  0.00000000000E+00  0.41955404590E+03  0.12636639953E+04  0.11919820031E+04 0.  0.
        4    1    3    3  502    0 -0.29522912514E+03  0.52272163995E+02 -0.33628198890E+03  0.45053280060E+03  0.12699999809E+01 0.  1.
       -4    1    3    3    0  502  0.29522912514E+03 -0.52272163995E+02  0.75583603480E+03  0.81313119474E+03  0.12699999809E+01 0. -1.
</event>
<event>
 5   0  0.3241189E-03  0.1093935E+04  0.7818609E-02  0.9211124E-01
       -1   -1    0    0    0  501  0.00000000000E+00  0.00000000000E+00  0.10281402081E+04  0.10281402081E+04  0.50400001928E-02 0. -1.
        1   -1    0    0  501    0  0.00000000000E+00  0.00000000000E+00 -0.29098490551E+03  0.29098490555E+03  0.50400001928E-02 0.  1.
    10030    2    1    2    0    0  0.00000000000E+00  0.00000000000E+00  0.73715530257E+03  0.13191251136E+04  0.10939346988E+04 0.  0.
        5    1    3    3  502    0 -0.42001819695E+03 -0.21902028460E+03  0.69829873853E+03  0.84381774635E+03  0.46999998093E+01 0. -1.
       -5    1    3    3    0  502  0.42001819695E+03  0.21902028460E+03  0.38856564042E+02  0.47530736729E+03  0.46999998093E+01 0.  1.
</event>
<event>
 5   0  0.3215352E-03  0.1084885E+04  0.7818609E-02  0.9220051E-01
       -1   -1    0    0    0  501  0.00000000000E+00  0.00000000000E+00  0.36383092510E+03  0.36383092514E+03  0.50400001928E-02 0. -1.
        1   -1    0    0  501    0  0.00000000000E+00  0.00000000000E+00 -0.80873727455E+03  0.80873727457E+03  0.50400001928E-02 0.  1.
    10030    2    1    2    0    0  0.00000000000E+00  0.00000000000E+00 -0.44490634945E+03  0.11725681997E+04  0.10848845667E+04 0.  0.
        1    1    3    3  502    0  0.33025807066E+02  0.47684037114E+02  0.36046941282E+03  0.36510638029E+03  0.50400001928E-02 0. -1.
       -1    1    3    3    0  502 -0.33025807066E+02 -0.47684037114E+02 -0.80537576227E+03  0.80746181941E+03  0.50400001928E-02 0.  1.
</event>
<event>
 5   0  0.5946359E-03  0.1101546E+04  0.7818609E-02  0.9203686E-01
       -2   -1    0    0    0  501  0.00000000000E+00  0.00000000000E+00  0.49226843982E+03  0.49226843982E+03  0.25500000920E-02 0. -1.
        2   -1    0    0  501    0  0.00000000000E+00  0.00000000000E+00 -0.61623112600E+03  0.61623112601E+03  0.25500000920E-02 0.  1.
    10030    2    1    2    0    0  0.00000000000E+00  0.00000000000E+00 -0.12396268619E+03  0.11084995658E+04  0.11015464311E+04 0.  0.
        4    1    3    3  502    0 -0.51557161256E+03  0.48583679204E+02 -0.25071534389E+03  0.57535576657E+03  0.12699999809E+01 0.  1.
       -4    1    3    3    0  502  0.51557161256E+03 -0.48583679204E+02  0.12675265770E+03  0.53314379927E+03  0.12699999809E+01 0. -1.
</event>
<event>
 5   0  0.5946359E-03  0.1086516E+04  0.7818609E-02  0.9218435E-01
       -2   -1    0    0    0  501  0.00000000000E+00  0.00000000000E+00  0.36404411877E+03  0.36404411878E+03  0.25500000920E-02 0.  1.
        2   -1    0    0  501    0  0.00000000000E+00  0.00000000000E+00 -0.81069613476E+03  0.81069613477E+03  0.25500000920E-02 0. -1.
    10030    2    1    2    0    0  0.00000000000E+00  0.00000000000E+00 -0.44665201600E+03  0.11747402535E+04  0.10865158259E+04 0.  0.
        4    1    3    3  502    0  0.20126795410E+03  0.15021060887E+03  0.29751090458E+03  0.38934094006E+03  0.12699999809E+01 0.  1.
       -4    1    3    3    0  502 -0.20126795410E+03 -0.15021060887E+03 -0.74416292057E+03  0.78539931348E+03  0.12699999809E+01 0. -1.
</event>
<event>
 5   0  0.2185750E-03  0.1071294E+04  0.7818609E-02  0.9233631E-01
        3   -1    0    0  501    0  0.00000000000E+00  0.00000000000E+00  0.10671644412E+03  0.10671649191E+03  0.10100000352E+00 0. -1.
       -3   -1    0    0    0  501  0.00000000000E+00  0.00000000000E+00 -0.26885996895E+04  0.26885996914E+04  0.10100000352E+00 0.  1.
    10030    2    1    2    0    0  0.00000000000E+00  0.00000000000E+00 -0.25818832454E+04  0.27953161833E+04  0.10712942975E+04 0.  0.
        2    1    3    3  502    0 -0.25809084496E+03 -0.31421506554E+03 -0.22007414498E+04  0.22379912691E+04  0.25500000920E-02 0.  1.
       -2    1    3    3    0  502  0.25809084496E+03  0.31421506554E+03 -0.38114179561E+03  0.55732491424E+03  0.25500000920E-02 0. -1.
</event>
<event>
 5   0  0.5627232E-03  0.1086740E+04  0.7818609E-02  0.9218213E-01
        2   -1    0    0  501    0  0.00000000000E+00  0.00000000000E+00  0.65630998539E+03  0.65630998539E+03  0.25500000920E-02 0.  1.
       -2   -1    0    0    0  501  0.00000000000E+00  0.00000000000E+00 -0.44986524147E+03  0.44986524148E+03  0.25500000920E-02 0. -1.
    10030    2    1    2    0    0  0.00000000000E+00  0.00000000000E+00  0.20644474392E+03  0.11061752269E+04  0.10867401715E+04 0.  0.
        2    1    3    3  502    0  0.38201425979E+03 -0.24007891586E+03 -0.20497675958E+03  0.49556861532E+03  0.25500000920E-02 0. -1.
       -2    1    3    3    0  502 -0.38201425979E+03  0.24007891586E+03  0.41142150349E+03  0.61060661155E+03  0.25500000920E-02 0.  1.
</event>
<event>
 5   0  0.3320192E-03  0.1091912E+04  0.7818609E-02  0.9213111E-01
       -1   -1    0    0    0  501  0.00000000000E+00  0.00000000000E+00  0.10277279132E+04  0.10277279132E+04  0.50400001928E-02 0.  1.
        1   -1    0    0  501    0  0.00000000000E+00  0.00000000000E+00 -0.29002589254E+03  0.29002589258E+03  0.50400001928E-02 0. -1.
    10030    2    1    2    0    0  0.00000000000E+00  0.00000000000E+00  0.73770202061E+03  0.13177538057E+04  0.10919115447E+04 0.  0.
        2    1    3    3  502    0  0.14636991029E+03 -0.44720298086E+03  0.34724036420E+02  0.47182667945E+03  0.25500000920E-02 0. -1.
       -2    1    3    3    0  502 -0.14636991029E+03  0.44720298086E+03  0.70297798419E+03  0.84592712629E+03  0.25500000920E-02 0.  1.
</event>
<event>
 5   0  0.3328741E-03  0.1138779E+04  0.7818609E-02  0.9168199E-01
        1   -1    0    0  501    0  0.00000000000E+00  0.00000000000E+00  0.55475853023E+03  0.55475853025E+03  0.50400001928E-02 0. -1.
       -1   -1    0    0    0  501  0.00000000000E+00  0.00000000000E+00 -0.58440602630E+03  0.58440602632E+03  0.50400001928E-02 0.  1.
    10030    2    1    2    0    0  0.00000000000E+00  0.00000000000E+00 -0.29647496076E+02  0.11391645566E+04  0.11387786936E+04 0.  0.
        3    1    3    3  502    0  0.49704992107E+03  0.15101372201E+03 -0.24801311606E+03  0.57565118276E+03  0.10100000352E+00 0.  1.
       -3    1    3    3    0  502 -0.49704992107E+03 -0.15101372201E+03  0.21836561998E+03  0.56351337381E+03  0.10100000352E+00 0. -1.
</event>
<event>
 5   0  0.5941585E-03  0.1103415E+04  0.7818609E-02  0.9201870E-01
       -2   -1    0    0    0  501  0.00000000000E+00  0.00000000000E+00  0.12251432559E+03  0.12251432562E+03  0.25500000920E-02 0.  1.
        2   -1    0    0  501    0  0.00000000000E+00  0.00000000000E+00 -0.24844539990E+04  0.24844539990E+04  0.25500000920E-02 0. -1.
    10030    2    1    2    0    0  0.00000000000E+00  0.00000000000E+00 -0.23619396734E+04  0.26069683246E+04  0.11034150736E+04 0.  0.
        5    1    3    3  502    0 -0.36698915785E+02  0.39646349392E+03 -0.20832030207E+04  0.21209165537E+04  0.46999998093E+01 0. -1.
       -5    1    3    3    0  502  0.36698915785E+02 -0.39646349392E+03 -0.27873665272E+03  0.48605177090E+03  0.46999998093E+01 0.  1.
</event>
<event>
 5   0  0.5723194E-03  0.1116148E+04  0.7818609E-02  0.9189595E-01
        2   -1    0    0  501    0  0.00000000000E+00  0.00000000000E+00  0.80493319776E+03  0.80493319777E+03  0.25500000920E-02 0.  1.
       -2   -1    0    0    0  501  0.00000000000E+00  0.00000000000E+00 -0.38692198374E+03  0.38692198374E+03  0.25500000920E-02 0. -1.
    10030    2    1    2    0    0  0.00000000000E+00  0.00000000000E+00  0.41801121403E+03  0.11918551815E+04  0.11161475703E+04 0.  0.
        1    1    3    3  502    0  0.18446413188E+03 -0.50792156354E+02  0.76881662020E+03  0.79226627760E+03  0.50400001928E-02 0.  1.
       -1    1    3    3    0  502 -0.18446413188E+03  0.50792156354E+02 -0.35080540618E+03  0.39958890391E+03  0.50400001928E-02 0. -1.
</event>
<event>
 5   0  0.3316784E-03  0.1020860E+04  0.7818609E-02  0.9285957E-01
        1   -1    0    0  501    0  0.00000000000E+00  0.00000000000E+00  0.10257233917E+04  0.10257233918E+04  0.50400001928E-02 0. -1.
       -1   -1    0    0    0  501  0.00000000000E+00  0.00000000000E+00 -0.25400492189E+03  0.25400492194E+03  0.50400001928E-02 0.  1.
    10030    2    1    2    0    0  0.00000000000E+00  0.00000000000E+00  0.77171846986E+03  0.12797283137E+04  0.10208600101E+04 0.  0.
        4    1    3    3  502    0  0.96260480468E+02 -0.39071265947E+03  0.77952028677E+03  0.87725478213E+03  0.12699999809E+01 0. -1.
       -4    1    3    3    0  502 -0.96260480468E+02  0.39071265947E+03 -0.78018169161E+01  0.40247353157E+03  0.12699999809E+01 0.  1.
</event>
<event>
 5   0  0.3316784E-03  0.9961372E+03  0.7818609E-02  0.9312792E-01
       -1   -1    0    0    0  501  0.00000000000E+00  0.00000000000E+00  0.20532353456E+03  0.20532353462E+03  0.50400001928E-02 0. -1.
        1   -1    0    0  501    0  0.00000000000E+00  0.00000000000E+00 -0.12082022028E+04  0.12082022028E+04  0.50400001928E-02 0.  1.
    10030    2    1    2    0    0  0.00000000000E+00  0.00000000000E+00 -0.10028786683E+04  0.14135257375E+04  0.99613723312E+03 0.  0.
        4    1    3    3  502    0 -0.95937605054E+02 -0.33275329360E+03  0.65214919237E+01  0.34637107446E+03  0.12699999809E+01 0. -1.
       -4    1    3    3    0  502  0.95937605054E+02  0.33275329360E+03 -0.10094001602E+04  0.10671546630E+04  0.12699999809E+01 0.  1.
</event>
<event>
 5   0  0.3241189E-03  0.1118776E+04  0.7818609E-02  0.9187082E-01
       -1   -1    0    0    0  501  0.00000000000E+00  0.00000000000E+00  0.23259078717E+03  0.23259078722E+03  0.50400001928E-02 0.  1.
        1   -1    0    0  501    0  0.00000000000E+00  0.00000000000E+00 -0.13453455594E+04  0.13453455594E+04  0.50400001928E-02 0. -1.
    10030    2    1    2    0    0  0.00000000000E+00  0.00000000000E+00 -0.11127547722E+04  0.15779363466E+04  0.11187760861E+04 0.  0.
        5    1    3    3  502    0  0.28010956619E+03  0.46843393303E+03 -0.38363101615E+03  0.66714808343E+03  0.46999998093E+01 0.  1.
       -5    1    3    3    0  502 -0.28010956619E+03 -0.46843393303E+03 -0.72912375605E+03  0.91078826316E+03  0.46999998093E+01 0. -1.
</event>
<event>
 5   0  0.5946359E-03  0.1098634E+04  0.7818609E-02  0.9206524E-01
       -2   -1    0    0    0  501  0.00000000000E+00  0.00000000000E+00  0.52762608057E+03  0.52762608058E+03  0.25500000920E-02 0.  1.
        2   -1    0    0  501    0  0.00000000000E+00  0.00000000000E+00 -0.57189983894E+03  0.57189983894E+03  0.25500000920E-02 0. -1.
    10030    2    1    2    0    0  0.00000000000E+00  0.00000000000E+00 -0.44273758364E+02  0.10995259195E+04  0.10986341894E+04 0.  0.
        4    1    3    3  502    0  0.11378568559E+03 -0.15491033763E+03 -0.53714494095E+03  0.57050039039E+03  0.12699999809E+01 0. -1.
       -4    1    3    3    0  502 -0.11378568559E+03  0.15491033763E+03  0.49287118259E+03  0.52902552913E+03  0.12699999809E+01 0.  1.
</event>
<event>
 5   0  0.3241189E-03  0.1094536E+04  0.7818609E-02  0.9210534E-01
        1   -1    0    0  501    0  0.00000000000E+00  0.00000000000E+00  0.13545933550E+04  0.13545933550E+04  0.50400001928E-02 0.  1.
       -1   -1    0    0    0  501  0.00000000000E+00  0.00000000000E+00 -0.22110128537E+03  0.22110128542E+03  0.50400001928E-02 0. -1.
    10030    2    1    2    0    0  0.00000000000E+00  0.00000000000E+00  0.11334920696E+04  0.15756946404E+04  0.10945361246E+04 0.  0.
        5    1    3    3  502    0  0.35177508114E+03  0.10567650743E+03 -0.17254637903E+02  0.36774045801E+03  0.46999998093E+01 0. -1.
       -5    1    3    3    0  502 -0.35177508114E+03 -0.10567650743E+03  0.11507467075E+04  0.12079541824E+04  0.46999998093E+01 0.  1.
</event>
<event>
 5   0  0.5500363E-03  0.1081037E+04  0.7818609E-02  0.9223874E-01
        2   -1    0    0  501    0  0.00000000000E+00  0.00000000000E+00  0.10756255622E+04  0.10756255622E+04  0.25500000920E-02 0. -1.
       -2   -1    0    0    0  501  0.00000000000E+00  0.00000000000E+00 -0.27161914145E+03  0.27161914146E+03  0.25500000920E-02 0.  1.
    10030    2    1    2    0    0  0.00000000000E+00  0.00000000000E+00  0.80400642071E+03  0.13472447036E+04  0.10810374493E+04 0.  0.
        3    1    3    3  502    0  0.59098455207E+02 -0.24444063646E+03  0.99827521193E+03  0.10294645507E+04  0.10100000352E+00 0. -1.
       -3    1    3    3    0  502 -0.59098455207E+02  0.24444063646E+03 -0.19426879121E+03  0.31778015294E+03  0.10100000352E+00 0.  1.
</event>
<event>
 5   0  0.5500363E-03  0.1098301E+04  0.7818609E-02  0.9206849E-01
       -2   -1    0    0    0  501  0.00000000000E+00  0.00000000000E+00  0.23585580295E+03  0.23585580296E+03  0.25500000920E-02 0. -1.
        2   -1    0    0  501    0  0.00000000000E+00  0.00000000000E+00 -0.12786054558E+04  0.12786054558E+04  0.25500000920E-02 0.  1.
    10030    2    1    2    0    0  0.00000000000E+00  0.00000000000E+00 -0.10427496529E+04  0.15144612588E+04  0.10983014458E+04 0.  0.
        3    1    3    3  502    0  0.21450717873E+03 -0.35835819581E+03 -0.29714638076E+02  0.41870860530E+03  0.10100000352E+00 0. -1.
       -3    1    3    3    0  502 -0.21450717873E+03  0.35835819581E+03 -0.10130350148E+04  0.10957526535E+04  0.10100000352E+00 0.  1.
</event>
<event>
 5   0  0.2185750E-03  0.1128589E+04  0.7818609E-02  0.9177766E-01
        3   -1    0    0  501    0  0.00000000000E+00  0.00000000000E+00  0.60712721279E+03  0.60712722119E+03  0.10100000352E+00 0.  1.
       -3   -1    0    0    0  501  0.00000000000E+00  0.00000000000E+00 -0.52448390505E+03  0.52448391478E+03  0.10100000352E+00 0. -1.
    10030    2    1    2    0    0  0.00000000000E+00  0.00000000000E+00  0.82643307732E+02  0.11316111360E+04  0.11285893171E+04 0.  0.
        4    1    3    3  502    0  0.13649727850E+03  0.93652503024E+02  0.58223299972E+03  0.60530915839E+03  0.12699999809E+01 0.  1.
       -4    1    3    3    0  502 -0.13649727850E+03 -0.93652503024E+02 -0.49958969199E+03  0.52630197758E+03  0.12699999809E+01 0. -1.
</event>
<event>
 5   0  0.3241189E-03  0.1082470E+04  0.7818609E-02  0.9222448E-01
        1   -1    0    0  501    0  0.00000000000E+00  0.00000000000E+00  0.61544292922E+03  0.61544292924E+03  0.50400001928E-02 0. -1.
       -1   -1    0    0    0  501  0.00000000000E+00  0.00000000000E+00 -0.47597503416E+03  0.47597503419E+03  0.50400001928E-02 0.  1.
    10030    2    1    2    0    0  0.00000000000E+00  0.00000000000E+00  0.13946789506E+03  0.10914179634E+04  0.10824702662E+04 0.  0.
        5    1    3    3  502    0 -0.16275992138E+03 -0.30032922210E+03  0.49299549394E+03  0.59979586586E+03  0.46999998093E+01 0. -1.
       -5    1    3    3    0  502  0.16275992138E+03  0.30032922210E+03 -0.35352759888E+03  0.49162209757E+03  0.46999998093E+01 0.  1.
</event>
<event>
 5   0  0.5500363E-03  0.1073485E+04  0.7818609E-02  0.9231428E-01
        2   -1    0    0  501    0  0.00000000000E+00  0.00000000000E+00  0.12720888130E+04  0.12720888130E+04  0.25500000920E-02 0. -1.
       -2   -1    0    0    0  501  0.00000000000E+00  0.00000000000E+00 -0.22647193823E+03  0.22647193824E+03  0.25500000920E-02 0.  1.
    10030    2    1    2    0    0  0.00000000000E+00  0.00000000000E+00  0.10456168748E+04  0.14985607512E+04  0.10734848282E+04 0.  0.
        3    1    3    3  502    0  0.12060112397E+03 -0.51130046762E+03  0.67649035050E+03  0.85651153163E+03  0.10100000352E+00 0. -1.
       -3    1    3    3    0  502 -0.12060112397E+03  0.51130046762E+03  0.36912652428E+03  0.64204921962E+03  0.10100000352E+00 0.  1.
</event>
<event>
 5   0  0.2185750E-03  0.1014248E+04  0.7818609E-02  0.9293055E-01
        3   -1    0    0  501    0  0.00000000000E+00  0.00000000000E+00  0.53255053820E+03  0.53255054778E+03  0.10100000352E+00 0. -1.
       -3   -1    0    0    0  501  0.00000000000E+00  0.00000000000E+00 -0.48291129569E+03  0.48291130626E+03  0.10100000352E+00 0.  1.
    10030    2    1    2    0    0  0.00000000000E+00  0.00000000000E+00  0.49639242507E+02  0.10154618540E+04  0.10142478605E+04 0.  0.
        1    1    3    3  502    0 -0.16511697279E+03 -0.21914111134E+03  0.45181367077E+03  0.52860385404E+03  0.50400001928E-02 0. -1.
       -1    1    3    3    0  502  0.16511697279E+03  0.21914111134E+03 -0.40217442827E+03  0.48685799999E+03  0.50400001928E-02 0.  1.
</event>
<event>
 5   0  0.5627232E-03  0.1042460E+04  0.7818609E-02  0.9263163E-01
       -2   -1    0    0    0  501  0.00000000000E+00  0.00000000000E+00  0.46442107462E+03  0.46442107463E+03  0.25500000920E-02 0.  1.
        2   -1    0    0  501    0  0.00000000000E+00  0.00000000000E+00 -0.58498781338E+03  0.58498781339E+03  0.25500000920E-02 0. -1.
    10030    2    1    2    0    0  0.00000000000E+00  0.00000000000E+00 -0.12056673876E+03  0.10494088880E+04  0.10424599157E+04 0.  0.
        2    1    3    3  502    0  0.79162755731E+02 -0.23942417588E+03  0.39892624190E+03  0.47194578542E+03  0.25500000920E-02 0.  1.
       -2    1    3    3    0  502 -0.79162755731E+02  0.23942417588E+03 -0.51949298067E+03  0.57746310259E+03  0.25500000920E-02 0. -1.
</event>
<event>
 5   0  0.5723194E-03  0.1105488E+04  0.7818609E-02  0.9199860E-01
       -2   -1    0    0    0  501  0.00000000000E+00  0.00000000000E+00  0.41710673264E+03  0.41710673265E+03  0.25500000920E-02 0.  1.
        2   -1    0    0  501    0  0.00000000000E+00  0.00000000000E+00 -0.73248821581E+03  0.73248821581E+03  0.25500000920E-02 0. -1.
    10030    2    1    2    0    0  0.00000000000E+00  0.00000000000E+00 -0.31538148317E+03  0.11495949485E+04  0.11054877049E+04 0.  0.
        1    1    3    3  502    0  0.44897492584E+03 -0.31575947805E+03 -0.22542984435E+03  0.59338111426E+03  0.50400001928E-02 0. -1.
       -1    1    3    3    0  502 -0.44897492584E+03  0.31575947805E+03 -0.89951638817E+02  0.55621383420E+03  0.50400001928E-02 0.  1.
</event>
<event>
 5   0  0.3215352E-03  0.1105797E+04  0.7818609E-02  0.9199561E-01
       -1   -1    0    0    0  501  0.00000000000E+00  0.00000000000E+00  0.23895907169E+03  0.23895907174E+03  0.50400001928E-02 0. -1.
        1   -1    0    0  501    0  0.00000000000E+00  0.00000000000E+00 -0.12792838961E+04  0.12792838961E+04  0.50400001928E-02 0.  1.
    10030    2    1    2    0    0  0.00000000000E+00  0.00000000000E+00 -0.10403248244E+04  0.15182429679E+04  0.11057965315E+04 0.  0.
        1    1    3    3  502    0 -0.28778243054E+03 -0.25609310042E+03 -0.10646929694E+04  0.11322426960E+04  0.50400001928E-02 0.  1.
       -1    1    3    3    0  502  0.28778243054E+03  0.25609310042E+03  0.24368144982E+02  0.38600027192E+03  0.50400001928E-02 0. -1.
</event>
<event>
 5   0  0.5946359E-03  0.1096156E+04  0.7818609E-02  0.9208947E-01
       -2   -1    0    0    0  501  0.00000000000E+00  0.00000000000E+00  0.13877547817E+04  0.13877547817E+04  0.25500000920E-02 0.  1.
        2   -1    0    0  501    0  0.00000000000E+00  0.00000000000E+00 -0.21645700851E+03  0.21645700852E+03  0.25500000920E-02 0. -1.
    10030    2    1    2    0    0  0.00000000000E+00  0.00000000000E+00  0.11712977732E+04  0.16042117902E+04  0.10961555521E+04 0.  0.
        4    1    3    3  502    0 -0.36523147607E+03 -0.93757702952E+02  0.35496798340E+01  0.37709249675E+03  0.12699999809E+01 0. -1.
       -4    1    3    3    0  502  0.36523147607E+03  0.93757702952E+02  0.11677480934E+04  0.12271192935E+04  0.12699999809E+01 0.  1.
</event>
<event>
 5   0  0.5946359E-03  0.1091569E+04  0.7818609E-02  0.9213449E-01
       -2   -1    0    0    0  501  0.00000000000E+00  0.00000000000E+00  0.77985182207E+03  0.77985182208E+03  0.25500000920E-02 0.  1.
        2   -1    0    0  501    0  0.00000000000E+00  0.00000000000E+00 -0.38197061224E+03  0.38197061224E+03  0.25500000920E-02 0. -1.
    10030    2    1    2    0    0  0.00000000000E+00  0.00000000000E+00  0.39788120984E+03  0.11618224343E+04  0.10915685557E+04 0.  0.
        4    1    3    3  502    0  0.38727784066E+03 -0.36763888108E+03  0.78821536539E+02  0.53977487925E+03  0.12699999809E+01 0.  1.
       -4    1    3    3    0  502 -0.38727784066E+03  0.36763888108E+03  0.31905967330E+03  0.62204755507E+03  0.12699999809E+01 0. -1.
</event>
<event>
 5   0  0.5941585E-03  0.1047726E+04  0.7818609E-02  0.9257695E-01
       -2   -1    0    0    0  501  0.00000000000E+00  0.00000000000E+00  0.47040868785E+03  0.47040868785E+03  0.25500000920E-02 0.  1.
        2   -1    0    0  501    0  0.00000000000E+00  0.00000000000E+00 -0.58339155026E+03  0.58339155027E+03  0.25500000920E-02 0. -1.
    10030    2    1    2    0    0  0.00000000000E+00  0.00000000000E+00 -0.11298286242E+03  0.10538002381E+04  0.10477260208E+04 0.  0.
        5    1    3    3  502    0 -0.40085317151E+03 -0.33623317468E+03 -0.82610248195E+02  0.52970043984E+03  0.46999998093E+01 0.  1.
       -5    1    3    3    0  502  0.40085317151E+03  0.33623317468E+03 -0.30372614221E+02  0.52409979828E+03  0.46999998093E+01 0. -1.
</event>
<event>
 5   0  0.3316784E-03  0.1107510E+04  0.7818609E-02  0.9197903E-01
        1   -1    0    0  501    0  0.00000000000E+00  0.00000000000E+00  0.37691637777E+03  0.37691637781E+03  0.50400001928E-02 0.  1.
       -1   -1    0    0    0  501  0.00000000000E+00  0.00000000000E+00 -0.81356177787E+03  0.81356177789E+03  0.50400001928E-02 0. -1.
    10030    2    1    2    0    0  0.00000000000E+00  0.00000000000E+00 -0.43664540010E+03  0.11904781557E+04  0.11075102861E+04 0.  0.
        4    1    3    3  502    0  0.32515418758E+03 -0.82192231624E+02 -0.69197119062E+03  0.76896459619E+03  0.12699999809E+01 0. -1.
       -4    1    3    3    0  502 -0.32515418758E+03  0.82192231624E+02  0.25532579052E+03  0.42151355951E+03  0.12699999809E+01 0.  1.
</event>
<event>
 5   0  0.3320192E-03  0.1098910E+04  0.7818609E-02  0.9206255E-01
       -1   -1    0    0    0  501  0.00000000000E+00  0.00000000000E+00  0.90013057621E+03  0.90013057623E+03  0.50400001928E-02 0. -1.
        1   -1    0    0  501    0  0.00000000000E+00  0.00000000000E+00 -0.33539677325E+03  0.33539677329E+03  0.50400001928E-02 0.  1.
    10030    2    1    2    0    0  0.00000000000E+00  0.00000000000E+00  0.56473380296E+03  0.12355273495E+04  0.10989101707E+04 0.  0.
        2    1    3    3  502    0 -0.65148450080E+02  0.47523352559E+03  0.58365475616E+03  0.75547607426E+03  0.25500000920E-02 0. -1.
       -2    1    3    3    0  502  0.65148450080E+02 -0.47523352559E+03 -0.18920953192E+02  0.48005127525E+03  0.25500000920E-02 0.  1.
</event>
<event>
 5   0  0.5500363E-03  0.1099699E+04  0.7818609E-02  0.9205486E-01
        2   -1    0    0  501    0  0.00000000000E+00  0.00000000000E+00  0.32982067672E+03  0.32982067673E+03  0.25500000920E-02 0. -1.
       -2   -1    0    0    0  501  0.00000000000E+00  0.00000000000E+00 -0.91666251764E+03  0.91666251765E+03  0.25500000920E-02 0.  1.
    10030    2    1    2    0    0  0.00000000000E+00  0.00000000000E+00 -0.58684184093E+03  0.12464831944E+04  0.10996985985E+04 0.  0.
        3    1    3    3  502    0  0.15098852287E+02  0.45256916903E+03  0.60121136867E+02  0.45679469064E+03  0.10100000352E+00 0. -1.
       -3    1    3    3    0  502 -0.15098852287E+02 -0.45256916903E+03 -0.64696297780E+03  0.78968850374E+03  0.10100000352E+00 0.  1.
</event>
<event>
 5   0  0.5723194E-03  0.1101503E+04  0.7818609E-02  0.9203728E-01
       -2   -1    0    0    0  501  0.00000000000E+00  0.00000000000E+00  0.48273384032E+03  0.48273384033E+03  0.25500000920E-02 0.  1.
        2   -1    0    0  501    0  0.00000000000E+00  0.00000000000E+00 -0.62835333259E+03  0.62835333259E+03  0.25500000920E-02 0. -1.
    10030    2    1    2    0    0  0.00000000000E+00  0.00000000000E+00 -0.14561949227E+03  0.11110871729E+04  0.11015033678E+04 0.  0.
        1    1    3    3  502    0  0.48108664670E+03 -0.35771333347E+01  0.19760907293E+03  0.52010239688E+03  0.50400001928E-02 0.  1.
       -1    1    3    3    0  502 -0.48108664670E+03  0.35771333347E+01 -0.34322856520E+03  0.59098477604E+03  0.50400001928E-02 0. -1.
</event>
<event>
 5   0  0.5946359E-03  0.1108236E+04  0.7818609E-02  0.9197202E-01
        2   -1    0    0  501    0  0.00000000000E+00  0.00000000000E+00  0.26782389136E+03  0.26782389137E+03  0.25500000920E-02 0.  1.
       -2   -1    0    0    0  501  0.00000000000E+00  0.00000000000E+00 -0.11464495191E+04  0.11464495191E+04  0.25500000920E-02 0. -1.
    10030    2    1    2    0    0  0.00000000000E+00  0.00000000000E+00 -0.87862562778E+03  0.14142734105E+04  0.11082356635E+04 0.  0.
        4    1    3    3  502    0  0.12097458417E+03 -0.24146681215E+03 -0.10567681768E+04  0.10907344607E+04  0.12699999809E+01 0. -1.
       -4    1    3    3    0  502 -0.12097458417E+03  0.24146681215E+03  0.17814254900E+03  0.32353894982E+03  0.12699999809E+01 0.  1.
</event>
<event>
 5   0  0.3328741E-03  0.1092490E+04  0.7818609E-02  0.9212543E-01
        1   -1    0    0  501    0  0.00000000000E+00  0.00000000000E+00  0.24045809872E+03  0.24045809878E+03  0.50400001928E-02 0. -1.
       -1   -1    0    0    0  501  0.00000000000E+00  0.00000000000E+00 -0.12408955373E+04  0.12408955373E+04  0.50400001928E-02 0.  1.
    10030    2    1    2    0    0  0.00000000000E+00  0.00000000000E+00 -0.10004374385E+04  0.14813536360E+04  0.10924896002E+04 0.  0.
        3    1    3    3  502    0  0.25345160767E+02  0.51902287101E+03 -0.27188720201E+03  0.58647231702E+03  0.10100000352E+00 0. -1.
       -3    1    3    3    0  502 -0.25345160767E+02 -0.51902287101E+03 -0.72855023653E+03  0.89488131903E+03  0.10100000352E+00 0.  1.
</event>
<event>
 5   0  0.3215352E-03  0.1104860E+04  0.7818609E-02  0.9200468E-01
       -1   -1    0    0    0  501  0.00000000000E+00  0.00000000000E+00  0.71670518050E+03  0.71670518051E+03  0.50400001928E-02 0.  1.
        1   -1    0    0  501    0  0.00000000000E+00  0.00000000000E+00 -0.42580813391E+03  0.42580813394E+03  0.50400001928E-02 0. -1.
    10030    2    1    2    0    0  0.00000000000E+00  0.00000000000E+00  0.29089704658E+03  0.11425133145E+04  0.11048599830E+04 0.  0.
        1    1    3    3  502    0 -0.33338448669E+03 -0.13031537797E+03 -0.28966635253E+03  0.46047139924E+03  0.50400001928E-02 0. -1.
       -1    1    3    3    0  502  0.33338448669E+03  0.13031537797E+03  0.58056339911E+03  0.68204191522E+03  0.50400001928E-02 0.  1.
</event>
<event>
 5   0  0.3320192E-03  0.1083740E+04  0.7818609E-02  0.9221186E-01
        1   -1    0    0  501    0  0.00000000000E+00  0.00000000000E+00  0.65751505362E+03  0.65751505363E+03  0.50400001928E-02 0. -1.
       -1   -1    0    0    0  501  0.00000000000E+00  0.00000000000E+00 -0.44656499711E+03  0.44656499714E+03  0.50400001928E-02 0.  1.
    10030    2    1    2    0    0  0.00000000000E+00  0.00000000000E+00  0.21095005650E+03  0.11040800508E+04  0.10837402051E+04 0.  0.
        2    1    3    3  502    0 -0.13404991738E+03 -0.52089641090E+03  0.38508884855E+02  0.53924519976E+03  0.25500000920E-02 0.  1.
       -2    1    3    3    0  502  0.13404991738E+03  0.52089641090E+03  0.17244117165E+03  0.56483485102E+03  0.25500000920E-02 0. -1.
</event>
<event>
 5   0  0.5723194E-03  0.1082452E+04  0.7818609E-02  0.9222466E-01
        2   -1    0    0  501    0  0.00000000000E+00  0.00000000000E+00  0.73673664671E+03  0.73673664671E+03  0.25500000920E-02 0.  1.
       -2   -1    0    0    0  501  0.00000000000E+00  0.00000000000E+00 -0.39759884355E+03  0.39759884356E+03  0.25500000920E-02 0. -1.
    10030    2    1    2    0    0  0.00000000000E+00  0.00000000000E+00  0.33913780316E+03  0.11343354903E+04  0.10824521029E+04 0.  0.
        1    1    3    3  502    0 -0.20730160913E+03 -0.41392639679E+03 -0.12425695754E+03  0.47932119777E+03  0.50400001928E-02 0. -1.
       -1    1    3    3    0  502  0.20730160913E+03  0.41392639679E+03  0.46339476070E+03  0.65501429250E+03  0.50400001928E-02 0.  1.
</event>
<event>
 5   0  0.5946359E-03  0.1085178E+04  0.7818609E-02  0.9219760E-01
        2   -1    0    0  501    0  0.00000000000E+00  0.00000000000E+00  0.25161702218E+04  0.25161702218E+04  0.25500000920E-02 0.  1.
       -2   -1    0    0    0  501  0.00000000000E+00  0.00000000000E+00 -0.11700432373E+03  0.11700432376E+03  0.25500000920E-02 0. -1.
    10030    2    1    2    0    0  0.00000000000E+00  0.00000000000E+00  0.23991658981E+04  0.26331745456E+04  0.10851779490E+04 0.  0.
        4    1    3    3  502    0  0.27904135268E+03  0.30709141404E+03  0.35124070767E+03  0.54363669919E+03  0.12699999809E+01 0. -1.
       -4    1    3    3    0  502 -0.27904135268E+03 -0.30709141404E+03  0.20479251904E+04  0.20895378464E+04  0.12699999809E+01 0.  1.
</event>
<event>
 5   0  0.3241189E-03  0.1216599E+04  0.7818609E-02  0.9098450E-01
        1   -1    0    0  501    0  0.00000000000E+00  0.00000000000E+00  0.19689012044E+04  0.19689012044E+04  0.50400001928E-02 0. -1.
       -1   -1    0    0    0  501  0.00000000000E+00  0.00000000000E+00 -0.18793647281E+03  0.18793647288E+03  0.50400001928E-02 0.  1.
    10030    2    1    2    0    0  0.00000000000E+00  0.00000000000E+00  0.17809647316E+04  0.21568376773E+04  0.12165991086E+04 0.  0.
        5    1    3    3  502    0 -0.34019842523E+03 -0.39348666852E+03  0.33143384710E+03  0.61679592398E+03  0.46999998093E+01 0.  1.
       -5    1    3    3    0  502  0.34019842523E+03  0.39348666852E+03  0.14495308845E+04  0.15400417533E+04  0.46999998093E+01 0. -1.
</event>
<event>
 5   0  0.5723194E-03  0.1107058E+04  0.7818609E-02  0.9198340E-01
       -2   -1    0    0    0  501  0.00000000000E+00  0.00000000000E+00  0.89457064424E+03  0.89457064425E+03  0.25500000920E-02 0. -1.
        2   -1    0    0  501    0  0.00000000000E+00  0.00000000000E+00 -0.34250444502E+03  0.34250444502E+03  0.25500000920E-02 0.  1.
    10030    2    1    2    0    0  0.00000000000E+00  0.00000000000E+00  0.55206619923E+03  0.12370750893E+04  0.11070581232E+04 0.  0.
        1    1    3    3  502    0  0.98563015684E+02  0.43385961474E+03 -0.91953144131E+02  0.45431730553E+03  0.50400001928E-02 0.  1.
       -1    1    3    3    0  502 -0.98563015684E+02 -0.43385961474E+03  0.64401934336E+03  0.78275778374E+03  0.50400001928E-02 0. -1.
</event>
<event>
 5   0  0.3328741E-03  0.1231326E+04  0.7818609E-02  0.9085870E-01
        1   -1    0    0  501    0  0.00000000000E+00  0.00000000000E+00  0.75281589524E+03  0.75281589526E+03  0.50400001928E-02 0.  1.
       -1   -1    0    0    0  501  0.00000000000E+00  0.00000000000E+00 -0.50349741315E+03  0.50349741318E+03  0.50400001928E-02 0. -1.
    10030    2    1    2    0    0  0.00000000000E+00  0.00000000000E+00  0.24931848209E+03  0.12563133084E+04  0.12313258803E+04 0.  0.
        3    1    3    3  502    0 -0.49656832931E+03  0.17410392196E+03 -0.20143346618E+03  0.56344275026E+03  0.10100000352E+00 0. -1.
       -3    1    3    3    0  502  0.49656832931E+03 -0.17410392196E+03  0.45075194827E+03  0.69287055818E+03  0.10100000352E+00 0.  1.
</event>
<event>
 5   0  0.3241189E-03  0.1107063E+04  0.7818609E-02  0.9198335E-01
        1   -1    0    0  501    0  0.00000000000E+00  0.00000000000E+00  0.17900672407E+04  0.17900672407E+04  0.50400001928E-02 0. -1.
       -1   -1    0    0    0  501  0.00000000000E+00  0.00000000000E+00 -0.17116500566E+03  0.17116500574E+03  0.50400001928E-02 0.  1.
    10030    2    1    2    0    0  0.00000000000E+00  0.00000000000E+00  0.16189022351E+04  0.19612322465E+04  0.11070625447E+04 0.  0.
        5    1    3    3  502    0 -0.31679272423E+03  0.26087373526E+03  0.15143477912E+03  0.43745550425E+03  0.46999998093E+01 0.  1.
       -5    1    3    3    0  502  0.31679272423E+03 -0.26087373526E+03  0.14674674559E+04  0.15237767422E+04  0.46999998093E+01 0. -1.
</event>
<event>
 5   0  0.3241189E-03  0.1106558E+04  0.7818609E-02  0.9198824E-01
       -1   -1    0    0    0  501  0.00000000000E+00  0.00000000000E+00  0.58042162102E+03  0.58042162104E+03  0.50400001928E-02 0.  1.
        1   -1    0    0  501    0  0.00000000000E+00  0.00000000000E+00 -0.52740543241E+03  0.52740543244E+03  0.50400001928E-02 0. -1.
    10030    2    1    2    0    0  0.00000000000E+00  0.00000000000E+00  0.53016188603E+02  0.11078270535E+04  0.11065577546E+04 0.  0.
        5    1    3    3  502    0  0.81528765502E+01  0.53743363306E+03 -0.10476838822E+03  0.54763115736E+03  0.46999998093E+01 0. -1.
       -5    1    3    3    0  502 -0.81528765502E+01 -0.53743363306E+03  0.15778457683E+03  0.56019589612E+03  0.46999998093E+01 0.  1.
</event>
<event>
 5   0  0.2185750E-03  0.1101210E+04  0.7818609E-02  0.9204014E-01
        4   -1    0    0  501    0  0.00000000000E+00  0.00000000000E+00  0.37543721247E+03  0.37543936049E+03  0.12699999809E+01 0.  1.
       -4   -1    0    0    0  501  0.00000000000E+00  0.00000000000E+00 -0.80749540809E+03  0.80749640679E+03  0.12699999809E+01 0. -1.
    10030    2    1    2    0    0  0.00000000000E+00  0.00000000000E+00 -0.43205819562E+03  0.11829357673E+04  0.11012096735E+04 0.  0.
        4    1    3    3  502    0  0.31911461324E+01  0.54961236929E+03 -0.25133358121E+03  0.60436257482E+03  0.12699999809E+01 0. -1.
       -4    1    3    3    0  502 -0.31911461324E+01 -0.54961236929E+03 -0.18072461440E+03  0.57857319247E+03  0.12699999809E+01 0.  1.
</event>
<event>
 5   0  0.5941585E-03  0.1076428E+04  0.7818609E-02  0.9228476E-01
        2   -1    0    0  501    0  0.00000000000E+00  0.00000000000E+00  0.85587581106E+03  0.85587581106E+03  0.25500000920E-02 0. -1.
       -2   -1    0    0    0  501  0.00000000000E+00  0.00000000000E+00 -0.33845349389E+03  0.33845349390E+03  0.25500000920E-02 0.  1.
    10030    2    1    2    0    0  0.00000000000E+00  0.00000000000E+00  0.51742231717E+03  0.11943293050E+04  0.10764277191E+04 0.  0.
        5    1    3    3  502    0 -0.19672756911E+02  0.12642119435E+03  0.83873428764E+03  0.84844954535E+03  0.46999998093E+01 0. -1.
       -5    1    3    3    0  502  0.19672756911E+02 -0.12642119435E+03 -0.32131197047E+03  0.34587975962E+03  0.46999998093E+01 0.  1.
</event>
<event>
 5   0  0.5946359E-03  0.1080575E+04  0.7818609E-02  0.9224334E-01
        2   -1    0    0  501    0  0.00000000000E+00  0.00000000000E+00  0.12403047854E+04  0.12403047854E+04  0.25500000920E-02 0. -1.
       -2   -1    0    0    0  501  0.00000000000E+00  0.00000000000E+00 -0.23535394142E+03  0.23535394143E+03  0.25500000920E-02 0.  1.
    10030    2    1    2    0    0  0.00000000000E+00  0.00000000000E+00  0.10049508440E+04  0.14756587269E+04  0.10805750688E+04 0.  0.
        4    1    3    3  502    0 -0.39395457537E+02  0.32628380405E+03 -0.83146049935E+02  0.33901032636E+03  0.12699999809E+01 0.  1.
       -4    1    3    3    0  502  0.39395457537E+02 -0.32628380405E+03  0.10880968940E+04  0.11366484005E+04  0.12699999809E+01 0. -1.
</event>
<event>
 5   0  0.3215352E-03  0.1096876E+04  0.7818609E-02  0.9208242E-01
       -1   -1    0    0    0  501  0.00000000000E+00  0.00000000000E+00  0.44044380217E+03  0.44044380220E+03  0.50400001928E-02 0. -1.
        1   -1    0    0  501    0  0.00000000000E+00  0.00000000000E+00 -0.68291129149E+03  0.68291129151E+03  0.50400001928E-02 0.  1.
    10030    2    1    2    0    0  0.00000000000E+00  0.00000000000E+00 -0.24246748932E+03  0.11233550937E+04  0.10968756462E+04 0.  0.
        1    1    3    3  502    0 -0.20776970879E+03 -0.22354413752E+03 -0.58791371543E+03  0.66240680109E+03  0.50400001928E-02 0.  1.
       -1    1    3    3    0  502  0.20776970879E+03  0.22354413752E+03  0.34544622611E+03  0.46094829262E+03  0.50400001928E-02 0. -1.
</event>
<event>
 5   0  0.5941585E-03  0.1107433E+04  0.7818609E-02  0.9197977E-01
       -2   -1    0    0    0  501  0.00000000000E+00  0.00000000000E+00  0.32061968935E+03  0.32061968936E+03  0.25500000920E-02 0. -1.
        2   -1    0    0  501    0  0.00000000000E+00  0.00000000000E+00 -0.95628010490E+03  0.95628010490E+03  0.25500000920E-02 0.  1.
    10030    2    1    2    0    0  0.00000000000E+00  0.00000000000E+00 -0.63566041554E+03  0.12768997943E+04  0.11074334836E+04 0.  0.
        5    1    3    3  502    0  0.17960433010E+03 -0.14524178326E+03  0.26239205072E+03  0.34960630612E+03  0.46999998093E+01 0. -1.
       -5    1    3    3    0  502 -0.17960433010E+03  0.14524178326E+03 -0.89805246626E+03  0.92729348815E+03  0.46999998093E+01 0.  1.
</event>
<event>
 5   0  0.3241189E-03  0.1108094E+04  0.7818609E-02  0.9197339E-01
        1   -1    0    0  501    0  0.00000000000E+00  0.00000000000E+00  0.44363054679E+03  0.44363054682E+03  0.50400001928E-02 0. -1.
       -1   -1    0    0    0  501  0.00000000000E+00  0.00000000000E+00 -0.69194527388E+03  0.69194527389E+03  0.50400001928E-02 0.  1.
    10030    2    1    2    0    0  0.00000000000E+00  0.00000000000E+00 -0.24831472709E+03  0.11355758207E+04  0.11080939675E+04 0.  0.
        5    1    3    3  502    0  0.35199673167E+03 -0.12232152836E+03  0.29598819922E+03  0.47591528604E+03  0.46999998093E+01 0. -1.
       -5    1    3    3    0  502 -0.35199673167E+03  0.12232152836E+03 -0.54430292631E+03  0.65966053467E+03  0.46999998093E+01 0.  1.
</event>
<event>
 5   0  0.5500363E-03  0.1099992E+04  0.7818609E-02  0.9205200E-01
       -2   -1    0    0    0  501  0.00000000000E+00  0.00000000000E+00  0.53256548886E+03  0.53256548886E+03  0.25500000920E-02 0.  1.
        2   -1    0    0  501    0  0.00000000000E+00  0.00000000000E+00 -0.56799673637E+03  0.56799673637E+03  0.25500000920E-02 0. -1.
    10030    2    1    2    0    0  0.00000000000E+00  0.00000000000E+00 -0.35431247513E+02  0.11005622252E+04  0.10999917447E+04 0.  0.
        3    1    3    3  502    0  0.45300408161E+03  0.38857996954E+02 -0.32734794304E+03  0.56024934439E+03  0.10100000352E+00 0. -1.
       -3    1    3    3    0  502 -0.45300408161E+03 -0.38857996954E+02  0.29191669553E+03  0.54031288085E+03  0.10100000352E+00 0.  1.
</event>
<event>
 5   0  0.5941585E-03  0.1114998E+04  0.7818609E-02  0.9190696E-01
       -2   -1    0    0    0  501  0.00000000000E+00  0.00000000000E+00  0.33721610751E+03  0.33721610752E+03  0.25500000920E-02 0. -1.
        2   -1    0    0  501    0  0.00000000000E+00  0.00000000000E+00 -0.92167995589E+03  0.92167995589E+03  0.25500000920E-02 0.  1.
    10030    2    1    2    0    0  0.00000000000E+00  0.00000000000E+00 -0.58446384838E+03  0.12588960634E+04  0.11149983446E+04 0.  0.
        5    1    3    3  502    0  0.10753945181E+03 -0.10762572374E+03  0.31329948421E+03  0.34831980551E+03  0.46999998093E+01 0. -1.
       -5    1    3    3    0  502 -0.10753945181E+03  0.10762572374E+03 -0.89776333259E+03  0.91057625790E+03  0.46999998093E+01 0.  1.
</event>
<event>
 5   0  0.3316784E-03  0.1179141E+04  0.7818609E-02  0.9131313E-01
       -1   -1    0    0    0  501  0.00000000000E+00  0.00000000000E+00  0.26548880401E+03  0.26548880406E+03  0.50400001928E-02 0. -1.
        1   -1    0    0  501    0  0.00000000000E+00  0.00000000000E+00 -0.13092578341E+04  0.13092578341E+04  0.50400001928E-02 0.  1.
    10030    2    1    2    0    0  0.00000000000E+00  0.00000000000E+00 -0.10437690301E+04  0.15747466382E+04  0.11791408679E+04 0.  0.
        4    1    3    3  502    0  0.72075129822E+02  0.60853278570E+02 -0.12991127721E+04  0.13025335134E+04  0.12699999809E+01 0.  1.
       -4    1    3    3    0  502 -0.72075129822E+02 -0.60853278570E+02  0.25534374200E+03  0.27221312483E+03  0.12699999809E+01 0. -1.
</event>
<event>
 5   0  0.5500363E-03  0.1090874E+04  0.7818609E-02  0.9214133E-01
       -2   -1    0    0    0  501  0.00000000000E+00  0.00000000000E+00  0.21637738888E+03  0.21637738889E+03  0.25500000920E-02 0.  1.
        2   -1    0    0  501    0  0.00000000000E+00  0.00000000000E+00 -0.13749190678E+04  0.13749190678E+04  0.25500000920E-02 0. -1.
    10030    2    1    2    0    0  0.00000000000E+00  0.00000000000E+00 -0.11585416789E+04  0.15912964567E+04  0.10908737742E+04 0.  0.
        3    1    3    3  502    0 -0.34148927562E+03 -0.95540971131E+02 -0.11838254935E+04  0.12357935959E+04  0.10100000352E+00 0. -1.
       -3    1    3    3    0  502  0.34148927562E+03  0.95540971131E+02  0.25283814557E+02  0.35550286076E+03  0.10100000352E+00 0.  1.
</event>
<event>
 5   0  0.5627232E-03  0.1076780E+04  0.7818609E-02  0.9228124E-01
        2   -1    0    0  501    0  0.00000000000E+00  0.00000000000E+00  0.13543671562E+04  0.13543671562E+04  0.25500000920E-02 0.  1.
       -2   -1    0    0    0  501  0.00000000000E+00  0.00000000000E+00 -0.21402140076E+03  0.21402140078E+03  0.25500000920E-02 0. -1.
    10030    2    1    2    0    0  0.00000000000E+00  0.00000000000E+00  0.11403457554E+04  0.15683885570E+04  0.10767795614E+04 0.  0.
        2    1    3    3  502    0 -0.29734317264E+02  0.46753850936E+02  0.13502032556E+04  0.13513396626E+04  0.25500000920E-02 0.  1.
       -2    1    3    3    0  502  0.29734317264E+02 -0.46753850936E+02 -0.20985750014E+03  0.21704889443E+03  0.25500000920E-02 0. -1.
</event>
<event>
 5   0  0.5946359E-03  0.1102027E+04  0.7818609E-02  0.9203219E-01
       -2   -1    0    0    0  501  0.00000000000E+00  0.00000000000E+00  0.43653255943E+03  0.43653255944E+03  0.25500000920E-02 0. -1.
        2   -1    0    0  501    0  0.00000000000E+00  0.00000000000E+00 -0.69551699021E+03  0.69551699022E+03  0.25500000920E-02 0.  1.
    10030    2    1    2    0    0  0.00000000000E+00  0.00000000000E+00 -0.25898443078E+03  0.11320495497E+04  0.11020268815E+04 0.  0.
        4    1    3    3  502    0 -0.21325416410E+02  0.46637208768E+03 -0.43013681974E+03  0.63480468976E+03  0.12699999809E+01 0.  1.
       -4    1    3    3    0  502  0.21325416410E+02 -0.46637208768E+03  0.17115238895E+03  0.49724485989E+03  0.12699999809E+01 0. -1.
</event>
<event>
 5   0  0.5941585E-03  0.1088911E+04  0.7818609E-02  0.9216068E-01
       -2   -1    0    0    0  501  0.00000000000E+00  0.00000000000E+00  0.30699870102E+03  0.30699870103E+03  0.25500000920E-02 0. -1.
        2   -1    0    0  501    0  0.00000000000E+00  0.00000000000E+00 -0.96558036382E+03  0.96558036382E+03  0.25500000920E-02 0.  1.
    10030    2    1    2    0    0  0.00000000000E+00  0.00000000000E+00 -0.65858166280E+03  0.12725790649E+04  0.10889112313E+04 0.  0.
        5    1    3    3  502    0 -0.37670111262E+03 -0.34895448174E+02 -0.78684967366E+03  0.87308414228E+03  0.46999998093E+01 0.  1.
       -5    1    3    3    0  502  0.37670111262E+03  0.34895448174E+02  0.12826801087E+03  0.39949492258E+03  0.46999998093E+01 0. -1.
</event>
<event>
 5   0  0.5723194E-03  0.1125569E+04  0.7818609E-02  0.9180623E-01
       -2   -1    0    0    0  501  0.00000000000E+00  0.00000000000E+00  0.57199074410E+03  0.57199074411E+03  0.25500000920E-02 0.  1.
        2   -1    0    0  501    0  0.00000000000E+00  0.00000000000E+00 -0.55372655755E+03  0.55372655755E+03  0.25500000920E-02 0. -1.
    10030    2    1    2    0    0  0.00000000000E+00  0.00000000000E+00  0.18264186554E+02  0.11257173017E+04  0.11255691284E+04 0.  0.
        1    1    3    3  502    0 -0.55019867226E+03 -0.49244288484E+02 -0.98505895245E+02  0.56111227961E+03  0.50400001928E-02 0. -1.
       -1    1    3    3    0  502  0.55019867226E+03  0.49244288484E+02  0.11677008180E+03  0.56460502206E+03  0.50400001928E-02 0.  1.
</event>
<event>
 5   0  0.5723194E-03  0.1089443E+04  0.7818609E-02  0.9215543E-01
        2   -1    0    0  501    0  0.00000000000E+00  0.00000000000E+00  0.15304638234E+04  0.15304638234E+04  0.25500000920E-02 0.  1.
       -2   -1    0    0    0  501  0.00000000000E+00  0.00000000000E+00 -0.19387672232E+03  0.19387672233E+03  0.25500000920E-02 0. -1.
    10030    2    1    2    0    0  0.00000000000E+00  0.00000000000E+00  0.13365871011E+04  0.17243405457E+04  0.10894426276E+04 0.  0.
        1    1    3    3  502    0 -0.43170966621E+03  0.23385606026E+03  0.29488178133E+03  0.57272782175E+03  0.50400001928E-02 0. -1.
       -1    1    3    3    0  502  0.43170966621E+03 -0.23385606026E+03  0.10417053197E+04  0.11516127240E+04  0.50400001928E-02 0.  1.
</event>
<event>
 5   0  0.3215352E-03  0.1157509E+04  0.7818609E-02  0.9150884E-01
        1   -1    0    0  501    0  0.00000000000E+00  0.00000000000E+00  0.14002620657E+04  0.14002620657E+04  0.50400001928E-02 0. -1.
       -1   -1    0    0    0  501  0.00000000000E+00  0.00000000000E+00 -0.23920994799E+03  0.23920994804E+03  0.50400001928E-02 0.  1.
    10030    2    1    2    0    0  0.00000000000E+00  0.00000000000E+00  0.11610521177E+04  0.16394720137E+04  0.11575087316E+04 0.  0.
        1    1    3    3  502    0  0.49513261238E+03 -0.23262213767E+03  0.31295675265E+03  0.63024700858E+03  0.50400001928E-02 0. -1.
       -1    1    3    3    0  502 -0.49513261238E+03  0.23262213767E+03  0.84809536504E+03  0.10092250051E+04  0.50400001928E-02 0.  1.
</event>
<event>
 5   0  0.3320192E-03  0.1102242E+04  0.7818609E-02  0.9203010E-01
        1   -1    0    0  501    0  0.00000000000E+00  0.00000000000E+00  0.12497368313E+04  0.12497368314E+04  0.50400001928E-02 0. -1.
       -1   -1    0    0    0  501  0.00000000000E+00  0.00000000000E+00 -0.24303857777E+03  0.24303857783E+03  0.50400001928E-02 0.  1.
    10030    2    1    2    0    0  0.00000000000E+00  0.00000000000E+00  0.10066982536E+04  0.14927754092E+04  0.11022418285E+04 0.  0.
        2    1    3    3  502    0 -0.37561843116E+03 -0.56008436245E+02  0.10442391499E+04  0.11111532536E+04  0.25500000920E-02 0. -1.
       -2    1    3    3    0  502  0.37561843116E+03  0.56008436245E+02 -0.37540896305E+02  0.38162215562E+03  0.25500000920E-02 0.  1.
</event>
<event>
 5   0  0.5723194E-03  0.1157510E+04  0.7818609E-02  0.9150883E-01
       -2   -1    0    0    0  501  0.00000000000E+00  0.00000000000E+00  0.15048956656E+03  0.15048956658E+03  0.25500000920E-02 0.  1.
        2   -1    0    0  501    0  0.00000000000E+00  0.00000000000E+00 -0.22257838463E+04  0.22257838463E+04  0.25500000920E-02 0. -1.
    10030    2    1    2    0    0  0.00000000000E+00  0.00000000000E+00 -0.20752942797E+04  0.23762734129E+04  0.11575098208E+04 0.  0.
        1    1    3    3  502    0  0.18684850522E+03  0.90989915393E+02 -0.21465381306E+04  0.21565754044E+04  0.50400001928E-02 0. -1.
       -1    1    3    3    0  502 -0.18684850522E+03 -0.90989915393E+02  0.71243850899E+02  0.21969800847E+03  0.50400001928E-02 0.  1.
</event>
<event>
 5   0  0.3241189E-03  0.1141030E+04  0.7818609E-02  0.9166099E-01
        1   -1    0    0  501    0  0.00000000000E+00  0.00000000000E+00  0.10596264008E+04  0.10596264008E+04  0.50400001928E-02 0. -1.
       -1   -1    0    0    0  501  0.00000000000E+00  0.00000000000E+00 -0.30717163021E+03  0.30717163025E+03  0.50400001928E-02 0.  1.
    10030    2    1    2    0    0  0.00000000000E+00  0.00000000000E+00  0.75245477057E+03  0.13667980310E+04  0.11410296560E+04 0.  0.
        5    1    3    3  502    0  0.46429204365E+03  0.29948487314E+03  0.20595036007E+03  0.58965746993E+03  0.46999998093E+01 0.  1.
       -5    1    3    3    0  502 -0.46429204365E+03 -0.29948487314E+03  0.54650441050E+03  0.77714056112E+03  0.46999998093E+01 0. -1.
</event>
<event>
 5   0  0.5941585E-03  0.1100837E+04  0.7818609E-02  0.9204376E-01
        2   -1    0    0  501    0  0.00000000000E+00  0.00000000000E+00  0.13144188908E+04  0.13144188908E+04  0.25500000920E-02 0.  1.
       -2   -1    0    0    0  501  0.00000000000E+00  0.00000000000E+00 -0.23049017552E+03  0.23049017553E+03  0.25500000920E-02 0. -1.
    10030    2    1    2    0    0  0.00000000000E+00  0.00000000000E+00  0.10839287153E+04  0.15449090663E+04  0.11008372102E+04 0.  0.
        5    1    3    3  502    0 -0.16035678503E+03 -0.44101963351E+02 -0.19435560358E+03  0.25584267102E+03  0.46999998093E+01 0. -1.
       -5    1    3    3    0  502  0.16035678503E+03  0.44101963351E+02  0.12782843188E+04  0.12890663953E+04  0.46999998093E+01 0.  1.
</event>
<event>
 5   0  0.3328741E-03  0.1112874E+04  0.7818609E-02  0.9192734E-01
        1   -1    0    0  501    0  0.00000000000E+00  0.00000000000E+00  0.10288004423E+04  0.10288004424E+04  0.50400001928E-02 0.  1.
       -1   -1    0    0    0  501  0.00000000000E+00  0.00000000000E+00 -0.30095448664E+03  0.30095448668E+03  0.50400001928E-02 0. -1.
    10030    2    1    2    0    0  0.00000000000E+00  0.00000000000E+00  0.72784595571E+03  0.13297549290E+04  0.11128739534E+04 0.  0.
        3    1    3    3  502    0  0.32535216762E+03 -0.44514310755E+03  0.27438097730E+03  0.61586634108E+03  0.10100000352E+00 0.  1.
       -3    1    3    3    0  502 -0.32535216762E+03  0.44514310755E+03  0.45346497841E+03  0.71388858796E+03  0.10100000352E+00 0. -1.
</event>
<event>
 5   0  0.5627232E-03  0.1099221E+04  0.7818609E-02  0.9205952E-01
       -2   -1    0    0    0  501  0.00000000000E+00  0.00000000000E+00  0.19107446188E+03  0.19107446190E+03  0.25500000920E-02 0. -1.
        2   -1    0    0  501    0  0.00000000000E+00  0.00000000000E+00 -0.15809107566E+04  0.15809107566E+04  0.25500000920E-02 0.  1.
    10030    2    1    2    0    0  0.00000000000E+00  0.00000000000E+00 -0.13898362948E+04  0.17719852185E+04  0.10992209462E+04 0.  0.
        2    1    3    3  502    0 -0.20723791479E+03  0.47854585565E+02  0.12204300492E+03  0.24521849389E+03  0.25500000920E-02 0. -1.
       -2    1    3    3    0  502  0.20723791479E+03 -0.47854585565E+02 -0.15118792997E+04  0.15267667247E+04  0.25500000920E-02 0.  1.
</event>
<event>
 5   0  0.3316784E-03  0.1106990E+04  0.7818609E-02  0.9198406E-01
       -1   -1    0    0    0  501  0.00000000000E+00  0.00000000000E+00  0.19170868022E+04  0.19170868022E+04  0.50400001928E-02 0. -1.
        1   -1    0    0  501    0  0.00000000000E+00  0.00000000000E+00 -0.15980317126E+03  0.15980317134E+03  0.50400001928E-02 0.  1.
    10030    2    1    2    0    0  0.00000000000E+00  0.00000000000E+00  0.17572836309E+04  0.20768899735E+04  0.11069897030E+04 0.  0.
        4    1    3    3  502    0 -0.47605908660E+03 -0.17440412064E+03  0.12952418431E+04  0.13909356909E+04  0.12699999809E+01 0.  1.
       -4    1    3    3    0  502  0.47605908660E+03  0.17440412064E+03  0.46204178780E+03  0.68595428259E+03  0.12699999809E+01 0. -1.
</event>
<event>
 5   0  0.3241189E-03  0.1100739E+04  0.7818609E-02  0.9204472E-01
       -1   -1    0    0    0  501  0.00000000000E+00  0.00000000000E+00  0.80556765684E+03  0.80556765685E+03  0.50400001928E-02 0. -1.
        1   -1    0    0  501    0  0.00000000000E+00  0.00000000000E+00 -0.37601620891E+03  0.37601620894E+03  0.50400001928E-02 0.  1.
    10030    2    1    2    0    0  0.00000000000E+00  0.00000000000E+00  0.42955144793E+03  0.11815838658E+04  0.11007388362E+04 0.  0.
        5    1    3    3  502    0 -0.26576899548E+03  0.18560352797E+03  0.69219091764E+03  0.76435082587E+03  0.46999998093E+01 0. -1.
       -5    1    3    3    0  502  0.26576899548E+03 -0.18560352797E+03 -0.26263946971E+03  0.41723303992E+03  0.46999998093E+01 0.  1.
</event>
<event>
 5   0  0.3215352E-03  0.1100302E+04  0.7818609E-02  0.9204897E-01
        1   -1    0    0  501    0  0.00000000000E+00  0.00000000000E+00  0.63042255082E+03  0.63042255084E+03  0.50400001928E-02 0.  1.
       -1   -1    0    0    0  501  0.00000000000E+00  0.00000000000E+00 -0.48010069982E+03  0.48010069984E+03  0.50400001928E-02 0. -1.
    10030    2    1    2    0    0  0.00000000000E+00  0.00000000000E+00  0.15032185101E+03  0.11105232507E+04  0.11003023364E+04 0.  0.
        1    1    3    3  502    0 -0.15812215966E+03 -0.14796983970E+03  0.58559451776E+03  0.62435457082E+03  0.50400001928E-02 0.  1.
       -1    1    3    3    0  502  0.15812215966E+03  0.14796983970E+03 -0.43527266676E+03  0.48616867987E+03  0.50400001928E-02 0. -1.
</event>
<event>
 5   0  0.3320192E-03  0.1100134E+04  0.7818609E-02  0.9205061E-01
       -1   -1    0    0    0  501  0.00000000000E+00  0.00000000000E+00  0.16218831741E+03  0.16218831749E+03  0.50400001928E-02 0. -1.
        1   -1    0    0  501    0  0.00000000000E+00  0.00000000000E+00 -0.18655707185E+04  0.18655707185E+04  0.50400001928E-02 0.  1.
    10030    2    1    2    0    0  0.00000000000E+00  0.00000000000E+00 -0.17033824011E+04  0.20277590360E+04  0.11001341299E+04 0.  0.
        2    1    3    3  502    0 -0.86753416478E+02 -0.11209980158E+03  0.12794657686E+03  0.19095247398E+03  0.25500000920E-02 0. -1.
       -2    1    3    3    0  502  0.86753416478E+02  0.11209980158E+03 -0.18313289780E+04  0.18368065620E+04  0.25500000920E-02 0.  1.
</event>
<event>
 5   0  0.5500363E-03  0.1101095E+04  0.7818609E-02  0.9204125E-01
        2   -1    0    0  501    0  0.00000000000E+00  0.00000000000E+00  0.15481354968E+04  0.15481354968E+04  0.25500000920E-02 0. -1.
       -2   -1    0    0    0  501  0.00000000000E+00  0.00000000000E+00 -0.19578547038E+03  0.19578547040E+03  0.25500000920E-02 0.  1.
    10030    2    1    2    0    0  0.00000000000E+00  0.00000000000E+00  0.13523500264E+04  0.17439209672E+04  0.11010947942E+04 0.  0.
        3    1    3    3  502    0  0.28149048010E+03 -0.24972439095E+03  0.13126667098E+04  0.13655376462E+04  0.10100000352E+00 0. -1.
       -3    1    3    3    0  502 -0.28149048010E+03  0.24972439095E+03  0.39683316602E+02  0.37838332104E+03  0.10100000352E+00 0.  1.
</event>
<event>
 5   0  0.5723194E-03  0.1097983E+04  0.7818609E-02  0.9207160E-01
        2   -1    0    0  501    0  0.00000000000E+00  0.00000000000E+00  0.50018313084E+03  0.50018313085E+03  0.25500000920E-02 0. -1.
       -2   -1    0    0    0  501  0.00000000000E+00  0.00000000000E+00 -0.60256318173E+03  0.60256318174E+03  0.25500000920E-02 0.  1.
    10030    2    1    2    0    0  0.00000000000E+00  0.00000000000E+00 -0.10238005089E+03  0.11027463126E+04  0.10979834949E+04 0.  0.
        1    1    3    3  502    0  0.28257757597E+02  0.54643244820E+03 -0.62183694313E+01  0.54719794357E+03  0.50400001928E-02 0. -1.
       -1    1    3    3    0  502 -0.28257757597E+02 -0.54643244820E+03 -0.96161681464E+02  0.55554836901E+03  0.50400001928E-02 0.  1.
</event>
<event>
 5   0  0.3320192E-03  0.1106547E+04  0.7818609E-02  0.9198834E-01
       -1   -1    0    0    0  501  0.00000000000E+00  0.00000000000E+00  0.12297025107E+04  0.12297025107E+04  0.50400001928E-02 0. -1.
        1   -1    0    0  501    0  0.00000000000E+00  0.00000000000E+00 -0.24893131095E+03  0.24893131100E+03  0.50400001928E-02 0.  1.
    10030    2    1    2    0    0  0.00000000000E+00  0.00000000000E+00  0.98077119978E+03  0.14786338217E+04  0.11065468054E+04 0.  0.
        2    1    3    3  502    0  0.24680335492E+03 -0.43122520793E+03  0.16513774980E+03  0.52358146679E+03  0.25500000920E-02 0.  1.
       -2    1    3    3    0  502 -0.24680335492E+03  0.43122520793E+03  0.81563344998E+03  0.95505235495E+03  0.25500000920E-02 0. -1.
</event>
<event>
 5   0  0.3316784E-03  0.1093654E+04  0.7818609E-02  0.9211399E-01
       -1   -1    0    0    0  501  0.00000000000E+00  0.00000000000E+00  0.25582094342E+03  0.25582094347E+03  0.50400001928E-02 0. -1.
        1   -1    0    0  501    0  0.00000000000E+00  0.00000000000E+00 -0.11688640921E+04  0.11688640921E+04  0.50400001928E-02 0.  1.
    10030    2    1    2    0    0  0.00000000000E+00  0.00000000000E+00 -0.91304314863E+03  0.14246850355E+04  0.10936542686E+04 0.  0.
        4    1    3    3  502    0 -0.46732321644E+03 -0.23819078271E+03 -0.65787975714E+03  0.84138767839E+03  0.12699999809E+01 0. -1.
       -4    1    3    3    0  502  0.46732321644E+03  0.23819078271E+03 -0.25516339149E+03  0.58329735714E+03  0.12699999809E+01 0.  1.
</event>
<event>
 5   0  0.3328741E-03  0.1037463E+04  0.7818609E-02  0.9268384E-01
        1   -1    0    0  501    0  0.00000000000E+00  0.00000000000E+00  0.62402654965E+03  0.62402654967E+03  0.50400001928E-02 0.  1.
       -1   -1    0    0    0  501  0.00000000000E+00  0.00000000000E+00 -0.43120359038E+03  0.43120359041E+03  0.50400001928E-02 0. -1.
    10030    2    1    2    0    0  0.00000000000E+00  0.00000000000E+00  0.19282295927E+03  0.10552301401E+04  0.10374632306E+04 0.  0.
        3    1    3    3  502    0 -0.50990368683E+01 -0.17408960051E+03  0.59339903891E+03  0.61842996270E+03  0.10100000352E+00 0.  1.
       -3    1    3    3    0  502  0.50990368683E+01  0.17408960051E+03 -0.40057607964E+03  0.43680017738E+03  0.10100000352E+00 0. -1.
</event>
<event>
 5   0  0.3316784E-03  0.1123616E+04  0.7818609E-02  0.9182475E-01
        1   -1    0    0  501    0  0.00000000000E+00  0.00000000000E+00  0.13718616079E+04  0.13718616079E+04  0.50400001928E-02 0.  1.
       -1   -1    0    0    0  501  0.00000000000E+00  0.00000000000E+00 -0.23007294319E+03  0.23007294324E+03  0.50400001928E-02 0. -1.
    10030    2    1    2    0    0  0.00000000000E+00  0.00000000000E+00  0.11417886647E+04  0.16019345511E+04  0.11236160159E+04 0.  0.
        4    1    3    3  502    0 -0.83769408924E+02 -0.22576388107E+03 -0.15276384968E+03  0.28517547324E+03  0.12699999809E+01 0. -1.
       -4    1    3    3    0  502  0.83769408924E+02  0.22576388107E+03  0.12945525143E+04  0.13167590779E+04  0.12699999809E+01 0.  1.
</event>
<event>
 5   0  0.5627232E-03  0.1089436E+04  0.7818609E-02  0.9215550E-01
       -2   -1    0    0    0  501  0.00000000000E+00  0.00000000000E+00  0.73215435724E+03  0.73215435725E+03  0.25500000920E-02 0. -1.
        2   -1    0    0  501    0  0.00000000000E+00  0.00000000000E+00 -0.40526682888E+03  0.40526682888E+03  0.25500000920E-02 0.  1.
    10030    2    1    2    0    0  0.00000000000E+00  0.00000000000E+00  0.32688752837E+03  0.11374211861E+04  0.10894363214E+04 0.  0.
        2    1    3    3  502    0  0.85262638938E+02 -0.15352960761E+03 -0.37490001392E+03  0.41399405606E+03  0.25500000920E-02 0.  1.
       -2    1    3    3    0  502 -0.85262638938E+02  0.15352960761E+03  0.70178754228E+03  0.72342713007E+03  0.25500000920E-02 0. -1.
</event>
<event>
 5   0  0.5723194E-03  0.1088957E+04  0.7818609E-02  0.9216022E-01
       -2   -1    0    0    0  501  0.00000000000E+00  0.00000000000E+00  0.44559715561E+03  0.44559715562E+03  0.25500000920E-02 0.  1.
        2   -1    0    0  501    0  0.00000000000E+00  0.00000000000E+00 -0.66530246174E+03  0.66530246175E+03  0.25500000920E-02 0. -1.
    10030    2    1    2    0    0  0.00000000000E+00  0.00000000000E+00 -0.21970530613E+03  0.11108996174E+04  0.10889570875E+04 0.  0.
        1    1    3    3  502    0  0.30644133296E+02  0.52936117134E+03 -0.23601585844E+03  0.58040141117E+03  0.50400001928E-02 0. -1.
       -1    1    3    3    0  502 -0.30644133296E+02 -0.52936117134E+03  0.16310552314E+02  0.53049820619E+03  0.50400001928E-02 0.  1.
</event>
<event>
 5   0  0.2185750E-03  0.1110707E+04  0.7818609E-02  0.9194819E-01
       -3   -1    0    0    0  501  0.00000000000E+00  0.00000000000E+00  0.28021784355E+03  0.28021786175E+03  0.10100000352E+00 0.  1.
        3   -1    0    0  501    0  0.00000000000E+00  0.00000000000E+00 -0.11006342997E+04  0.11006343044E+04  0.10100000352E+00 0. -1.
    10030    2    1    2    0    0  0.00000000000E+00  0.00000000000E+00 -0.82041645619E+03  0.13808521661E+04  0.11107067764E+04 0.  0.
        5    1    3    3  502    0  0.73914119620E+02 -0.52995008267E+03 -0.59496295860E+03  0.80019585059E+03  0.46999998093E+01 0. -1.
       -5    1    3    3    0  502 -0.73914119620E+02  0.52995008267E+03 -0.22545349760E+03  0.58065631554E+03  0.46999998093E+01 0.  1.
</event>
<event>
 5   0  0.3215352E-03  0.8627568E+03  0.7818609E-02  0.9473373E-01
       -1   -1    0    0    0  501  0.00000000000E+00  0.00000000000E+00  0.27062172624E+03  0.27062172628E+03  0.50400001928E-02 0. -1.
        1   -1    0    0  501    0  0.00000000000E+00  0.00000000000E+00 -0.68762888098E+03  0.68762888100E+03  0.50400001928E-02 0.  1.
    10030    2    1    2    0    0  0.00000000000E+00  0.00000000000E+00 -0.41700715474E+03  0.95825060728E+03  0.86275677873E+03 0.  0.
        1    1    3    3  502    0  0.26059670743E+03  0.27913128482E+03  0.14360737526E+02  0.38214022151E+03  0.50400001928E-02 0. -1.
       -1    1    3    3    0  502 -0.26059670743E+03 -0.27913128482E+03 -0.43136789227E+03  0.57611038577E+03  0.50400001928E-02 0.  1.
</event>
<event>
 5   0  0.5627232E-03  0.1075010E+04  0.7818609E-02  0.9229897E-01
        2   -1    0    0  501    0  0.00000000000E+00  0.00000000000E+00  0.10284020839E+04  0.10284020839E+04  0.25500000920E-02 0.  1.
       -2   -1    0    0    0  501  0.00000000000E+00  0.00000000000E+00 -0.28093269377E+03  0.28093269378E+03  0.25500000920E-02 0. -1.
    10030    2    1    2    0    0  0.00000000000E+00  0.00000000000E+00  0.74746939017E+03  0.13093347777E+04  0.10750102655E+04 0.  0.
        2    1    3    3  502    0  0.32573264330E+03 -0.37677392481E+03  0.61990841224E+03  0.79520235468E+03  0.25500000920E-02 0.  1.
       -2    1    3    3    0  502 -0.32573264330E+03  0.37677392481E+03  0.12756097793E+03  0.51413242304E+03  0.25500000920E-02 0. -1.
</event>
<event>
 5   0  0.3328741E-03  0.1051207E+04  0.7818609E-02  0.9254099E-01
        1   -1    0    0  501    0  0.00000000000E+00  0.00000000000E+00  0.65267146656E+03  0.65267146658E+03  0.50400001928E-02 0.  1.
       -1   -1    0    0    0  501  0.00000000000E+00  0.00000000000E+00 -0.42327401090E+03  0.42327401093E+03  0.50400001928E-02 0. -1.
    10030    2    1    2    0    0  0.00000000000E+00  0.00000000000E+00  0.22939745566E+03  0.10759454775E+04  0.10512066771E+04 0.  0.
        3    1    3    3  502    0 -0.31680078409E+03  0.23920810757E+03  0.46729919109E+03  0.61314908442E+03  0.10100000352E+00 0.  1.
       -3    1    3    3    0  502  0.31680078409E+03 -0.23920810757E+03 -0.23790173543E+03  0.46279639308E+03  0.10100000352E+00 0. -1.
</event>
<event>
 5   0  0.5723194E-03  0.1103076E+04  0.7818609E-02  0.9202199E-01
        2   -1    0    0  501    0  0.00000000000E+00  0.00000000000E+00  0.30022978426E+03  0.30022978427E+03  0.25500000920E-02 0. -1.
       -2   -1    0    0    0  501  0.00000000000E+00  0.00000000000E+00 -0.10132041648E+04  0.10132041648E+04  0.25500000920E-02 0.  1.
    10030    2    1    2    0    0  0.00000000000E+00  0.00000000000E+00 -0.71297438052E+03  0.13134339491E+04  0.11030758230E+04 0.  0.
        1    1    3    3  502    0  0.35030908269E+03 -0.38837840226E+03 -0.56491038793E+03  0.76985581973E+03  0.50400001928E-02 0.  1.
       -1    1    3    3    0  502 -0.35030908269E+03  0.38837840226E+03 -0.14806399259E+03  0.54357812932E+03  0.50400001928E-02 0. -1.
</event>
<event>
 5   0  0.3328741E-03  0.1052225E+04  0.7818609E-02  0.9253050E-01
       -1   -1    0    0    0  501  0.00000000000E+00  0.00000000000E+00  0.12714928581E+03  0.12714928591E+03  0.50400001928E-02 0. -1.
        1   -1    0    0  501    0  0.00000000000E+00  0.00000000000E+00 -0.21769228808E+04  0.21769228808E+04  0.50400001928E-02 0.  1.
    10030    2    1    2    0    0  0.00000000000E+00  0.00000000000E+00 -0.20497735950E+04  0.23040721667E+04  0.10522246712E+04 0.  0.
        3    1    3    3  502    0  0.32666816963E+03 -0.22847007463E+03 -0.17767072381E+04  0.18208787132E+04  0.10100000352E+00 0.  1.
       -3    1    3    3    0  502 -0.32666816963E+03  0.22847007463E+03 -0.27306635686E+03  0.48319345349E+03  0.10100000352E+00 0. -1.
</event>
<event>
 5   0  0.5941585E-03  0.1099989E+04  0.7818609E-02  0.9205203E-01
        2   -1    0    0  501    0  0.00000000000E+00  0.00000000000E+00  0.97187025969E+03  0.97187025970E+03  0.25500000920E-02 0. -1.
       -2   -1    0    0    0  501  0.00000000000E+00  0.00000000000E+00 -0.31124921629E+03  0.31124921630E+03  0.25500000920E-02 0.  1.
    10030    2    1    2    0    0  0.00000000000E+00  0.00000000000E+00  0.66062104340E+03  0.12831194760E+04  0.10999888303E+04 0.  0.
        5    1    3    3  502    0 -0.51919915822E+03 -0.71906879181E+02  0.13605186046E+03  0.54154460934E+03  0.46999998093E+01 0.  1.
       -5    1    3    3    0  502  0.51919915822E+03  0.71906879181E+02  0.52456918294E+03  0.74157486666E+03  0.46999998093E+01 0. -1.
</event>
<event>
 5   0  0.5723194E-03  0.1103053E+04  0.7818609E-02  0.9202221E-01
       -2   -1    0    0    0  501  0.00000000000E+00  0.00000000000E+00  0.17900381921E+03  0.17900381923E+03  0.25500000920E-02 0.  1.
        2   -1    0    0  501    0  0.00000000000E+00  0.00000000000E+00 -0.16993028503E+04  0.16993028503E+04  0.25500000920E-02 0. -1.
    10030    2    1    2    0    0  0.00000000000E+00  0.00000000000E+00 -0.15202990311E+04  0.18783066695E+04  0.11030533989E+04 0.  0.
        1    1    3    3  502    0 -0.51731160535E+03  0.11690234177E+02 -0.43512071118E+03  0.67607543360E+03  0.50400001928E-02 0.  1.
       -1    1    3    3    0  502  0.51731160535E+03 -0.11690234177E+02 -0.10851783199E+04  0.12022312359E+04  0.50400001928E-02 0. -1.
</event>
<event>
 5   0  0.3320192E-03  0.1041583E+04  0.7818609E-02  0.9264078E-01
       -1   -1    0    0    0  501  0.00000000000E+00  0.00000000000E+00  0.35865624288E+03  0.35865624291E+03  0.50400001928E-02 0. -1.
        1   -1    0    0  501    0  0.00000000000E+00  0.00000000000E+00 -0.75622181096E+03  0.75622181098E+03  0.50400001928E-02 0.  1.
    10030    2    1    2    0    0  0.00000000000E+00  0.00000000000E+00 -0.39756556808E+03  0.11148780539E+04  0.10415827831E+04 0.  0.
        2    1    3    3  502    0  0.35587331949E+03  0.34271291219E+03 -0.22494211272E+02  0.49457451335E+03  0.25500000920E-02 0. -1.
       -2    1    3    3    0  502 -0.35587331949E+03 -0.34271291219E+03 -0.37507135681E+03  0.62030354054E+03  0.25500000920E-02 0.  1.
</event>
<event>
 5   0  0.5627232E-03  0.1113950E+04  0.7818609E-02  0.9191701E-01
        2   -1    0    0  501    0  0.00000000000E+00  0.00000000000E+00  0.57790732639E+03  0.57790732639E+03  0.25500000920E-02 0.  1.
       -2   -1    0    0    0  501  0.00000000000E+00  0.00000000000E+00 -0.53680060057E+03  0.53680060057E+03  0.25500000920E-02 0. -1.
    10030    2    1    2    0    0  0.00000000000E+00  0.00000000000E+00  0.41106725822E+02  0.11147079270E+04  0.11139497294E+04 0.  0.
        2    1    3    3  502    0 -0.42675727670E+03  0.18895785126E+03 -0.28361759895E+03  0.54613714872E+03  0.25500000920E-02 0. -1.
       -2    1    3    3    0  502  0.42675727670E+03 -0.18895785126E+03  0.32472432478E+03  0.56857077825E+03  0.25500000920E-02 0.  1.
</event>
<event>
 5   0  0.5723194E-03  0.1112934E+04  0.7818609E-02  0.9192676E-01
       -2   -1    0    0    0  501  0.00000000000E+00  0.00000000000E+00  0.68409350007E+03  0.68409350008E+03  0.25500000920E-02 0.  1.
        2   -1    0    0  501    0  0.00000000000E+00  0.00000000000E+00 -0.45265106907E+03  0.45265106908E+03  0.25500000920E-02 0. -1.
    10030    2    1    2    0    0  0.00000000000E+00  0.00000000000E+00  0.23144243100E+03  0.11367445692E+04  0.11129342373E+04 0.  0.
        1    1    3    3  502    0  0.24529456939E+03  0.49883121364E+03  0.14183474481E+03  0.57368902756E+03  0.50400001928E-02 0.  1.
       -1    1    3    3    0  502 -0.24529456939E+03 -0.49883121364E+03  0.89607686186E+02  0.56305554160E+03  0.50400001928E-02 0. -1.
</event>
<event>
 5   0  0.3320192E-03  0.1095077E+04  0.7818609E-02  0.9210004E-01
       -1   -1    0    0    0  501  0.00000000000E+00  0.00000000000E+00  0.20063763811E+03  0.20063763818E+03  0.50400001928E-02 0. -1.
        1   -1    0    0  501    0  0.00000000000E+00  0.00000000000E+00 -0.14942280197E+04  0.14942280197E+04  0.50400001928E-02 0.  1.
    10030    2    1    2    0    0  0.00000000000E+00  0.00000000000E+00 -0.12935903816E+04  0.16948656579E+04  0.10950769484E+04 0.  0.
        2    1    3    3  502    0 -0.66790740059E+02 -0.45113859727E+03 -0.17783193640E+03  0.48950100563E+03  0.25500000920E-02 0. -1.
       -2    1    3    3    0  502  0.66790740059E+02  0.45113859727E+03 -0.11157584452E+04  0.12053646523E+04  0.25500000920E-02 0.  1.
</event>
<event>
 5   0  0.3316784E-03  0.1058365E+04  0.7818609E-02  0.9246750E-01
        1   -1    0    0  501    0  0.00000000000E+00  0.00000000000E+00  0.10480518629E+04  0.10480518629E+04  0.50400001928E-02 0.  1.
       -1   -1    0    0    0  501  0.00000000000E+00  0.00000000000E+00 -0.26719515357E+03  0.26719515361E+03  0.50400001928E-02 0. -1.
    10030    2    1    2    0    0  0.00000000000E+00  0.00000000000E+00  0.78085670932E+03  0.13152470165E+04  0.10583654917E+04 0.  0.
        4    1    3    3  502    0 -0.96639263857E+02  0.49505221641E+03  0.19152819982E+03  0.53953730966E+03  0.12699999809E+01 0. -1.
       -4    1    3    3    0  502  0.96639263857E+02 -0.49505221641E+03  0.58932850950E+03  0.77570970685E+03  0.12699999809E+01 0.  1.
</event>
<event>
 5   0  0.5941585E-03  0.1115726E+04  0.7818609E-02  0.9189998E-01
        2   -1    0    0  501    0  0.00000000000E+00  0.00000000000E+00  0.57004767011E+03  0.57004767012E+03  0.25500000920E-02 0.  1.
       -2   -1    0    0    0  501  0.00000000000E+00  0.00000000000E+00 -0.54593897667E+03  0.54593897668E+03  0.25500000920E-02 0. -1.
    10030    2    1    2    0    0  0.00000000000E+00  0.00000000000E+00  0.24108693443E+02  0.11159866468E+04  0.11157262060E+04 0.  0.
        5    1    3    3  502    0 -0.96996079532E+02 -0.51748770495E+03 -0.17234537258E+03  0.55400973066E+03  0.46999998093E+01 0. -1.
       -5    1    3    3    0  502  0.96996079532E+02  0.51748770495E+03  0.19645406602E+03  0.56197691614E+03  0.46999998093E+01 0.  1.
</event>
<event>
 5   0  0.3328741E-03  0.1070691E+04  0.7818609E-02  0.9234239E-01
        1   -1    0    0  501    0  0.00000000000E+00  0.00000000000E+00  0.20418395121E+04  0.20418395121E+04  0.50400001928E-02 0.  1.
       -1   -1    0    0    0  501  0.00000000000E+00  0.00000000000E+00 -0.14036114229E+03  0.14036114238E+03  0.50400001928E-02 0. -1.
    10030    2    1    2    0    0  0.00000000000E+00  0.00000000000E+00  0.19014783698E+04  0.21822006545E+04  0.10706912279E+04 0.  0.
        3    1    3    3  502    0 -0.10750228386E+03 -0.47014799573E+03  0.14243520006E+04  0.15037867238E+04  0.10100000352E+00 0.  1.
       -3    1    3    3    0  502  0.10750228386E+03  0.47014799573E+03  0.47712636925E+03  0.67841393070E+03  0.10100000352E+00 0. -1.
</event>
<event>
 5   0  0.3328741E-03  0.1087052E+04  0.7818609E-02  0.9217904E-01
       -1   -1    0    0    0  501  0.00000000000E+00  0.00000000000E+00  0.51791419979E+03  0.51791419982E+03  0.50400001928E-02 0. -1.
        1   -1    0    0  501    0  0.00000000000E+00  0.00000000000E+00 -0.57040465175E+03  0.57040465177E+03  0.50400001928E-02 0.  1.
    10030    2    1    2    0    0  0.00000000000E+00  0.00000000000E+00 -0.52490451957E+02  0.10883188516E+04  0.10870522872E+04 0.  0.
        3    1    3    3  502    0 -0.27728569161E+03 -0.13894478863E+02 -0.49405858202E+03  0.56672242234E+03  0.10100000352E+00 0.  1.
       -3    1    3    3    0  502  0.27728569161E+03  0.13894478863E+02  0.44156813006E+03  0.52159642925E+03  0.10100000352E+00 0. -1.
</event>
<event>
 5   0  0.5500363E-03  0.1096968E+04  0.7818609E-02  0.9208152E-01
        2   -1    0    0  501    0  0.00000000000E+00  0.00000000000E+00  0.14865310764E+04  0.14865310764E+04  0.25500000920E-02 0. -1.
       -2   -1    0    0    0  501  0.00000000000E+00  0.00000000000E+00 -0.20237352811E+03  0.20237352812E+03  0.25500000920E-02 0.  1.
    10030    2    1    2    0    0  0.00000000000E+00  0.00000000000E+00  0.12841575483E+04  0.16889046045E+04  0.10969677089E+04 0.  0.
        3    1    3    3  502    0  0.53048425103E+02 -0.51357540582E+03  0.35710206715E+03  0.62777044327E+03  0.10100000352E+00 0.  1.
       -3    1    3    3    0  502 -0.53048425103E+02  0.51357540582E+03  0.92705548114E+03  0.10611341613E+04  0.10100000352E+00 0. -1.
</event>
<event>
 5   0  0.5941585E-03  0.1099930E+04  0.7818609E-02  0.9205260E-01
       -2   -1    0    0    0  501  0.00000000000E+00  0.00000000000E+00  0.13080867226E+04  0.13080867226E+04  0.25500000920E-02 0.  1.
        2   -1    0    0  501    0  0.00000000000E+00  0.00000000000E+00 -0.23122430278E+03  0.23122430279E+03  0.25500000920E-02 0. -1.
    10030    2    1    2    0    0  0.00000000000E+00  0.00000000000E+00  0.10768624198E+04  0.15393110254E+04  0.10999298894E+04 0.  0.
        5    1    3    3  502    0 -0.38390341751E+03  0.35939806354E+03  0.31325007650E+03  0.61212458085E+03  0.46999998093E+01 0.  1.
       -5    1    3    3    0  502  0.38390341751E+03 -0.35939806354E+03  0.76361234329E+03  0.92718644451E+03  0.46999998093E+01 0. -1.
</event>
<event>
 5   0  0.3241189E-03  0.1056180E+04  0.7818609E-02  0.9248987E-01
       -1   -1    0    0    0  501  0.00000000000E+00  0.00000000000E+00  0.17541720486E+03  0.17541720494E+03  0.50400001928E-02 0. -1.
        1   -1    0    0  501    0  0.00000000000E+00  0.00000000000E+00 -0.15898036465E+04  0.15898036465E+04  0.50400001928E-02 0.  1.
    10030    2    1    2    0    0  0.00000000000E+00  0.00000000000E+00 -0.14143864417E+04  0.17652208515E+04  0.10561797423E+04 0.  0.
        5    1    3    3  502    0 -0.17892836379E+02  0.11657155510E+03 -0.15674761911E+04  0.15719137320E+04  0.46999998093E+01 0.  1.
       -5    1    3    3    0  502  0.17892836379E+02 -0.11657155510E+03  0.15308974947E+03  0.19330711948E+03  0.46999998093E+01 0. -1.
</event>
<event>
 5   0  0.3320192E-03  0.1098720E+04  0.7818609E-02  0.9206441E-01
       -1   -1    0    0    0  501  0.00000000000E+00  0.00000000000E+00  0.53159428316E+03  0.53159428318E+03  0.50400001928E-02 0. -1.
        1   -1    0    0  501    0  0.00000000000E+00  0.00000000000E+00 -0.56771924092E+03  0.56771924094E+03  0.50400001928E-02 0.  1.
    10030    2    1    2    0    0  0.00000000000E+00  0.00000000000E+00 -0.36124957758E+02  0.10993135241E+04  0.10987198058E+04 0.  0.
        2    1    3    3  502    0 -0.15398489880E+03 -0.11101923376E+03 -0.53385990017E+03  0.56660657633E+03  0.25500000920E-02 0.  1.
       -2    1    3    3    0  502  0.15398489880E+03  0.11101923376E+03  0.49773494241E+03  0.53270694779E+03  0.25500000920E-02 0. -1.
</event>
<event>
 5   0  0.5946359E-03  0.1103983E+04  0.7818609E-02  0.9201318E-01
       -2   -1    0    0    0  501  0.00000000000E+00  0.00000000000E+00  0.39014444289E+03  0.39014444290E+03  0.25500000920E-02 0. -1.
        2   -1    0    0  501    0  0.00000000000E+00  0.00000000000E+00 -0.78097963756E+03  0.78097963757E+03  0.25500000920E-02 0.  1.
    10030    2    1    2    0    0  0.00000000000E+00  0.00000000000E+00 -0.39083519467E+03  0.11711240805E+04  0.11039834521E+04 0.  0.
        4    1    3    3  502    0  0.23408724955E+03 -0.21758107145E+03  0.28201461008E+03  0.42623023855E+03  0.12699999809E+01 0. -1.
       -4    1    3    3    0  502 -0.23408724955E+03  0.21758107145E+03 -0.67284980475E+03  0.74489384191E+03  0.12699999809E+01 0.  1.
</event>
<event>
 5   0  0.5941585E-03  0.1102522E+04  0.7818609E-02  0.9202737E-01
       -2   -1    0    0    0  501  0.00000000000E+00  0.00000000000E+00  0.92754031610E+03  0.92754031610E+03  0.25500000920E-02 0.  1.
        2   -1    0    0  501    0  0.00000000000E+00  0.00000000000E+00 -0.32762851222E+03  0.32762851223E+03  0.25500000920E-02 0. -1.
    10030    2    1    2    0    0  0.00000000000E+00  0.00000000000E+00  0.59991180388E+03  0.12551688283E+04  0.11025219341E+04 0.  0.
        5    1    3    3  502    0 -0.39535334871E+03  0.10496001338E+03 -0.12072607248E+03  0.42651816998E+03  0.46999998093E+01 0.  1.
       -5    1    3    3    0  502  0.39535334871E+03 -0.10496001338E+03  0.72063787636E+03  0.82865065835E+03  0.46999998093E+01 0. -1.
</event>
<event>
 5   0  0.3215352E-03  0.1098700E+04  0.7818609E-02  0.9206460E-01
        1   -1    0    0  501    0  0.00000000000E+00  0.00000000000E+00  0.79421644785E+03  0.79421644787E+03  0.50400001928E-02 0.  1.
       -1   -1    0    0    0  501  0.00000000000E+00  0.00000000000E+00 -0.37997887866E+03  0.37997887869E+03  0.50400001928E-02 0. -1.
    10030    2    1    2    0    0  0.00000000000E+00  0.00000000000E+00  0.41423756920E+03  0.11741953266E+04  0.10987000961E+04 0.  0.
        1    1    3    3  502    0  0.52136560716E+03 -0.54131295926E+02  0.38283416098E+03  0.64908727330E+03  0.50400001928E-02 0. -1.
       -1    1    3    3    0  502 -0.52136560716E+03  0.54131295926E+02  0.31403408218E+02  0.52510805326E+03  0.50400001928E-02 0.  1.
</event>
<event>
 5   0  0.5627232E-03  0.1099582E+04  0.7818609E-02  0.9205599E-01
        2   -1    0    0  501    0  0.00000000000E+00  0.00000000000E+00  0.13506654048E+04  0.13506654048E+04  0.25500000920E-02 0.  1.
       -2   -1    0    0    0  501  0.00000000000E+00  0.00000000000E+00 -0.22379351580E+03  0.22379351581E+03  0.25500000920E-02 0. -1.
    10030    2    1    2    0    0  0.00000000000E+00  0.00000000000E+00  0.11268718890E+04  0.15744589206E+04  0.10995820290E+04 0.  0.
        2    1    3    3  502    0 -0.27640209651E+03 -0.11510072806E+03 -0.96816021012E+02  0.31467386050E+03  0.25500000920E-02 0. -1.
       -2    1    3    3    0  502  0.27640209651E+03  0.11510072806E+03  0.12236879100E+04  0.12597850601E+04  0.25500000920E-02 0.  1.
</event>
<event>
 5   0  0.3320192E-03  0.1081845E+04  0.7818609E-02  0.9223070E-01
        1   -1    0    0  501    0  0.00000000000E+00  0.00000000000E+00  0.38166594500E+03  0.38166594504E+03  0.50400001928E-02 0. -1.
       -1   -1    0    0    0  501  0.00000000000E+00  0.00000000000E+00 -0.76663083330E+03  0.76663083331E+03  0.50400001928E-02 0.  1.
    10030    2    1    2    0    0  0.00000000000E+00  0.00000000000E+00 -0.38496488829E+03  0.11482967783E+04  0.10818445017E+04 0.  0.
        2    1    3    3  502    0  0.35757321755E+02  0.12520283138E+03 -0.74974829559E+03  0.76097098617E+03  0.25500000920E-02 0.  1.
       -2    1    3    3    0  502 -0.35757321755E+02 -0.12520283138E+03  0.36478340730E+03  0.38732579218E+03  0.25500000920E-02 0. -1.
</event>
<event>
 5   0  0.5723194E-03  0.1084063E+04  0.7818609E-02  0.9220866E-01
       -2   -1    0    0    0  501  0.00000000000E+00  0.00000000000E+00  0.25023133806E+03  0.25023133807E+03  0.25500000920E-02 0.  1.
        2   -1    0    0  501    0  0.00000000000E+00  0.00000000000E+00 -0.11741052664E+04  0.11741052664E+04  0.25500000920E-02 0. -1.
    10030    2    1    2    0    0  0.00000000000E+00  0.00000000000E+00 -0.92387392834E+03  0.14243366045E+04  0.10840626031E+04 0.  0.
        1    1    3    3  502    0 -0.32107461466E+03 -0.25581048481E+03 -0.92696790025E+03  0.10138034328E+04  0.50400001928E-02 0. -1.
       -1    1    3    3    0  502  0.32107461466E+03  0.25581048481E+03  0.30939719129E+01  0.41053317163E+03  0.50400001928E-02 0.  1.
</event>
<event>
 5   0  0.3328741E-03  0.1096860E+04  0.7818609E-02  0.9208257E-01
        1   -1    0    0  501    0  0.00000000000E+00  0.00000000000E+00  0.74217901249E+03  0.74217901251E+03  0.50400001928E-02 0. -1.
       -1   -1    0    0    0  501  0.00000000000E+00  0.00000000000E+00 -0.40526029925E+03  0.40526029929E+03  0.50400001928E-02 0.  1.
    10030    2    1    2    0    0  0.00000000000E+00  0.00000000000E+00  0.33691871324E+03  0.11474393118E+04  0.10968604081E+04 0.  0.
        3    1    3    3  502    0 -0.24305615122E+03  0.36587230596E+03 -0.17506848763E+03  0.47285074017E+03  0.10100000352E+00 0.  1.
       -3    1    3    3    0  502  0.24305615122E+03 -0.36587230596E+03  0.51198720087E+03  0.67458857163E+03  0.10100000352E+00 0. -1.
</event>
<event>
 5   0  0.3328741E-03  0.1096778E+04  0.7818609E-02  0.9208338E-01
       -1   -1    0    0    0  501  0.00000000000E+00  0.00000000000E+00  0.28870063036E+03  0.28870063041E+03  0.50400001928E-02 0.  1.
        1   -1    0    0  501    0  0.00000000000E+00  0.00000000000E+00 -0.10416689844E+04  0.10416689844E+04  0.50400001928E-02 0. -1.
    10030    2    1    2    0    0  0.00000000000E+00  0.00000000000E+00 -0.75296835402E+03  0.13303696148E+04  0.10967779948E+04 0.  0.
        3    1    3    3  502    0  0.32667659823E+03  0.43229156434E+03 -0.27401152797E+03  0.60718689388E+03  0.10100000352E+00 0.  1.
       -3    1    3    3    0  502 -0.32667659823E+03 -0.43229156434E+03 -0.47895682604E+03  0.72318272093E+03  0.10100000352E+00 0. -1.
</event>
<event>
 5   0  0.5946359E-03  0.1098268E+04  0.7818609E-02  0.9206881E-01
       -2   -1    0    0    0  501  0.00000000000E+00  0.00000000000E+00  0.30403591991E+03  0.30403591993E+03  0.25500000920E-02 0.  1.
        2   -1    0    0  501    0  0.00000000000E+00  0.00000000000E+00 -0.99181819007E+03  0.99181819007E+03  0.25500000920E-02 0. -1.
    10030    2    1    2    0    0  0.00000000000E+00  0.00000000000E+00 -0.68778227015E+03  0.12958541100E+04  0.10982683749E+04 0.  0.
        4    1    3    3  502    0 -0.40897476286E+03  0.95970574104E+02 -0.76117797201E+03  0.86940452364E+03  0.12699999809E+01 0. -1.
       -4    1    3    3    0  502  0.40897476286E+03 -0.95970574104E+02  0.73395701856E+02  0.42644958636E+03  0.12699999809E+01 0.  1.
</event>
<event>
 5   0  0.5723194E-03  0.1102053E+04  0.7818609E-02  0.9203193E-01
        2   -1    0    0  501    0  0.00000000000E+00  0.00000000000E+00  0.69945776002E+03  0.69945776003E+03  0.25500000920E-02 0.  1.
       -2   -1    0    0    0  501  0.00000000000E+00  0.00000000000E+00 -0.43409394858E+03  0.43409394859E+03  0.25500000920E-02 0. -1.
    10030    2    1    2    0    0  0.00000000000E+00  0.00000000000E+00  0.26536381144E+03  0.11335517086E+04  0.11020533216E+04 0.  0.
        1    1    3    3  502    0  0.86840953584E+02 -0.52823026843E+03 -0.16723165657E+01  0.53532360715E+03  0.50400001928E-02 0. -1.
       -1    1    3    3    0  502 -0.86840953584E+02  0.52823026843E+03  0.26703612800E+03  0.59822810147E+03  0.50400001928E-02 0.  1.
</event>
<event>
 5   0  0.2185750E-03  0.1041813E+04  0.7818609E-02  0.9263838E-01
        4   -1    0    0  501    0  0.00000000000E+00  0.00000000000E+00  0.14230026683E+04  0.14230032351E+04  0.12699999809E+01 0. -1.
       -4   -1    0    0    0  501  0.00000000000E+00  0.00000000000E+00 -0.19068112137E+03  0.19068535063E+03  0.12699999809E+01 0.  1.
    10030    2    1    2    0    0  0.00000000000E+00  0.00000000000E+00  0.12323215470E+04  0.16136885857E+04  0.10418130622E+04 0.  0.
        3    1    3    3  502    0 -0.38895411425E+03  0.74122345064E+02  0.91891564043E+02  0.40647693019E+03  0.10100000352E+00 0.  1.
       -3    1    3    3    0  502  0.38895411425E+03 -0.74122345064E+02  0.11404299829E+04  0.12072116555E+04  0.10100000352E+00 0. -1.
</event>
<event>
 5   0  0.3316784E-03  0.1096714E+04  0.7818609E-02  0.9208400E-01
       -1   -1    0    0    0  501  0.00000000000E+00  0.00000000000E+00  0.59902822382E+03  0.59902822384E+03  0.50400001928E-02 0. -1.
        1   -1    0    0  501    0  0.00000000000E+00  0.00000000000E+00 -0.50197239449E+03  0.50197239452E+03  0.50400001928E-02 0.  1.
    10030    2    1    2    0    0  0.00000000000E+00  0.00000000000E+00  0.97055829328E+02  0.11010006184E+04  0.10967144239E+04 0.  0.
        4    1    3    3  502    0  0.53418136280E+03  0.18195242733E+02  0.17153524320E+03  0.56134369844E+03  0.12699999809E+01 0. -1.
       -4    1    3    3    0  502 -0.53418136280E+03 -0.18195242733E+02 -0.74479413877E+02  0.53965691991E+03  0.12699999809E+01 0.  1.
</event>
<event>
 5   0  0.3241189E-03  0.1129966E+04  0.7818609E-02  0.9176467E-01
       -1   -1    0    0    0  501  0.00000000000E+00  0.00000000000E+00  0.46782368274E+03  0.46782368277E+03  0.50400001928E-02 0.  1.
        1   -1    0    0  501    0  0.00000000000E+00  0.00000000000E+00 -0.68232074198E+03  0.68232074200E+03  0.50400001928E-02 0. -1.
    10030    2    1    2    0    0  0.00000000000E+00  0.00000000000E+00 -0.21449705924E+03  0.11501444248E+04  0.11299660214E+04 0.  0.
        5    1    3    3  502    0  0.53901398807E+03  0.77976996658E+02  0.45658001347E+02  0.54655579260E+03  0.46999998093E+01 0. -1.
       -5    1    3    3    0  502 -0.53901398807E+03 -0.77976996658E+02 -0.26015506059E+03  0.60358863217E+03  0.46999998093E+01 0.  1.
</event>
<event>
 5   0  0.5627232E-03  0.1123803E+04  0.7818609E-02  0.9182297E-01
       -2   -1    0    0    0  501  0.00000000000E+00  0.00000000000E+00  0.66228107440E+03  0.66228107440E+03  0.25500000920E-02 0.  1.
        2   -1    0    0  501    0  0.00000000000E+00  0.00000000000E+00 -0.47673622785E+03  0.47673622786E+03  0.25500000920E-02 0. -1.
    10030    2    1    2    0    0  0.00000000000E+00  0.00000000000E+00  0.18554484655E+03  0.11390173023E+04  0.11238031521E+04 0.  0.
        2    1    3    3  502    0 -0.11758567786E+03  0.50803052666E+03 -0.11937437592E+03  0.53495013720E+03  0.25500000920E-02 0. -1.
       -2    1    3    3    0  502  0.11758567786E+03 -0.50803052666E+03  0.30491922247E+03  0.60406716505E+03  0.25500000920E-02 0.  1.
</event>
<event>
 5   0  0.3316784E-03  0.1093223E+04  0.7818609E-02  0.9211822E-01
       -1   -1    0    0    0  501  0.00000000000E+00  0.00000000000E+00  0.25178857685E+03  0.25178857690E+03  0.50400001928E-02 0. -1.
        1   -1    0    0  501    0  0.00000000000E+00  0.00000000000E+00 -0.11866478544E+04  0.11866478544E+04  0.50400001928E-02 0.  1.
    10030    2    1    2    0    0  0.00000000000E+00  0.00000000000E+00 -0.93485927750E+03  0.14384364313E+04  0.10932234438E+04 0.  0.
        4    1    3    3  502    0  0.44255085611E+03  0.96093205938E+02 -0.64669979921E+02  0.45745926996E+03  0.12699999809E+01 0. -1.
       -4    1    3    3    0  502 -0.44255085611E+03 -0.96093205938E+02 -0.87018929758E+03  0.98097716130E+03  0.12699999809E+01 0.  1.
</event>
<event>
 5   0  0.5941585E-03  0.1089000E+04  0.7818609E-02  0.9215980E-01
        2   -1    0    0  501    0  0.00000000000E+00  0.00000000000E+00  0.69595367465E+03  0.69595367466E+03  0.25500000920E-02 0. -1.
       -2   -1    0    0    0  501  0.00000000000E+00  0.00000000000E+00 -0.42600564243E+03  0.42600564244E+03  0.25500000920E-02 0.  1.
    10030    2    1    2    0    0  0.00000000000E+00  0.00000000000E+00  0.26994803222E+03  0.11219593171E+04  0.10889998940E+04 0.  0.
        5    1    3    3  502    0 -0.17125913906E+03 -0.48998053330E+03 -0.34464729952E+02  0.52021199845E+03  0.46999998093E+01 0.  1.
       -5    1    3    3    0  502  0.17125913906E+03  0.48998053330E+03  0.30441276217E+03  0.60174731865E+03  0.46999998093E+01 0. -1.
</event>
<event>
 5   0  0.3241189E-03  0.1099073E+04  0.7818609E-02  0.9206096E-01
        1   -1    0    0  501    0  0.00000000000E+00  0.00000000000E+00  0.95542297669E+03  0.95542297670E+03  0.50400001928E-02 0.  1.
       -1   -1    0    0    0  501  0.00000000000E+00  0.00000000000E+00 -0.31608001581E+03  0.31608001585E+03  0.50400001928E-02 0. -1.
    10030    2    1    2    0    0  0.00000000000E+00  0.00000000000E+00  0.63934296088E+03  0.12715029925E+04  0.10990725356E+04 0.  0.
        5    1    3    3  502    0  0.16306384744E+03  0.38128745127E+03 -0.97447066981E+02  0.42601403698E+03  0.46999998093E+01 0.  1.
       -5    1    3    3    0  502 -0.16306384744E+03 -0.38128745127E+03  0.73679002786E+03  0.84548895557E+03  0.46999998093E+01 0. -1.
</event>
<event>
 5   0  0.3215352E-03  0.1101434E+04  0.7818609E-02  0.9203795E-01
        1   -1    0    0  501    0  0.00000000000E+00  0.00000000000E+00  0.37449732351E+03  0.37449732354E+03  0.50400001928E-02 0. -1.
       -1   -1    0    0    0  501  0.00000000000E+00  0.00000000000E+00 -0.80985706381E+03  0.80985706383E+03  0.50400001928E-02 0.  1.
    10030    2    1    2    0    0  0.00000000000E+00  0.00000000000E+00 -0.43535974031E+03  0.11843543874E+04  0.11014341612E+04 0.  0.
        1    1    3    3  502    0 -0.15444890804E+03  0.52533766923E+03 -0.15447392945E+03  0.56894316659E+03  0.50400001928E-02 0.  1.
       -1    1    3    3    0  502  0.15444890804E+03 -0.52533766923E+03 -0.28088581086E+03  0.61541122079E+03  0.50400001928E-02 0. -1.
</event>
<event>
 5   0  0.5627232E-03  0.1094925E+04  0.7818609E-02  0.9210152E-01
        2   -1    0    0  501    0  0.00000000000E+00  0.00000000000E+00  0.35292223210E+03  0.35292223211E+03  0.25500000920E-02 0. -1.
       -2   -1    0    0    0  501  0.00000000000E+00  0.00000000000E+00 -0.84923872951E+03  0.84923872952E+03  0.25500000920E-02 0.  1.
    10030    2    1    2    0    0  0.00000000000E+00  0.00000000000E+00 -0.49631649742E+03  0.12021609616E+04  0.10949250714E+04 0.  0.
        2    1    3    3  502    0 -0.39084620460E+03  0.36622663366E+03 -0.12378290827E+03  0.54973167204E+03  0.25500000920E-02 0. -1.
       -2    1    3    3    0  502  0.39084620460E+03 -0.36622663366E+03 -0.37253358915E+03  0.65242928958E+03  0.25500000920E-02 0.  1.
</event>
<event>
 5   0  0.3241189E-03  0.1102525E+04  0.7818609E-02  0.9202734E-01
        1   -1    0    0  501    0  0.00000000000E+00  0.00000000000E+00  0.10367085330E+04  0.10367085330E+04  0.50400001928E-02 0. -1.
       -1   -1    0    0    0  501  0.00000000000E+00  0.00000000000E+00 -0.29312990670E+03  0.29312990675E+03  0.50400001928E-02 0.  1.
    10030    2    1    2    0    0  0.00000000000E+00  0.00000000000E+00  0.74357862629E+03  0.13298384397E+04  0.11025248761E+04 0.  0.
        5    1    3    3  502    0  0.46597178202E+03  0.86033521742E+02  0.71153002936E+03  0.85488510408E+03  0.46999998093E+01 0. -1.
       -5    1    3    3    0  502 -0.46597178202E+03 -0.86033521742E+02  0.32048596928E+02  0.47495333567E+03  0.46999998093E+01 0.  1.
</event>
<event>
 5   0  0.5723194E-03  0.1039498E+04  0.7818609E-02  0.9266255E-01
       -2   -1    0    0    0  501  0.00000000000E+00  0.00000000000E+00  0.33041621134E+03  0.33041621135E+03  0.25500000920E-02 0. -1.
        2   -1    0    0  501    0  0.00000000000E+00  0.00000000000E+00 -0.81757128797E+03  0.81757128797E+03  0.25500000920E-02 0.  1.
    10030    2    1    2    0    0  0.00000000000E+00  0.00000000000E+00 -0.48715507662E+03  0.11479874993E+04  0.10394975853E+04 0.  0.
        1    1    3    3  502    0  0.70820145409E+02  0.14555027684E+03 -0.78902608321E+03  0.80545796669E+03  0.50400001928E-02 0.  1.
       -1    1    3    3    0  502 -0.70820145409E+02 -0.14555027684E+03  0.30187100659E+03  0.34252953264E+03  0.50400001928E-02 0. -1.
</event>
<event>
 5   0  0.3215352E-03  0.1099454E+04  0.7818609E-02  0.9205725E-01
        1   -1    0    0  501    0  0.00000000000E+00  0.00000000000E+00  0.23095352521E+03  0.23095352527E+03  0.50400001928E-02 0. -1.
       -1   -1    0    0    0  501  0.00000000000E+00  0.00000000000E+00 -0.13084866362E+04  0.13084866362E+04  0.50400001928E-02 0.  1.
    10030    2    1    2    0    0  0.00000000000E+00  0.00000000000E+00 -0.10775331110E+04  0.15394401615E+04  0.10994536850E+04 0.  0.
        1    1    3    3  502    0  0.42290934104E+02  0.54614927338E+03 -0.47411417683E+03  0.72446656556E+03  0.50400001928E-02 0. -1.
       -1    1    3    3    0  502 -0.42290934104E+02 -0.54614927338E+03 -0.60341893417E+03  0.81497359593E+03  0.50400001928E-02 0.  1.
</event>
<event>
 5   0  0.3320192E-03  0.1080556E+04  0.7818609E-02  0.9224353E-01
        1   -1    0    0  501    0  0.00000000000E+00  0.00000000000E+00  0.18574762423E+03  0.18574762430E+03  0.50400001928E-02 0. -1.
       -1   -1    0    0    0  501  0.00000000000E+00  0.00000000000E+00 -0.15714891207E+04  0.15714891207E+04  0.50400001928E-02 0.  1.
    10030    2    1    2    0    0  0.00000000000E+00  0.00000000000E+00 -0.13857414965E+04  0.17572367450E+04  0.10805560990E+04 0.  0.
        2    1    3    3  502    0  0.27508774338E+03  0.46100227313E+03 -0.59389724654E+03  0.80056873649E+03  0.25500000920E-02 0. -1.
       -2    1    3    3    0  502 -0.27508774338E+03 -0.46100227313E+03 -0.79184424997E+03  0.95666800856E+03  0.25500000920E-02 0.  1.
</event>
<event>
 5   0  0.5946359E-03  0.1101573E+04  0.7818609E-02  0.9203660E-01
       -2   -1    0    0    0  501  0.00000000000E+00  0.00000000000E+00  0.22833195891E+03  0.22833195893E+03  0.25500000920E-02 0. -1.
        2   -1    0    0  501    0  0.00000000000E+00  0.00000000000E+00 -0.13286183612E+04  0.13286183612E+04  0.25500000920E-02 0.  1.
    10030    2    1    2    0    0  0.00000000000E+00  0.00000000000E+00 -0.11002864023E+04  0.15569503202E+04  0.11015734802E+04 0.  0.
        4    1    3    3  502    0  0.51365256181E+03  0.23828338619E+02 -0.82911339550E+03  0.97562153496E+03  0.12699999809E+01 0.  1.
       -4    1    3    3    0  502 -0.51365256181E+03 -0.23828338619E+02 -0.27117300683E+03  0.58132878521E+03  0.12699999809E+01 0. -1.
</event>
<event>
 5   0  0.5627232E-03  0.1100802E+04  0.7818609E-02  0.9204411E-01
        2   -1    0    0  501    0  0.00000000000E+00  0.00000000000E+00  0.14004524830E+04  0.14004524830E+04  0.25500000920E-02 0. -1.
       -2   -1    0    0    0  501  0.00000000000E+00  0.00000000000E+00 -0.21631668782E+03  0.21631668783E+03  0.25500000920E-02 0.  1.
    10030    2    1    2    0    0  0.00000000000E+00  0.00000000000E+00  0.11841357952E+04  0.16167691708E+04  0.11008019669E+04 0.  0.
        2    1    3    3  502    0  0.37848266106E+03  0.28521498554E+03  0.18097198208E+03  0.50729436327E+03  0.25500000920E-02 0.  1.
       -2    1    3    3    0  502 -0.37848266106E+03 -0.28521498554E+03  0.10031638131E+04  0.11094748076E+04  0.25500000920E-02 0. -1.
</event>
<event>
 5   0  0.5946359E-03  0.1098873E+04  0.7818609E-02  0.9206291E-01
        2   -1    0    0  501    0  0.00000000000E+00  0.00000000000E+00  0.11787244673E+04  0.11787244673E+04  0.25500000920E-02 0. -1.
       -2   -1    0    0    0  501  0.00000000000E+00  0.00000000000E+00 -0.25610773640E+03  0.25610773641E+03  0.25500000920E-02 0.  1.
    10030    2    1    2    0    0  0.00000000000E+00  0.00000000000E+00  0.92261673090E+03  0.14348322037E+04  0.10988729775E+04 0.  0.
        4    1    3    3  502    0  0.12724975390E+03 -0.21621384706E+03 -0.17694947198E+03  0.30700758306E+03  0.12699999809E+01 0.  1.
       -4    1    3    3    0  502 -0.12724975390E+03  0.21621384706E+03  0.10995662029E+04  0.11278246207E+04  0.12699999809E+01 0. -1.
</event>
<event>
 5   0  0.3320192E-03  0.1061062E+04  0.7818609E-02  0.9243997E-01
       -1   -1    0    0    0  501  0.00000000000E+00  0.00000000000E+00  0.26999430878E+03  0.26999430882E+03  0.50400001928E-02 0.  1.
        1   -1    0    0  501    0  0.00000000000E+00  0.00000000000E+00 -0.10424781858E+04  0.10424781858E+04  0.50400001928E-02 0. -1.
    10030    2    1    2    0    0  0.00000000000E+00  0.00000000000E+00 -0.77248387701E+03  0.13124724946E+04  0.10610620665E+04 0.  0.
        2    1    3    3  502    0 -0.14518532154E+02 -0.63926591101E+02 -0.10374491888E+04  0.10395182616E+04  0.25500000920E-02 0. -1.
       -2    1    3    3    0  502  0.14518532154E+02  0.63926591101E+02  0.26496531183E+03  0.27295423299E+03  0.25500000920E-02 0.  1.
</event>
<event>
 5   0  0.5723194E-03  0.1092737E+04  0.7818609E-02  0.9212299E-01
       -2   -1    0    0    0  501  0.00000000000E+00  0.00000000000E+00  0.47093894376E+03  0.47093894376E+03  0.25500000920E-02 0. -1.
        2   -1    0    0  501    0  0.00000000000E+00  0.00000000000E+00 -0.63388006479E+03  0.63388006480E+03  0.25500000920E-02 0.  1.
    10030    2    1    2    0    0  0.00000000000E+00  0.00000000000E+00 -0.16294112103E+03  0.11048190086E+04  0.10927374949E+04 0.  0.
        1    1    3    3  502    0 -0.31311397357E+03 -0.44704731128E+03 -0.10679038716E+03  0.55614372763E+03  0.50400001928E-02 0. -1.
       -1    1    3    3    0  502  0.31311397357E+03  0.44704731128E+03 -0.56150733872E+02  0.54867528093E+03  0.50400001928E-02 0.  1.
</event>
<event>
 5   0  0.3316784E-03  0.1099308E+04  0.7818609E-02  0.9205867E-01
        1   -1    0    0  501    0  0.00000000000E+00  0.00000000000E+00  0.15166518103E+04  0.15166518103E+04  0.50400001928E-02 0. -1.
       -1   -1    0    0    0  501  0.00000000000E+00  0.00000000000E+00 -0.19920149696E+03  0.19920149702E+03  0.50400001928E-02 0.  1.
    10030    2    1    2    0    0  0.00000000000E+00  0.00000000000E+00  0.13174503133E+04  0.17158533073E+04  0.10993076203E+04 0.  0.
        4    1    3    3  502    0  0.23801408416E+03  0.37304266020E+03  0.11676341767E+04  0.12486723806E+04  0.12699999809E+01 0. -1.
       -4    1    3    3    0  502 -0.23801408416E+03 -0.37304266020E+03  0.14981613663E+03  0.46718092671E+03  0.12699999809E+01 0.  1.
</event>
<event>
 5   0  0.3320192E-03  0.1101069E+04  0.7818609E-02  0.9204150E-01
        1   -1    0    0  501    0  0.00000000000E+00  0.00000000000E+00  0.31753753579E+03  0.31753753583E+03  0.50400001928E-02 0. -1.
       -1   -1    0    0    0  501  0.00000000000E+00  0.00000000000E+00 -0.95449645565E+03  0.95449645566E+03  0.50400001928E-02 0.  1.
    10030    2    1    2    0    0  0.00000000000E+00  0.00000000000E+00 -0.63695891986E+03  0.12720339915E+04  0.11010693938E+04 0.  0.
        2    1    3    3  502    0  0.54311607212E+03  0.83995266150E+02 -0.28089885308E+03  0.61719886438E+03  0.25500000920E-02 0.  1.
       -2    1    3    3    0  502 -0.54311607212E+03 -0.83995266150E+02 -0.35606006678E+03  0.65483512711E+03  0.25500000920E-02 0. -1.
</event>
<event>
 5   0  0.3215352E-03  0.1062521E+04  0.7818609E-02  0.9242511E-01
       -1   -1    0    0    0  501  0.00000000000E+00  0.00000000000E+00  0.29437606847E+03  0.29437606852E+03  0.50400001928E-02 0. -1.
        1   -1    0    0  501    0  0.00000000000E+00  0.00000000000E+00 -0.95876646999E+03  0.95876647000E+03  0.50400001928E-02 0.  1.
    10030    2    1    2    0    0  0.00000000000E+00  0.00000000000E+00 -0.66439040152E+03  0.12531425385E+04  0.10625213486E+04 0.  0.
        1    1    3    3  502    0  0.40164434420E+03 -0.21454054776E+02 -0.74153431239E+03  0.84359444769E+03  0.50400001928E-02 0.  1.
       -1    1    3    3    0  502 -0.40164434420E+03  0.21454054776E+02  0.77143910872E+02  0.40954809083E+03  0.50400001928E-02 0. -1.
</event>
<event>
 5   0  0.5723194E-03  0.1095905E+04  0.7818609E-02  0.9209193E-01
       -2   -1    0    0    0  501  0.00000000000E+00  0.00000000000E+00  0.15932036348E+03  0.15932036350E+03  0.25500000920E-02 0.  1.
        2   -1    0    0  501    0  0.00000000000E+00  0.00000000000E+00 -0.18845790817E+04  0.18845790817E+04  0.25500000920E-02 0. -1.
    10030    2    1    2    0    0  0.00000000000E+00  0.00000000000E+00 -0.17252587182E+04  0.20438994452E+04  0.10959047848E+04 0.  0.
        1    1    3    3  502    0  0.30359615698E+03  0.23813464000E+03 -0.13700635540E+03  0.40945021034E+03  0.50400001928E-02 0.  1.
       -1    1    3    3    0  502 -0.30359615698E+03 -0.23813464000E+03 -0.15882523629E+04  0.16344492349E+04  0.50400001928E-02 0. -1.
</event>
<event>
 5   0  0.3328741E-03  0.1115157E+04  0.7818609E-02  0.9190543E-01
        1   -1    0    0  501    0  0.00000000000E+00  0.00000000000E+00  0.52014279911E+03  0.52014279913E+03  0.50400001928E-02 0. -1.
       -1   -1    0    0    0  501  0.00000000000E+00  0.00000000000E+00 -0.59770888350E+03  0.59770888352E+03  0.50400001928E-02 0.  1.
    10030    2    1    2    0    0  0.00000000000E+00  0.00000000000E+00 -0.77566084385E+02  0.11178516827E+04  0.11151573373E+04 0.  0.
        3    1    3    3  502    0  0.17818829043E+03  0.25389506581E+03  0.42567236617E+03  0.52669796355E+03  0.10100000352E+00 0. -1.
       -3    1    3    3    0  502 -0.17818829043E+03 -0.25389506581E+03 -0.50323845056E+03  0.59115371910E+03  0.10100000352E+00 0.  1.
</event>
<event>
 5   0  0.3241189E-03  0.1183825E+04  0.7818609E-02  0.9127133E-01
        1   -1    0    0  501    0  0.00000000000E+00  0.00000000000E+00  0.68507603569E+03  0.68507603571E+03  0.50400001928E-02 0.  1.
       -1   -1    0    0    0  501  0.00000000000E+00  0.00000000000E+00 -0.51141835306E+03  0.51141835309E+03  0.50400001928E-02 0. -1.
    10030    2    1    2    0    0  0.00000000000E+00  0.00000000000E+00  0.17365768263E+03  0.11964943888E+04  0.11838250849E+04 0.  0.
        5    1    3    3  502    0  0.21963121973E+03 -0.26476983720E+03 -0.39998701292E+03  0.52759135689E+03  0.46999998093E+01 0. -1.
       -5    1    3    3    0  502 -0.21963121973E+03  0.26476983720E+03  0.57364469554E+03  0.66890303191E+03  0.46999998093E+01 0.  1.
</event>
<event>
 5   0  0.3328741E-03  0.1116358E+04  0.7818609E-02  0.9189393E-01
       -1   -1    0    0    0  501  0.00000000000E+00  0.00000000000E+00  0.50072449580E+03  0.50072449583E+03  0.50400001928E-02 0. -1.
        1   -1    0    0  501    0  0.00000000000E+00  0.00000000000E+00 -0.62222588351E+03  0.62222588353E+03  0.50400001928E-02 0.  1.
    10030    2    1    2    0    0  0.00000000000E+00  0.00000000000E+00 -0.12150138771E+03  0.11229503794E+04  0.11163579029E+04 0.  0.
        3    1    3    3  502    0 -0.23102643145E+03 -0.48404892963E+03  0.94716698235E+02  0.54465387306E+03  0.10100000352E+00 0. -1.
       -3    1    3    3    0  502  0.23102643145E+03  0.48404892963E+03 -0.21621808595E+03  0.57829650630E+03  0.10100000352E+00 0.  1.
</event>
<event>
 5   0  0.5627232E-03  0.1101645E+04  0.7818609E-02  0.9203590E-01
       -2   -1    0    0    0  501  0.00000000000E+00  0.00000000000E+00  0.56273542179E+03  0.56273542180E+03  0.25500000920E-02 0. -1.
        2   -1    0    0  501    0  0.00000000000E+00  0.00000000000E+00 -0.53916222149E+03  0.53916222150E+03  0.25500000920E-02 0.  1.
    10030    2    1    2    0    0  0.00000000000E+00  0.00000000000E+00  0.23573200295E+02  0.11018976433E+04  0.11016454605E+04 0.  0.
        2    1    3    3  502    0 -0.38261860579E+03  0.16832676027E+03  0.37058139142E+03  0.55862461761E+03  0.25500000920E-02 0. -1.
       -2    1    3    3    0  502  0.38261860579E+03 -0.16832676027E+03 -0.34700819113E+03  0.54327302569E+03  0.25500000920E-02 0.  1.
</event>
<event>
 5   0  0.5627232E-03  0.1099412E+04  0.7818609E-02  0.9205765E-01
       -2   -1    0    0    0  501  0.00000000000E+00  0.00000000000E+00  0.32785258277E+03  0.32785258278E+03  0.25500000920E-02 0. -1.
        2   -1    0    0  501    0  0.00000000000E+00  0.00000000000E+00 -0.92168504200E+03  0.92168504201E+03  0.25500000920E-02 0.  1.
    10030    2    1    2    0    0  0.00000000000E+00  0.00000000000E+00 -0.59383245923E+03  0.12495376248E+04  0.10994122458E+04 0.  0.
        2    1    3    3  502    0  0.51470207625E+03  0.14877342856E+03 -0.43669375187E+03  0.69119692799E+03  0.25500000920E-02 0.  1.
       -2    1    3    3    0  502 -0.51470207625E+03 -0.14877342856E+03 -0.15713870736E+03  0.55834069679E+03  0.25500000920E-02 0. -1.
</event>
<event>
 5   0  0.5946359E-03  0.1103061E+04  0.7818609E-02  0.9202214E-01
       -2   -1    0    0    0  501  0.00000000000E+00  0.00000000000E+00  0.32243431786E+03  0.32243431788E+03  0.25500000920E-02 0.  1.
        2   -1    0    0  501    0  0.00000000000E+00  0.00000000000E+00 -0.94340425312E+03  0.94340425312E+03  0.25500000920E-02 0. -1.
    10030    2    1    2    0    0  0.00000000000E+00  0.00000000000E+00 -0.62096993525E+03  0.12658385710E+04  0.11030610261E+04 0.  0.
        4    1    3    3  502    0  0.31749782961E+03 -0.34234893301E+03 -0.64736365676E+03  0.79817853938E+03  0.12699999809E+01 0. -1.
       -4    1    3    3    0  502 -0.31749782961E+03  0.34234893301E+03  0.26393721504E+02  0.46766003162E+03  0.12699999809E+01 0.  1.
</event>
<event>
 5   0  0.2185750E-03  0.1109934E+04  0.7818609E-02  0.9195564E-01
       -3   -1    0    0    0  501  0.00000000000E+00  0.00000000000E+00  0.37981902008E+03  0.37981903351E+03  0.10100000352E+00 0.  1.
        3   -1    0    0  501    0  0.00000000000E+00  0.00000000000E+00 -0.81088114751E+03  0.81088115380E+03  0.10100000352E+00 0. -1.
    10030    2    1    2    0    0  0.00000000000E+00  0.00000000000E+00 -0.43106212743E+03  0.11907001873E+04  0.11099335018E+04 0.  0.
        4    1    3    3  502    0 -0.13292324098E+03 -0.47463010695E+03 -0.48912697365E+03  0.69439839838E+03  0.12699999809E+01 0. -1.
       -4    1    3    3    0  502  0.13292324098E+03  0.47463010695E+03  0.58064846223E+02  0.49630178892E+03  0.12699999809E+01 0.  1.
</event>
<event>
 5   0  0.3328741E-03  0.1111899E+04  0.7818609E-02  0.9193672E-01
       -1   -1    0    0    0  501  0.00000000000E+00  0.00000000000E+00  0.21407670795E+03  0.21407670801E+03  0.50400001928E-02 0.  1.
        1   -1    0    0  501    0  0.00000000000E+00  0.00000000000E+00 -0.14437797469E+04  0.14437797469E+04  0.50400001928E-02 0. -1.
    10030    2    1    2    0    0  0.00000000000E+00  0.00000000000E+00 -0.12297030390E+04  0.16578564549E+04  0.11118985840E+04 0.  0.
        3    1    3    3  502    0  0.12003621300E+03  0.30151357123E+03  0.58189794631E+02  0.32970469889E+03  0.10100000352E+00 0.  1.
       -3    1    3    3    0  502 -0.12003621300E+03 -0.30151357123E+03 -0.12878928336E+04  0.13281517561E+04  0.10100000352E+00 0. -1.
</event>
<event>
 5   0  0.3316784E-03  0.1070473E+04  0.7818609E-02  0.9234459E-01
        1   -1    0    0  501    0  0.00000000000E+00  0.00000000000E+00  0.37330394122E+03  0.37330394126E+03  0.50400001928E-02 0. -1.
       -1   -1    0    0    0  501  0.00000000000E+00  0.00000000000E+00 -0.76741238074E+03  0.76741238076E+03  0.50400001928E-02 0.  1.
    10030    2    1    2    0    0  0.00000000000E+00  0.00000000000E+00 -0.39410843952E+03  0.11407163220E+04  0.10704729166E+04 0.  0.
        4    1    3    3  502    0 -0.32600698708E+03  0.32338036351E+03 -0.49009177994E+03  0.67160031327E+03  0.12699999809E+01 0.  1.
       -4    1    3    3    0  502  0.32600698708E+03 -0.32338036351E+03  0.95983340418E+02  0.46911600875E+03  0.12699999809E+01 0. -1.
</event>
<event>
 5   0  0.5941585E-03  0.1098457E+04  0.7818609E-02  0.9206697E-01
       -2   -1    0    0    0  501  0.00000000000E+00  0.00000000000E+00  0.33311815358E+03  0.33311815359E+03  0.25500000920E-02 0. -1.
        2   -1    0    0  501    0  0.00000000000E+00  0.00000000000E+00 -0.90554080908E+03  0.90554080908E+03  0.25500000920E-02 0.  1.
    10030    2    1    2    0    0  0.00000000000E+00  0.00000000000E+00 -0.57242265550E+03  0.12386589627E+04  0.10984572496E+04 0.  0.
        5    1    3    3  502    0 -0.16977508967E+03  0.20312997143E+03 -0.82881901575E+03  0.87008529308E+03  0.46999998093E+01 0.  1.
       -5    1    3    3    0  502  0.16977508967E+03 -0.20312997143E+03  0.25639636026E+03  0.36857366959E+03  0.46999998093E+01 0. -1.
</event>
<event>
 5   0  0.3241189E-03  0.1089095E+04  0.7818609E-02  0.9215886E-01
       -1   -1    0    0    0  501  0.00000000000E+00  0.00000000000E+00  0.43998095993E+03  0.43998095996E+03  0.50400001928E-02 0. -1.
        1   -1    0    0  501    0  0.00000000000E+00  0.00000000000E+00 -0.67396576477E+03  0.67396576479E+03  0.50400001928E-02 0.  1.
    10030    2    1    2    0    0  0.00000000000E+00  0.00000000000E+00 -0.23398480484E+03  0.11139467247E+04  0.10890952285E+04 0.  0.
        5    1    3    3  502    0 -0.45884850007E+03  0.20246169578E+03 -0.33391030697E+03  0.60253702573E+03  0.46999998093E+01 0.  1.
       -5    1    3    3    0  502  0.45884850007E+03 -0.20246169578E+03  0.99925502127E+02  0.51140969902E+03  0.46999998093E+01 0. -1.
</event>
<event>
 5   0  0.3320192E-03  0.1137889E+04  0.7818609E-02  0.9169030E-01
        1   -1    0    0  501    0  0.00000000000E+00  0.00000000000E+00  0.37968323015E+03  0.37968323018E+03  0.50400001928E-02 0. -1.
       -1   -1    0    0    0  501  0.00000000000E+00  0.00000000000E+00 -0.85254714458E+03  0.85254714460E+03  0.50400001928E-02 0.  1.
    10030    2    1    2    0    0  0.00000000000E+00  0.00000000000E+00 -0.47286391444E+03  0.12322303748E+04  0.11378890170E+04 0.  0.
        2    1    3    3  502    0 -0.60289544369E+02 -0.18576651614E+03 -0.81510865731E+03  0.83818026158E+03  0.25500000920E-02 0.  1.
       -2    1    3    3    0  502  0.60289544369E+02  0.18576651614E+03  0.34224474287E+03  0.39405011319E+03  0.25500000920E-02 0. -1.
</event>
<event>
 5   0  0.5500363E-03  0.1104453E+04  0.7818609E-02  0.9200862E-01
        2   -1    0    0  501    0  0.00000000000E+00  0.00000000000E+00  0.16539910801E+04  0.16539910801E+04  0.25500000920E-02 0. -1.
       -2   -1    0    0    0  501  0.00000000000E+00  0.00000000000E+00 -0.18437477465E+03  0.18437477467E+03  0.25500000920E-02 0.  1.
    10030    2    1    2    0    0  0.00000000000E+00  0.00000000000E+00  0.14696163054E+04  0.18383658548E+04  0.11044532271E+04 0.  0.
        3    1    3    3  502    0 -0.45816357838E+03  0.25436583796E+03  0.10247299034E+04  0.11509505764E+04  0.10100000352E+00 0. -1.
       -3    1    3    3    0  502  0.45816357838E+03 -0.25436583796E+03  0.44488640204E+03  0.68741527841E+03  0.10100000352E+00 0.  1.
</event>
<event>
 5   0  0.3328741E-03  0.1099815E+04  0.7818609E-02  0.9205372E-01
       -1   -1    0    0    0  501  0.00000000000E+00  0.00000000000E+00  0.35481455149E+03  0.35481455153E+03  0.50400001928E-02 0.  1.
        1   -1    0    0  501    0  0.00000000000E+00  0.00000000000E+00 -0.85227184092E+03  0.85227184093E+03  0.50400001928E-02 0. -1.
    10030    2    1    2    0    0  0.00000000000E+00  0.00000000000E+00 -0.49745728942E+03  0.12070863925E+04  0.10998153500E+04 0.  0.
        3    1    3    3  502    0  0.11182077677E+03  0.25712904325E+03 -0.76792118668E+03  0.81750974927E+03  0.10100000352E+00 0. -1.
       -3    1    3    3    0  502 -0.11182077677E+03 -0.25712904325E+03  0.27046389725E+03  0.38957664319E+03  0.10100000352E+00 0.  1.
</event>
<event>
 5   0  0.3328741E-03  0.1103763E+04  0.7818609E-02  0.9201532E-01
       -1   -1    0    0    0  501  0.00000000000E+00  0.00000000000E+00  0.21997489546E+03  0.21997489551E+03  0.50400001928E-02 0.  1.
        1   -1    0    0  501    0  0.00000000000E+00  0.00000000000E+00 -0.13845805384E+04  0.13845805384E+04  0.50400001928E-02 0. -1.
    10030    2    1    2    0    0  0.00000000000E+00  0.00000000000E+00 -0.11646056429E+04  0.16045554339E+04  0.11037625818E+04 0.  0.
        3    1    3    3  502    0  0.44935773654E+03 -0.31226019570E+03 -0.47803852675E+03  0.72660143715E+03  0.10100000352E+00 0. -1.
       -3    1    3    3    0  502 -0.44935773654E+03  0.31226019570E+03 -0.68656711616E+03  0.87795399675E+03  0.10100000352E+00 0.  1.
</event>
<event>
 5   0  0.3328741E-03  0.1191388E+04  0.7818609E-02  0.9120428E-01
       -1   -1    0    0    0  501  0.00000000000E+00  0.00000000000E+00  0.48498897454E+03  0.48498897457E+03  0.50400001928E-02 0. -1.
        1   -1    0    0  501    0  0.00000000000E+00  0.00000000000E+00 -0.73166866150E+03  0.73166866152E+03  0.50400001928E-02 0.  1.
    10030    2    1    2    0    0  0.00000000000E+00  0.00000000000E+00 -0.24667968696E+03  0.12166576361E+04  0.11913878191E+04 0.  0.
        3    1    3    3  502    0 -0.10710920463E+03 -0.41592363267E+03 -0.54487389315E+03  0.69379566125E+03  0.10100000352E+00 0.  1.
       -3    1    3    3    0  502  0.10710920463E+03  0.41592363267E+03  0.29819420619E+03  0.52286197484E+03  0.10100000352E+00 0. -1.
</event>
<event>
 5   0  0.2185750E-03  0.1131423E+04  0.7818609E-02  0.9175095E-01
        4   -1    0    0  501    0  0.00000000000E+00  0.00000000000E+00  0.87757615572E+03  0.87757707467E+03  0.12699999809E+01 0.  1.
       -4   -1    0    0    0  501  0.00000000000E+00  0.00000000000E+00 -0.36467192132E+03  0.36467413275E+03  0.12699999809E+01 0. -1.
    10030    2    1    2    0    0  0.00000000000E+00  0.00000000000E+00  0.51290423440E+03  0.12422512074E+04  0.11314226923E+04 0.  0.
        3    1    3    3  502    0  0.11496231432E+02  0.13089892501E+03  0.86058944972E+03  0.87056355487E+03  0.10100000352E+00 0.  1.
       -3    1    3    3    0  502 -0.11496231432E+02 -0.13089892501E+03 -0.34768521532E+03  0.37168765255E+03  0.10100000352E+00 0. -1.
</event>
<event>
 5   0  0.3316784E-03  0.1094611E+04  0.7818609E-02  0.9210461E-01
        1   -1    0    0  501    0  0.00000000000E+00  0.00000000000E+00  0.35274699617E+03  0.35274699621E+03  0.50400001928E-02 0.  1.
       -1   -1    0    0    0  501  0.00000000000E+00  0.00000000000E+00 -0.84917282419E+03  0.84917282420E+03  0.50400001928E-02 0. -1.
    10030    2    1    2    0    0  0.00000000000E+00  0.00000000000E+00 -0.49642582802E+03  0.12019198204E+04  0.10946107308E+04 0.  0.
        4    1    3    3  502    0 -0.11443743022E+02  0.50770673282E+03 -0.24137382355E+02  0.50841057418E+03  0.12699999809E+01 0.  1.
       -4    1    3    3    0  502  0.11443743022E+02 -0.50770673282E+03 -0.47228844566E+03  0.69350924624E+03  0.12699999809E+01 0. -1.
</event>
<event>
 5   0  0.3316784E-03  0.1089429E+04  0.7818609E-02  0.9215557E-01
       -1   -1    0    0    0  501  0.00000000000E+00  0.00000000000E+00  0.73777133196E+03  0.73777133197E+03  0.50400001928E-02 0. -1.
        1   -1    0    0  501    0  0.00000000000E+00  0.00000000000E+00 -0.40217606913E+03  0.40217606917E+03  0.50400001928E-02 0.  1.
    10030    2    1    2    0    0  0.00000000000E+00  0.00000000000E+00  0.33559526282E+03  0.11399474011E+04  0.10894291610E+04 0.  0.
        4    1    3    3  502    0 -0.18587530833E+03  0.26513395528E+03 -0.29054012962E+03  0.43504117542E+03  0.12699999809E+01 0.  1.
       -4    1    3    3    0  502  0.18587530833E+03 -0.26513395528E+03  0.62613539244E+03  0.70490622572E+03  0.12699999809E+01 0. -1.
</event>
<event>
 5   0  0.5500363E-03  0.1069193E+04  0.7818609E-02  0.9235750E-01
       -2   -1    0    0    0  501  0.00000000000E+00  0.00000000000E+00  0.20381277705E+03  0.20381277707E+03  0.25500000920E-02 0. -1.
        2   -1    0    0  501    0  0.00000000000E+00  0.00000000000E+00 -0.14022339662E+04  0.14022339662E+04  0.25500000920E-02 0.  1.
    10030    2    1    2    0    0  0.00000000000E+00  0.00000000000E+00 -0.11984211892E+04  0.16060467433E+04  0.10691925902E+04 0.  0.
        3    1    3    3  502    0 -0.23240734889E+03 -0.22566556792E+03 -0.12380145224E+04  0.12796945308E+04  0.10100000352E+00 0.  1.
       -3    1    3    3    0  502  0.23240734889E+03  0.22566556792E+03  0.39593333205E+02  0.32635221249E+03  0.10100000352E+00 0. -1.
</event>
<event>
 5   0  0.5946359E-03  0.1114668E+04  0.7818609E-02  0.9191013E-01
        2   -1    0    0  501    0  0.00000000000E+00  0.00000000000E+00  0.11964768854E+04  0.11964768854E+04  0.25500000920E-02 0.  1.
       -2   -1    0    0    0  501  0.00000000000E+00  0.00000000000E+00 -0.25961298077E+03  0.25961298078E+03  0.25500000920E-02 0. -1.
    10030    2    1    2    0    0  0.00000000000E+00  0.00000000000E+00  0.93686390464E+03  0.14560898662E+04  0.11146675390E+04 0.  0.
        4    1    3    3  502    0  0.11077622177E+03  0.41819952887E+02  0.11798546129E+04  0.11857819363E+04  0.12699999809E+01 0.  1.
       -4    1    3    3    0  502 -0.11077622177E+03 -0.41819952887E+02 -0.24299070830E+03  0.27030792994E+03  0.12699999809E+01 0. -1.
</event>
<event>
 5   0  0.5946359E-03  0.1159455E+04  0.7818609E-02  0.9149105E-01
       -2   -1    0    0    0  501  0.00000000000E+00  0.00000000000E+00  0.20624304169E+03  0.20624304171E+03  0.25500000920E-02 0. -1.
        2   -1    0    0  501    0  0.00000000000E+00  0.00000000000E+00 -0.16295523754E+04  0.16295523754E+04  0.25500000920E-02 0.  1.
    10030    2    1    2    0    0  0.00000000000E+00  0.00000000000E+00 -0.14233093337E+04  0.18357954171E+04  0.11594547659E+04 0.  0.
        4    1    3    3  502    0  0.57593625483E+03  0.52056588736E+00 -0.81643433895E+03  0.99913436700E+03  0.12699999809E+01 0. -1.
       -4    1    3    3    0  502 -0.57593625483E+03 -0.52056588736E+00 -0.60687499479E+03  0.83666105014E+03  0.12699999809E+01 0.  1.
</event>
<event>
 5   0  0.3241189E-03  0.1108148E+04  0.7818609E-02  0.9197286E-01
       -1   -1    0    0    0  501  0.00000000000E+00  0.00000000000E+00  0.80200868805E+03  0.80200868806E+03  0.50400001928E-02 0. -1.
        1   -1    0    0  501    0  0.00000000000E+00  0.00000000000E+00 -0.38278668383E+03  0.38278668386E+03  0.50400001928E-02 0.  1.
    10030    2    1    2    0    0  0.00000000000E+00  0.00000000000E+00  0.41922200422E+03  0.11847953719E+04  0.11081484488E+04 0.  0.
        5    1    3    3  502    0  0.61610893901E+02 -0.36615868851E+03  0.64928174891E+03  0.74796856009E+03  0.46999998093E+01 0. -1.
       -5    1    3    3    0  502 -0.61610893901E+02  0.36615868851E+03 -0.23005974468E+03  0.43682681184E+03  0.46999998093E+01 0.  1.
</event>
<event>
 5   0  0.3328741E-03  0.1105733E+04  0.7818609E-02  0.9199623E-01
       -1   -1    0    0    0  501  0.00000000000E+00  0.00000000000E+00  0.37077575214E+03  0.37077575217E+03  0.50400001928E-02 0. -1.
        1   -1    0    0  501    0  0.00000000000E+00  0.00000000000E+00 -0.82438268337E+03  0.82438268339E+03  0.50400001928E-02 0.  1.
    10030    2    1    2    0    0  0.00000000000E+00  0.00000000000E+00 -0.45360693123E+03  0.11951584356E+04  0.11057325346E+04 0.  0.
        3    1    3    3  502    0 -0.34525418336E+03 -0.62136550610E+02 -0.68867949051E+03  0.77287829113E+03  0.10100000352E+00 0.  1.
       -3    1    3    3    0  502  0.34525418336E+03  0.62136550610E+02  0.23507255928E+03  0.42228014443E+03  0.10100000352E+00 0. -1.
</event>
<event>
 5   0  0.5946359E-03  0.1085765E+04  0.7818609E-02  0.9219178E-01
        2   -1    0    0  501    0  0.00000000000E+00  0.00000000000E+00  0.18104319856E+04  0.18104319856E+04  0.25500000920E-02 0.  1.
       -2   -1    0    0    0  501  0.00000000000E+00  0.00000000000E+00 -0.16279070330E+03  0.16279070332E+03  0.25500000920E-02 0. -1.
    10030    2    1    2    0    0  0.00000000000E+00  0.00000000000E+00  0.16476412823E+04  0.19732226889E+04  0.10857651610E+04 0.  0.
        4    1    3    3  502    0 -0.34470489280E+03 -0.21359585119E+03  0.16787005156E+03  0.43889249011E+03  0.12699999809E+01 0. -1.
       -4    1    3    3    0  502  0.34470489280E+03  0.21359585119E+03  0.14797712307E+04  0.15343301988E+04  0.12699999809E+01 0.  1.
</event>
<event>
 5   0  0.5941585E-03  0.1097013E+04  0.7818609E-02  0.9208108E-01
       -2   -1    0    0    0  501  0.00000000000E+00  0.00000000000E+00  0.21410976298E+03  0.21410976300E+03  0.25500000920E-02 0. -1.
        2   -1    0    0  501    0  0.00000000000E+00  0.00000000000E+00 -0.14051651692E+04  0.14051651692E+04  0.25500000920E-02 0.  1.
    10030    2    1    2    0    0  0.00000000000E+00  0.00000000000E+00 -0.11910554062E+04  0.16192749322E+04  0.10970133661E+04 0.  0.
        5    1    3    3  502    0 -0.45653272417E+03 -0.21872103700E+03 -0.90717367343E+03  0.10388682226E+04  0.46999998093E+01 0.  1.
       -5    1    3    3    0  502  0.45653272417E+03  0.21872103700E+03 -0.28388173275E+03  0.58040670952E+03  0.46999998093E+01 0. -1.
</event>
<event>
 5   0  0.3241189E-03  0.1094909E+04  0.7818609E-02  0.9210168E-01
       -1   -1    0    0    0  501  0.00000000000E+00  0.00000000000E+00  0.37885380591E+03  0.37885380595E+03  0.50400001928E-02 0. -1.
        1   -1    0    0  501    0  0.00000000000E+00  0.00000000000E+00 -0.79108758214E+03  0.79108758216E+03  0.50400001928E-02 0.  1.
    10030    2    1    2    0    0  0.00000000000E+00  0.00000000000E+00 -0.41223377623E+03  0.11699413881E+04  0.10949092042E+04 0.  0.
        5    1    3    3  502    0 -0.19116018497E+03 -0.18351794983E+03  0.30573311205E+03  0.40461819043E+03  0.46999998093E+01 0. -1.
       -5    1    3    3    0  502  0.19116018497E+03  0.18351794983E+03 -0.71796688828E+03  0.76532319767E+03  0.46999998093E+01 0.  1.
</event>
<event>
 5   0  0.3328741E-03  0.1129222E+04  0.7818609E-02  0.9177169E-01
       -1   -1    0    0    0  501  0.00000000000E+00  0.00000000000E+00  0.26896711894E+03  0.26896711899E+03  0.50400001928E-02 0.  1.
        1   -1    0    0  501    0  0.00000000000E+00  0.00000000000E+00 -0.11852208327E+04  0.11852208328E+04  0.50400001928E-02 0. -1.
    10030    2    1    2    0    0  0.00000000000E+00  0.00000000000E+00 -0.91625371380E+03  0.14541879517E+04  0.11292217368E+04 0.  0.
        3    1    3    3  502    0  0.22566897406E+03 -0.26019747578E+03  0.11801024995E+03  0.36408191599E+03  0.10100000352E+00 0.  1.
       -3    1    3    3    0  502 -0.22566897406E+03  0.26019747578E+03 -0.10342639638E+04  0.10901060358E+04  0.10100000352E+00 0. -1.
</event>
<event>
 5   0  0.5627232E-03  0.1078710E+04  0.7818609E-02  0.9226195E-01
        2   -1    0    0  501    0  0.00000000000E+00  0.00000000000E+00  0.72574080304E+03  0.72574080304E+03  0.25500000920E-02 0. -1.
       -2   -1    0    0    0  501  0.00000000000E+00  0.00000000000E+00 -0.40083687780E+03  0.40083687781E+03  0.25500000920E-02 0.  1.
    10030    2    1    2    0    0  0.00000000000E+00  0.00000000000E+00  0.32490392524E+03  0.11265776808E+04  0.10787097433E+04 0.  0.
        2    1    3    3  502    0 -0.95546397113E+02 -0.52148333968E+03  0.58907601536E+02  0.53342674576E+03  0.25500000920E-02 0. -1.
       -2    1    3    3    0  502  0.95546397113E+02  0.52148333968E+03  0.26599632370E+03  0.59315093509E+03  0.25500000920E-02 0.  1.
</event>
<event>
 5   0  0.5941585E-03  0.1105870E+04  0.7818609E-02  0.9199489E-01
       -2   -1    0    0    0  501  0.00000000000E+00  0.00000000000E+00  0.54973983009E+03  0.54973983010E+03  0.25500000920E-02 0.  1.
        2   -1    0    0  501    0  0.00000000000E+00  0.00000000000E+00 -0.55614888588E+03  0.55614888589E+03  0.25500000920E-02 0. -1.
    10030    2    1    2    0    0  0.00000000000E+00  0.00000000000E+00 -0.64090557916E+01  0.11058887160E+04  0.11058701443E+04 0.  0.
        5    1    3    3  502    0 -0.12915435928E+03  0.11762828907E+03 -0.52780636204E+03  0.55598462993E+03  0.46999998093E+01 0. -1.
       -5    1    3    3    0  502  0.12915435928E+03 -0.11762828907E+03  0.52139730624E+03  0.54990408606E+03  0.46999998093E+01 0.  1.
</event>
<event>
 5   0  0.5723194E-03  0.1114522E+04  0.7818609E-02  0.9191152E-01
        2   -1    0    0  501    0  0.00000000000E+00  0.00000000000E+00  0.43875107914E+03  0.43875107915E+03  0.25500000920E-02 0.  1.
       -2   -1    0    0    0  501  0.00000000000E+00  0.00000000000E+00 -0.70778174245E+03  0.70778174246E+03  0.25500000920E-02 0. -1.
    10030    2    1    2    0    0  0.00000000000E+00  0.00000000000E+00 -0.26903066331E+03  0.11465328216E+04  0.11145223251E+04 0.  0.
        1    1    3    3  502    0  0.31927564489E+03  0.81056838434E+01 -0.60429006958E+03  0.68349771598E+03  0.50400001928E-02 0. -1.
       -1    1    3    3    0  502 -0.31927564489E+03 -0.81056838434E+01  0.33525940627E+03  0.46303510563E+03  0.50400001928E-02 0.  1.
</event>
<event>
 5   0  0.5946359E-03  0.1087816E+04  0.7818609E-02  0.9217150E-01
       -2   -1    0    0    0  501  0.00000000000E+00  0.00000000000E+00  0.25012318970E+03  0.25012318971E+03  0.25500000920E-02 0. -1.
        2   -1    0    0  501    0  0.00000000000E+00  0.00000000000E+00 -0.11827601424E+04  0.11827601425E+04  0.25500000920E-02 0.  1.
    10030    2    1    2    0    0  0.00000000000E+00  0.00000000000E+00 -0.93263695275E+03  0.14328833322E+04  0.10878156820E+04 0.  0.
        4    1    3    3  502    0  0.39477171489E+03 -0.18772139502E+03 -0.89263555732E+03  0.99392347800E+03  0.12699999809E+01 0.  1.
       -4    1    3    3    0  502 -0.39477171489E+03  0.18772139502E+03 -0.40001395428E+02  0.43895985416E+03  0.12699999809E+01 0. -1.
</event>
<event>
 5   0  0.5941585E-03  0.1108777E+04  0.7818609E-02  0.9196679E-01
       -2   -1    0    0    0  501  0.00000000000E+00  0.00000000000E+00  0.11221142109E+03  0.11221142112E+03  0.25500000920E-02 0. -1.
        2   -1    0    0  501    0  0.00000000000E+00  0.00000000000E+00 -0.27389949826E+04  0.27389949826E+04  0.25500000920E-02 0.  1.
    10030    2    1    2    0    0  0.00000000000E+00  0.00000000000E+00 -0.26267835615E+04  0.28512064037E+04  0.11087768385E+04 0.  0.
        5    1    3    3  502    0 -0.52003081318E+03  0.40319253926E+02 -0.83048069683E+03  0.98070279223E+03  0.46999998093E+01 0.  1.
       -5    1    3    3    0  502  0.52003081318E+03 -0.40319253926E+02 -0.17963028647E+04  0.18705036115E+04  0.46999998093E+01 0. -1.
</event>
<event>
 5   0  0.5500363E-03  0.1098103E+04  0.7818609E-02  0.9207042E-01
       -2   -1    0    0    0  501  0.00000000000E+00  0.00000000000E+00  0.70867620973E+03  0.70867620973E+03  0.25500000920E-02 0.  1.
        2   -1    0    0  501    0  0.00000000000E+00  0.00000000000E+00 -0.42538146824E+03  0.42538146825E+03  0.25500000920E-02 0. -1.
    10030    2    1    2    0    0  0.00000000000E+00  0.00000000000E+00  0.28329474149E+03  0.11340576780E+04  0.10981033223E+04 0.  0.
        3    1    3    3  502    0  0.21336705658E+03  0.40258929887E+03 -0.17473953253E+03  0.48799340039E+03  0.10100000352E+00 0. -1.
       -3    1    3    3    0  502 -0.21336705658E+03 -0.40258929887E+03  0.45803427402E+03  0.64606427759E+03  0.10100000352E+00 0.  1.
</event>
<event>
 5   0  0.3316784E-03  0.1102070E+04  0.7818609E-02  0.9203176E-01
       -1   -1    0    0    0  501  0.00000000000E+00  0.00000000000E+00  0.35879579201E+03  0.35879579205E+03  0.50400001928E-02 0.  1.
        1   -1    0    0  501    0  0.00000000000E+00  0.00000000000E+00 -0.84627441189E+03  0.84627441191E+03  0.50400001928E-02 0. -1.
    10030    2    1    2    0    0  0.00000000000E+00  0.00000000000E+00 -0.48747861988E+03  0.12050702040E+04  0.11020702299E+04 0.  0.
        4    1    3    3  502    0  0.17597613603E+03  0.34100036776E+03 -0.67616003762E+03  0.77745923407E+03  0.12699999809E+01 0. -1.
       -4    1    3    3    0  502 -0.17597613603E+03 -0.34100036776E+03  0.18868141774E+03  0.42761096988E+03  0.12699999809E+01 0.  1.
</event>
<event>
 5   0  0.5941585E-03  0.1091643E+04  0.7818609E-02  0.9213375E-01
       -2   -1    0    0    0  501  0.00000000000E+00  0.00000000000E+00  0.28142682456E+03  0.28142682457E+03  0.25500000920E-02 0.  1.
        2   -1    0    0  501    0  0.00000000000E+00  0.00000000000E+00 -0.10586099733E+04  0.10586099733E+04  0.25500000920E-02 0. -1.
    10030    2    1    2    0    0  0.00000000000E+00  0.00000000000E+00 -0.77718314878E+03  0.13400367979E+04  0.10916432444E+04 0.  0.
        5    1    3    3  502    0 -0.30657869111E+03  0.33481381800E+03 -0.16647945891E+02  0.45430169564E+03  0.46999998093E+01 0.  1.
       -5    1    3    3    0  502  0.30657869111E+03 -0.33481381800E+03 -0.76053520289E+03  0.88573510227E+03  0.46999998093E+01 0. -1.
</event>
<event>
 5   0  0.3241189E-03  0.1105168E+04  0.7818609E-02  0.9200169E-01
        1   -1    0    0  501    0  0.00000000000E+00  0.00000000000E+00  0.38134976893E+03  0.38134976896E+03  0.50400001928E-02 0.  1.
       -1   -1    0    0    0  501  0.00000000000E+00  0.00000000000E+00 -0.80070660613E+03  0.80070660614E+03  0.50400001928E-02 0. -1.
    10030    2    1    2    0    0  0.00000000000E+00  0.00000000000E+00 -0.41935683720E+03  0.11820563751E+04  0.11051683659E+04 0.  0.
        5    1    3    3  502    0  0.16581696251E+02  0.39877022756E+03 -0.61840938405E+03  0.73603322162E+03  0.46999998093E+01 0. -1.
       -5    1    3    3    0  502 -0.16581696251E+02 -0.39877022756E+03  0.19905254685E+03  0.44602315349E+03  0.46999998093E+01 0.  1.
</event>
<event>
 5   0  0.3241189E-03  0.1168088E+04  0.7818609E-02  0.9141257E-01
       -1   -1    0    0    0  501  0.00000000000E+00  0.00000000000E+00  0.66969469742E+03  0.66969469744E+03  0.50400001928E-02 0.  1.
        1   -1    0    0  501    0  0.00000000000E+00  0.00000000000E+00 -0.50934746214E+03  0.50934746217E+03  0.50400001928E-02 0. -1.
    10030    2    1    2    0    0  0.00000000000E+00  0.00000000000E+00  0.16034723528E+03  0.11790421596E+04  0.11680878299E+04 0.  0.
        5    1    3    3  502    0  0.17049820575E+03  0.19616994240E+02 -0.48330051147E+03  0.51288979227E+03  0.46999998093E+01 0. -1.
       -5    1    3    3    0  502 -0.17049820575E+03 -0.19616994240E+02  0.64364774675E+03  0.66615236735E+03  0.46999998093E+01 0.  1.
</event>
<event>
 5   0  0.3241189E-03  0.1096462E+04  0.7818609E-02  0.9208647E-01
        1   -1    0    0  501    0  0.00000000000E+00  0.00000000000E+00  0.61163759183E+03  0.61163759185E+03  0.50400001928E-02 0.  1.
       -1   -1    0    0    0  501  0.00000000000E+00  0.00000000000E+00 -0.49139738794E+03  0.49139738797E+03  0.50400001928E-02 0. -1.
    10030    2    1    2    0    0  0.00000000000E+00  0.00000000000E+00  0.12024020389E+03  0.11030349798E+04  0.10964617914E+04 0.  0.
        5    1    3    3  502    0 -0.18307543061E+03  0.12704495961E+03  0.56400003562E+03  0.60644469264E+03  0.46999998093E+01 0.  1.
       -5    1    3    3    0  502  0.18307543061E+03 -0.12704495961E+03 -0.44375983173E+03  0.49659028717E+03  0.46999998093E+01 0. -1.
</event>
<event>
 5   0  0.3215352E-03  0.1094794E+04  0.7818609E-02  0.9210281E-01
       -1   -1    0    0    0  501  0.00000000000E+00  0.00000000000E+00  0.76395780411E+03  0.76395780413E+03  0.50400001928E-02 0.  1.
        1   -1    0    0  501    0  0.00000000000E+00  0.00000000000E+00 -0.39222524941E+03  0.39222524945E+03  0.50400001928E-02 0. -1.
    10030    2    1    2    0    0  0.00000000000E+00  0.00000000000E+00  0.37173255470E+03  0.11561830536E+04  0.10947941182E+04 0.  0.
        1    1    3    3  502    0 -0.48383631587E+03 -0.31361505507E+01  0.45622134906E+03  0.66501528957E+03  0.50400001928E-02 0.  1.
       -1    1    3    3    0  502  0.48383631587E+03  0.31361505507E+01 -0.84488794362E+02  0.49116776400E+03  0.50400001928E-02 0. -1.
</event>
<event>
 5   0  0.5500363E-03  0.1101968E+04  0.7818609E-02  0.9203276E-01
        2   -1    0    0  501    0  0.00000000000E+00  0.00000000000E+00  0.60937645461E+03  0.60937645461E+03  0.25500000920E-02 0.  1.
       -2   -1    0    0    0  501  0.00000000000E+00  0.00000000000E+00 -0.49818712695E+03  0.49818712695E+03  0.25500000920E-02 0. -1.
    10030    2    1    2    0    0  0.00000000000E+00  0.00000000000E+00  0.11118932766E+03  0.11075635816E+04  0.11019682485E+04 0.  0.
        3    1    3    3  502    0 -0.44373803850E+03  0.17551725232E+03  0.33244518054E+03  0.58157506904E+03  0.10100000352E+00 0.  1.
       -3    1    3    3    0  502  0.44373803850E+03 -0.17551725232E+03 -0.22125585288E+03  0.52598851252E+03  0.10100000352E+00 0. -1.
</event>
<event>
 5   0  0.2185750E-03  0.1106304E+04  0.7818609E-02  0.9199070E-01
        4   -1    0    0  501    0  0.00000000000E+00  0.00000000000E+00  0.49821481794E+03  0.49821643662E+03  0.12699999809E+01 0. -1.
       -4   -1    0    0    0  501  0.00000000000E+00  0.00000000000E+00 -0.61414325033E+03  0.61414456345E+03  0.12699999809E+01 0.  1.
    10030    2    1    2    0    0  0.00000000000E+00  0.00000000000E+00 -0.11592843239E+03  0.11123610001E+04  0.11063035718E+04 0.  0.
        1    1    3    3  502    0  0.20805527172E+03 -0.28023254435E+03  0.37352371032E+03  0.51121153860E+03  0.50400001928E-02 0. -1.
       -1    1    3    3    0  502 -0.20805527172E+03  0.28023254435E+03 -0.48945214270E+03  0.60114946147E+03  0.50400001928E-02 0.  1.
</event>
<event>
 5   0  0.3316784E-03  0.1078810E+04  0.7818609E-02  0.9226094E-01
       -1   -1    0    0    0  501  0.00000000000E+00  0.00000000000E+00  0.35704284262E+03  0.35704284266E+03  0.50400001928E-02 0. -1.
        1   -1    0    0  501    0  0.00000000000E+00  0.00000000000E+00 -0.81491049322E+03  0.81491049323E+03  0.50400001928E-02 0.  1.
    10030    2    1    2    0    0  0.00000000000E+00  0.00000000000E+00 -0.45786765060E+03  0.11719533359E+04  0.10788103800E+04 0.  0.
        4    1    3    3  502    0 -0.33795357767E+03  0.41613297346E+03 -0.16396138837E+03  0.56059274169E+03  0.12699999809E+01 0.  1.
       -4    1    3    3    0  502  0.33795357767E+03 -0.41613297346E+03 -0.29390626223E+03  0.61136059420E+03  0.12699999809E+01 0. -1.
</event>
<event>
 5   0  0.5627232E-03  0.1121247E+04  0.7818609E-02  0.9184727E-01
        2   -1    0    0  501    0  0.00000000000E+00  0.00000000000E+00  0.10895910770E+04  0.10895910770E+04  0.25500000920E-02 0.  1.
       -2   -1    0    0    0  501  0.00000000000E+00  0.00000000000E+00 -0.28845588900E+03  0.28845588901E+03  0.25500000920E-02 0. -1.
    10030    2    1    2    0    0  0.00000000000E+00  0.00000000000E+00  0.80113518796E+03  0.13780469660E+04  0.11212474531E+04 0.  0.
        2    1    3    3  502    0  0.37474945297E+03  0.39941842589E+03  0.25345965608E+03  0.60350147366E+03  0.25500000920E-02 0. -1.
       -2    1    3    3    0  502 -0.37474945297E+03 -0.39941842589E+03  0.54767553188E+03  0.77454549232E+03  0.25500000920E-02 0.  1.
</event>
<event>
 5   0  0.5627232E-03  0.1098186E+04  0.7818609E-02  0.9206961E-01
        2   -1    0    0  501    0  0.00000000000E+00  0.00000000000E+00  0.59064547477E+03  0.59064547478E+03  0.25500000920E-02 0.  1.
       -2   -1    0    0    0  501  0.00000000000E+00  0.00000000000E+00 -0.51046407172E+03  0.51046407172E+03  0.25500000920E-02 0. -1.
    10030    2    1    2    0    0  0.00000000000E+00  0.00000000000E+00  0.80181403055E+02  0.11011095465E+04  0.10981863121E+04 0.  0.
        2    1    3    3  502    0 -0.40490994791E+03  0.12543705651E+03  0.39004235255E+03  0.57603780940E+03  0.25500000920E-02 0.  1.
       -2    1    3    3    0  502  0.40490994791E+03 -0.12543705651E+03 -0.30986094950E+03  0.52507173710E+03  0.25500000920E-02 0. -1.
</event>
<event>
 5   0  0.3215352E-03  0.1078495E+04  0.7818609E-02  0.9226409E-01
       -1   -1    0    0    0  501  0.00000000000E+00  0.00000000000E+00  0.69553796559E+03  0.69553796560E+03  0.50400001928E-02 0.  1.
        1   -1    0    0  501    0  0.00000000000E+00  0.00000000000E+00 -0.41807648548E+03  0.41807648551E+03  0.50400001928E-02 0. -1.
    10030    2    1    2    0    0  0.00000000000E+00  0.00000000000E+00  0.27746148011E+03  0.11136144511E+04  0.10784953745E+04 0.  0.
        1    1    3    3  502    0  0.36596648826E+03  0.70144595801E+02 -0.26375212137E+03  0.45652701607E+03  0.50400001928E-02 0. -1.
       -1    1    3    3    0  502 -0.36596648826E+03 -0.70144595801E+02  0.54121360147E+03  0.65708743505E+03  0.50400001928E-02 0.  1.
</event>
<event>
 5   0  0.5941585E-03  0.1081046E+04  0.7818609E-02  0.9223865E-01
       -2   -1    0    0    0  501  0.00000000000E+00  0.00000000000E+00  0.75341881390E+03  0.75341881391E+03  0.25500000920E-02 0.  1.
        2   -1    0    0  501    0  0.00000000000E+00  0.00000000000E+00 -0.38778608144E+03  0.38778608145E+03  0.25500000920E-02 0. -1.
    10030    2    1    2    0    0  0.00000000000E+00  0.00000000000E+00  0.36563273246E+03  0.11412048954E+04  0.10810463996E+04 0.  0.
        5    1    3    3  502    0  0.26137169267E+03 -0.40074946833E+02 -0.31482089574E+03  0.41116353132E+03  0.46999998093E+01 0. -1.
       -5    1    3    3    0  502 -0.26137169267E+03  0.40074946833E+02  0.68045362820E+03  0.73004136404E+03  0.46999998093E+01 0.  1.
</event>
<event>
 5   0  0.3328741E-03  0.1093474E+04  0.7818609E-02  0.9211576E-01
       -1   -1    0    0    0  501  0.00000000000E+00  0.00000000000E+00  0.21415239280E+03  0.21415239286E+03  0.50400001928E-02 0.  1.
        1   -1    0    0  501    0  0.00000000000E+00  0.00000000000E+00 -0.13958340060E+04  0.13958340060E+04  0.50400001928E-02 0. -1.
    10030    2    1    2    0    0  0.00000000000E+00  0.00000000000E+00 -0.11816816132E+04  0.16099863989E+04  0.10934737169E+04 0.  0.
        3    1    3    3  502    0 -0.47091463719E+02  0.54353110360E+03 -0.64346639603E+03  0.84361879991E+03  0.10100000352E+00 0.  1.
       -3    1    3    3    0  502  0.47091463719E+02 -0.54353110360E+03 -0.53821521715E+03  0.76636759895E+03  0.10100000352E+00 0. -1.
</event>
<event>
 5   0  0.5946359E-03  0.1054501E+04  0.7818609E-02  0.9250709E-01
        2   -1    0    0  501    0  0.00000000000E+00  0.00000000000E+00  0.14866989048E+04  0.14866989048E+04  0.25500000920E-02 0.  1.
       -2   -1    0    0    0  501  0.00000000000E+00  0.00000000000E+00 -0.18698684648E+03  0.18698684650E+03  0.25500000920E-02 0. -1.
    10030    2    1    2    0    0  0.00000000000E+00  0.00000000000E+00  0.12997120583E+04  0.16736857513E+04  0.10545010951E+04 0.  0.
        4    1    3    3  502    0  0.20109239460E+03 -0.10746903376E+03  0.14044003205E+04  0.14227893792E+04  0.12699999809E+01 0.  1.
       -4    1    3    3    0  502 -0.20109239460E+03  0.10746903376E+03 -0.10468826221E+03  0.25089637209E+03  0.12699999809E+01 0. -1.
</event>
<event>
 5   0  0.2185750E-03  0.1089367E+04  0.7818609E-02  0.9215618E-01
        3   -1    0    0  501    0  0.00000000000E+00  0.00000000000E+00  0.24986708865E+04  0.24986708885E+04  0.10100000352E+00 0.  1.
       -3   -1    0    0    0  501  0.00000000000E+00  0.00000000000E+00 -0.11873510801E+03  0.11873515097E+03  0.10100000352E+00 0. -1.
    10030    2    1    2    0    0  0.00000000000E+00  0.00000000000E+00  0.23799357784E+04  0.26174060395E+04  0.10893668188E+04 0.  0.
        3    1    3    3  502    0  0.31890770971E+03  0.42777620486E+03  0.14530087268E+04  0.15478788645E+04  0.10100000352E+00 0. -1.
       -3    1    3    3    0  502 -0.31890770971E+03 -0.42777620486E+03  0.92692705166E+03  0.10695271750E+04  0.10100000352E+00 0.  1.
</event>
<event>
 5   0  0.2185750E-03  0.1132432E+04  0.7818609E-02  0.9174146E-01
       -4   -1    0    0    0  501  0.00000000000E+00  0.00000000000E+00  0.88891082627E+03  0.88891173350E+03  0.12699999809E+01 0.  1.
        4   -1    0    0  501    0  0.00000000000E+00  0.00000000000E+00 -0.36066429872E+03  0.36066653472E+03  0.12699999809E+01 0. -1.
    10030    2    1    2    0    0  0.00000000000E+00  0.00000000000E+00  0.52824652755E+03  0.12495782682E+04  0.11324316556E+04 0.  0.
        1    1    3    3  502    0 -0.17485615031E+03 -0.52314616470E+03  0.12305551832E+03  0.56515417680E+03  0.50400001928E-02 0. -1.
       -1    1    3    3    0  502  0.17485615031E+03  0.52314616470E+03  0.40519100923E+03  0.68442409143E+03  0.50400001928E-02 0.  1.
</event>
<event>
 5   0  0.3215352E-03  0.1087897E+04  0.7818609E-02  0.9217069E-01
        1   -1    0    0  501    0  0.00000000000E+00  0.00000000000E+00  0.10478733270E+04  0.10478733270E+04  0.50400001928E-02 0.  1.
       -1   -1    0    0    0  501  0.00000000000E+00  0.00000000000E+00 -0.28236251985E+03  0.28236251990E+03  0.50400001928E-02 0. -1.
    10030    2    1    2    0    0  0.00000000000E+00  0.00000000000E+00  0.76551080716E+03  0.13302358469E+04  0.10878973355E+04 0.  0.
        1    1    3    3  502    0 -0.36960970926E+03 -0.20847801205E+03 -0.33352309876E+02  0.42566042250E+03  0.50400001928E-02 0. -1.
       -1    1    3    3    0  502  0.36960970926E+03  0.20847801205E+03  0.79886311704E+03  0.90457542442E+03  0.50400001928E-02 0.  1.
</event>
<event>
 5   0  0.3215352E-03  0.1080834E+04  0.7818609E-02  0.9224077E-01
        1   -1    0    0  501    0  0.00000000000E+00  0.00000000000E+00  0.77395736621E+03  0.77395736623E+03  0.50400001928E-02 0. -1.
       -1   -1    0    0    0  501  0.00000000000E+00  0.00000000000E+00 -0.37734687317E+03  0.37734687320E+03  0.50400001928E-02 0.  1.
    10030    2    1    2    0    0  0.00000000000E+00  0.00000000000E+00  0.39661049304E+03  0.11513042394E+04  0.10808337377E+04 0.  0.
        1    1    3    3  502    0 -0.27695378360E+02  0.53501479187E+03  0.27394593663E+03  0.60170942965E+03  0.50400001928E-02 0. -1.
       -1    1    3    3    0  502  0.27695378360E+02 -0.53501479187E+03  0.12266455641E+03  0.54959480977E+03  0.50400001928E-02 0.  1.
</event>
<event>
 5   0  0.3328741E-03  0.1045157E+04  0.7818609E-02  0.9260359E-01
       -1   -1    0    0    0  501  0.00000000000E+00  0.00000000000E+00  0.10568944470E+04  0.10568944470E+04  0.50400001928E-02 0.  1.
        1   -1    0    0  501    0  0.00000000000E+00  0.00000000000E+00 -0.25838737278E+03  0.25838737283E+03  0.50400001928E-02 0. -1.
    10030    2    1    2    0    0  0.00000000000E+00  0.00000000000E+00  0.79850707418E+03  0.13152818198E+04  0.10451567911E+04 0.  0.
        3    1    3    3  502    0 -0.35272349706E+01  0.11000317554E+03 -0.24363672556E+03  0.26734248494E+03  0.10100000352E+00 0. -1.
       -3    1    3    3    0  502  0.35272349706E+01 -0.11000317554E+03  0.10421437997E+04  0.10479393349E+04  0.10100000352E+00 0.  1.
</event>
<event>
 5   0  0.5946359E-03  0.9645764E+03  0.7818609E-02  0.9348273E-01
        2   -1    0    0  501    0  0.00000000000E+00  0.00000000000E+00  0.71861692689E+03  0.71861692689E+03  0.25500000920E-02 0. -1.
       -2   -1    0    0    0  501  0.00000000000E+00  0.00000000000E+00 -0.32367998709E+03  0.32367998710E+03  0.25500000920E-02 0.  1.
    10030    2    1    2    0    0  0.00000000000E+00  0.00000000000E+00  0.39493693980E+03  0.10422969140E+04  0.96457642024E+03 0.  0.
        4    1    3    3  502    0 -0.34232423669E+02  0.43369070860E+03  0.42242745733E+03  0.60638771357E+03  0.12699999809E+01 0. -1.
       -4    1    3    3    0  502  0.34232423669E+02 -0.43369070860E+03 -0.27490517527E+02  0.43590920042E+03  0.12699999809E+01 0.  1.
</event>
<event>
 5   0  0.5723194E-03  0.1129752E+04  0.7818609E-02  0.9176669E-01
       -2   -1    0    0    0  501  0.00000000000E+00  0.00000000000E+00  0.26249902019E+04  0.26249902019E+04  0.25500000920E-02 0. -1.
        2   -1    0    0  501    0  0.00000000000E+00  0.00000000000E+00 -0.12155654766E+03  0.12155654769E+03  0.25500000920E-02 0.  1.
    10030    2    1    2    0    0  0.00000000000E+00  0.00000000000E+00  0.25034336542E+04  0.27465467496E+04  0.11297517367E+04 0.  0.
        1    1    3    3  502    0  0.51337553864E+03  0.93342013691E+02  0.17777442905E+04  0.18527390365E+04  0.50400001928E-02 0. -1.
       -1    1    3    3    0  502 -0.51337553864E+03 -0.93342013691E+02  0.72568936374E+03  0.89380771303E+03  0.50400001928E-02 0.  1.
</event>
<event>
 5   0  0.2185750E-03  0.1106329E+04  0.7818609E-02  0.9199045E-01
       -4   -1    0    0    0  501  0.00000000000E+00  0.00000000000E+00  0.44728632169E+03  0.44728812467E+03  0.12699999809E+01 0.  1.
        4   -1    0    0  501    0  0.00000000000E+00  0.00000000000E+00 -0.68410155202E+03  0.68410273087E+03  0.12699999809E+01 0. -1.
    10030    2    1    2    0    0  0.00000000000E+00  0.00000000000E+00 -0.23681523034E+03  0.11313908555E+04  0.11063289812E+04 0.  0.
        1    1    3    3  502    0 -0.17705558402E+03 -0.20102162806E+03 -0.61334701226E+03  0.66929285986E+03  0.50400001928E-02 0. -1.
       -1    1    3    3    0  502  0.17705558402E+03  0.20102162806E+03  0.37653178193E+03  0.46209799567E+03  0.50400001928E-02 0.  1.
</event>
<event>
 5   0  0.3320192E-03  0.1097183E+04  0.7818609E-02  0.9207942E-01
        1   -1    0    0  501    0  0.00000000000E+00  0.00000000000E+00  0.11378356761E+04  0.11378356761E+04  0.50400001928E-02 0.  1.
       -1   -1    0    0    0  501  0.00000000000E+00  0.00000000000E+00 -0.26449560519E+03  0.26449560524E+03  0.50400001928E-02 0. -1.
    10030    2    1    2    0    0  0.00000000000E+00  0.00000000000E+00  0.87334007091E+03  0.14023312814E+04  0.10971828212E+04 0.  0.
        2    1    3    3  502    0 -0.41845447210E+02 -0.20526888307E+02 -0.26196037621E+03  0.26607448827E+03  0.25500000920E-02 0. -1.
       -2    1    3    3    0  502  0.41845447210E+02  0.20526888307E+02  0.11353004471E+04  0.11362567931E+04  0.25500000920E-02 0.  1.
</event>
<event>
 5   0  0.3241189E-03  0.1092065E+04  0.7818609E-02  0.9212960E-01
       -1   -1    0    0    0  501  0.00000000000E+00  0.00000000000E+00  0.24844996185E+03  0.24844996190E+03  0.50400001928E-02 0. -1.
        1   -1    0    0  501    0  0.00000000000E+00  0.00000000000E+00 -0.12000473695E+04  0.12000473695E+04  0.50400001928E-02 0.  1.
    10030    2    1    2    0    0  0.00000000000E+00  0.00000000000E+00 -0.95159740769E+03  0.14484973315E+04  0.10920654252E+04 0.  0.
        5    1    3    3  502    0  0.25439792776E+03 -0.31468824865E+01 -0.11165961810E+04  0.11452237030E+04  0.46999998093E+01 0.  1.
       -5    1    3    3    0  502 -0.25439792776E+03  0.31468824865E+01  0.16499877330E+03  0.30327362844E+03  0.46999998093E+01 0. -1.
</event>
<event>
 5   0  0.5946359E-03  0.1108052E+04  0.7818609E-02  0.9197379E-01
       -2   -1    0    0    0  501  0.00000000000E+00  0.00000000000E+00  0.64770522121E+03  0.64770522122E+03  0.25500000920E-02 0.  1.
        2   -1    0    0  501    0  0.00000000000E+00  0.00000000000E+00 -0.47389591514E+03  0.47389591514E+03  0.25500000920E-02 0. -1.
    10030    2    1    2    0    0  0.00000000000E+00  0.00000000000E+00  0.17380930607E+03  0.11216011364E+04  0.11080520900E+04 0.  0.
        4    1    3    3  502    0  0.11938509543E+03 -0.33553420490E+03  0.51648445287E+03  0.62737054969E+03  0.12699999809E+01 0.  1.
       -4    1    3    3    0  502 -0.11938509543E+03  0.33553420490E+03 -0.34267514679E+03  0.49423058667E+03  0.12699999809E+01 0. -1.
</event>
<event>
 5   0  0.3328741E-03  0.1092953E+04  0.7818609E-02  0.9212088E-01
        1   -1    0    0  501    0  0.00000000000E+00  0.00000000000E+00  0.56007596758E+03  0.56007596760E+03  0.50400001928E-02 0. -1.
       -1   -1    0    0    0  501  0.00000000000E+00  0.00000000000E+00 -0.53320718850E+03  0.53320718853E+03  0.50400001928E-02 0.  1.
    10030    2    1    2    0    0  0.00000000000E+00  0.00000000000E+00  0.26868779075E+02  0.10932831561E+04  0.10929529396E+04 0.  0.
        3    1    3    3  502    0 -0.17092900070E+03 -0.19205361535E+03 -0.46893034951E+03  0.53478687095E+03  0.10100000352E+00 0.  1.
       -3    1    3    3    0  502  0.17092900070E+03  0.19205361535E+03  0.49579912858E+03  0.55849628518E+03  0.10100000352E+00 0. -1.
</event>
<event>
 5   0  0.5946359E-03  0.1095693E+04  0.7818609E-02  0.9209400E-01
        2   -1    0    0  501    0  0.00000000000E+00  0.00000000000E+00  0.11104936028E+04  0.11104936028E+04  0.25500000920E-02 0. -1.
       -2   -1    0    0    0  501  0.00000000000E+00  0.00000000000E+00 -0.27027230427E+03  0.27027230428E+03  0.25500000920E-02 0.  1.
    10030    2    1    2    0    0  0.00000000000E+00  0.00000000000E+00  0.84022129854E+03  0.13807659071E+04  0.10956927761E+04 0.  0.
        4    1    3    3  502    0 -0.14840545606E+03 -0.33986519849E+03  0.92826255269E+03  0.99960267714E+03  0.12699999809E+01 0. -1.
       -4    1    3    3    0  502  0.14840545606E+03  0.33986519849E+03 -0.88041254149E+02  0.38116322995E+03  0.12699999809E+01 0.  1.
</event>
<event>
 5   0  0.3328741E-03  0.1121637E+04  0.7818609E-02  0.9184356E-01
        1   -1    0    0  501    0  0.00000000000E+00  0.00000000000E+00  0.99017628528E+03  0.99017628529E+03  0.50400001928E-02 0. -1.
       -1   -1    0    0    0  501  0.00000000000E+00  0.00000000000E+00 -0.31763781619E+03  0.31763781623E+03  0.50400001928E-02 0.  1.
    10030    2    1    2    0    0  0.00000000000E+00  0.00000000000E+00  0.67253846909E+03  0.13078141015E+04  0.11216370767E+04 0.  0.
        3    1    3    3  502    0  0.33214437708E+03 -0.44942178597E+03  0.28136135681E+03  0.62567088173E+03  0.10100000352E+00 0. -1.
       -3    1    3    3    0  502 -0.33214437708E+03  0.44942178597E+03  0.39117711229E+03  0.68214321980E+03  0.10100000352E+00 0.  1.
</event>
<event>
 5   0  0.3215352E-03  0.1069977E+04  0.7818609E-02  0.9234959E-01
        1   -1    0    0  501    0  0.00000000000E+00  0.00000000000E+00  0.11381627974E+04  0.11381627974E+04  0.50400001928E-02 0. -1.
       -1   -1    0    0    0  501  0.00000000000E+00  0.00000000000E+00 -0.25146903750E+03  0.25146903755E+03  0.50400001928E-02 0.  1.
    10030    2    1    2    0    0  0.00000000000E+00  0.00000000000E+00  0.88669375994E+03  0.13896318350E+04  0.10699770151E+04 0.  0.
        1    1    3    3  502    0 -0.14718356564E+03  0.20204175224E+03 -0.17096127920E+03  0.30283928189E+03  0.50400001928E-02 0.  1.
       -1    1    3    3    0  502  0.14718356564E+03 -0.20204175224E+03  0.10576550391E+04  0.10867925531E+04  0.50400001928E-02 0. -1.
</event>
<event>
 5   0  0.5723194E-03  0.1076502E+04  0.7818609E-02  0.9228402E-01
       -2   -1    0    0    0  501  0.00000000000E+00  0.00000000000E+00  0.51121738436E+03  0.51121738437E+03  0.25500000920E-02 0. -1.
        2   -1    0    0  501    0  0.00000000000E+00  0.00000000000E+00 -0.56671467202E+03  0.56671467203E+03  0.25500000920E-02 0.  1.
    10030    2    1    2    0    0  0.00000000000E+00  0.00000000000E+00 -0.55497287657E+02  0.10779320564E+04  0.10765024706E+04 0.  0.
        1    1    3    3  502    0  0.70913370511E+02  0.47717869509E+03 -0.26678344028E+03  0.55127272488E+03  0.50400001928E-02 0.  1.
       -1    1    3    3    0  502 -0.70913370511E+02 -0.47717869509E+03  0.21128615262E+03  0.52665933152E+03  0.50400001928E-02 0. -1.
</event>
<event>
 5   0  0.5723194E-03  0.1109977E+04  0.7818609E-02  0.9195521E-01
       -2   -1    0    0    0  501  0.00000000000E+00  0.00000000000E+00  0.47730821358E+03  0.47730821359E+03  0.25500000920E-02 0.  1.
        2   -1    0    0  501    0  0.00000000000E+00  0.00000000000E+00 -0.64531147814E+03  0.64531147815E+03  0.25500000920E-02 0. -1.
    10030    2    1    2    0    0  0.00000000000E+00  0.00000000000E+00 -0.16800326456E+03  0.11226196917E+04  0.11099774211E+04 0.  0.
        1    1    3    3  502    0 -0.97390512156E+02 -0.43781136772E+03 -0.41460194583E+03  0.61078513331E+03  0.50400001928E-02 0. -1.
       -1    1    3    3    0  502  0.97390512156E+02  0.43781136772E+03  0.24659868127E+03  0.51183455842E+03  0.50400001928E-02 0.  1.
</event>
<event>
 5   0  0.5627232E-03  0.8670615E+03  0.7818609E-02  0.9467719E-01
        2   -1    0    0  501    0  0.00000000000E+00  0.00000000000E+00  0.77744399384E+03  0.77744399385E+03  0.25500000920E-02 0. -1.
       -2   -1    0    0    0  501  0.00000000000E+00  0.00000000000E+00 -0.24175236261E+03  0.24175236262E+03  0.25500000920E-02 0.  1.
    10030    2    1    2    0    0  0.00000000000E+00  0.00000000000E+00  0.53569163124E+03  0.10191963565E+04  0.86706152564E+03 0.  0.
        2    1    3    3  502    0 -0.38410630432E+03 -0.61089407830E+02  0.42723377680E+02  0.39127337728E+03  0.25500000920E-02 0.  1.
       -2    1    3    3    0  502  0.38410630432E+03  0.61089407830E+02  0.49296825356E+03  0.62792297918E+03  0.25500000920E-02 0. -1.
</event>
<event>
 5   0  0.5946359E-03  0.1021611E+04  0.7818609E-02  0.9285154E-01
        2   -1    0    0  501    0  0.00000000000E+00  0.00000000000E+00  0.84980538439E+03  0.84980538440E+03  0.25500000920E-02 0. -1.
       -2   -1    0    0    0  501  0.00000000000E+00  0.00000000000E+00 -0.30703796253E+03  0.30703796254E+03  0.25500000920E-02 0.  1.
    10030    2    1    2    0    0  0.00000000000E+00  0.00000000000E+00  0.54276742186E+03  0.11568433469E+04  0.10216114991E+04 0.  0.
        4    1    3    3  502    0  0.24030123568E+03 -0.78344691497E+02  0.77403191546E+03  0.81425401049E+03  0.12699999809E+01 0. -1.
       -4    1    3    3    0  502 -0.24030123568E+03  0.78344691497E+02 -0.23126449359E+03  0.34258933645E+03  0.12699999809E+01 0.  1.
</event>
<event>
 5   0  0.3215352E-03  0.1098586E+04  0.7818609E-02  0.9206571E-01
       -1   -1    0    0    0  501  0.00000000000E+00  0.00000000000E+00  0.51979953482E+03  0.51979953485E+03  0.50400001928E-02 0.  1.
        1   -1    0    0  501    0  0.00000000000E+00  0.00000000000E+00 -0.58046011696E+03  0.58046011698E+03  0.50400001928E-02 0. -1.
    10030    2    1    2    0    0  0.00000000000E+00  0.00000000000E+00 -0.60660582140E+02  0.11002596518E+04  0.10985861802E+04 0.  0.
        1    1    3    3  502    0  0.38043385967E+03 -0.29138761342E+03  0.23856749719E+03  0.53530469228E+03  0.50400001928E-02 0.  1.
       -1    1    3    3    0  502 -0.38043385967E+03  0.29138761342E+03 -0.29922807933E+03  0.56495495955E+03  0.50400001928E-02 0. -1.
</event>
<event>
 5   0  0.3328741E-03  0.1021712E+04  0.7818609E-02  0.9285047E-01
        1   -1    0    0  501    0  0.00000000000E+00  0.00000000000E+00  0.14100990246E+04  0.14100990247E+04  0.50400001928E-02 0. -1.
       -1   -1    0    0    0  501  0.00000000000E+00  0.00000000000E+00 -0.18507467700E+03  0.18507467706E+03  0.50400001928E-02 0.  1.
    10030    2    1    2    0    0  0.00000000000E+00  0.00000000000E+00  0.12250243476E+04  0.15951737017E+04  0.10217115475E+04 0.  0.
        3    1    3    3  502    0  0.16934604281E+03  0.22604430727E+03 -0.52084521096E+02  0.28720535963E+03  0.10100000352E+00 0.  1.
       -3    1    3    3    0  502 -0.16934604281E+03 -0.22604430727E+03  0.12771088687E+04  0.13079683421E+04  0.10100000352E+00 0. -1.
</event>
<event>
 5   0  0.5627232E-03  0.1093074E+04  0.7818609E-02  0.9211969E-01
        2   -1    0    0  501    0  0.00000000000E+00  0.00000000000E+00  0.13425436381E+04  0.13425436381E+04  0.25500000920E-02 0. -1.
       -2   -1    0    0    0  501  0.00000000000E+00  0.00000000000E+00 -0.22249019168E+03  0.22249019170E+03  0.25500000920E-02 0.  1.
    10030    2    1    2    0    0  0.00000000000E+00  0.00000000000E+00  0.11200534465E+04  0.15650338298E+04  0.10930741812E+04 0.  0.
        2    1    3    3  502    0 -0.24404501985E+03 -0.76637571223E+02  0.12515470281E+04  0.12774197637E+04  0.25500000920E-02 0. -1.
       -2    1    3    3    0  502  0.24404501985E+03  0.76637571223E+02 -0.13149358166E+03  0.28761406617E+03  0.25500000920E-02 0.  1.
</event>
<event>
 5   0  0.3320192E-03  0.1093486E+04  0.7818609E-02  0.9211564E-01
        1   -1    0    0  501    0  0.00000000000E+00  0.00000000000E+00  0.15201965010E+04  0.15201965011E+04  0.50400001928E-02 0. -1.
       -1   -1    0    0    0  501  0.00000000000E+00  0.00000000000E+00 -0.19663784168E+03  0.19663784175E+03  0.50400001928E-02 0.  1.
    10030    2    1    2    0    0  0.00000000000E+00  0.00000000000E+00  0.13235586594E+04  0.17168343428E+04  0.10934864589E+04 0.  0.
        2    1    3    3  502    0  0.39451890568E+03 -0.32544751598E+03  0.35827942808E+03  0.62444007013E+03  0.25500000920E-02 0.  1.
       -2    1    3    3    0  502 -0.39451890568E+03  0.32544751598E+03  0.96527923129E+03  0.10923942727E+04  0.25500000920E-02 0. -1.
</event>
<event>
 5   0  0.3316784E-03  0.1065449E+04  0.7818609E-02  0.9239537E-01
       -1   -1    0    0    0  501  0.00000000000E+00  0.00000000000E+00  0.11534994607E+04  0.11534994608E+04  0.50400001928E-02 0.  1.
        1   -1    0    0  501    0  0.00000000000E+00  0.00000000000E+00 -0.24603002825E+03  0.24603002830E+03  0.50400001928E-02 0. -1.
    10030    2    1    2    0    0  0.00000000000E+00  0.00000000000E+00  0.90746943249E+03  0.13995294891E+04  0.10654492103E+04 0.  0.
        4    1    3    3  502    0 -0.56189222809E+01 -0.52895263455E+03  0.37095522221E+03  0.64608966225E+03  0.12699999809E+01 0.  1.
       -4    1    3    3    0  502  0.56189222809E+01  0.52895263455E+03  0.53651421029E+03  0.75343982681E+03  0.12699999809E+01 0. -1.
</event>
<event>
 5   0  0.3316784E-03  0.1086470E+04  0.7818609E-02  0.9218481E-01
        1   -1    0    0  501    0  0.00000000000E+00  0.00000000000E+00  0.86575549124E+03  0.86575549125E+03  0.50400001928E-02 0.  1.
       -1   -1    0    0    0  501  0.00000000000E+00  0.00000000000E+00 -0.34086305615E+03  0.34086305619E+03  0.50400001928E-02 0. -1.
    10030    2    1    2    0    0  0.00000000000E+00  0.00000000000E+00  0.52489243509E+03  0.12066185474E+04  0.10864696271E+04 0.  0.
        4    1    3    3  502    0  0.23458459043E+03 -0.29765513517E+03  0.69468264817E+03  0.79133690937E+03  0.12699999809E+01 0.  1.
       -4    1    3    3    0  502 -0.23458459043E+03  0.29765513517E+03 -0.16979021308E+03  0.41528163807E+03  0.12699999809E+01 0. -1.
</event>
<event>
 5   0  0.5627232E-03  0.1113860E+04  0.7818609E-02  0.9191788E-01
       -2   -1    0    0    0  501  0.00000000000E+00  0.00000000000E+00  0.68993303508E+03  0.68993303508E+03  0.25500000920E-02 0.  1.
        2   -1    0    0  501    0  0.00000000000E+00  0.00000000000E+00 -0.44956656595E+03  0.44956656595E+03  0.25500000920E-02 0. -1.
    10030    2    1    2    0    0  0.00000000000E+00  0.00000000000E+00  0.24036646913E+03  0.11394996010E+04  0.11138596416E+04 0.  0.
        2    1    3    3  502    0  0.53040425429E+03  0.57625247944E+02  0.28361507205E+03  0.60422417303E+03  0.25500000920E-02 0.  1.
       -2    1    3    3    0  502 -0.53040425429E+03 -0.57625247944E+02 -0.43248602915E+02  0.53527542801E+03  0.25500000920E-02 0. -1.
</event>
<event>
 5   0  0.3215352E-03  0.1112093E+04  0.7818609E-02  0.9193484E-01
        1   -1    0    0  501    0  0.00000000000E+00  0.00000000000E+00  0.22006929410E+04  0.22006929410E+04  0.50400001928E-02 0.  1.
       -1   -1    0    0    0  501  0.00000000000E+00  0.00000000000E+00 -0.14049571760E+03  0.14049571770E+03  0.50400001928E-02 0. -1.
    10030    2    1    2    0    0  0.00000000000E+00  0.00000000000E+00  0.20601972234E+04  0.23411886587E+04  0.11120934027E+04 0.  0.
        1    1    3    3  502    0 -0.15511301966E+02 -0.45640693797E+02  0.21962858983E+04  0.21968148353E+04  0.50400001928E-02 0.  1.
       -1    1    3    3    0  502  0.15511301966E+02  0.45640693797E+02 -0.13608867492E+03  0.14437382341E+03  0.50400001928E-02 0. -1.
</event>
<event>
 5   0  0.5627232E-03  0.1086868E+04  0.7818609E-02  0.9218086E-01
        2   -1    0    0  501    0  0.00000000000E+00  0.00000000000E+00  0.13520478694E+04  0.13520478694E+04  0.25500000920E-02 0. -1.
       -2   -1    0    0    0  501  0.00000000000E+00  0.00000000000E+00 -0.21842461877E+03  0.21842461878E+03  0.25500000920E-02 0.  1.
    10030    2    1    2    0    0  0.00000000000E+00  0.00000000000E+00  0.11336232506E+04  0.15704724882E+04  0.10868680517E+04 0.  0.
        2    1    3    3  502    0  0.46774319158E+03 -0.24666492246E+03  0.74782478077E+03  0.91589801833E+03  0.25500000920E-02 0.  1.
       -2    1    3    3    0  502 -0.46774319158E+03  0.24666492246E+03  0.38579846987E+03  0.65457446987E+03  0.25500000920E-02 0. -1.
</event>
<event>
 5   0  0.5627232E-03  0.1113374E+04  0.7818609E-02  0.9192254E-01
        2   -1    0    0  501    0  0.00000000000E+00  0.00000000000E+00  0.21354813467E+04  0.21354813467E+04  0.25500000920E-02 0. -1.
       -2   -1    0    0    0  501  0.00000000000E+00  0.00000000000E+00 -0.14511969617E+03  0.14511969619E+03  0.25500000920E-02 0.  1.
    10030    2    1    2    0    0  0.00000000000E+00  0.00000000000E+00  0.19903616506E+04  0.22806010429E+04  0.11133739789E+04 0.  0.
        2    1    3    3  502    0  0.87600144215E+02 -0.50943387004E+03  0.57188765263E+03  0.77087751326E+03  0.25500000920E-02 0.  1.
       -2    1    3    3    0  502 -0.87600144215E+02  0.50943387004E+03  0.14184739979E+04  0.15097235297E+04  0.25500000920E-02 0. -1.
</event>
<event>
 5   0  0.5627232E-03  0.1101138E+04  0.7818609E-02  0.9204083E-01
        2   -1    0    0  501    0  0.00000000000E+00  0.00000000000E+00  0.12088909583E+04  0.12088909583E+04  0.25500000920E-02 0. -1.
       -2   -1    0    0    0  501  0.00000000000E+00  0.00000000000E+00 -0.25074759370E+03  0.25074759371E+03  0.25500000920E-02 0.  1.
    10030    2    1    2    0    0  0.00000000000E+00  0.00000000000E+00  0.95814336457E+03  0.14596385520E+04  0.11011384996E+04 0.  0.
        2    1    3    3  502    0 -0.33612621960E+02 -0.75811920396E+02 -0.24242112001E+03  0.25621329993E+03  0.25500000920E-02 0.  1.
       -2    1    3    3    0  502  0.33612621960E+02  0.75811920396E+02  0.12005644846E+04  0.12034252521E+04  0.25500000920E-02 0. -1.
</event>
<event>
 5   0  0.5723194E-03  0.1103803E+04  0.7818609E-02  0.9201493E-01
        2   -1    0    0  501    0  0.00000000000E+00  0.00000000000E+00  0.18380082811E+04  0.18380082811E+04  0.25500000920E-02 0. -1.
       -2   -1    0    0    0  501  0.00000000000E+00  0.00000000000E+00 -0.16572017498E+03  0.16572017500E+03  0.25500000920E-02 0.  1.
    10030    2    1    2    0    0  0.00000000000E+00  0.00000000000E+00  0.16722881061E+04  0.20037284561E+04  0.11038026164E+04 0.  0.
        1    1    3    3  502    0 -0.15490436247E+02 -0.12570455015E+03 -0.13898162901E+03  0.18803584970E+03  0.50400001928E-02 0.  1.
       -1    1    3    3    0  502  0.15490436247E+02  0.12570455015E+03  0.18112697351E+04  0.18156926064E+04  0.50400001928E-02 0. -1.
</event>
<event>
 5   0  0.3320192E-03  0.1095964E+04  0.7818609E-02  0.9209135E-01
        1   -1    0    0  501    0  0.00000000000E+00  0.00000000000E+00  0.62237323586E+03  0.62237323588E+03  0.50400001928E-02 0.  1.
       -1   -1    0    0    0  501  0.00000000000E+00  0.00000000000E+00 -0.48248226019E+03  0.48248226021E+03  0.50400001928E-02 0. -1.
    10030    2    1    2    0    0  0.00000000000E+00  0.00000000000E+00  0.13989097567E+03  0.11048554961E+04  0.10959635862E+04 0.  0.
        2    1    3    3  502    0  0.24997301793E+03  0.32223629893E+03  0.43892226910E+03  0.59914564203E+03  0.25500000920E-02 0.  1.
       -2    1    3    3    0  502 -0.24997301793E+03 -0.32223629893E+03 -0.29903129343E+03  0.50570985406E+03  0.25500000920E-02 0. -1.
</event>
<event>
 5   0  0.5946359E-03  0.1080032E+04  0.7818609E-02  0.9224876E-01
        2   -1    0    0  501    0  0.00000000000E+00  0.00000000000E+00  0.64654913324E+03  0.64654913325E+03  0.25500000920E-02 0. -1.
       -2   -1    0    0    0  501  0.00000000000E+00  0.00000000000E+00 -0.45103635650E+03  0.45103635650E+03  0.25500000920E-02 0.  1.
    10030    2    1    2    0    0  0.00000000000E+00  0.00000000000E+00  0.19551277674E+03  0.10975854898E+04  0.10800317872E+04 0.  0.
        4    1    3    3  502    0 -0.20917085895E+03 -0.29294270784E+03  0.50685049228E+03  0.62166463044E+03  0.12699999809E+01 0. -1.
       -4    1    3    3    0  502  0.20917085895E+03  0.29294270784E+03 -0.31133771554E+03  0.47592085931E+03  0.12699999809E+01 0.  1.
</event>
<event>
 5   0  0.5941585E-03  0.1100817E+04  0.7818609E-02  0.9204396E-01
        2   -1    0    0  501    0  0.00000000000E+00  0.00000000000E+00  0.54521832370E+03  0.54521832371E+03  0.25500000920E-02 0.  1.
       -2   -1    0    0    0  501  0.00000000000E+00  0.00000000000E+00 -0.55564812335E+03  0.55564812336E+03  0.25500000920E-02 0. -1.
    10030    2    1    2    0    0  0.00000000000E+00  0.00000000000E+00 -0.10429799650E+02  0.11008664471E+04  0.11008170391E+04 0.  0.
        5    1    3    3  502    0  0.52435112859E+03  0.15488476857E+03 -0.68416239544E+02  0.55103200399E+03  0.46999998093E+01 0.  1.
       -5    1    3    3    0  502 -0.52435112859E+03 -0.15488476857E+03  0.57986439894E+02  0.54983444308E+03  0.46999998093E+01 0. -1.
</event>
<event>
 5   0  0.3328741E-03  0.1096205E+04  0.7818609E-02  0.9208899E-01
        1   -1    0    0  501    0  0.00000000000E+00  0.00000000000E+00  0.59116564102E+03  0.59116564104E+03  0.50400001928E-02 0.  1.
       -1   -1    0    0    0  501  0.00000000000E+00  0.00000000000E+00 -0.50817638499E+03  0.50817638501E+03  0.50400001928E-02 0. -1.
    10030    2    1    2    0    0  0.00000000000E+00  0.00000000000E+00  0.82989256035E+02  0.10993420261E+04  0.10962051239E+04 0.  0.
        3    1    3    3  502    0 -0.39166452153E+03 -0.13602794701E+03  0.40100576741E+03  0.57681048490E+03  0.10100000352E+00 0.  1.
       -3    1    3    3    0  502  0.39166452153E+03  0.13602794701E+03 -0.31801651138E+03  0.52253154115E+03  0.10100000352E+00 0. -1.
</event>
<event>
 5   0  0.5941585E-03  0.1111320E+04  0.7818609E-02  0.9194228E-01
        2   -1    0    0  501    0  0.00000000000E+00  0.00000000000E+00  0.25345448230E+03  0.25345448231E+03  0.25500000920E-02 0. -1.
       -2   -1    0    0    0  501  0.00000000000E+00  0.00000000000E+00 -0.12181988738E+04  0.12181988738E+04  0.25500000920E-02 0.  1.
    10030    2    1    2    0    0  0.00000000000E+00  0.00000000000E+00 -0.96474439152E+03  0.14716533561E+04  0.11113198728E+04 0.  0.
        5    1    3    3  502    0 -0.55494898690E+02 -0.45005180361E+03 -0.90759438823E+03  0.10145816740E+04  0.46999998093E+01 0.  1.
       -5    1    3    3    0  502  0.55494898690E+02  0.45005180361E+03 -0.57150003286E+02  0.45707168211E+03  0.46999998093E+01 0. -1.
</event>
<event>
 5   0  0.3241189E-03  0.1089978E+04  0.7818609E-02  0.9215015E-01
        1   -1    0    0  501    0  0.00000000000E+00  0.00000000000E+00  0.36364061552E+03  0.36364061556E+03  0.50400001928E-02 0.  1.
       -1   -1    0    0    0  501  0.00000000000E+00  0.00000000000E+00 -0.81677667327E+03  0.81677667328E+03  0.50400001928E-02 0. -1.
    10030    2    1    2    0    0  0.00000000000E+00  0.00000000000E+00 -0.45313605775E+03  0.11804172888E+04  0.10899782975E+04 0.  0.
        5    1    3    3  502    0  0.10261310149E+03  0.39225677654E+03  0.16778332834E+03  0.43882589100E+03  0.46999998093E+01 0.  1.
       -5    1    3    3    0  502 -0.10261310149E+03 -0.39225677654E+03 -0.62091938608E+03  0.74159139784E+03  0.46999998093E+01 0. -1.
</event>
<event>
 5   0  0.5941585E-03  0.1078795E+04  0.7818609E-02  0.9226109E-01
        2   -1    0    0  501    0  0.00000000000E+00  0.00000000000E+00  0.10531213733E+04  0.10531213733E+04  0.25500000920E-02 0.  1.
       -2   -1    0    0    0  501  0.00000000000E+00  0.00000000000E+00 -0.27627388135E+03  0.27627388136E+03  0.25500000920E-02 0. -1.
    10030    2    1    2    0    0  0.00000000000E+00  0.00000000000E+00  0.77684749196E+03  0.13293952547E+04  0.10787954938E+04 0.  0.
        5    1    3    3  502    0  0.49809234130E+02  0.16725062438E+03  0.10173464607E+04  0.10322158894E+04  0.46999998093E+01 0.  1.
       -5    1    3    3    0  502 -0.49809234130E+02 -0.16725062438E+03 -0.24049896878E+03  0.29717936527E+03  0.46999998093E+01 0. -1.
</event>
<event>
 5   0  0.5627232E-03  0.1115858E+04  0.7818609E-02  0.9189872E-01
       -2   -1    0    0    0  501  0.00000000000E+00  0.00000000000E+00  0.21025952358E+03  0.21025952359E+03  0.25500000920E-02 0.  1.
        2   -1    0    0  501    0  0.00000000000E+00  0.00000000000E+00 -0.14804779742E+04  0.14804779742E+04  0.25500000920E-02 0. -1.
    10030    2    1    2    0    0  0.00000000000E+00  0.00000000000E+00 -0.12702184507E+04  0.16907374978E+04  0.11158576855E+04 0.  0.
        2    1    3    3  502    0 -0.35772758817E+03  0.37188168976E+03 -0.95659967139E+03  0.10868983162E+04  0.25500000920E-02 0. -1.
       -2    1    3    3    0  502  0.35772758817E+03 -0.37188168976E+03 -0.31361877928E+03  0.60383918161E+03  0.25500000920E-02 0.  1.
</event>
<event>
 5   0  0.3215352E-03  0.1106349E+04  0.7818609E-02  0.9199026E-01
        1   -1    0    0  501    0  0.00000000000E+00  0.00000000000E+00  0.50562157912E+03  0.50562157915E+03  0.50400001928E-02 0. -1.
       -1   -1    0    0    0  501  0.00000000000E+00  0.00000000000E+00 -0.60519964711E+03  0.60519964713E+03  0.50400001928E-02 0.  1.
    10030    2    1    2    0    0  0.00000000000E+00  0.00000000000E+00 -0.99578067989E+02  0.11108212263E+04  0.11063489527E+04 0.  0.
        1    1    3    3  502    0 -0.29280818948E+03 -0.45256247540E+03 -0.17459990637E+03  0.56659911516E+03  0.50400001928E-02 0. -1.
       -1    1    3    3    0  502  0.29280818948E+03  0.45256247540E+03  0.75021838382E+02  0.54422211112E+03  0.50400001928E-02 0.  1.
</event>
<event>
 5   0  0.3328741E-03  0.1092078E+04  0.7818609E-02  0.9212948E-01
        1   -1    0    0  501    0  0.00000000000E+00  0.00000000000E+00  0.22040090245E+04  0.22040090245E+04  0.50400001928E-02 0. -1.
       -1   -1    0    0    0  501  0.00000000000E+00  0.00000000000E+00 -0.13528005335E+03  0.13528005344E+03  0.50400001928E-02 0.  1.
    10030    2    1    2    0    0  0.00000000000E+00  0.00000000000E+00  0.20687289712E+04  0.23392890780E+04  0.10920777601E+04 0.  0.
        3    1    3    3  502    0  0.48363576544E+02 -0.33342114658E+03  0.19548240067E+04  0.19836445256E+04  0.10100000352E+00 0. -1.
       -3    1    3    3    0  502 -0.48363576544E+02  0.33342114658E+03  0.11390496450E+03  0.35564455241E+03  0.10100000352E+00 0.  1.
</event>
<event>
 5   0  0.5946359E-03  0.1094626E+04  0.7818609E-02  0.9210446E-01
       -2   -1    0    0    0  501  0.00000000000E+00  0.00000000000E+00  0.62622636910E+03  0.62622636911E+03  0.25500000920E-02 0.  1.
        2   -1    0    0  501    0  0.00000000000E+00  0.00000000000E+00 -0.47834381217E+03  0.47834381218E+03  0.25500000920E-02 0. -1.
    10030    2    1    2    0    0  0.00000000000E+00  0.00000000000E+00  0.14788255693E+03  0.11045701813E+04  0.10946259794E+04 0.  0.
        4    1    3    3  502    0 -0.23051737981E+03  0.29396814175E+03  0.47756799708E+03  0.60632362274E+03  0.12699999809E+01 0.  1.
       -4    1    3    3    0  502  0.23051737981E+03 -0.29396814175E+03 -0.32968544015E+03  0.49824655855E+03  0.12699999809E+01 0. -1.
</event>
<event>
 5   0  0.5946359E-03  0.1111291E+04  0.7818609E-02  0.9194256E-01
       -2   -1    0    0    0  501  0.00000000000E+00  0.00000000000E+00  0.22995937163E+03  0.22995937165E+03  0.25500000920E-02 0.  1.
        2   -1    0    0  501    0  0.00000000000E+00  0.00000000000E+00 -0.13425927687E+04  0.13425927687E+04  0.25500000920E-02 0. -1.
    10030    2    1    2    0    0  0.00000000000E+00  0.00000000000E+00 -0.11126333971E+04  0.15725521404E+04  0.11112907621E+04 0.  0.
        4    1    3    3  502    0  0.39874899461E+03  0.32643135168E+03 -0.26226163068E+03  0.57822224437E+03  0.12699999809E+01 0.  1.
       -4    1    3    3    0  502 -0.39874899461E+03 -0.32643135168E+03 -0.85037176642E+03  0.99432989601E+03  0.12699999809E+01 0. -1.
</event>
<event>
 5   0  0.5723194E-03  0.1083174E+04  0.7818609E-02  0.9221748E-01
        2   -1    0    0  501    0  0.00000000000E+00  0.00000000000E+00  0.37682586492E+03  0.37682586493E+03  0.25500000920E-02 0. -1.
       -2   -1    0    0    0  501  0.00000000000E+00  0.00000000000E+00 -0.77838794978E+03  0.77838794978E+03  0.25500000920E-02 0.  1.
    10030    2    1    2    0    0  0.00000000000E+00  0.00000000000E+00 -0.40156208485E+03  0.11552138147E+04  0.10831744318E+04 0.  0.
        1    1    3    3  502    0 -0.52123626857E+03  0.37245214992E+02 -0.49043355591E+02  0.52486160506E+03  0.50400001928E-02 0.  1.
       -1    1    3    3    0  502  0.52123626857E+03 -0.37245214992E+02 -0.35251872926E+03  0.63035220965E+03  0.50400001928E-02 0. -1.
</event>
<event>
 5   0  0.2185750E-03  0.1111250E+04  0.7818609E-02  0.9194296E-01
        4   -1    0    0  501    0  0.00000000000E+00  0.00000000000E+00  0.48508129378E+03  0.48508295629E+03  0.12699999809E+01 0.  1.
       -4   -1    0    0    0  501  0.00000000000E+00  0.00000000000E+00 -0.63642432405E+03  0.63642559120E+03  0.12699999809E+01 0. -1.
    10030    2    1    2    0    0  0.00000000000E+00  0.00000000000E+00 -0.15134303026E+03  0.11215085475E+04  0.11112500660E+04 0.  0.
        4    1    3    3  502    0  0.27956180388E+03  0.87962815223E+00 -0.56027289075E+03  0.62614926411E+03  0.12699999809E+01 0. -1.
       -4    1    3    3    0  502 -0.27956180388E+03 -0.87962815223E+00  0.40892986049E+03  0.49535928338E+03  0.12699999809E+01 0.  1.
</event>
<event>
 5   0  0.3328741E-03  0.1114975E+04  0.7818609E-02  0.9190718E-01
       -1   -1    0    0    0  501  0.00000000000E+00  0.00000000000E+00  0.33487237581E+03  0.33487237585E+03  0.50400001928E-02 0. -1.
        1   -1    0    0  501    0  0.00000000000E+00  0.00000000000E+00 -0.92809239708E+03  0.92809239709E+03  0.50400001928E-02 0.  1.
    10030    2    1    2    0    0  0.00000000000E+00  0.00000000000E+00 -0.59322002126E+03  0.12629647729E+04  0.11149753468E+04 0.  0.
        3    1    3    3  502    0  0.44347759015E+03  0.31448272691E+02  0.84383021437E+02  0.45252830998E+03  0.10100000352E+00 0. -1.
       -3    1    3    3    0  502 -0.44347759015E+03 -0.31448272691E+02 -0.67760304270E+03  0.81043646296E+03  0.10100000352E+00 0.  1.
</event>
<event>
 5   0  0.3215352E-03  0.1098815E+04  0.7818609E-02  0.9206348E-01
        1   -1    0    0  501    0  0.00000000000E+00  0.00000000000E+00  0.24756480228E+03  0.24756480233E+03  0.50400001928E-02 0.  1.
       -1   -1    0    0    0  501  0.00000000000E+00  0.00000000000E+00 -0.12192707982E+04  0.12192707982E+04  0.50400001928E-02 0. -1.
    10030    2    1    2    0    0  0.00000000000E+00  0.00000000000E+00 -0.97170599590E+03  0.14668356005E+04  0.10988148782E+04 0.  0.
        1    1    3    3  502    0 -0.12577180775E+02  0.51677372064E+03 -0.73428995494E+03  0.89799498984E+03  0.50400001928E-02 0.  1.
       -1    1    3    3    0  502  0.12577180775E+02 -0.51677372064E+03 -0.23741604096E+03  0.56884061068E+03  0.50400001928E-02 0. -1.
</event>
<event>
 5   0  0.5627232E-03  0.1109440E+04  0.7818609E-02  0.9196040E-01
        2   -1    0    0  501    0  0.00000000000E+00  0.00000000000E+00  0.91226094934E+03  0.91226094934E+03  0.25500000920E-02 0. -1.
       -2   -1    0    0    0  501  0.00000000000E+00  0.00000000000E+00 -0.33730930434E+03  0.33730930435E+03  0.25500000920E-02 0.  1.
    10030    2    1    2    0    0  0.00000000000E+00  0.00000000000E+00  0.57495164500E+03  0.12495702537E+04  0.11094396896E+04 0.  0.
        2    1    3    3  502    0  0.38893560442E+03  0.17751792316E+03 -0.11062344003E+03  0.44161189174E+03  0.25500000920E-02 0.  1.
       -2    1    3    3    0  502 -0.38893560442E+03 -0.17751792316E+03  0.68557508503E+03  0.80795836195E+03  0.25500000920E-02 0. -1.
</event>
<event>
 5   0  0.3241189E-03  0.1094875E+04  0.7818609E-02  0.9210202E-01
       -1   -1    0    0    0  501  0.00000000000E+00  0.00000000000E+00  0.34899481777E+03  0.34899481781E+03  0.50400001928E-02 0. -1.
        1   -1    0    0  501    0  0.00000000000E+00  0.00000000000E+00 -0.85871674191E+03  0.85871674193E+03  0.50400001928E-02 0.  1.
    10030    2    1    2    0    0  0.00000000000E+00  0.00000000000E+00 -0.50972192414E+03  0.12077115597E+04  0.10948747744E+04 0.  0.
        5    1    3    3  502    0 -0.15130171745E+03  0.21707044934E+03 -0.78347124100E+03  0.82695892592E+03  0.46999998093E+01 0.  1.
       -5    1    3    3    0  502  0.15130171745E+03 -0.21707044934E+03  0.27374931686E+03  0.38075263382E+03  0.46999998093E+01 0. -1.
</event>
<event>
 5   0  0.3328741E-03  0.1083129E+04  0.7818609E-02  0.9221793E-01
        1   -1    0    0  501    0  0.00000000000E+00  0.00000000000E+00  0.13527906591E+04  0.13527906591E+04  0.50400001928E-02 0. -1.
       -1   -1    0    0    0  501  0.00000000000E+00  0.00000000000E+00 -0.21680528176E+03  0.21680528182E+03  0.50400001928E-02 0.  1.
    10030    2    1    2    0    0  0.00000000000E+00  0.00000000000E+00  0.11359853774E+04  0.15695959410E+04  0.10831290968E+04 0.  0.
        3    1    3    3  502    0 -0.38167097376E+03 -0.11982780727E+03  0.10969963923E+04  0.11676611368E+04  0.10100000352E+00 0. -1.
       -3    1    3    3    0  502  0.38167097376E+03  0.11982780727E+03  0.38988985086E+02  0.40193480412E+03  0.10100000352E+00 0.  1.
</event>
<event>
 5   0  0.3320192E-03  0.1095941E+04  0.7818609E-02  0.9209157E-01
        1   -1    0    0  501    0  0.00000000000E+00  0.00000000000E+00  0.11130895559E+04  0.11130895559E+04  0.50400001928E-02 0. -1.
       -1   -1    0    0    0  501  0.00000000000E+00  0.00000000000E+00 -0.26976412633E+03  0.26976412638E+03  0.50400001928E-02 0.  1.
    10030    2    1    2    0    0  0.00000000000E+00  0.00000000000E+00  0.84332542955E+03  0.13828536823E+04  0.10959409320E+04 0.  0.
        2    1    3    3  502    0 -0.33456860743E+03 -0.12103502441E+02  0.96903925647E+03  0.10252413025E+04  0.25500000920E-02 0.  1.
       -2    1    3    3    0  502  0.33456860743E+03  0.12103502441E+02 -0.12571382692E+03  0.35761237973E+03  0.25500000920E-02 0. -1.
</event>
<event>
 5   0  0.5627232E-03  0.1097496E+04  0.7818609E-02  0.9207636E-01
        2   -1    0    0  501    0  0.00000000000E+00  0.00000000000E+00  0.45668760022E+03  0.45668760023E+03  0.25500000920E-02 0.  1.
       -2   -1    0    0    0  501  0.00000000000E+00  0.00000000000E+00 -0.65936612430E+03  0.65936612430E+03  0.25500000920E-02 0. -1.
    10030    2    1    2    0    0  0.00000000000E+00  0.00000000000E+00 -0.20267852407E+03  0.11160537245E+04  0.10974959371E+04 0.  0.
        2    1    3    3  502    0  0.90605516718E+02 -0.19352771424E+03 -0.61531821047E+03  0.65136689813E+03  0.25500000920E-02 0. -1.
       -2    1    3    3    0  502 -0.90605516718E+02  0.19352771424E+03  0.41263968639E+03  0.46468682640E+03  0.25500000920E-02 0.  1.
</event>
<event>
 5   0  0.5500363E-03  0.1108197E+04  0.7818609E-02  0.9197239E-01
       -2   -1    0    0    0  501  0.00000000000E+00  0.00000000000E+00  0.41856511941E+03  0.41856511941E+03  0.25500000920E-02 0.  1.
        2   -1    0    0  501    0  0.00000000000E+00  0.00000000000E+00 -0.73351826261E+03  0.73351826261E+03  0.25500000920E-02 0. -1.
    10030    2    1    2    0    0  0.00000000000E+00  0.00000000000E+00 -0.31495314320E+03  0.11520833820E+04  0.11081970207E+04 0.  0.
        3    1    3    3  502    0 -0.54292062703E+02  0.25403411896E+03 -0.66629139179E+03  0.71513997975E+03  0.10100000352E+00 0. -1.
       -3    1    3    3    0  502  0.54292062703E+02 -0.25403411896E+03  0.35133824859E+03  0.43694340227E+03  0.10100000352E+00 0.  1.
</event>
<event>
 5   0  0.3241189E-03  0.1097617E+04  0.7818609E-02  0.9207518E-01
       -1   -1    0    0    0  501  0.00000000000E+00  0.00000000000E+00  0.16148098775E+03  0.16148098782E+03  0.50400001928E-02 0. -1.
        1   -1    0    0  501    0  0.00000000000E+00  0.00000000000E+00 -0.18651771548E+04  0.18651771548E+04  0.50400001928E-02 0.  1.
    10030    2    1    2    0    0  0.00000000000E+00  0.00000000000E+00 -0.17036961671E+04  0.20266581427E+04  0.10976167808E+04 0.  0.
        5    1    3    3  502    0 -0.41296425855E+03  0.36080135317E+03 -0.81261600082E+03  0.98034889201E+03  0.46999998093E+01 0.  1.
       -5    1    3    3    0  502  0.41296425855E+03 -0.36080135317E+03 -0.89108016628E+03  0.10463092507E+04  0.46999998093E+01 0. -1.
</event>
<event>
 5   0  0.3215352E-03  0.9764341E+03  0.7818609E-02  0.9334776E-01
       -1   -1    0    0    0  501  0.00000000000E+00  0.00000000000E+00  0.46500574570E+03  0.46500574573E+03  0.50400001928E-02 0.  1.
        1   -1    0    0  501    0  0.00000000000E+00  0.00000000000E+00 -0.51258699306E+03  0.51258699309E+03  0.50400001928E-02 0. -1.
    10030    2    1    2    0    0  0.00000000000E+00  0.00000000000E+00 -0.47581247365E+02  0.97759273882E+03  0.97643411856E+03 0.  0.
        1    1    3    3  502    0 -0.21422279082E+03 -0.40242840563E+03  0.15110458318E+03  0.48028389609E+03  0.50400001928E-02 0. -1.
       -1    1    3    3    0  502  0.21422279082E+03  0.40242840563E+03 -0.19868583055E+03  0.49730884272E+03  0.50400001928E-02 0.  1.
</event>
<event>
 5   0  0.3328741E-03  0.9892219E+03  0.7818609E-02  0.9320446E-01
       -1   -1    0    0    0  501  0.00000000000E+00  0.00000000000E+00  0.20967920163E+03  0.20967920169E+03  0.50400001928E-02 0. -1.
        1   -1    0    0  501    0  0.00000000000E+00  0.00000000000E+00 -0.11667345860E+04  0.11667345860E+04  0.50400001928E-02 0.  1.
    10030    2    1    2    0    0  0.00000000000E+00  0.00000000000E+00 -0.95705538434E+03  0.13764137877E+04  0.98922186906E+03 0.  0.
        3    1    3    3  502    0 -0.16158070516E+03  0.43307043047E+02  0.16912296158E+03  0.23787898308E+03  0.10100000352E+00 0. -1.
       -3    1    3    3    0  502  0.16158070516E+03 -0.43307043047E+02 -0.11261783459E+04  0.11385348046E+04  0.10100000352E+00 0.  1.
</event>
<event>
 5   0  0.5941585E-03  0.1115924E+04  0.7818609E-02  0.9189809E-01
       -2   -1    0    0    0  501  0.00000000000E+00  0.00000000000E+00  0.18195473362E+03  0.18195473364E+03  0.25500000920E-02 0. -1.
        2   -1    0    0  501    0  0.00000000000E+00  0.00000000000E+00 -0.17109841553E+04  0.17109841553E+04  0.25500000920E-02 0.  1.
    10030    2    1    2    0    0  0.00000000000E+00  0.00000000000E+00 -0.15290294216E+04  0.18929388889E+04  0.11159241304E+04 0.  0.
        5    1    3    3  502    0  0.19241181001E+03  0.51933369065E+03 -0.64984465732E+03  0.85384422205E+03  0.46999998093E+01 0.  1.
       -5    1    3    3    0  502 -0.19241181001E+03 -0.51933369065E+03 -0.87918476432E+03  0.10390946669E+04  0.46999998093E+01 0. -1.
</event>
<event>
 5   0  0.2185750E-03  0.1198915E+04  0.7818609E-02  0.9113807E-01
       -3   -1    0    0    0  501  0.00000000000E+00  0.00000000000E+00  0.10299201672E+04  0.10299201721E+04  0.10100000352E+00 0.  1.
        3   -1    0    0  501    0  0.00000000000E+00  0.00000000000E+00 -0.34890966230E+03  0.34890967692E+03  0.10100000352E+00 0. -1.
    10030    2    1    2    0    0  0.00000000000E+00  0.00000000000E+00  0.68101050489E+03  0.13788298491E+04  0.11989146946E+04 0.  0.
        4    1    3    3  502    0  0.50515810186E+03 -0.16643078703E+03  0.22488705760E+02  0.53234506622E+03  0.12699999809E+01 0.  1.
       -4    1    3    3    0  502 -0.50515810186E+03  0.16643078703E+03  0.65852179913E+03  0.84648478284E+03  0.12699999809E+01 0. -1.
</event>
<event>
 5   0  0.5627232E-03  0.1069644E+04  0.7818609E-02  0.9235294E-01
       -2   -1    0    0    0  501  0.00000000000E+00  0.00000000000E+00  0.81906327868E+03  0.81906327868E+03  0.25500000920E-02 0.  1.
        2   -1    0    0  501    0  0.00000000000E+00  0.00000000000E+00 -0.34922176764E+03  0.34922176765E+03  0.25500000920E-02 0. -1.
    10030    2    1    2    0    0  0.00000000000E+00  0.00000000000E+00  0.46984151104E+03  0.11682850463E+04  0.10696442885E+04 0.  0.
        2    1    3    3  502    0 -0.24656992531E+02 -0.45630157787E+03  0.53842309801E+03  0.70620006353E+03  0.25500000920E-02 0.  1.
       -2    1    3    3    0  502  0.24656992531E+02  0.45630157787E+03 -0.68581586970E+02  0.46208498280E+03  0.25500000920E-02 0. -1.
</event>
<event>
 5   0  0.5627232E-03  0.1091775E+04  0.7818609E-02  0.9213246E-01
        2   -1    0    0  501    0  0.00000000000E+00  0.00000000000E+00  0.80709290045E+03  0.80709290046E+03  0.25500000920E-02 0. -1.
       -2   -1    0    0    0  501  0.00000000000E+00  0.00000000000E+00 -0.36921792127E+03  0.36921792128E+03  0.25500000920E-02 0.  1.
    10030    2    1    2    0    0  0.00000000000E+00  0.00000000000E+00  0.43787497918E+03  0.11763108217E+04  0.10917750006E+04 0.  0.
        2    1    3    3  502    0 -0.45075199417E+03  0.26847935319E+03  0.38139245280E+03  0.64862834227E+03  0.25500000920E-02 0.  1.
       -2    1    3    3    0  502  0.45075199417E+03 -0.26847935319E+03  0.56482526384E+02  0.52768247946E+03  0.25500000920E-02 0. -1.
</event>
<event>
 5   0  0.5941585E-03  0.1091728E+04  0.7818609E-02  0.9213292E-01
       -2   -1    0    0    0  501  0.00000000000E+00  0.00000000000E+00  0.16663426010E+03  0.16663426012E+03  0.25500000920E-02 0. -1.
        2   -1    0    0  501    0  0.00000000000E+00  0.00000000000E+00 -0.17881529790E+04  0.17881529790E+04  0.25500000920E-02 0.  1.
    10030    2    1    2    0    0  0.00000000000E+00  0.00000000000E+00 -0.16215187189E+04  0.19547872391E+04  0.10917280772E+04 0.  0.
        5    1    3    3  502    0 -0.31872724599E+03 -0.15985334847E+03 -0.15507661370E+04  0.15912378364E+04  0.46999998093E+01 0.  1.
       -5    1    3    3    0  502  0.31872724599E+03  0.15985334847E+03 -0.70752581866E+02  0.36354940269E+03  0.46999998093E+01 0. -1.
</event>
<event>
 5   0  0.5723194E-03  0.1091433E+04  0.7818609E-02  0.9213582E-01
        2   -1    0    0  501    0  0.00000000000E+00  0.00000000000E+00  0.18953585666E+04  0.18953585666E+04  0.25500000920E-02 0.  1.
       -2   -1    0    0    0  501  0.00000000000E+00  0.00000000000E+00 -0.15712421328E+03  0.15712421330E+03  0.25500000920E-02 0. -1.
    10030    2    1    2    0    0  0.00000000000E+00  0.00000000000E+00  0.17382343533E+04  0.20524827799E+04  0.10914334129E+04 0.  0.
        1    1    3    3  502    0  0.19688136926E+03 -0.41260841231E+03  0.14295011404E+04  0.15008269341E+04  0.50400001928E-02 0. -1.
       -1    1    3    3    0  502 -0.19688136926E+03  0.41260841231E+03  0.30873321286E+03  0.55165584581E+03  0.50400001928E-02 0.  1.
</event>
<event>
 5   0  0.5627232E-03  0.1108835E+04  0.7818609E-02  0.9196623E-01
        2   -1    0    0  501    0  0.00000000000E+00  0.00000000000E+00  0.94046326389E+03  0.94046326389E+03  0.25500000920E-02 0. -1.
       -2   -1    0    0    0  501  0.00000000000E+00  0.00000000000E+00 -0.32683762653E+03  0.32683762654E+03  0.25500000920E-02 0.  1.
    10030    2    1    2    0    0  0.00000000000E+00  0.00000000000E+00  0.61362563736E+03  0.12673008904E+04  0.11088350301E+04 0.  0.
        2    1    3    3  502    0  0.52660158048E+03 -0.25375979353E+02  0.50286676334E+03  0.72857954032E+03  0.25500000920E-02 0.  1.
       -2    1    3    3    0  502 -0.52660158048E+03  0.25375979353E+02  0.11075887402E+03  0.53872135011E+03  0.25500000920E-02 0. -1.
</event>
<event>
 5   0  0.5723194E-03  0.1106107E+04  0.7818609E-02  0.9199260E-01
        2   -1    0    0  501    0  0.00000000000E+00  0.00000000000E+00  0.14109384879E+04  0.14109384879E+04  0.25500000920E-02 0.  1.
       -2   -1    0    0    0  501  0.00000000000E+00  0.00000000000E+00 -0.21678334509E+03  0.21678334510E+03  0.25500000920E-02 0. -1.
    10030    2    1    2    0    0  0.00000000000E+00  0.00000000000E+00  0.11941551428E+04  0.16277218330E+04  0.11061066226E+04 0.  0.
        1    1    3    3  502    0 -0.39534424677E+03 -0.21282477046E+03  0.10722775773E+04  0.11624846920E+04  0.50400001928E-02 0.  1.
       -1    1    3    3    0  502  0.39534424677E+03  0.21282477046E+03  0.12187756556E+03  0.46523714103E+03  0.50400001928E-02 0. -1.
</event>
<event>
 5   0  0.3316784E-03  0.1105668E+04  0.7818609E-02  0.9199685E-01
       -1   -1    0    0    0  501  0.00000000000E+00  0.00000000000E+00  0.26133344161E+03  0.26133344166E+03  0.50400001928E-02 0. -1.
        1   -1    0    0  501    0  0.00000000000E+00  0.00000000000E+00 -0.11694841769E+04  0.11694841769E+04  0.50400001928E-02 0.  1.
    10030    2    1    2    0    0  0.00000000000E+00  0.00000000000E+00 -0.90815073528E+03  0.14308176186E+04  0.11056678071E+04 0.  0.
        4    1    3    3  502    0  0.29457878338E+03 -0.25583508756E+03 -0.96090951591E+03  0.10371002663E+04  0.12699999809E+01 0.  1.
       -4    1    3    3    0  502 -0.29457878338E+03  0.25583508756E+03  0.52758780636E+02  0.39371735227E+03  0.12699999809E+01 0. -1.
</event>
<event>
 5   0  0.3316784E-03  0.1164233E+04  0.7818609E-02  0.9144752E-01
       -1   -1    0    0    0  501  0.00000000000E+00  0.00000000000E+00  0.49668517217E+03  0.49668517220E+03  0.50400001928E-02 0.  1.
        1   -1    0    0  501    0  0.00000000000E+00  0.00000000000E+00 -0.68224228033E+03  0.68224228035E+03  0.50400001928E-02 0. -1.
    10030    2    1    2    0    0  0.00000000000E+00  0.00000000000E+00 -0.18555710816E+03  0.11789274525E+04  0.11642330085E+04 0.  0.
        4    1    3    3  502    0 -0.67512095711E+02 -0.57796583999E+03 -0.10896835339E+03  0.59201191729E+03  0.12699999809E+01 0. -1.
       -4    1    3    3    0  502  0.67512095711E+02  0.57796583999E+03 -0.76588754766E+02  0.58691553526E+03  0.12699999809E+01 0.  1.
</event>
<event>
 5   0  0.3316784E-03  0.1106925E+04  0.7818609E-02  0.9198468E-01
        1   -1    0    0  501    0  0.00000000000E+00  0.00000000000E+00  0.18122492644E+04  0.18122492644E+04  0.50400001928E-02 0.  1.
       -1   -1    0    0    0  501  0.00000000000E+00  0.00000000000E+00 -0.16902802720E+03  0.16902802727E+03  0.50400001928E-02 0. -1.
    10030    2    1    2    0    0  0.00000000000E+00  0.00000000000E+00  0.16432212372E+04  0.19812772917E+04  0.11069253237E+04 0.  0.
        4    1    3    3  502    0  0.35383413157E+01  0.10219935652E+03  0.17951904971E+04  0.17981011546E+04  0.12699999809E+01 0.  1.
       -4    1    3    3    0  502 -0.35383413157E+01 -0.10219935652E+03 -0.15196925992E+03  0.18317613707E+03  0.12699999809E+01 0. -1.
</event>
<event>
 5   0  0.5946359E-03  0.1113490E+04  0.7818609E-02  0.9192143E-01
       -2   -1    0    0    0  501  0.00000000000E+00  0.00000000000E+00  0.47262569857E+03  0.47262569858E+03  0.25500000920E-02 0.  1.
        2   -1    0    0  501    0  0.00000000000E+00  0.00000000000E+00 -0.65583560081E+03  0.65583560082E+03  0.25500000920E-02 0. -1.
    10030    2    1    2    0    0  0.00000000000E+00  0.00000000000E+00 -0.18320990224E+03  0.11284612994E+04  0.11134895760E+04 0.  0.
        4    1    3    3  502    0 -0.40866482657E+03 -0.64866215704E+02 -0.46910306567E+03  0.62551887704E+03  0.12699999809E+01 0. -1.
       -4    1    3    3    0  502  0.40866482657E+03  0.64866215704E+02  0.28589316343E+03  0.50294242236E+03  0.12699999809E+01 0.  1.
</event>
<event>
 5   0  0.3241189E-03  0.1097059E+04  0.7818609E-02  0.9208063E-01
        1   -1    0    0  501    0  0.00000000000E+00  0.00000000000E+00  0.34626094524E+03  0.34626094528E+03  0.50400001928E-02 0.  1.
       -1   -1    0    0    0  501  0.00000000000E+00  0.00000000000E+00 -0.86895292323E+03  0.86895292324E+03  0.50400001928E-02 0. -1.
    10030    2    1    2    0    0  0.00000000000E+00  0.00000000000E+00 -0.52269197799E+03  0.12152138685E+04  0.10970587233E+04 0.  0.
        5    1    3    3  502    0 -0.23920880786E+03  0.48646406823E+03 -0.35398474381E+03  0.64745303481E+03  0.46999998093E+01 0. -1.
       -5    1    3    3    0  502  0.23920880786E+03 -0.48646406823E+03 -0.16870723417E+03  0.56776083371E+03  0.46999998093E+01 0.  1.
</event>
<event>
 5   0  0.3320192E-03  0.1110266E+04  0.7818609E-02  0.9195244E-01
       -1   -1    0    0    0  501  0.00000000000E+00  0.00000000000E+00  0.18558650011E+03  0.18558650017E+03  0.50400001928E-02 0.  1.
        1   -1    0    0  501    0  0.00000000000E+00  0.00000000000E+00 -0.16605323768E+04  0.16605323768E+04  0.50400001928E-02 0. -1.
    10030    2    1    2    0    0  0.00000000000E+00  0.00000000000E+00 -0.14749458767E+04  0.18461188769E+04  0.11102655397E+04 0.  0.
        2    1    3    3  502    0 -0.30291568327E+03 -0.89313931146E+02 -0.14966109416E+04  0.15295683051E+04  0.25500000920E-02 0. -1.
       -2    1    3    3    0  502  0.30291568327E+03  0.89313931146E+02  0.21665064965E+02  0.31655057181E+03  0.25500000920E-02 0.  1.
</event>
<event>
 5   0  0.3316784E-03  0.1129431E+04  0.7818609E-02  0.9176972E-01
        1   -1    0    0  501    0  0.00000000000E+00  0.00000000000E+00  0.10401055378E+04  0.10401055378E+04  0.50400001928E-02 0.  1.
       -1   -1    0    0    0  501  0.00000000000E+00  0.00000000000E+00 -0.30660711201E+03  0.30660711205E+03  0.50400001928E-02 0. -1.
    10030    2    1    2    0    0  0.00000000000E+00  0.00000000000E+00  0.73349842581E+03  0.13467126499E+04  0.11294312820E+04 0.  0.
        4    1    3    3  502    0 -0.18791202322E+02  0.10863376922E+03 -0.29364888104E+03  0.31366492206E+03  0.12699999809E+01 0. -1.
       -4    1    3    3    0  502  0.18791202322E+02 -0.10863376922E+03  0.10271473068E+04  0.10330477278E+04  0.12699999809E+01 0.  1.
</event>
<event>
 5   0  0.3316784E-03  0.1104366E+04  0.7818609E-02  0.9200947E-01
        1   -1    0    0  501    0  0.00000000000E+00  0.00000000000E+00  0.34762860878E+03  0.34762860881E+03  0.50400001928E-02 0. -1.
       -1   -1    0    0    0  501  0.00000000000E+00  0.00000000000E+00 -0.87710352489E+03  0.87710352490E+03  0.50400001928E-02 0.  1.
    10030    2    1    2    0    0  0.00000000000E+00  0.00000000000E+00 -0.52947491611E+03  0.12247321337E+04  0.11043663851E+04 0.  0.
        4    1    3    3  502    0  0.36275505558E+03 -0.55237122087E+02 -0.72233868001E+03  0.81019574890E+03  0.12699999809E+01 0.  1.
       -4    1    3    3    0  502 -0.36275505558E+03  0.55237122087E+02  0.19286376390E+03  0.41453638481E+03  0.12699999809E+01 0. -1.
</event>
<event>
 5   0  0.5500363E-03  0.1100182E+04  0.7818609E-02  0.9205014E-01
        2   -1    0    0  501    0  0.00000000000E+00  0.00000000000E+00  0.86446890702E+03  0.86446890702E+03  0.25500000920E-02 0.  1.
       -2   -1    0    0    0  501  0.00000000000E+00  0.00000000000E+00 -0.35004168338E+03  0.35004168339E+03  0.25500000920E-02 0. -1.
    10030    2    1    2    0    0  0.00000000000E+00  0.00000000000E+00  0.51442722364E+03  0.12145105904E+04  0.11001820785E+04 0.  0.
        3    1    3    3  502    0  0.33143104499E+02 -0.27823028174E+03 -0.26536012241E+03  0.38591004110E+03  0.10100000352E+00 0. -1.
       -3    1    3    3    0  502 -0.33143104499E+02  0.27823028174E+03  0.77978734605E+03  0.82860054931E+03  0.10100000352E+00 0.  1.
</event>
<event>
 5   0  0.3320192E-03  0.1136412E+04  0.7818609E-02  0.9170411E-01
       -1   -1    0    0    0  501  0.00000000000E+00  0.00000000000E+00  0.55599406699E+03  0.55599406701E+03  0.50400001928E-02 0.  1.
        1   -1    0    0  501    0  0.00000000000E+00  0.00000000000E+00 -0.58068616189E+03  0.58068616191E+03  0.50400001928E-02 0. -1.
    10030    2    1    2    0    0  0.00000000000E+00  0.00000000000E+00 -0.24692094899E+02  0.11366802289E+04  0.11364120042E+04 0.  0.
        2    1    3    3  502    0 -0.64852417398E+02  0.38311413587E+03 -0.42702294352E+03  0.57734813713E+03  0.25500000920E-02 0. -1.
       -2    1    3    3    0  502  0.64852417398E+02 -0.38311413587E+03  0.40233084862E+03  0.55933209179E+03  0.25500000920E-02 0.  1.
</event>
<event>
 5   0  0.5500363E-03  0.1112285E+04  0.7818609E-02  0.9193300E-01
        2   -1    0    0  501    0  0.00000000000E+00  0.00000000000E+00  0.12133149092E+04  0.12133149092E+04  0.25500000920E-02 0.  1.
       -2   -1    0    0    0  501  0.00000000000E+00  0.00000000000E+00 -0.25491684729E+03  0.25491684731E+03  0.25500000920E-02 0. -1.
    10030    2    1    2    0    0  0.00000000000E+00  0.00000000000E+00  0.95839806192E+03  0.14682317565E+04  0.11122848762E+04 0.  0.
        3    1    3    3  502    0 -0.84102423799E+02 -0.34900434521E+03  0.10398821632E+04  0.11001055287E+04  0.10100000352E+00 0.  1.
       -3    1    3    3    0  502  0.84102423799E+02  0.34900434521E+03 -0.81484101293E+02  0.36812622784E+03  0.10100000352E+00 0. -1.
</event>
<event>
 5   0  0.3241189E-03  0.1124327E+04  0.7818609E-02  0.9181800E-01
       -1   -1    0    0    0  501  0.00000000000E+00  0.00000000000E+00  0.74130116851E+03  0.74130116853E+03  0.50400001928E-02 0. -1.
        1   -1    0    0  501    0  0.00000000000E+00  0.00000000000E+00 -0.42631480641E+03  0.42631480644E+03  0.50400001928E-02 0.  1.
    10030    2    1    2    0    0  0.00000000000E+00  0.00000000000E+00  0.31498636210E+03  0.11676159750E+04  0.11243267571E+04 0.  0.
        5    1    3    3  502    0 -0.32580858242E+03 -0.22769092879E+03  0.57030430717E+03  0.69517155019E+03  0.46999998093E+01 0. -1.
       -5    1    3    3    0  502  0.32580858242E+03  0.22769092879E+03 -0.25531794507E+03  0.47244442478E+03  0.46999998093E+01 0.  1.
</event>
<event>
 5   0  0.5500363E-03  0.1092924E+04  0.7818609E-02  0.9212116E-01
        2   -1    0    0  501    0  0.00000000000E+00  0.00000000000E+00  0.12483244655E+04  0.12483244655E+04  0.25500000920E-02 0. -1.
       -2   -1    0    0    0  501  0.00000000000E+00  0.00000000000E+00 -0.23921710976E+03  0.23921710977E+03  0.25500000920E-02 0.  1.
    10030    2    1    2    0    0  0.00000000000E+00  0.00000000000E+00  0.10091073557E+04  0.14875415752E+04  0.10929237314E+04 0.  0.
        3    1    3    3  502    0  0.22903615112E+03 -0.28852602233E+03 -0.44811053028E+02  0.37109684013E+03  0.10100000352E+00 0.  1.
       -3    1    3    3    0  502 -0.22903615112E+03  0.28852602233E+03  0.10539184087E+04  0.11164447351E+04  0.10100000352E+00 0. -1.
</event>
<event>
 5   0  0.3328741E-03  0.1019503E+04  0.7818609E-02  0.9287409E-01
        1   -1    0    0  501    0  0.00000000000E+00  0.00000000000E+00  0.82336541330E+03  0.82336541331E+03  0.50400001928E-02 0. -1.
       -1   -1    0    0    0  501  0.00000000000E+00  0.00000000000E+00 -0.31559071918E+03  0.31559071922E+03  0.50400001928E-02 0.  1.
    10030    2    1    2    0    0  0.00000000000E+00  0.00000000000E+00  0.50777469412E+03  0.11389561325E+04  0.10195027866E+04 0.  0.
        3    1    3    3  502    0 -0.33858280979E+03  0.37923382042E+03  0.21223834529E+03  0.55090991554E+03  0.10100000352E+00 0.  1.
       -3    1    3    3    0  502  0.33858280979E+03 -0.37923382042E+03  0.29553634883E+03  0.58804621699E+03  0.10100000352E+00 0. -1.
</event>
<event>
 5   0  0.3241189E-03  0.1090028E+04  0.7818609E-02  0.9214966E-01
        1   -1    0    0  501    0  0.00000000000E+00  0.00000000000E+00  0.11581514905E+04  0.11581514905E+04  0.50400001928E-02 0. -1.
       -1   -1    0    0    0  501  0.00000000000E+00  0.00000000000E+00 -0.25647788830E+03  0.25647788835E+03  0.50400001928E-02 0.  1.
    10030    2    1    2    0    0  0.00000000000E+00  0.00000000000E+00  0.90167360221E+03  0.14146293789E+04  0.10900279788E+04 0.  0.
        5    1    3    3  502    0 -0.10984236472E+03 -0.47076554411E+03  0.12423487510E+03  0.49914119926E+03  0.46999998093E+01 0.  1.
       -5    1    3    3    0  502  0.10984236472E+03  0.47076554411E+03  0.77743872711E+03  0.91548817961E+03  0.46999998093E+01 0. -1.
</event>
<event>
 5   0  0.5941585E-03  0.1125515E+04  0.7818609E-02  0.9180674E-01
        2   -1    0    0  501    0  0.00000000000E+00  0.00000000000E+00  0.11669551552E+04  0.11669551552E+04  0.25500000920E-02 0.  1.
       -2   -1    0    0    0  501  0.00000000000E+00  0.00000000000E+00 -0.27138669912E+03  0.27138669913E+03  0.25500000920E-02 0. -1.
    10030    2    1    2    0    0  0.00000000000E+00  0.00000000000E+00  0.89556845609E+03  0.14383418544E+04  0.11255151845E+04 0.  0.
        5    1    3    3  502    0  0.40631497788E+03  0.10116350401E+03 -0.32674126966E+02  0.42001857621E+03  0.46999998093E+01 0. -1.
       -5    1    3    3    0  502 -0.40631497788E+03 -0.10116350401E+03  0.92824258306E+03  0.10183232781E+04  0.46999998093E+01 0.  1.
</event>
<event>
 5   0  0.3328741E-03  0.9590196E+03  0.7818609E-02  0.9354670E-01
        1   -1    0    0  501    0  0.00000000000E+00  0.00000000000E+00  0.17992970302E+04  0.17992970302E+04  0.50400001928E-02 0. -1.
       -1   -1    0    0    0  501  0.00000000000E+00  0.00000000000E+00 -0.12778860973E+03  0.12778860983E+03  0.50400001928E-02 0.  1.
    10030    2    1    2    0    0  0.00000000000E+00  0.00000000000E+00  0.16715084204E+04  0.19270856400E+04  0.95901963710E+03 0.  0.
        3    1    3    3  502    0  0.45430067175E+03  0.72982969748E+02  0.11069460878E+04  0.11987682286E+04  0.10100000352E+00 0. -1.
       -3    1    3    3    0  502 -0.45430067175E+03 -0.72982969748E+02  0.56456233261E+03  0.72831741145E+03  0.10100000352E+00 0.  1.
</event>
<event>
 5   0  0.3320192E-03  0.1097243E+04  0.7818609E-02  0.9207883E-01
       -1   -1    0    0    0  501  0.00000000000E+00  0.00000000000E+00  0.28269457391E+03  0.28269457395E+03  0.50400001928E-02 0. -1.
        1   -1    0    0  501    0  0.00000000000E+00  0.00000000000E+00 -0.10647020552E+04  0.10647020552E+04  0.50400001928E-02 0.  1.
    10030    2    1    2    0    0  0.00000000000E+00  0.00000000000E+00 -0.78200748130E+03  0.13473966292E+04  0.10972428972E+04 0.  0.
        2    1    3    3  502    0  0.49988967531E+03 -0.12140805080E+03 -0.15686133389E+03  0.53780580171E+03  0.25500000920E-02 0. -1.
       -2    1    3    3    0  502 -0.49988967531E+03  0.12140805080E+03 -0.62514614741E+03  0.80959082746E+03  0.25500000920E-02 0.  1.
</event>
<event>
 5   0  0.5627232E-03  0.1090116E+04  0.7818609E-02  0.9214879E-01
        2   -1    0    0  501    0  0.00000000000E+00  0.00000000000E+00  0.25233256515E+03  0.25233256516E+03  0.25500000920E-02 0.  1.
       -2   -1    0    0    0  501  0.00000000000E+00  0.00000000000E+00 -0.11773687187E+04  0.11773687187E+04  0.25500000920E-02 0. -1.
    10030    2    1    2    0    0  0.00000000000E+00  0.00000000000E+00 -0.92503615360E+03  0.14297012839E+04  0.10901164505E+04 0.  0.
        2    1    3    3  502    0 -0.36535567936E+02 -0.54106521955E+03 -0.39065905002E+03  0.66835687540E+03  0.25500000920E-02 0.  1.
       -2    1    3    3    0  502  0.36535567936E+02  0.54106521955E+03 -0.53437710358E+03  0.76134440850E+03  0.25500000920E-02 0. -1.
</event>
<event>
 5   0  0.5627232E-03  0.1112114E+04  0.7818609E-02  0.9193465E-01
        2   -1    0    0  501    0  0.00000000000E+00  0.00000000000E+00  0.21191208661E+04  0.21191208661E+04  0.25500000920E-02 0.  1.
       -2   -1    0    0    0  501  0.00000000000E+00  0.00000000000E+00 -0.14590924969E+03  0.14590924971E+03  0.25500000920E-02 0. -1.
    10030    2    1    2    0    0  0.00000000000E+00  0.00000000000E+00  0.19732116164E+04  0.22650301158E+04  0.11121139071E+04 0.  0.
        2    1    3    3  502    0 -0.31775486427E+03  0.26674883281E+03  0.17406656348E+04  0.17894244733E+04  0.25500000920E-02 0.  1.
       -2    1    3    3    0  502  0.31775486427E+03 -0.26674883281E+03  0.23254598159E+03  0.47560564245E+03  0.25500000920E-02 0. -1.
</event>
<event>
 5   0  0.5946359E-03  0.1091805E+04  0.7818609E-02  0.9213216E-01
        2   -1    0    0  501    0  0.00000000000E+00  0.00000000000E+00  0.54265280121E+03  0.54265280122E+03  0.25500000920E-02 0.  1.
       -2   -1    0    0    0  501  0.00000000000E+00  0.00000000000E+00 -0.54917176023E+03  0.54917176024E+03  0.25500000920E-02 0. -1.
    10030    2    1    2    0    0  0.00000000000E+00  0.00000000000E+00 -0.65189590226E+01  0.10918245615E+04  0.10918050999E+04 0.  0.
        4    1    3    3  502    0  0.85881427379E+02 -0.73013669151E+02  0.53088613438E+03  0.54272305648E+03  0.12699999809E+01 0.  1.
       -4    1    3    3    0  502 -0.85881427379E+02  0.73013669151E+02 -0.53740509341E+03  0.54910150498E+03  0.12699999809E+01 0. -1.
</event>
<event>
 5   0  0.5723194E-03  0.1110376E+04  0.7818609E-02  0.9195137E-01
       -2   -1    0    0    0  501  0.00000000000E+00  0.00000000000E+00  0.19868308438E+03  0.19868308440E+03  0.25500000920E-02 0. -1.
        2   -1    0    0  501    0  0.00000000000E+00  0.00000000000E+00 -0.15513849829E+04  0.15513849829E+04  0.25500000920E-02 0.  1.
    10030    2    1    2    0    0  0.00000000000E+00  0.00000000000E+00 -0.13527018985E+04  0.17500680673E+04  0.11103764289E+04 0.  0.
        1    1    3    3  502    0 -0.16235044755E+03 -0.51021939486E+03 -0.44496708093E+03  0.69618761971E+03  0.50400001928E-02 0. -1.
       -1    1    3    3    0  502  0.16235044755E+03  0.51021939486E+03 -0.90773481759E+03  0.10538804476E+04  0.50400001928E-02 0.  1.
</event>
<event>
 5   0  0.2185750E-03  0.1099829E+04  0.7818609E-02  0.9205358E-01
       -4   -1    0    0    0  501  0.00000000000E+00  0.00000000000E+00  0.84930713586E+03  0.84930808540E+03  0.12699999809E+01 0. -1.
        4   -1    0    0  501    0  0.00000000000E+00  0.00000000000E+00 -0.35605993798E+03  0.35606220290E+03  0.12699999809E+01 0.  1.
    10030    2    1    2    0    0  0.00000000000E+00  0.00000000000E+00  0.49324719788E+03  0.12053702883E+04  0.10998294112E+04 0.  0.
        1    1    3    3  502    0  0.16998197993E+03  0.27521054839E+03 -0.24076679694E+03  0.40324108171E+03  0.50400001928E-02 0.  1.
       -1    1    3    3    0  502 -0.16998197993E+03 -0.27521054839E+03  0.73401399482E+03  0.80212920659E+03  0.50400001928E-02 0. -1.
</event>
<event>
 5   0  0.5627232E-03  0.1121658E+04  0.7818609E-02  0.9184336E-01
       -2   -1    0    0    0  501  0.00000000000E+00  0.00000000000E+00  0.26419074395E+03  0.26419074396E+03  0.25500000920E-02 0.  1.
        2   -1    0    0  501    0  0.00000000000E+00  0.00000000000E+00 -0.11905373366E+04  0.11905373366E+04  0.25500000920E-02 0. -1.
    10030    2    1    2    0    0  0.00000000000E+00  0.00000000000E+00 -0.92634659269E+03  0.14547280806E+04  0.11216576031E+04 0.  0.
        2    1    3    3  502    0 -0.10032260828E+03  0.54151368691E+03 -0.60059588760E+03  0.81487245570E+03  0.25500000920E-02 0. -1.
       -2    1    3    3    0  502  0.10032260828E+03 -0.54151368691E+03 -0.32575070509E+03  0.63985562490E+03  0.25500000920E-02 0.  1.
</event>
<event>
 5   0  0.5500363E-03  0.1112716E+04  0.7818609E-02  0.9192886E-01
        2   -1    0    0  501    0  0.00000000000E+00  0.00000000000E+00  0.95974232609E+03  0.95974232609E+03  0.25500000920E-02 0.  1.
       -2   -1    0    0    0  501  0.00000000000E+00  0.00000000000E+00 -0.32251808663E+03  0.32251808664E+03  0.25500000920E-02 0. -1.
    10030    2    1    2    0    0  0.00000000000E+00  0.00000000000E+00  0.63722423946E+03  0.12822604127E+04  0.11127160620E+04 0.  0.
        3    1    3    3  502    0 -0.10171442265E+03  0.53661524985E+03  0.44074428556E+03  0.70182425550E+03  0.10100000352E+00 0.  1.
       -3    1    3    3    0  502  0.10171442265E+03 -0.53661524985E+03  0.19647995390E+03  0.58043615724E+03  0.10100000352E+00 0. -1.
</event>
<event>
 5   0  0.2185750E-03  0.9548129E+03  0.7818609E-02  0.9359543E-01
        3   -1    0    0  501    0  0.00000000000E+00  0.00000000000E+00  0.11564015713E+04  0.11564015757E+04  0.10100000352E+00 0.  1.
       -3   -1    0    0    0  501  0.00000000000E+00  0.00000000000E+00 -0.19709149581E+03  0.19709152169E+03  0.10100000352E+00 0. -1.
    10030    2    1    2    0    0  0.00000000000E+00  0.00000000000E+00  0.95931007548E+03  0.13534930974E+04  0.95481293653E+03 0.  0.
        1    1    3    3  502    0  0.17167223331E+03 -0.35166037207E+03  0.92011886109E+02  0.40199820918E+03  0.50400001928E-02 0. -1.
       -1    1    3    3    0  502 -0.17167223331E+03  0.35166037207E+03  0.86729818937E+03  0.95149488821E+03  0.50400001928E-02 0.  1.
</event>
<event>
 5   0  0.2185750E-03  0.9540084E+03  0.7818609E-02  0.9360478E-01
       -3   -1    0    0    0  501  0.00000000000E+00  0.00000000000E+00  0.30239928772E+03  0.30239930459E+03  0.10100000352E+00 0. -1.
        3   -1    0    0  501    0  0.00000000000E+00  0.00000000000E+00 -0.75242564155E+03  0.75242564833E+03  0.10100000352E+00 0.  1.
    10030    2    1    2    0    0  0.00000000000E+00  0.00000000000E+00 -0.45002635383E+03  0.10548249529E+04  0.95400836587E+03 0.  0.
        1    1    3    3  502    0  0.28537978063E+02 -0.12028458692E+03  0.28437898502E+03  0.31008741540E+03  0.50400001928E-02 0. -1.
       -1    1    3    3    0  502 -0.28537978063E+02  0.12028458692E+03 -0.73440533884E+03  0.74473753752E+03  0.50400001928E-02 0.  1.
</event>
<event>
 5   0  0.3328741E-03  0.1116165E+04  0.7818609E-02  0.9189578E-01
        1   -1    0    0  501    0  0.00000000000E+00  0.00000000000E+00  0.16988724313E+04  0.16988724313E+04  0.50400001928E-02 0. -1.
       -1   -1    0    0    0  501  0.00000000000E+00  0.00000000000E+00 -0.18333113039E+03  0.18333113046E+03  0.50400001928E-02 0.  1.
    10030    2    1    2    0    0  0.00000000000E+00  0.00000000000E+00  0.15155413009E+04  0.18822035617E+04  0.11161652266E+04 0.  0.
        3    1    3    3  502    0 -0.16140684183E+02 -0.21195239466E+03 -0.11239259157E+03  0.24045050245E+03  0.10100000352E+00 0.  1.
       -3    1    3    3    0  502  0.16140684183E+02  0.21195239466E+03  0.16279338924E+04  0.16417530593E+04  0.10100000352E+00 0. -1.
</event>
<event>
 5   0  0.5941585E-03  0.1089637E+04  0.7818609E-02  0.9215351E-01
       -2   -1    0    0    0  501  0.00000000000E+00  0.00000000000E+00  0.45378285590E+03  0.45378285591E+03  0.25500000920E-02 0. -1.
        2   -1    0    0  501    0  0.00000000000E+00  0.00000000000E+00 -0.65411769578E+03  0.65411769578E+03  0.25500000920E-02 0.  1.
    10030    2    1    2    0    0  0.00000000000E+00  0.00000000000E+00 -0.20033483988E+03  0.11079005517E+04  0.10896373637E+04 0.  0.
        5    1    3    3  502    0  0.34608056445E+03 -0.41306497365E+03 -0.18757467904E+02  0.53922941513E+03  0.46999998093E+01 0.  1.
       -5    1    3    3    0  502 -0.34608056445E+03  0.41306497365E+03 -0.18157737198E+03  0.56867113656E+03  0.46999998093E+01 0. -1.
</event>
<event>
 5   0  0.3316784E-03  0.1097848E+04  0.7818609E-02  0.9207292E-01
       -1   -1    0    0    0  501  0.00000000000E+00  0.00000000000E+00  0.17903213854E+03  0.17903213862E+03  0.50400001928E-02 0.  1.
        1   -1    0    0  501    0  0.00000000000E+00  0.00000000000E+00 -0.16830363436E+04  0.16830363436E+04  0.50400001928E-02 0. -1.
    10030    2    1    2    0    0  0.00000000000E+00  0.00000000000E+00 -0.15040042051E+04  0.18620684822E+04  0.10978480695E+04 0.  0.
        4    1    3    3  502    0 -0.40040786174E+03 -0.18062441498E+03 -0.13103393713E+04  0.13820066990E+04  0.12699999809E+01 0. -1.
       -4    1    3    3    0  502  0.40040786174E+03  0.18062441498E+03 -0.19366483374E+03  0.48006178327E+03  0.12699999809E+01 0.  1.
</event>
<event>
 5   0  0.5723194E-03  0.1087385E+04  0.7818609E-02  0.9217575E-01
        2   -1    0    0  501    0  0.00000000000E+00  0.00000000000E+00  0.18674558066E+04  0.18674558066E+04  0.25500000920E-02 0.  1.
       -2   -1    0    0    0  501  0.00000000000E+00  0.00000000000E+00 -0.15829109777E+03  0.15829109779E+03  0.25500000920E-02 0. -1.
    10030    2    1    2    0    0  0.00000000000E+00  0.00000000000E+00  0.17091647088E+04  0.20257469044E+04  0.10873851750E+04 0.  0.
        1    1    3    3  502    0 -0.28163536722E+02 -0.42425984092E+03  0.14858237602E+04  0.15454649281E+04  0.50400001928E-02 0.  1.
       -1    1    3    3    0  502  0.28163536722E+02  0.42425984092E+03  0.22334094857E+03  0.48028197629E+03  0.50400001928E-02 0. -1.
</event>
<event>
 5   0  0.2185750E-03  0.1031789E+04  0.7818609E-02  0.9274351E-01
        3   -1    0    0  501    0  0.00000000000E+00  0.00000000000E+00  0.29745157145E+03  0.29745158860E+03  0.10100000352E+00 0. -1.
       -3   -1    0    0    0  501  0.00000000000E+00  0.00000000000E+00 -0.89475739984E+03  0.89475740554E+03  0.10100000352E+00 0.  1.
    10030    2    1    2    0    0  0.00000000000E+00  0.00000000000E+00 -0.59730582839E+03  0.11922089941E+04  0.10317887541E+04 0.  0.
        5    1    3    3  502    0  0.29201560783E+03 -0.26035524943E+02 -0.78911744889E+03  0.84183098179E+03  0.46999998093E+01 0.  1.
       -5    1    3    3    0  502 -0.29201560783E+03  0.26035524943E+02  0.19181162050E+03  0.35037801234E+03  0.46999998093E+01 0. -1.
</event>
<event>
 5   0  0.5627232E-03  0.1129520E+04  0.7818609E-02  0.9176888E-01
        2   -1    0    0  501    0  0.00000000000E+00  0.00000000000E+00  0.11470078122E+04  0.11470078122E+04  0.25500000920E-02 0.  1.
       -2   -1    0    0    0  501  0.00000000000E+00  0.00000000000E+00 -0.27807457380E+03  0.27807457381E+03  0.25500000920E-02 0. -1.
    10030    2    1    2    0    0  0.00000000000E+00  0.00000000000E+00  0.86893323836E+03  0.14250823860E+04  0.11295197360E+04 0.  0.
        2    1    3    3  502    0  0.27702381410E+03  0.10378318832E+03 -0.17250151150E+03  0.34244695243E+03  0.25500000920E-02 0. -1.
       -2    1    3    3    0  502 -0.27702381410E+03 -0.10378318832E+03  0.10414347499E+04  0.10826354335E+04  0.25500000920E-02 0.  1.
</event>
<event>
 5   0  0.3241189E-03  0.1104444E+04  0.7818609E-02  0.9200871E-01
        1   -1    0    0  501    0  0.00000000000E+00  0.00000000000E+00  0.53510411191E+03  0.53510411194E+03  0.50400001928E-02 0.  1.
       -1   -1    0    0    0  501  0.00000000000E+00  0.00000000000E+00 -0.56988761193E+03  0.56988761195E+03  0.50400001928E-02 0. -1.
    10030    2    1    2    0    0  0.00000000000E+00  0.00000000000E+00 -0.34783500016E+02  0.11049917239E+04  0.11044441217E+04 0.  0.
        5    1    3    3  502    0 -0.22140539449E+03 -0.15029631637E+03  0.46587753960E+03  0.53728326172E+03  0.46999998093E+01 0.  1.
       -5    1    3    3    0  502  0.22140539449E+03  0.15029631637E+03 -0.50066103962E+03  0.56770846216E+03  0.46999998093E+01 0. -1.
</event>
<event>
 5   0  0.5946359E-03  0.1109755E+04  0.7818609E-02  0.9195735E-01
       -2   -1    0    0    0  501  0.00000000000E+00  0.00000000000E+00  0.27730096073E+03  0.27730096074E+03  0.25500000920E-02 0. -1.
        2   -1    0    0  501    0  0.00000000000E+00  0.00000000000E+00 -0.11103071831E+04  0.11103071832E+04  0.25500000920E-02 0.  1.
    10030    2    1    2    0    0  0.00000000000E+00  0.00000000000E+00 -0.83300622242E+03  0.13876081439E+04  0.11097553759E+04 0.  0.
        4    1    3    3  502    0 -0.49379097388E+02  0.31872861032E+03 -0.98105920301E+03  0.10327172871E+04  0.12699999809E+01 0.  1.
       -4    1    3    3    0  502  0.49379097388E+02 -0.31872861032E+03  0.14805298059E+03  0.35489085682E+03  0.12699999809E+01 0. -1.
</event>
<event>
 5   0  0.5941585E-03  0.1070352E+04  0.7818609E-02  0.9234581E-01
        2   -1    0    0  501    0  0.00000000000E+00  0.00000000000E+00  0.11851953531E+04  0.11851953531E+04  0.25500000920E-02 0.  1.
       -2   -1    0    0    0  501  0.00000000000E+00  0.00000000000E+00 -0.24165902517E+03  0.24165902518E+03  0.25500000920E-02 0. -1.
    10030    2    1    2    0    0  0.00000000000E+00  0.00000000000E+00  0.94353632790E+03  0.14268543783E+04  0.10703516313E+04 0.  0.
        5    1    3    3  502    0  0.41801147805E+03 -0.17219197459E+03  0.85351871853E+03  0.96586746750E+03  0.46999998093E+01 0. -1.
       -5    1    3    3    0  502 -0.41801147805E+03  0.17219197459E+03  0.90017609377E+02  0.46098691076E+03  0.46999998093E+01 0.  1.
</event>
<event>
 5   0  0.3316784E-03  0.1099734E+04  0.7818609E-02  0.9205451E-01
        1   -1    0    0  501    0  0.00000000000E+00  0.00000000000E+00  0.47018858210E+03  0.47018858213E+03  0.50400001928E-02 0. -1.
       -1   -1    0    0    0  501  0.00000000000E+00  0.00000000000E+00 -0.64304760462E+03  0.64304760464E+03  0.50400001928E-02 0.  1.
    10030    2    1    2    0    0  0.00000000000E+00  0.00000000000E+00 -0.17285902251E+03  0.11132361868E+04  0.10997338614E+04 0.  0.
        4    1    3    3  502    0 -0.34563477941E+03  0.37061599405E+03 -0.30243264397E+03  0.59015822694E+03  0.12699999809E+01 0.  1.
       -4    1    3    3    0  502  0.34563477941E+03 -0.37061599405E+03  0.12957362145E+03  0.52307795983E+03  0.12699999809E+01 0. -1.
</event>
<event>
 5   0  0.5500363E-03  0.1093098E+04  0.7818609E-02  0.9211945E-01
       -2   -1    0    0    0  501  0.00000000000E+00  0.00000000000E+00  0.25123386591E+03  0.25123386593E+03  0.25500000920E-02 0. -1.
        2   -1    0    0  501    0  0.00000000000E+00  0.00000000000E+00 -0.11889956222E+04  0.11889956222E+04  0.25500000920E-02 0.  1.
    10030    2    1    2    0    0  0.00000000000E+00  0.00000000000E+00 -0.93776175630E+03  0.14402294881E+04  0.10930982879E+04 0.  0.
        3    1    3    3  502    0  0.10725504626E+03  0.96859588974E+02 -0.11633652379E+04  0.11723071747E+04  0.10100000352E+00 0.  1.
       -3    1    3    3    0  502 -0.10725504626E+03 -0.96859588974E+02  0.22560348160E+03  0.26792231343E+03  0.10100000352E+00 0. -1.
</event>
<event>
 5   0  0.3241189E-03  0.1087283E+04  0.7818609E-02  0.9217676E-01
       -1   -1    0    0    0  501  0.00000000000E+00  0.00000000000E+00  0.15512633980E+03  0.15512633988E+03  0.50400001928E-02 0.  1.
        1   -1    0    0  501    0  0.00000000000E+00  0.00000000000E+00 -0.19051955958E+04  0.19051955958E+04  0.50400001928E-02 0. -1.
    10030    2    1    2    0    0  0.00000000000E+00  0.00000000000E+00 -0.17500692560E+04  0.20603219357E+04  0.10872828877E+04 0.  0.
        5    1    3    3  502    0 -0.14232831277E+03  0.35362489533E+02  0.11689429609E+03  0.18760122798E+03  0.46999998093E+01 0.  1.
       -5    1    3    3    0  502  0.14232831277E+03 -0.35362489533E+02 -0.18669635521E+04  0.18727207078E+04  0.46999998093E+01 0. -1.
</event>
<event>
 5   0  0.3328741E-03  0.1088176E+04  0.7818609E-02  0.9216794E-01
       -1   -1    0    0    0  501  0.00000000000E+00  0.00000000000E+00  0.31100022818E+03  0.31100022822E+03  0.50400001928E-02 0.  1.
        1   -1    0    0  501    0  0.00000000000E+00  0.00000000000E+00 -0.95186986974E+03  0.95186986976E+03  0.50400001928E-02 0. -1.
    10030    2    1    2    0    0  0.00000000000E+00  0.00000000000E+00 -0.64086964157E+03  0.12628700980E+04  0.10881759908E+04 0.  0.
        3    1    3    3  502    0  0.39456600547E+03  0.18177530899E+03  0.59731686221E+02  0.43851166481E+03  0.10100000352E+00 0.  1.
       -3    1    3    3    0  502 -0.39456600547E+03 -0.18177530899E+03 -0.70060132779E+03  0.82435843317E+03  0.10100000352E+00 0. -1.
</event>
<event>
 5   0  0.3328741E-03  0.1105715E+04  0.7818609E-02  0.9199639E-01
       -1   -1    0    0    0  501  0.00000000000E+00  0.00000000000E+00  0.50188817125E+03  0.50188817128E+03  0.50400001928E-02 0. -1.
        1   -1    0    0  501    0  0.00000000000E+00  0.00000000000E+00 -0.60900342096E+03  0.60900342098E+03  0.50400001928E-02 0.  1.
    10030    2    1    2    0    0  0.00000000000E+00  0.00000000000E+00 -0.10711524971E+03  0.11108915923E+04  0.11057153580E+04 0.  0.
        3    1    3    3  502    0 -0.12556519965E+03  0.79511121574E+02 -0.58855677552E+03  0.60703189869E+03  0.10100000352E+00 0.  1.
       -3    1    3    3    0  502  0.12556519965E+03 -0.79511121574E+02  0.48144152581E+03  0.50385969356E+03  0.10100000352E+00 0. -1.
</event>
<event>
 5   0  0.3215352E-03  0.1107660E+04  0.7818609E-02  0.9197758E-01
       -1   -1    0    0    0  501  0.00000000000E+00  0.00000000000E+00  0.37177310475E+03  0.37177310478E+03  0.50400001928E-02 0. -1.
        1   -1    0    0  501    0  0.00000000000E+00  0.00000000000E+00 -0.82504054926E+03  0.82504054927E+03  0.50400001928E-02 0.  1.
    10030    2    1    2    0    0  0.00000000000E+00  0.00000000000E+00 -0.45326744451E+03  0.11968136541E+04  0.11076603930E+04 0.  0.
        1    1    3    3  502    0 -0.10742714648E+03 -0.26716920338E+03  0.28452717733E+03  0.40481562433E+03  0.50400001928E-02 0. -1.
       -1    1    3    3    0  502  0.10742714648E+03  0.26716920338E+03 -0.73779462185E+03  0.79199802972E+03  0.50400001928E-02 0.  1.
</event>
<event>
 5   0  0.5500363E-03  0.1099505E+04  0.7818609E-02  0.9205674E-01
       -2   -1    0    0    0  501  0.00000000000E+00  0.00000000000E+00  0.94736076937E+03  0.94736076937E+03  0.25500000920E-02 0. -1.
        2   -1    0    0  501    0  0.00000000000E+00  0.00000000000E+00 -0.31902107404E+03  0.31902107405E+03  0.25500000920E-02 0.  1.
    10030    2    1    2    0    0  0.00000000000E+00  0.00000000000E+00  0.62833969533E+03  0.12663818434E+04  0.10995054346E+04 0.  0.
        3    1    3    3  502    0  0.35980852583E+02 -0.14519102642E+03 -0.29513167861E+03  0.33087425682E+03  0.10100000352E+00 0.  1.
       -3    1    3    3    0  502 -0.35980852583E+02  0.14519102642E+03  0.92347137394E+03  0.93550758660E+03  0.10100000352E+00 0. -1.
</event>
<event>
 5   0  0.2185750E-03  0.1102937E+04  0.7818609E-02  0.9202334E-01
       -3   -1    0    0    0  501  0.00000000000E+00  0.00000000000E+00  0.16143707690E+03  0.16143710850E+03  0.10100000352E+00 0. -1.
        3   -1    0    0  501    0  0.00000000000E+00  0.00000000000E+00 -0.18838130190E+04  0.18838130217E+04  0.10100000352E+00 0.  1.
    10030    2    1    2    0    0  0.00000000000E+00  0.00000000000E+00 -0.17223759421E+04  0.20452501302E+04  0.11029366297E+04 0.  0.
        2    1    3    3  502    0 -0.82272373870E+01 -0.27408570983E+03 -0.17484339388E+04  0.17698056114E+04  0.25500000920E-02 0.  1.
       -2    1    3    3    0  502  0.82272373870E+01  0.27408570983E+03  0.26057996665E+02  0.27544451885E+03  0.25500000920E-02 0. -1.
</event>
<event>
 5   0  0.5500363E-03  0.1114291E+04  0.7818609E-02  0.9191374E-01
        2   -1    0    0  501    0  0.00000000000E+00  0.00000000000E+00  0.75641798566E+03  0.75641798566E+03  0.25500000920E-02 0. -1.
       -2   -1    0    0    0  501  0.00000000000E+00  0.00000000000E+00 -0.41036959687E+03  0.41036959688E+03  0.25500000920E-02 0.  1.
    10030    2    1    2    0    0  0.00000000000E+00  0.00000000000E+00  0.34604838879E+03  0.11667875825E+04  0.11142907051E+04 0.  0.
        3    1    3    3  502    0  0.29591214163E+03  0.26755892715E+03 -0.23421927702E+03  0.46261264033E+03  0.10100000352E+00 0.  1.
       -3    1    3    3    0  502 -0.29591214163E+03 -0.26755892715E+03  0.58026766581E+03  0.70417494222E+03  0.10100000352E+00 0. -1.
</event>
<event>
 5   0  0.5941585E-03  0.1092644E+04  0.7818609E-02  0.9212392E-01
       -2   -1    0    0    0  501  0.00000000000E+00  0.00000000000E+00  0.40776328064E+03  0.40776328065E+03  0.25500000920E-02 0.  1.
        2   -1    0    0  501    0  0.00000000000E+00  0.00000000000E+00 -0.73196277708E+03  0.73196277708E+03  0.25500000920E-02 0. -1.
    10030    2    1    2    0    0  0.00000000000E+00  0.00000000000E+00 -0.32419949644E+03  0.11397260577E+04  0.10926436625E+04 0.  0.
        5    1    3    3  502    0  0.18251213949E+02 -0.50141802310E+03 -0.38749492522E+03  0.63397756094E+03  0.46999998093E+01 0. -1.
       -5    1    3    3    0  502 -0.18251213949E+02  0.50141802310E+03  0.63295428786E+02  0.50574849679E+03  0.46999998093E+01 0.  1.
</event>
<event>
 5   0  0.3320192E-03  0.1095913E+04  0.7818609E-02  0.9209185E-01
        1   -1    0    0  501    0  0.00000000000E+00  0.00000000000E+00  0.10272710270E+04  0.10272710271E+04  0.50400001928E-02 0. -1.
       -1   -1    0    0    0  501  0.00000000000E+00  0.00000000000E+00 -0.29228521253E+03  0.29228521257E+03  0.50400001928E-02 0.  1.
    10030    2    1    2    0    0  0.00000000000E+00  0.00000000000E+00  0.73498581451E+03  0.13195562396E+04  0.10959126434E+04 0.  0.
        2    1    3    3  502    0 -0.15754671166E+03 -0.39036057746E+03  0.78986912152E+03  0.89503942702E+03  0.25500000920E-02 0. -1.
       -2    1    3    3    0  502  0.15754671166E+03  0.39036057746E+03 -0.54883307008E+02  0.42451681261E+03  0.25500000920E-02 0.  1.
</event>
<event>
 5   0  0.3316784E-03  0.1116987E+04  0.7818609E-02  0.9188792E-01
       -1   -1    0    0    0  501  0.00000000000E+00  0.00000000000E+00  0.44080187526E+03  0.44080187529E+03  0.50400001928E-02 0.  1.
        1   -1    0    0  501    0  0.00000000000E+00  0.00000000000E+00 -0.70760759768E+03  0.70760759770E+03  0.50400001928E-02 0. -1.
    10030    2    1    2    0    0  0.00000000000E+00  0.00000000000E+00 -0.26680572243E+03  0.11484094730E+04  0.11169865819E+04 0.  0.
        4    1    3    3  502    0  0.52155058410E+02 -0.90725344331E+02  0.43063021620E+03  0.44316501919E+03  0.12699999809E+01 0.  1.
       -4    1    3    3    0  502 -0.52155058410E+02  0.90725344331E+02 -0.69743593863E+03  0.70524445380E+03  0.12699999809E+01 0. -1.
</event>
<event>
 5   0  0.5627232E-03  0.1104664E+04  0.7818609E-02  0.9200658E-01
       -2   -1    0    0    0  501  0.00000000000E+00  0.00000000000E+00  0.69655972169E+03  0.69655972169E+03  0.25500000920E-02 0.  1.
        2   -1    0    0  501    0  0.00000000000E+00  0.00000000000E+00 -0.43796761442E+03  0.43796761443E+03  0.25500000920E-02 0. -1.
    10030    2    1    2    0    0  0.00000000000E+00  0.00000000000E+00  0.25859210727E+03  0.11345273361E+04  0.11046639301E+04 0.  0.
        2    1    3    3  502    0  0.20377618374E+02  0.32261083807E+03  0.58926234512E+03  0.67210349765E+03  0.25500000920E-02 0.  1.
       -2    1    3    3    0  502 -0.20377618374E+02 -0.32261083807E+03 -0.33067023785E+03  0.46242383846E+03  0.25500000920E-02 0. -1.
</event>
<event>
 5   0  0.5500363E-03  0.1087335E+04  0.7818609E-02  0.9217624E-01
        2   -1    0    0  501    0  0.00000000000E+00  0.00000000000E+00  0.16272185177E+04  0.16272185177E+04  0.25500000920E-02 0.  1.
       -2   -1    0    0    0  501  0.00000000000E+00  0.00000000000E+00 -0.18164398041E+03  0.18164398042E+03  0.25500000920E-02 0. -1.
    10030    2    1    2    0    0  0.00000000000E+00  0.00000000000E+00  0.14455745373E+04  0.18088624982E+04  0.10873351803E+04 0.  0.
        3    1    3    3  502    0  0.11568273952E+03 -0.36638259020E+03  0.13626812482E+04  0.14158103309E+04  0.10100000352E+00 0.  1.
       -3    1    3    3    0  502 -0.11568273952E+03  0.36638259020E+03  0.82893289127E+02  0.39305216728E+03  0.10100000352E+00 0. -1.
</event>
<event>
 5   0  0.3215352E-03  0.1095163E+04  0.7818609E-02  0.9209919E-01
       -1   -1    0    0    0  501  0.00000000000E+00  0.00000000000E+00  0.57701719668E+03  0.57701719671E+03  0.50400001928E-02 0.  1.
        1   -1    0    0  501    0  0.00000000000E+00  0.00000000000E+00 -0.51964758620E+03  0.51964758622E+03  0.50400001928E-02 0. -1.
    10030    2    1    2    0    0  0.00000000000E+00  0.00000000000E+00  0.57369610486E+02  0.10966647829E+04  0.10951631723E+04 0.  0.
        1    1    3    3  502    0 -0.79100495525E+02  0.13574641428E+03  0.55396253926E+03  0.57581114292E+03  0.50400001928E-02 0.  1.
       -1    1    3    3    0  502  0.79100495525E+02 -0.13574641428E+03 -0.49659292877E+03  0.52085364001E+03  0.50400001928E-02 0. -1.
</event>
<event>
 5   0  0.5941585E-03  0.1098144E+04  0.7818609E-02  0.9207002E-01
       -2   -1    0    0    0  501  0.00000000000E+00  0.00000000000E+00  0.19551537882E+03  0.19551537883E+03  0.25500000920E-02 0. -1.
        2   -1    0    0  501    0  0.00000000000E+00  0.00000000000E+00 -0.15419773803E+04  0.15419773803E+04  0.25500000920E-02 0.  1.
    10030    2    1    2    0    0  0.00000000000E+00  0.00000000000E+00 -0.13464620014E+04  0.17374927591E+04  0.10981444197E+04 0.  0.
        5    1    3    3  502    0 -0.53490944605E+03 -0.11581797956E+03 -0.60396928748E+03  0.81507233426E+03  0.46999998093E+01 0. -1.
       -5    1    3    3    0  502  0.53490944605E+03  0.11581797956E+03 -0.74249271396E+03  0.92242042483E+03  0.46999998093E+01 0.  1.
</event>
<event>
 5   0  0.3316784E-03  0.1106293E+04  0.7818609E-02  0.9199080E-01
       -1   -1    0    0    0  501  0.00000000000E+00  0.00000000000E+00  0.43023248250E+03  0.43023248253E+03  0.50400001928E-02 0.  1.
        1   -1    0    0  501    0  0.00000000000E+00  0.00000000000E+00 -0.71117616974E+03  0.71117616976E+03  0.50400001928E-02 0. -1.
    10030    2    1    2    0    0  0.00000000000E+00  0.00000000000E+00 -0.28094368724E+03  0.11414086523E+04  0.11062930697E+04 0.  0.
        4    1    3    3  502    0  0.43905390616E+03  0.33142635697E+03 -0.80686767204E+02  0.55598896563E+03  0.12699999809E+01 0. -1.
       -4    1    3    3    0  502 -0.43905390616E+03 -0.33142635697E+03 -0.20025692003E+03  0.58541968666E+03  0.12699999809E+01 0.  1.
</event>
<event>
 5   0  0.3241189E-03  0.1103504E+04  0.7818609E-02  0.9201784E-01
        1   -1    0    0  501    0  0.00000000000E+00  0.00000000000E+00  0.10805491455E+04  0.10805491455E+04  0.50400001928E-02 0. -1.
       -1   -1    0    0    0  501  0.00000000000E+00  0.00000000000E+00 -0.28173638075E+03  0.28173638079E+03  0.50400001928E-02 0.  1.
    10030    2    1    2    0    0  0.00000000000E+00  0.00000000000E+00  0.79881276474E+03  0.13622855263E+04  0.11035035215E+04 0.  0.
        5    1    3    3  502    0 -0.19800999134E+03 -0.47965561743E+03  0.16802081840E+03  0.54546361329E+03  0.46999998093E+01 0. -1.
       -5    1    3    3    0  502  0.19800999134E+03  0.47965561743E+03  0.63079194634E+03  0.81682191301E+03  0.46999998093E+01 0.  1.
</event>
<event>
 5   0  0.5627232E-03  0.1096550E+04  0.7818609E-02  0.9208561E-01
        2   -1    0    0  501    0  0.00000000000E+00  0.00000000000E+00  0.85450883197E+03  0.85450883198E+03  0.25500000920E-02 0. -1.
       -2   -1    0    0    0  501  0.00000000000E+00  0.00000000000E+00 -0.35178722021E+03  0.35178722022E+03  0.25500000920E-02 0.  1.
    10030    2    1    2    0    0  0.00000000000E+00  0.00000000000E+00  0.50272161177E+03  0.12062960522E+04  0.10965496553E+04 0.  0.
        2    1    3    3  502    0  0.22153904237E+03 -0.32120053470E+03  0.67507996021E+03  0.77973218702E+03  0.25500000920E-02 0. -1.
       -2    1    3    3    0  502 -0.22153904237E+03  0.32120053470E+03 -0.17235834845E+03  0.42656386517E+03  0.25500000920E-02 0.  1.
</event>
<event>
 5   0  0.3215352E-03  0.1097777E+04  0.7818609E-02  0.9207361E-01
       -1   -1    0    0    0  501  0.00000000000E+00  0.00000000000E+00  0.55775621973E+03  0.55775621975E+03  0.50400001928E-02 0. -1.
        1   -1    0    0  501    0  0.00000000000E+00  0.00000000000E+00 -0.54016179862E+03  0.54016179864E+03  0.50400001928E-02 0.  1.
    10030    2    1    2    0    0  0.00000000000E+00  0.00000000000E+00  0.17594421112E+02  0.10979180184E+04  0.10977770318E+04 0.  0.
        1    1    3    3  502    0 -0.35955087490E+03 -0.10250956786E+03  0.41071143442E+03  0.55539978892E+03  0.50400001928E-02 0. -1.
       -1    1    3    3    0  502  0.35955087490E+03  0.10250956786E+03 -0.39311701331E+03  0.54251822948E+03  0.50400001928E-02 0.  1.
</event>
<event>
 5   0  0.3320192E-03  0.1085021E+04  0.7818609E-02  0.9219916E-01
        1   -1    0    0  501    0  0.00000000000E+00  0.00000000000E+00  0.84225291429E+03  0.84225291430E+03  0.50400001928E-02 0.  1.
       -1   -1    0    0    0  501  0.00000000000E+00  0.00000000000E+00 -0.34944061962E+03  0.34944061965E+03  0.50400001928E-02 0. -1.
    10030    2    1    2    0    0  0.00000000000E+00  0.00000000000E+00  0.49281229467E+03  0.11916935340E+04  0.10850205164E+04 0.  0.
        2    1    3    3  502    0  0.21288096637E+03 -0.42864237239E+03 -0.34179924158E+02  0.47981335587E+03  0.25500000920E-02 0. -1.
       -2    1    3    3    0  502 -0.21288096637E+03  0.42864237239E+03  0.52699221883E+03  0.71188017809E+03  0.25500000920E-02 0.  1.
</event>
<event>
 5   0  0.5941585E-03  0.1177667E+04  0.7818609E-02  0.9132632E-01
        2   -1    0    0  501    0  0.00000000000E+00  0.00000000000E+00  0.11995403341E+04  0.11995403341E+04  0.25500000920E-02 0. -1.
       -2   -1    0    0    0  501  0.00000000000E+00  0.00000000000E+00 -0.28904832550E+03  0.28904832551E+03  0.25500000920E-02 0.  1.
    10030    2    1    2    0    0  0.00000000000E+00  0.00000000000E+00  0.91049200855E+03  0.14885886596E+04  0.11776673978E+04 0.  0.
        5    1    3    3  502    0  0.20319773557E+02 -0.10899373877E+03 -0.27571130074E+03  0.29720588763E+03  0.46999998093E+01 0.  1.
       -5    1    3    3    0  502 -0.20319773557E+02  0.10899373877E+03  0.11862033093E+04  0.11913827719E+04  0.46999998093E+01 0. -1.
</event>
<event>
 5   0  0.5946359E-03  0.1105504E+04  0.7818609E-02  0.9199844E-01
        2   -1    0    0  501    0  0.00000000000E+00  0.00000000000E+00  0.44206345773E+03  0.44206345774E+03  0.25500000920E-02 0. -1.
       -2   -1    0    0    0  501  0.00000000000E+00  0.00000000000E+00 -0.69115550834E+03  0.69115550835E+03  0.25500000920E-02 0.  1.
    10030    2    1    2    0    0  0.00000000000E+00  0.00000000000E+00 -0.24909205061E+03  0.11332189661E+04  0.11055036750E+04 0.  0.
        4    1    3    3  502    0  0.57552571082E+02  0.54014497759E+03 -0.19687369108E+02  0.54356057681E+03  0.12699999809E+01 0. -1.
       -4    1    3    3    0  502 -0.57552571082E+02 -0.54014497759E+03 -0.22940468150E+03  0.58965838928E+03  0.12699999809E+01 0.  1.
</event>
<event>
 5   0  0.3320192E-03  0.1021999E+04  0.7818609E-02  0.9284741E-01
        1   -1    0    0  501    0  0.00000000000E+00  0.00000000000E+00  0.72048740052E+03  0.72048740054E+03  0.50400001928E-02 0. -1.
       -1   -1    0    0    0  501  0.00000000000E+00  0.00000000000E+00 -0.36242187252E+03  0.36242187256E+03  0.50400001928E-02 0.  1.
    10030    2    1    2    0    0  0.00000000000E+00  0.00000000000E+00  0.35806552800E+03  0.10829092731E+04  0.10219988118E+04 0.  0.
        2    1    3    3  502    0  0.19723406911E+03  0.19877868888E+01  0.67852475300E+03  0.70661239003E+03  0.25500000920E-02 0. -1.
       -2    1    3    3    0  502 -0.19723406911E+03 -0.19877868888E+01 -0.32045922499E+03  0.37629688306E+03  0.25500000920E-02 0.  1.
</event>
<event>
 5   0  0.3328741E-03  0.1114452E+04  0.7818609E-02  0.9191219E-01
        1   -1    0    0  501    0  0.00000000000E+00  0.00000000000E+00  0.61916196495E+03  0.61916196497E+03  0.50400001928E-02 0. -1.
       -1   -1    0    0    0  501  0.00000000000E+00  0.00000000000E+00 -0.50148576647E+03  0.50148576649E+03  0.50400001928E-02 0.  1.
    10030    2    1    2    0    0  0.00000000000E+00  0.00000000000E+00  0.11767619848E+03  0.11206477315E+04  0.11144521750E+04 0.  0.
        3    1    3    3  502    0  0.41202187608E+03  0.28988153387E+03  0.29829546904E+03  0.58546863887E+03  0.10100000352E+00 0. -1.
       -3    1    3    3    0  502 -0.41202187608E+03 -0.28988153387E+03 -0.18061927056E+03  0.53517909259E+03  0.10100000352E+00 0.  1.
</event>
<event>
 5   0  0.3320192E-03  0.1108636E+04  0.7818609E-02  0.9196815E-01
        1   -1    0    0  501    0  0.00000000000E+00  0.00000000000E+00  0.62948080359E+03  0.62948080361E+03  0.50400001928E-02 0. -1.
       -1   -1    0    0    0  501  0.00000000000E+00  0.00000000000E+00 -0.48812991026E+03  0.48812991028E+03  0.50400001928E-02 0.  1.
    10030    2    1    2    0    0  0.00000000000E+00  0.00000000000E+00  0.14135089333E+03  0.11176107139E+04  0.11086359334E+04 0.  0.
        2    1    3    3  502    0  0.10418500568E+03  0.18989380219E+03  0.58505527613E+03  0.62386204216E+03  0.25500000920E-02 0. -1.
       -2    1    3    3    0  502 -0.10418500568E+03 -0.18989380219E+03 -0.44370438280E+03  0.49374867173E+03  0.25500000920E-02 0.  1.
</event>
<event>
 5   0  0.5500363E-03  0.1102326E+04  0.7818609E-02  0.9202928E-01
        2   -1    0    0  501    0  0.00000000000E+00  0.00000000000E+00  0.22867436456E+03  0.22867436457E+03  0.25500000920E-02 0.  1.
       -2   -1    0    0    0  501  0.00000000000E+00  0.00000000000E+00 -0.13284421208E+04  0.13284421208E+04  0.25500000920E-02 0. -1.
    10030    2    1    2    0    0  0.00000000000E+00  0.00000000000E+00 -0.10997677562E+04  0.15571164854E+04  0.11023260096E+04 0.  0.
        3    1    3    3  502    0  0.19791818037E+02  0.34833967797E+03  0.52820687593E+02  0.35287714938E+03  0.10100000352E+00 0.  1.
       -3    1    3    3    0  502 -0.19791818037E+02 -0.34833967797E+03 -0.11525884438E+04  0.12042393360E+04  0.10100000352E+00 0. -1.
</event>
<event>
 5   0  0.3241189E-03  0.1096213E+04  0.7818609E-02  0.9208891E-01
        1   -1    0    0  501    0  0.00000000000E+00  0.00000000000E+00  0.15926895200E+04  0.15926895201E+04  0.50400001928E-02 0.  1.
       -1   -1    0    0    0  501  0.00000000000E+00  0.00000000000E+00 -0.18862467261E+03  0.18862467267E+03  0.50400001928E-02 0. -1.
    10030    2    1    2    0    0  0.00000000000E+00  0.00000000000E+00  0.14040648474E+04  0.17813141927E+04  0.10962126424E+04 0.  0.
        5    1    3    3  502    0 -0.29782175880E+03  0.33567828985E+03  0.19069356860E+03  0.48761033766E+03  0.46999998093E+01 0. -1.
       -5    1    3    3    0  502  0.29782175880E+03 -0.33567828985E+03  0.12133712788E+04  0.12937038551E+04  0.46999998093E+01 0.  1.
</event>
<event>
 5   0  0.3316784E-03  0.1091260E+04  0.7818609E-02  0.9213753E-01
        1   -1    0    0  501    0  0.00000000000E+00  0.00000000000E+00  0.66511110331E+03  0.66511110333E+03  0.50400001928E-02 0. -1.
       -1   -1    0    0    0  501  0.00000000000E+00  0.00000000000E+00 -0.44761255200E+03  0.44761255203E+03  0.50400001928E-02 0.  1.
    10030    2    1    2    0    0  0.00000000000E+00  0.00000000000E+00  0.21749855131E+03  0.11127236554E+04  0.10912599660E+04 0.  0.
        4    1    3    3  502    0 -0.49445638051E+03 -0.56402604278E+02  0.33685010204E+03  0.60094756022E+03  0.12699999809E+01 0. -1.
       -4    1    3    3    0  502  0.49445638051E+03  0.56402604278E+02 -0.11935155073E+03  0.51177609514E+03  0.12699999809E+01 0.  1.
</event>
<event>
 5   0  0.3328741E-03  0.1102060E+04  0.7818609E-02  0.9203187E-01
        1   -1    0    0  501    0  0.00000000000E+00  0.00000000000E+00  0.14591159251E+04  0.14591159251E+04  0.50400001928E-02 0. -1.
       -1   -1    0    0    0  501  0.00000000000E+00  0.00000000000E+00 -0.20809449303E+03  0.20809449309E+03  0.50400001928E-02 0.  1.
    10030    2    1    2    0    0  0.00000000000E+00  0.00000000000E+00  0.12510214321E+04  0.16672104182E+04  0.11020598691E+04 0.  0.
        3    1    3    3  502    0 -0.21490751453E+03  0.38380161543E+02 -0.13988248260E+03  0.25927860641E+03  0.10100000352E+00 0.  1.
       -3    1    3    3    0  502  0.21490751453E+03 -0.38380161543E+02  0.13909039147E+04  0.14079318118E+04  0.10100000352E+00 0. -1.
</event>
<event>
 5   0  0.5723194E-03  0.1114630E+04  0.7818609E-02  0.9191049E-01
        2   -1    0    0  501    0  0.00000000000E+00  0.00000000000E+00  0.33864297867E+03  0.33864297868E+03  0.25500000920E-02 0.  1.
       -2   -1    0    0    0  501  0.00000000000E+00  0.00000000000E+00 -0.91719017513E+03  0.91719017513E+03  0.25500000920E-02 0. -1.
    10030    2    1    2    0    0  0.00000000000E+00  0.00000000000E+00 -0.57854719646E+03  0.12558331538E+04  0.11146300066E+04 0.  0.
        1    1    3    3  502    0 -0.28564613136E+03 -0.42396222472E+03 -0.53934193156E+03  0.74312004381E+03  0.50400001928E-02 0. -1.
       -1    1    3    3    0  502  0.28564613136E+03  0.42396222472E+03 -0.39205264893E+02  0.51271311000E+03  0.50400001928E-02 0.  1.
</event>
<event>
 5   0  0.3215352E-03  0.1093541E+04  0.7818609E-02  0.9211510E-01
       -1   -1    0    0    0  501  0.00000000000E+00  0.00000000000E+00  0.51049881680E+03  0.51049881682E+03  0.50400001928E-02 0. -1.
        1   -1    0    0  501    0  0.00000000000E+00  0.00000000000E+00 -0.58561925530E+03  0.58561925532E+03  0.50400001928E-02 0.  1.
    10030    2    1    2    0    0  0.00000000000E+00  0.00000000000E+00 -0.75120438502E+02  0.10961180721E+04  0.10935409219E+04 0.  0.
        1    1    3    3  502    0 -0.18672052944E+02 -0.39771046511E+03  0.33807043368E+03  0.52231587931E+03  0.50400001928E-02 0. -1.
       -1    1    3    3    0  502  0.18672052944E+02  0.39771046511E+03 -0.41319087219E+03  0.57380219284E+03  0.50400001928E-02 0.  1.
</event>
<event>
 5   0  0.5500363E-03  0.1104420E+04  0.7818609E-02  0.9200894E-01
        2   -1    0    0  501    0  0.00000000000E+00  0.00000000000E+00  0.11888828201E+04  0.11888828201E+04  0.25500000920E-02 0.  1.
       -2   -1    0    0    0  501  0.00000000000E+00  0.00000000000E+00 -0.25648953030E+03  0.25648953032E+03  0.25500000920E-02 0. -1.
    10030    2    1    2    0    0  0.00000000000E+00  0.00000000000E+00  0.93239328979E+03  0.14453723504E+04  0.11044202029E+04 0.  0.
        3    1    3    3  502    0 -0.54667550743E+03  0.63755534097E+02  0.40741930769E+03  0.68476958244E+03  0.10100000352E+00 0.  1.
       -3    1    3    3    0  502  0.54667550743E+03 -0.63755534097E+02  0.52497398209E+03  0.76060276796E+03  0.10100000352E+00 0. -1.
</event>
<event>
 5   0  0.5500363E-03  0.1112678E+04  0.7818609E-02  0.9192922E-01
        2   -1    0    0  501    0  0.00000000000E+00  0.00000000000E+00  0.10555158142E+04  0.10555158142E+04  0.25500000920E-02 0. -1.
       -2   -1    0    0    0  501  0.00000000000E+00  0.00000000000E+00 -0.29323401388E+03  0.29323401390E+03  0.25500000920E-02 0.  1.
    10030    2    1    2    0    0  0.00000000000E+00  0.00000000000E+00  0.76228180035E+03  0.13487498281E+04  0.11126781007E+04 0.  0.
        3    1    3    3  502    0  0.32085005493E+03  0.37409313549E+03  0.69401741591E+03  0.85120538976E+03  0.10100000352E+00 0. -1.
       -3    1    3    3    0  502 -0.32085005493E+03 -0.37409313549E+03  0.68264384439E+02  0.49754443837E+03  0.10100000352E+00 0.  1.
</event>
<event>
 5   0  0.5946359E-03  0.1099873E+04  0.7818609E-02  0.9205315E-01
       -2   -1    0    0    0  501  0.00000000000E+00  0.00000000000E+00  0.40774025555E+03  0.40774025556E+03  0.25500000920E-02 0.  1.
        2   -1    0    0  501    0  0.00000000000E+00  0.00000000000E+00 -0.74172307466E+03  0.74172307467E+03  0.25500000920E-02 0. -1.
    10030    2    1    2    0    0  0.00000000000E+00  0.00000000000E+00 -0.33398281911E+03  0.11494633302E+04  0.10998733673E+04 0.  0.
        4    1    3    3  502    0  0.22320087600E+03 -0.41520827889E+03 -0.46297841273E+03  0.66073229788E+03  0.12699999809E+01 0. -1.
       -4    1    3    3    0  502 -0.22320087600E+03  0.41520827889E+03  0.12899559362E+03  0.48873103235E+03  0.12699999809E+01 0.  1.
</event>
<event>
 5   0  0.3328741E-03  0.1041755E+04  0.7818609E-02  0.9263898E-01
        1   -1    0    0  501    0  0.00000000000E+00  0.00000000000E+00  0.68964978440E+03  0.68964978442E+03  0.50400001928E-02 0. -1.
       -1   -1    0    0    0  501  0.00000000000E+00  0.00000000000E+00 -0.39340775258E+03  0.39340775261E+03  0.50400001928E-02 0.  1.
    10030    2    1    2    0    0  0.00000000000E+00  0.00000000000E+00  0.29624203183E+03  0.10830575370E+04  0.10417553874E+04 0.  0.
        3    1    3    3  502    0 -0.37577928830E+03 -0.36055653668E+03  0.15864519431E+03  0.54440738196E+03  0.10100000352E+00 0. -1.
       -3    1    3    3    0  502  0.37577928830E+03  0.36055653668E+03  0.13759683752E+03  0.53865015507E+03  0.10100000352E+00 0.  1.
</event>
<event>
 5   0  0.5946359E-03  0.1176824E+04  0.7818609E-02  0.9133387E-01
       -2   -1    0    0    0  501  0.00000000000E+00  0.00000000000E+00  0.37142922116E+03  0.37142922117E+03  0.25500000920E-02 0.  1.
        2   -1    0    0  501    0  0.00000000000E+00  0.00000000000E+00 -0.93215314652E+03  0.93215314652E+03  0.25500000920E-02 0. -1.
    10030    2    1    2    0    0  0.00000000000E+00  0.00000000000E+00 -0.56072392536E+03  0.13035823677E+04  0.11768244002E+04 0.  0.
        4    1    3    3  502    0  0.44055618650E+03 -0.88530347657E+02 -0.70114659553E+03  0.83278781046E+03  0.12699999809E+01 0. -1.
       -4    1    3    3    0  502 -0.44055618650E+03  0.88530347657E+02  0.14042267018E+03  0.47079455724E+03  0.12699999809E+01 0.  1.
</event>
<event>
 5   0  0.3241189E-03  0.1090182E+04  0.7818609E-02  0.9214814E-01
       -1   -1    0    0    0  501  0.00000000000E+00  0.00000000000E+00  0.13362722276E+03  0.13362722286E+03  0.50400001928E-02 0. -1.
        1   -1    0    0  501    0  0.00000000000E+00  0.00000000000E+00 -0.22235299269E+04  0.22235299269E+04  0.50400001928E-02 0.  1.
    10030    2    1    2    0    0  0.00000000000E+00  0.00000000000E+00 -0.20899027042E+04  0.23571571498E+04  0.10901818729E+04 0.  0.
        5    1    3    3  502    0  0.17048926219E+03  0.17203042209E+03 -0.21007474051E+04  0.21146684857E+04  0.46999998093E+01 0.  1.
       -5    1    3    3    0  502 -0.17048926219E+03 -0.17203042209E+03  0.10844700930E+02  0.24248866403E+03  0.46999998093E+01 0. -1.
</event>
<event>
 5   0  0.5723194E-03  0.1097066E+04  0.7818609E-02  0.9208057E-01
       -2   -1    0    0    0  501  0.00000000000E+00  0.00000000000E+00  0.18895956822E+03  0.18895956824E+03  0.25500000920E-02 0.  1.
        2   -1    0    0  501    0  0.00000000000E+00  0.00000000000E+00 -0.15923422704E+04  0.15923422704E+04  0.25500000920E-02 0. -1.
    10030    2    1    2    0    0  0.00000000000E+00  0.00000000000E+00 -0.14033827022E+04  0.17813018387E+04  0.10970657371E+04 0.  0.
        1    1    3    3  502    0  0.30239947866E+03 -0.10689016416E+03 -0.14242223645E+04  0.14598905081E+04  0.50400001928E-02 0. -1.
       -1    1    3    3    0  502 -0.30239947866E+03  0.10689016416E+03  0.20839662324E+02  0.32141133060E+03  0.50400001928E-02 0.  1.
</event>
<event>
 5   0  0.3320192E-03  0.1127258E+04  0.7818609E-02  0.9179024E-01
       -1   -1    0    0    0  501  0.00000000000E+00  0.00000000000E+00  0.23971819087E+03  0.23971819092E+03  0.50400001928E-02 0.  1.
        1   -1    0    0  501    0  0.00000000000E+00  0.00000000000E+00 -0.13252122546E+04  0.13252122546E+04  0.50400001928E-02 0. -1.
    10030    2    1    2    0    0  0.00000000000E+00  0.00000000000E+00 -0.10854940637E+04  0.15649304455E+04  0.11272577065E+04 0.  0.
        2    1    3    3  502    0  0.55381148654E+03  0.84226209727E+02 -0.45631421250E+03  0.72251219891E+03  0.25500000920E-02 0. -1.
       -2    1    3    3    0  502 -0.55381148654E+03 -0.84226209727E+02 -0.62917985120E+03  0.84241824659E+03  0.25500000920E-02 0.  1.
</event>
<event>
 5   0  0.5941585E-03  0.1150126E+04  0.7818609E-02  0.9157668E-01
       -2   -1    0    0    0  501  0.00000000000E+00  0.00000000000E+00  0.75144922657E+03  0.75144922658E+03  0.25500000920E-02 0. -1.
        2   -1    0    0  501    0  0.00000000000E+00  0.00000000000E+00 -0.44007926436E+03  0.44007926436E+03  0.25500000920E-02 0.  1.
    10030    2    1    2    0    0  0.00000000000E+00  0.00000000000E+00  0.31136996222E+03  0.11915284909E+04  0.11501255981E+04 0.  0.
        5    1    3    3  502    0  0.27194960519E+03  0.49842935444E+03  0.24999342769E+03  0.62040890791E+03  0.46999998093E+01 0. -1.
       -5    1    3    3    0  502 -0.27194960519E+03 -0.49842935444E+03  0.61376534532E+02  0.57111958303E+03  0.46999998093E+01 0.  1.
</event>
<event>
 5   0  0.3328741E-03  0.1117263E+04  0.7818609E-02  0.9188528E-01
       -1   -1    0    0    0  501  0.00000000000E+00  0.00000000000E+00  0.35832217418E+03  0.35832217422E+03  0.50400001928E-02 0. -1.
        1   -1    0    0  501    0  0.00000000000E+00  0.00000000000E+00 -0.87091763019E+03  0.87091763021E+03  0.50400001928E-02 0.  1.
    10030    2    1    2    0    0  0.00000000000E+00  0.00000000000E+00 -0.51259545601E+03  0.12292398044E+04  0.11172629034E+04 0.  0.
        3    1    3    3  502    0 -0.50658862386E+03 -0.11905176104E+03 -0.32803921191E+02  0.52142253795E+03  0.10100000352E+00 0.  1.
       -3    1    3    3    0  502  0.50658862386E+03  0.11905176104E+03 -0.47979153482E+03  0.70781726648E+03  0.10100000352E+00 0. -1.
</event>
<event>
 5   0  0.3328741E-03  0.1104406E+04  0.7818609E-02  0.9200909E-01
        1   -1    0    0  501    0  0.00000000000E+00  0.00000000000E+00  0.13865275850E+04  0.13865275850E+04  0.50400001928E-02 0. -1.
       -1   -1    0    0    0  501  0.00000000000E+00  0.00000000000E+00 -0.21992197266E+03  0.21992197271E+03  0.50400001928E-02 0.  1.
    10030    2    1    2    0    0  0.00000000000E+00  0.00000000000E+00  0.11666056124E+04  0.16064495577E+04  0.11044055083E+04 0.  0.
        3    1    3    3  502    0 -0.35254008836E+03 -0.14408738324E+03  0.16838337742E+01  0.38085237745E+03  0.10100000352E+00 0.  1.
       -3    1    3    3    0  502  0.35254008836E+03  0.14408738324E+03  0.11649217786E+04  0.12255971803E+04  0.10100000352E+00 0. -1.
</event>
<event>
 5   0  0.2185750E-03  0.8532941E+03  0.7818609E-02  0.9485926E-01
       -3   -1    0    0    0  501  0.00000000000E+00  0.00000000000E+00  0.35776012893E+03  0.35776014319E+03  0.10100000352E+00 0. -1.
        3   -1    0    0  501    0  0.00000000000E+00  0.00000000000E+00 -0.50879815715E+03  0.50879816717E+03  0.10100000352E+00 0.  1.
    10030    2    1    2    0    0  0.00000000000E+00  0.00000000000E+00 -0.15103802822E+03  0.86655831036E+03  0.85329409894E+03 0.  0.
        4    1    3    3  502    0  0.14776759568E+03  0.39800826934E+03 -0.32670161600E+02  0.42581075274E+03  0.12699999809E+01 0.  1.
       -4    1    3    3    0  502 -0.14776759568E+03 -0.39800826934E+03 -0.11836786662E+03  0.44074755761E+03  0.12699999809E+01 0. -1.
</event>
<event>
 5   0  0.3215352E-03  0.1092575E+04  0.7818609E-02  0.9212459E-01
       -1   -1    0    0    0  501  0.00000000000E+00  0.00000000000E+00  0.25156749871E+03  0.25156749876E+03  0.50400001928E-02 0. -1.
        1   -1    0    0  501    0  0.00000000000E+00  0.00000000000E+00 -0.11862819643E+04  0.11862819643E+04  0.50400001928E-02 0.  1.
    10030    2    1    2    0    0  0.00000000000E+00  0.00000000000E+00 -0.93471446560E+03  0.14378494631E+04  0.10925749156E+04 0.  0.
        1    1    3    3  502    0 -0.49266712484E+03 -0.14003798817E+03 -0.71739550353E+03  0.88146913873E+03  0.50400001928E-02 0.  1.
       -1    1    3    3    0  502  0.49266712484E+03  0.14003798817E+03 -0.21731896207E+03  0.55638032435E+03  0.50400001928E-02 0. -1.
</event>
<event>
 5   0  0.3320192E-03  0.1209014E+04  0.7818609E-02  0.9105003E-01
       -1   -1    0    0    0  501  0.00000000000E+00  0.00000000000E+00  0.26257226534E+03  0.26257226539E+03  0.50400001928E-02 0.  1.
        1   -1    0    0  501    0  0.00000000000E+00  0.00000000000E+00 -0.13917262557E+04  0.13917262557E+04  0.50400001928E-02 0. -1.
    10030    2    1    2    0    0  0.00000000000E+00  0.00000000000E+00 -0.11291539903E+04  0.16542985211E+04  0.12090140044E+04 0.  0.
        2    1    3    3  502    0  0.23803888981E+02 -0.10299419113E+03 -0.13789813877E+04  0.13830271495E+04  0.25500000920E-02 0. -1.
       -2    1    3    3    0  502 -0.23803888981E+02  0.10299419113E+03  0.24982739740E+03  0.27127137158E+03  0.25500000920E-02 0.  1.
</event>
<event>
 5   0  0.3241189E-03  0.1105594E+04  0.7818609E-02  0.9199756E-01
        1   -1    0    0  501    0  0.00000000000E+00  0.00000000000E+00  0.17323612924E+04  0.17323612924E+04  0.50400001928E-02 0. -1.
       -1   -1    0    0    0  501  0.00000000000E+00  0.00000000000E+00 -0.17639782708E+03  0.17639782715E+03  0.50400001928E-02 0.  1.
    10030    2    1    2    0    0  0.00000000000E+00  0.00000000000E+00  0.15559634653E+04  0.19087591195E+04  0.11055944424E+04 0.  0.
        5    1    3    3  502    0 -0.32176410869E+03 -0.28105965069E+03  0.17240191135E+03  0.46072896362E+03  0.46999998093E+01 0.  1.
       -5    1    3    3    0  502  0.32176410869E+03  0.28105965069E+03  0.13835615539E+04  0.14480301559E+04  0.46999998093E+01 0. -1.
</event>
<event>
 5   0  0.5941585E-03  0.1096967E+04  0.7818609E-02  0.9208153E-01
        2   -1    0    0  501    0  0.00000000000E+00  0.00000000000E+00  0.16702789960E+04  0.16702789960E+04  0.25500000920E-02 0.  1.
       -2   -1    0    0    0  501  0.00000000000E+00  0.00000000000E+00 -0.18011026181E+03  0.18011026183E+03  0.25500000920E-02 0. -1.
    10030    2    1    2    0    0  0.00000000000E+00  0.00000000000E+00  0.14901687342E+04  0.18503892578E+04  0.10969674330E+04 0.  0.
        5    1    3    3  502    0 -0.30512133107E+02 -0.53268555338E+03  0.53086849121E+03  0.75268076500E+03  0.46999998093E+01 0.  1.
       -5    1    3    3    0  502  0.30512133107E+02  0.53268555338E+03  0.95930024299E+03  0.10977084928E+04  0.46999998093E+01 0. -1.
</event>
<event>
 5   0  0.3241189E-03  0.1089874E+04  0.7818609E-02  0.9215118E-01
       -1   -1    0    0    0  501  0.00000000000E+00  0.00000000000E+00  0.21950864565E+03  0.21950864571E+03  0.50400001928E-02 0.  1.
        1   -1    0    0  501    0  0.00000000000E+00  0.00000000000E+00 -0.13528225872E+04  0.13528225872E+04  0.50400001928E-02 0. -1.
    10030    2    1    2    0    0  0.00000000000E+00  0.00000000000E+00 -0.11333139415E+04  0.15723312329E+04  0.10898738532E+04 0.  0.
        5    1    3    3  502    0  0.14949031881E+03 -0.14245948271E+03  0.16084511960E+03  0.26179247913E+03  0.46999998093E+01 0.  1.
       -5    1    3    3    0  502 -0.14949031881E+03  0.14245948271E+03 -0.12941590611E+04  0.13105387538E+04  0.46999998093E+01 0. -1.
</event>
<event>
 5   0  0.5723194E-03  0.1134778E+04  0.7818609E-02  0.9171942E-01
        2   -1    0    0  501    0  0.00000000000E+00  0.00000000000E+00  0.15647088533E+04  0.15647088533E+04  0.25500000920E-02 0.  1.
       -2   -1    0    0    0  501  0.00000000000E+00  0.00000000000E+00 -0.20574466812E+03  0.20574466813E+03  0.25500000920E-02 0. -1.
    10030    2    1    2    0    0  0.00000000000E+00  0.00000000000E+00  0.13589641852E+04  0.17704535214E+04  0.11347783990E+04 0.  0.
        1    1    3    3  502    0  0.52442956689E+03  0.19346502316E+03  0.52761186066E+03  0.76865425345E+03  0.50400001928E-02 0. -1.
       -1    1    3    3    0  502 -0.52442956689E+03 -0.19346502316E+03  0.83135232449E+03  0.10017992680E+04  0.50400001928E-02 0.  1.
</event>
<event>
 5   0  0.3215352E-03  0.1097896E+04  0.7818609E-02  0.9207245E-01
       -1   -1    0    0    0  501  0.00000000000E+00  0.00000000000E+00  0.38259658564E+03  0.38259658568E+03  0.50400001928E-02 0.  1.
        1   -1    0    0  501    0  0.00000000000E+00  0.00000000000E+00 -0.78762872794E+03  0.78762872795E+03  0.50400001928E-02 0. -1.
    10030    2    1    2    0    0  0.00000000000E+00  0.00000000000E+00 -0.40503214229E+03  0.11702253136E+04  0.10978962831E+04 0.  0.
        1    1    3    3  502    0  0.39829719132E+02  0.49511566608E+03  0.46585575169E+02  0.49889492397E+03  0.50400001928E-02 0.  1.
       -1    1    3    3    0  502 -0.39829719132E+02 -0.49511566608E+03 -0.45161771746E+03  0.67133038966E+03  0.50400001928E-02 0. -1.
</event>
<event>
 5   0  0.5946359E-03  0.1096697E+04  0.7818609E-02  0.9208417E-01
        2   -1    0    0  501    0  0.00000000000E+00  0.00000000000E+00  0.69469422531E+03  0.69469422531E+03  0.25500000920E-02 0. -1.
       -2   -1    0    0    0  501  0.00000000000E+00  0.00000000000E+00 -0.43283204308E+03  0.43283204309E+03  0.25500000920E-02 0.  1.
    10030    2    1    2    0    0  0.00000000000E+00  0.00000000000E+00  0.26186218222E+03  0.11275262684E+04  0.10966967144E+04 0.  0.
        4    1    3    3  502    0  0.34001107372E+03 -0.26544167493E+03 -0.21713809869E+03  0.48292585336E+03  0.12699999809E+01 0.  1.
       -4    1    3    3    0  502 -0.34001107372E+03  0.26544167493E+03  0.47900028092E+03  0.64460041503E+03  0.12699999809E+01 0. -1.
</event>
<event>
 5   0  0.5500363E-03  0.1207533E+04  0.7818609E-02  0.9106288E-01
        2   -1    0    0  501    0  0.00000000000E+00  0.00000000000E+00  0.51562392499E+03  0.51562392500E+03  0.25500000920E-02 0. -1.
       -2   -1    0    0    0  501  0.00000000000E+00  0.00000000000E+00 -0.70697706026E+03  0.70697706026E+03  0.25500000920E-02 0.  1.
    10030    2    1    2    0    0  0.00000000000E+00  0.00000000000E+00 -0.19135313527E+03  0.12226009853E+04  0.12075334972E+04 0.  0.
        3    1    3    3  502    0 -0.28199444438E+03  0.29361049026E+03 -0.54711716787E+03  0.68195688444E+03  0.10100000352E+00 0.  1.
       -3    1    3    3    0  502  0.28199444438E+03 -0.29361049026E+03  0.35576403261E+03  0.54064410082E+03  0.10100000352E+00 0. -1.
</event>
<event>
 5   0  0.3328741E-03  0.9277320E+03  0.7818609E-02  0.9391564E-01
       -1   -1    0    0    0  501  0.00000000000E+00  0.00000000000E+00  0.45294769470E+03  0.45294769472E+03  0.50400001928E-02 0. -1.
        1   -1    0    0  501    0  0.00000000000E+00  0.00000000000E+00 -0.47504751221E+03  0.47504751224E+03  0.50400001928E-02 0.  1.
    10030    2    1    2    0    0  0.00000000000E+00  0.00000000000E+00 -0.22099817512E+02  0.92799520696E+03  0.92773202069E+03 0.  0.
        3    1    3    3  502    0  0.36007193211E+03 -0.16729888555E+03  0.22887424227E+03  0.45828391023E+03  0.10100000352E+00 0. -1.
       -3    1    3    3    0  502 -0.36007193211E+03  0.16729888555E+03 -0.25097405978E+03  0.46971129673E+03  0.10100000352E+00 0.  1.
</event>
<event>
 5   0  0.3241189E-03  0.9902428E+03  0.7818609E-02  0.9319312E-01
       -1   -1    0    0    0  501  0.00000000000E+00  0.00000000000E+00  0.39696593980E+03  0.39696593983E+03  0.50400001928E-02 0. -1.
        1   -1    0    0  501    0  0.00000000000E+00  0.00000000000E+00 -0.61754717888E+03  0.61754717890E+03  0.50400001928E-02 0.  1.
    10030    2    1    2    0    0  0.00000000000E+00  0.00000000000E+00 -0.22058123907E+03  0.10145131187E+04  0.99024279096E+03 0.  0.
        5    1    3    3  502    0  0.40085466589E+03  0.66865949759E+02 -0.40000695012E+03  0.57024833936E+03  0.46999998093E+01 0.  1.
       -5    1    3    3    0  502 -0.40085466589E+03 -0.66865949759E+02  0.17942571104E+03  0.44426477937E+03  0.46999998093E+01 0. -1.
</event>
<event>
 5   0  0.2185750E-03  0.1061092E+04  0.7818609E-02  0.9243967E-01
       -3   -1    0    0    0  501  0.00000000000E+00  0.00000000000E+00  0.92207942849E+03  0.92207943402E+03  0.10100000352E+00 0. -1.
        3   -1    0    0  501    0  0.00000000000E+00  0.00000000000E+00 -0.30526530656E+03  0.30526532326E+03  0.10100000352E+00 0.  1.
    10030    2    1    2    0    0  0.00000000000E+00  0.00000000000E+00  0.61681412193E+03  0.12273447573E+04  0.10610916512E+04 0.  0.
        1    1    3    3  502    0  0.20272421239E+03 -0.35063588363E+03 -0.87975692719E+02  0.41446634569E+03  0.50400001928E-02 0.  1.
       -1    1    3    3    0  502 -0.20272421239E+03  0.35063588363E+03  0.70478981465E+03  0.81287841159E+03  0.50400001928E-02 0. -1.
</event>
<event>
 5   0  0.3316784E-03  0.1135522E+04  0.7818609E-02  0.9171245E-01
       -1   -1    0    0    0  501  0.00000000000E+00  0.00000000000E+00  0.59660005153E+03  0.59660005156E+03  0.50400001928E-02 0.  1.
        1   -1    0    0  501    0  0.00000000000E+00  0.00000000000E+00 -0.54031630277E+03  0.54031630279E+03  0.50400001928E-02 0. -1.
    10030    2    1    2    0    0  0.00000000000E+00  0.00000000000E+00  0.56283748766E+02  0.11369163543E+04  0.11355223188E+04 0.  0.
        4    1    3    3  502    0  0.14726149414E+02  0.15376650259E+03  0.57515509468E+03  0.59553840568E+03  0.12699999809E+01 0.  1.
       -4    1    3    3    0  502 -0.14726149414E+02 -0.15376650259E+03 -0.51887134592E+03  0.54137794867E+03  0.12699999809E+01 0. -1.
</event>
<event>
 5   0  0.5941585E-03  0.1037153E+04  0.7818609E-02  0.9268709E-01
       -2   -1    0    0    0  501  0.00000000000E+00  0.00000000000E+00  0.12972742609E+04  0.12972742609E+04  0.25500000920E-02 0.  1.
        2   -1    0    0  501    0  0.00000000000E+00  0.00000000000E+00 -0.20729747785E+03  0.20729747787E+03  0.25500000920E-02 0. -1.
    10030    2    1    2    0    0  0.00000000000E+00  0.00000000000E+00  0.10899767831E+04  0.15045717388E+04  0.10371531852E+04 0.  0.
        5    1    3    3  502    0  0.24530937092E+03  0.14578373135E+03 -0.83121878070E+02  0.29725564822E+03  0.46999998093E+01 0. -1.
       -5    1    3    3    0  502 -0.24530937092E+03 -0.14578373135E+03  0.11730986611E+04  0.12073160906E+04  0.46999998093E+01 0.  1.
</event>
<event>
 5   0  0.5627232E-03  0.1096341E+04  0.7818609E-02  0.9208765E-01
        2   -1    0    0  501    0  0.00000000000E+00  0.00000000000E+00  0.53332245792E+03  0.53332245793E+03  0.25500000920E-02 0. -1.
       -2   -1    0    0    0  501  0.00000000000E+00  0.00000000000E+00 -0.56343214978E+03  0.56343214978E+03  0.25500000920E-02 0.  1.
    10030    2    1    2    0    0  0.00000000000E+00  0.00000000000E+00 -0.30109691852E+02  0.10967546077E+04  0.10963412224E+04 0.  0.
        2    1    3    3  502    0  0.38104772526E+03 -0.33352945921E+03  0.19490938051E+03  0.54261306260E+03  0.25500000920E-02 0.  1.
       -2    1    3    3    0  502 -0.38104772526E+03  0.33352945921E+03 -0.22501907236E+03  0.55414154511E+03  0.25500000920E-02 0. -1.
</event>
<event>
 5   0  0.5500363E-03  0.1098171E+04  0.7818609E-02  0.9206976E-01
        2   -1    0    0  501    0  0.00000000000E+00  0.00000000000E+00  0.54322403479E+03  0.54322403480E+03  0.25500000920E-02 0. -1.
       -2   -1    0    0    0  501  0.00000000000E+00  0.00000000000E+00 -0.55501056895E+03  0.55501056896E+03  0.25500000920E-02 0.  1.
    10030    2    1    2    0    0  0.00000000000E+00  0.00000000000E+00 -0.11786534162E+02  0.10982346038E+04  0.10981713539E+04 0.  0.
        3    1    3    3  502    0  0.11551253673E+03 -0.48161833669E+03 -0.24296324723E+03  0.55166159743E+03  0.10100000352E+00 0. -1.
       -3    1    3    3    0  502 -0.11551253673E+03  0.48161833669E+03  0.23117671307E+03  0.54657300633E+03  0.10100000352E+00 0.  1.
</event>
<event>
 5   0  0.5627232E-03  0.1128679E+04  0.7818609E-02  0.9177682E-01
       -2   -1    0    0    0  501  0.00000000000E+00  0.00000000000E+00  0.35580311256E+03  0.35580311257E+03  0.25500000920E-02 0. -1.
        2   -1    0    0  501    0  0.00000000000E+00  0.00000000000E+00 -0.89509890569E+03  0.89509890570E+03  0.25500000920E-02 0.  1.
    10030    2    1    2    0    0  0.00000000000E+00  0.00000000000E+00 -0.53929579313E+03  0.12509020183E+04  0.11286788324E+04 0.  0.
        2    1    3    3  502    0  0.56114576899E+02 -0.38105303342E+03  0.18748421112E+03  0.42836968783E+03  0.25500000920E-02 0. -1.
       -2    1    3    3    0  502 -0.56114576899E+02  0.38105303342E+03 -0.72678000426E+03  0.82253233044E+03  0.25500000920E-02 0.  1.
</event>
<event>
 5   0  0.5500363E-03  0.1105074E+04  0.7818609E-02  0.9200261E-01
        2   -1    0    0  501    0  0.00000000000E+00  0.00000000000E+00  0.36807363796E+03  0.36807363797E+03  0.25500000920E-02 0. -1.
       -2   -1    0    0    0  501  0.00000000000E+00  0.00000000000E+00 -0.82944568116E+03  0.82944568116E+03  0.25500000920E-02 0.  1.
    10030    2    1    2    0    0  0.00000000000E+00  0.00000000000E+00 -0.46137204319E+03  0.11975193191E+04  0.11050739149E+04 0.  0.
        3    1    3    3  502    0 -0.99562821988E+02 -0.18472361693E+03 -0.78458289837E+03  0.81216125541E+03  0.10100000352E+00 0.  1.
       -3    1    3    3    0  502  0.99562821988E+02  0.18472361693E+03  0.32321085517E+03  0.38535806373E+03  0.10100000352E+00 0. -1.
</event>
<event>
 5   0  0.5941585E-03  0.1084331E+04  0.7818609E-02  0.9220600E-01
        2   -1    0    0  501    0  0.00000000000E+00  0.00000000000E+00  0.15060557200E+04  0.15060557200E+04  0.25500000920E-02 0. -1.
       -2   -1    0    0    0  501  0.00000000000E+00  0.00000000000E+00 -0.19517420682E+03  0.19517420683E+03  0.25500000920E-02 0.  1.
    10030    2    1    2    0    0  0.00000000000E+00  0.00000000000E+00  0.13108815131E+04  0.17012299268E+04  0.10843306333E+04 0.  0.
        5    1    3    3  502    0  0.13241183034E+03  0.43381047860E+03  0.11213780741E+04  0.12096426328E+04  0.46999998093E+01 0. -1.
       -5    1    3    3    0  502 -0.13241183034E+03 -0.43381047860E+03  0.18950343905E+03  0.49158729394E+03  0.46999998093E+01 0.  1.
</event>
<event>
 5   0  0.5946359E-03  0.1092095E+04  0.7818609E-02  0.9212931E-01
        2   -1    0    0  501    0  0.00000000000E+00  0.00000000000E+00  0.64081559310E+03  0.64081559311E+03  0.25500000920E-02 0.  1.
       -2   -1    0    0    0  501  0.00000000000E+00  0.00000000000E+00 -0.46529451263E+03  0.46529451264E+03  0.25500000920E-02 0. -1.
    10030    2    1    2    0    0  0.00000000000E+00  0.00000000000E+00  0.17552108047E+03  0.11061101057E+04  0.10920951956E+04 0.  0.
        4    1    3    3  502    0 -0.21597844176E+03 -0.43469688768E+03 -0.16556577988E+03  0.51285642419E+03  0.12699999809E+01 0. -1.
       -4    1    3    3    0  502  0.21597844176E+03  0.43469688768E+03  0.34108686036E+03  0.59325368155E+03  0.12699999809E+01 0.  1.
</event>
<event>
 5   0  0.5946359E-03  0.1079359E+04  0.7818609E-02  0.9225546E-01
        2   -1    0    0  501    0  0.00000000000E+00  0.00000000000E+00  0.20002742069E+04  0.20002742069E+04  0.25500000920E-02 0.  1.
       -2   -1    0    0    0  501  0.00000000000E+00  0.00000000000E+00 -0.14560711793E+03  0.14560711795E+03  0.25500000920E-02 0. -1.
    10030    2    1    2    0    0  0.00000000000E+00  0.00000000000E+00  0.18546670890E+04  0.21458813249E+04  0.10793593699E+04 0.  0.
        4    1    3    3  502    0  0.80539606828E+02 -0.29336371605E+03  0.41111481112E+02  0.30698642469E+03  0.12699999809E+01 0. -1.
       -4    1    3    3    0  502 -0.80539606828E+02  0.29336371605E+03  0.18135556079E+04  0.18388949002E+04  0.12699999809E+01 0.  1.
</event>
<event>
 5   0  0.3215352E-03  0.1203650E+04  0.7818609E-02  0.9109668E-01
        1   -1    0    0  501    0  0.00000000000E+00  0.00000000000E+00  0.11317229556E+04  0.11317229556E+04  0.50400001928E-02 0.  1.
       -1   -1    0    0    0  501  0.00000000000E+00  0.00000000000E+00 -0.32003697956E+03  0.32003697960E+03  0.50400001928E-02 0. -1.
    10030    2    1    2    0    0  0.00000000000E+00  0.00000000000E+00  0.81168597608E+03  0.14517599352E+04  0.12036497771E+04 0.  0.
        1    1    3    3  502    0  0.58446195042E+03 -0.98673841106E+02  0.28014522899E+03  0.65560174478E+03  0.50400001928E-02 0. -1.
       -1    1    3    3    0  502 -0.58446195042E+03  0.98673841106E+02  0.53154074709E+03  0.79615819047E+03  0.50400001928E-02 0.  1.
</event>
<event>
 5   0  0.5627232E-03  0.1115859E+04  0.7818609E-02  0.9189871E-01
       -2   -1    0    0    0  501  0.00000000000E+00  0.00000000000E+00  0.49076823139E+03  0.49076823140E+03  0.25500000920E-02 0.  1.
        2   -1    0    0  501    0  0.00000000000E+00  0.00000000000E+00 -0.63428141841E+03  0.63428141842E+03  0.25500000920E-02 0. -1.
    10030    2    1    2    0    0  0.00000000000E+00  0.00000000000E+00 -0.14351318702E+03  0.11250496498E+04  0.11158587185E+04 0.  0.
        2    1    3    3  502    0 -0.24207532658E+03 -0.40626664067E+03 -0.37022209783E+03  0.60059757641E+03  0.25500000920E-02 0. -1.
       -2    1    3    3    0  502  0.24207532658E+03  0.40626664067E+03  0.22670891082E+03  0.52445207341E+03  0.25500000920E-02 0.  1.
</event>
<event>
 5   0  0.3241189E-03  0.1056143E+04  0.7818609E-02  0.9249025E-01
       -1   -1    0    0    0  501  0.00000000000E+00  0.00000000000E+00  0.52339300057E+03  0.52339300060E+03  0.50400001928E-02 0.  1.
        1   -1    0    0  501    0  0.00000000000E+00  0.00000000000E+00 -0.53279142488E+03  0.53279142490E+03  0.50400001928E-02 0. -1.
    10030    2    1    2    0    0  0.00000000000E+00  0.00000000000E+00 -0.93984243040E+01  0.10561844255E+04  0.10561426089E+04 0.  0.
        5    1    3    3  502    0 -0.30709050557E+02  0.43655614518E+03  0.29080004862E+03  0.52546272176E+03  0.46999998093E+01 0.  1.
       -5    1    3    3    0  502  0.30709050557E+02 -0.43655614518E+03 -0.30019847292E+03  0.53072170374E+03  0.46999998093E+01 0. -1.
</event>
<event>
 5   0  0.3316784E-03  0.1039115E+04  0.7818609E-02  0.9266655E-01
        1   -1    0    0  501    0  0.00000000000E+00  0.00000000000E+00  0.83706468375E+03  0.83706468376E+03  0.50400001928E-02 0. -1.
       -1   -1    0    0    0  501  0.00000000000E+00  0.00000000000E+00 -0.32248387422E+03  0.32248387426E+03  0.50400001928E-02 0.  1.
    10030    2    1    2    0    0  0.00000000000E+00  0.00000000000E+00  0.51458080953E+03  0.11595485580E+04  0.10391147429E+04 0.  0.
        4    1    3    3  502    0  0.35924871306E+03 -0.24059086007E+03  0.57876782992E+03  0.72243851893E+03  0.12699999809E+01 0. -1.
       -4    1    3    3    0  502 -0.35924871306E+03  0.24059086007E+03 -0.64187020395E+02  0.43711003909E+03  0.12699999809E+01 0.  1.
</event>
<event>
 5   0  0.3241189E-03  0.9851031E+03  0.7818609E-02  0.9325036E-01
       -1   -1    0    0    0  501  0.00000000000E+00  0.00000000000E+00  0.33244084754E+03  0.33244084757E+03  0.50400001928E-02 0. -1.
        1   -1    0    0  501    0  0.00000000000E+00  0.00000000000E+00 -0.72977497858E+03  0.72977497859E+03  0.50400001928E-02 0.  1.
    10030    2    1    2    0    0  0.00000000000E+00  0.00000000000E+00 -0.39733413104E+03  0.10622158262E+04  0.98510306551E+03 0.  0.
        5    1    3    3  502    0 -0.37956708319E+03  0.18006783345E+02 -0.53654796227E+03  0.65749617543E+03  0.46999998093E+01 0.  1.
       -5    1    3    3    0  502  0.37956708319E+03 -0.18006783345E+02  0.13921383123E+03  0.40471965074E+03  0.46999998093E+01 0. -1.
</event>
<event>
 5   0  0.5723194E-03  0.1102273E+04  0.7818609E-02  0.9202979E-01
       -2   -1    0    0    0  501  0.00000000000E+00  0.00000000000E+00  0.45737717098E+03  0.45737717099E+03  0.25500000920E-02 0. -1.
        2   -1    0    0  501    0  0.00000000000E+00  0.00000000000E+00 -0.66411586571E+03  0.66411586572E+03  0.25500000920E-02 0.  1.
    10030    2    1    2    0    0  0.00000000000E+00  0.00000000000E+00 -0.20673869473E+03  0.11214930367E+04  0.11022729895E+04 0.  0.
        1    1    3    3  502    0  0.35736735211E+03  0.41632288621E+03 -0.50352536574E+02  0.55097327331E+03  0.50400001928E-02 0. -1.
       -1    1    3    3    0  502 -0.35736735211E+03 -0.41632288621E+03 -0.15638615816E+03  0.57051976340E+03  0.50400001928E-02 0.  1.
</event>
<event>
 5   0  0.5500363E-03  0.1190147E+04  0.7818609E-02  0.9121525E-01
       -2   -1    0    0    0  501  0.00000000000E+00  0.00000000000E+00  0.53443123272E+03  0.53443123272E+03  0.25500000920E-02 0. -1.
        2   -1    0    0  501    0  0.00000000000E+00  0.00000000000E+00 -0.66259680464E+03  0.66259680465E+03  0.25500000920E-02 0.  1.
    10030    2    1    2    0    0  0.00000000000E+00  0.00000000000E+00 -0.12816557193E+03  0.11970280374E+04  0.11901469272E+04 0.  0.
        3    1    3    3  502    0 -0.48152436418E+03  0.41162472228E+02  0.28513117006E+03  0.56112374461E+03  0.10100000352E+00 0. -1.
       -3    1    3    3    0  502  0.48152436418E+03 -0.41162472228E+02 -0.41329674199E+03  0.63590429277E+03  0.10100000352E+00 0.  1.
</event>
<event>
 5   0  0.5941585E-03  0.1110277E+04  0.7818609E-02  0.9195233E-01
        2   -1    0    0  501    0  0.00000000000E+00  0.00000000000E+00  0.15089988726E+04  0.15089988726E+04  0.25500000920E-02 0. -1.
       -2   -1    0    0    0  501  0.00000000000E+00  0.00000000000E+00 -0.20422731392E+03  0.20422731394E+03  0.25500000920E-02 0.  1.
    10030    2    1    2    0    0  0.00000000000E+00  0.00000000000E+00  0.13047715586E+04  0.17132261865E+04  0.11102770582E+04 0.  0.
        5    1    3    3  502    0  0.38159268405E+03 -0.34374468972E+03  0.32730359206E+03  0.60903457997E+03  0.46999998093E+01 0.  1.
       -5    1    3    3    0  502 -0.38159268405E+03  0.34374468972E+03  0.97746796659E+03  0.11041916065E+04  0.46999998093E+01 0. -1.
</event>
<event>
 5   0  0.3241189E-03  0.1100939E+04  0.7818609E-02  0.9204277E-01
       -1   -1    0    0    0  501  0.00000000000E+00  0.00000000000E+00  0.45893130401E+03  0.45893130404E+03  0.50400001928E-02 0. -1.
        1   -1    0    0  501    0  0.00000000000E+00  0.00000000000E+00 -0.66026591551E+03  0.66026591553E+03  0.50400001928E-02 0.  1.
    10030    2    1    2    0    0  0.00000000000E+00  0.00000000000E+00 -0.20133461150E+03  0.11191972196E+04  0.11009390494E+04 0.  0.
        5    1    3    3  502    0  0.23883022322E+02 -0.13292326251E+03  0.44180740246E+03  0.46201175671E+03  0.46999998093E+01 0. -1.
       -5    1    3    3    0  502 -0.23883022322E+02  0.13292326251E+03 -0.64314201396E+03  0.65718546286E+03  0.46999998093E+01 0.  1.
</event>
<event>
 5   0  0.5500363E-03  0.1098394E+04  0.7818609E-02  0.9206758E-01
       -2   -1    0    0    0  501  0.00000000000E+00  0.00000000000E+00  0.18177838444E+03  0.18177838446E+03  0.25500000920E-02 0.  1.
        2   -1    0    0  501    0  0.00000000000E+00  0.00000000000E+00 -0.16592598535E+04  0.16592598535E+04  0.25500000920E-02 0. -1.
    10030    2    1    2    0    0  0.00000000000E+00  0.00000000000E+00 -0.14774814691E+04  0.18410382380E+04  0.10983944202E+04 0.  0.
        3    1    3    3  502    0 -0.28982520419E+03  0.30140088008E+03 -0.13355337650E+04  0.13994611774E+04  0.10100000352E+00 0. -1.
       -3    1    3    3    0  502  0.28982520419E+03 -0.30140088008E+03 -0.14194770406E+03  0.44157706053E+03  0.10100000352E+00 0.  1.
</event>
<event>
 5   0  0.5946359E-03  0.1101824E+04  0.7818609E-02  0.9203416E-01
       -2   -1    0    0    0  501  0.00000000000E+00  0.00000000000E+00  0.22124307302E+03  0.22124307303E+03  0.25500000920E-02 0.  1.
        2   -1    0    0  501    0  0.00000000000E+00  0.00000000000E+00 -0.13718115568E+04  0.13718115568E+04  0.25500000920E-02 0. -1.
    10030    2    1    2    0    0  0.00000000000E+00  0.00000000000E+00 -0.11505684837E+04  0.15930546298E+04  0.11018235874E+04 0.  0.
        4    1    3    3  502    0 -0.49472050136E+03  0.23155456449E+03 -0.47166418510E+03  0.72168871905E+03  0.12699999809E+01 0. -1.
       -4    1    3    3    0  502  0.49472050136E+03 -0.23155456449E+03 -0.67890429865E+03  0.87136591075E+03  0.12699999809E+01 0.  1.
</event>
<event>
 5   0  0.5941585E-03  0.1237809E+04  0.7818609E-02  0.9080392E-01
        2   -1    0    0  501    0  0.00000000000E+00  0.00000000000E+00  0.17947315362E+04  0.17947315362E+04  0.25500000920E-02 0.  1.
       -2   -1    0    0    0  501  0.00000000000E+00  0.00000000000E+00 -0.21342610766E+03  0.21342610767E+03  0.25500000920E-02 0. -1.
    10030    2    1    2    0    0  0.00000000000E+00  0.00000000000E+00  0.15813054285E+04  0.20081576439E+04  0.12378086542E+04 0.  0.
        5    1    3    3  502    0 -0.97887913428E+02  0.16189325923E+03  0.17466403732E+04  0.17568625884E+04  0.46999998093E+01 0.  1.
       -5    1    3    3    0  502  0.97887913428E+02 -0.16189325923E+03 -0.16533494470E+03  0.25129505550E+03  0.46999998093E+01 0. -1.
</event>
<event>
 5   0  0.3241189E-03  0.1096522E+04  0.7818609E-02  0.9208589E-01
       -1   -1    0    0    0  501  0.00000000000E+00  0.00000000000E+00  0.52173217773E+03  0.52173217776E+03  0.50400001928E-02 0. -1.
        1   -1    0    0  501    0  0.00000000000E+00  0.00000000000E+00 -0.57613860232E+03  0.57613860235E+03  0.50400001928E-02 0.  1.
    10030    2    1    2    0    0  0.00000000000E+00  0.00000000000E+00 -0.54406424592E+02  0.10978707801E+04  0.10965218606E+04 0.  0.
        5    1    3    3  502    0 -0.33720314086E+03  0.42977009284E+03  0.19326172160E+02  0.54662956546E+03  0.46999998093E+01 0.  1.
       -5    1    3    3    0  502  0.33720314086E+03 -0.42977009284E+03 -0.73732596752E+02  0.55124121465E+03  0.46999998093E+01 0. -1.
</event>
<event>
 5   0  0.5500363E-03  0.1097723E+04  0.7818609E-02  0.9207414E-01
       -2   -1    0    0    0  501  0.00000000000E+00  0.00000000000E+00  0.34568475866E+03  0.34568475867E+03  0.25500000920E-02 0.  1.
        2   -1    0    0  501    0  0.00000000000E+00  0.00000000000E+00 -0.87145605814E+03  0.87145605814E+03  0.25500000920E-02 0. -1.
    10030    2    1    2    0    0  0.00000000000E+00  0.00000000000E+00 -0.52577129948E+03  0.12171408168E+04  0.10977232386E+04 0.  0.
        3    1    3    3  502    0  0.25132497254E+03 -0.43808747259E+03 -0.24653381711E+02  0.50566063214E+03  0.10100000352E+00 0. -1.
       -3    1    3    3    0  502 -0.25132497254E+03  0.43808747259E+03 -0.50111791777E+03  0.71148018467E+03  0.10100000352E+00 0.  1.
</event>
<event>
 5   0  0.5723194E-03  0.1094803E+04  0.7818609E-02  0.9210272E-01
        2   -1    0    0  501    0  0.00000000000E+00  0.00000000000E+00  0.18334767128E+04  0.18334767128E+04  0.25500000920E-02 0. -1.
       -2   -1    0    0    0  501  0.00000000000E+00  0.00000000000E+00 -0.16343181450E+03  0.16343181452E+03  0.25500000920E-02 0.  1.
    10030    2    1    2    0    0  0.00000000000E+00  0.00000000000E+00  0.16700448983E+04  0.19969085274E+04  0.10948030436E+04 0.  0.
        1    1    3    3  502    0 -0.15363378510E+03 -0.24555615632E+02 -0.12225392832E+03  0.19786950548E+03  0.50400001928E-02 0.  1.
       -1    1    3    3    0  502  0.15363378510E+03  0.24555615632E+02  0.17922988266E+04  0.17990390219E+04  0.50400001928E-02 0. -1.
</event>
<event>
 5   0  0.5946359E-03  0.1077945E+04  0.7818609E-02  0.9226959E-01
        2   -1    0    0  501    0  0.00000000000E+00  0.00000000000E+00  0.15874278389E+04  0.15874278389E+04  0.25500000920E-02 0.  1.
       -2   -1    0    0    0  501  0.00000000000E+00  0.00000000000E+00 -0.18299500230E+03  0.18299500231E+03  0.25500000920E-02 0. -1.
    10030    2    1    2    0    0  0.00000000000E+00  0.00000000000E+00  0.14044328366E+04  0.17704228412E+04  0.10779450098E+04 0.  0.
        4    1    3    3  502    0 -0.42406203666E+03  0.15421820762E+03  0.11863163363E+04  0.12692359628E+04  0.12699999809E+01 0.  1.
       -4    1    3    3    0  502  0.42406203666E+03 -0.15421820762E+03  0.21811650025E+03  0.50118687840E+03  0.12699999809E+01 0. -1.
</event>
<event>
 5   0  0.5723194E-03  0.1098618E+04  0.7818609E-02  0.9206540E-01
        2   -1    0    0  501    0  0.00000000000E+00  0.00000000000E+00  0.28850492932E+03  0.28850492934E+03  0.25500000920E-02 0. -1.
       -2   -1    0    0    0  501  0.00000000000E+00  0.00000000000E+00 -0.10458756560E+04  0.10458756560E+04  0.25500000920E-02 0.  1.
    10030    2    1    2    0    0  0.00000000000E+00  0.00000000000E+00 -0.75737072672E+03  0.13343805854E+04  0.10986178266E+04 0.  0.
        1    1    3    3  502    0 -0.49707748169E+03 -0.21526594655E+03 -0.48943946108E+03  0.73005235199E+03  0.50400001928E-02 0.  1.
       -1    1    3    3    0  502  0.49707748169E+03  0.21526594655E+03 -0.26793126564E+03  0.60432823340E+03  0.50400001928E-02 0. -1.
</event>
<event>
 5   0  0.5500363E-03  0.1111135E+04  0.7818609E-02  0.9194407E-01
       -2   -1    0    0    0  501  0.00000000000E+00  0.00000000000E+00  0.33015725784E+03  0.33015725785E+03  0.25500000920E-02 0. -1.
        2   -1    0    0  501    0  0.00000000000E+00  0.00000000000E+00 -0.93487267448E+03  0.93487267448E+03  0.25500000920E-02 0.  1.
    10030    2    1    2    0    0  0.00000000000E+00  0.00000000000E+00 -0.60471541664E+03  0.12650299323E+04  0.11111345529E+04 0.  0.
        3    1    3    3  502    0 -0.89889690823E+02  0.87452248013E+02 -0.91854651263E+03  0.92706836763E+03  0.10100000352E+00 0.  1.
       -3    1    3    3    0  502  0.89889690823E+02 -0.87452248013E+02  0.31383109600E+03  0.33796156470E+03  0.10100000352E+00 0. -1.
</event>
<event>
 5   0  0.5627232E-03  0.1104918E+04  0.7818609E-02  0.9200412E-01
        2   -1    0    0  501    0  0.00000000000E+00  0.00000000000E+00  0.69608938699E+03  0.69608938700E+03  0.25500000920E-02 0.  1.
       -2   -1    0    0    0  501  0.00000000000E+00  0.00000000000E+00 -0.43846494513E+03  0.43846494514E+03  0.25500000920E-02 0. -1.
    10030    2    1    2    0    0  0.00000000000E+00  0.00000000000E+00  0.25762444186E+03  0.11345543321E+04  0.11049177252E+04 0.  0.
        2    1    3    3  502    0  0.73717468669E+02  0.23980493122E+03 -0.37659947652E+03  0.45251280197E+03  0.25500000920E-02 0. -1.
       -2    1    3    3    0  502 -0.73717468669E+02 -0.23980493122E+03  0.63422391838E+03  0.68204153017E+03  0.25500000920E-02 0.  1.
</event>
<event>
 5   0  0.5723194E-03  0.1097154E+04  0.7818609E-02  0.9207970E-01
       -2   -1    0    0    0  501  0.00000000000E+00  0.00000000000E+00  0.29257173683E+03  0.29257173685E+03  0.25500000920E-02 0. -1.
        2   -1    0    0  501    0  0.00000000000E+00  0.00000000000E+00 -0.10285915260E+04  0.10285915260E+04  0.25500000920E-02 0.  1.
    10030    2    1    2    0    0  0.00000000000E+00  0.00000000000E+00 -0.73601978921E+03  0.13211632629E+04  0.10971541538E+04 0.  0.
        1    1    3    3  502    0  0.28359197100E+03  0.11712276105E+03 -0.91560366573E+03  0.96564601169E+03  0.50400001928E-02 0.  1.
       -1    1    3    3    0  502 -0.28359197100E+03 -0.11712276105E+03  0.17958387652E+03  0.35551725120E+03  0.50400001928E-02 0. -1.
</event>
<event>
 5   0  0.5627232E-03  0.1104959E+04  0.7818609E-02  0.9200372E-01
       -2   -1    0    0    0  501  0.00000000000E+00  0.00000000000E+00  0.41384929934E+03  0.41384929935E+03  0.25500000920E-02 0.  1.
        2   -1    0    0  501    0  0.00000000000E+00  0.00000000000E+00 -0.73754714198E+03  0.73754714198E+03  0.25500000920E-02 0. -1.
    10030    2    1    2    0    0  0.00000000000E+00  0.00000000000E+00 -0.32369784263E+03  0.11513964413E+04  0.11049585837E+04 0.  0.
        2    1    3    3  502    0  0.21757072549E+02  0.43255901787E+03  0.19557187696E+03  0.47521472327E+03  0.25500000920E-02 0.  1.
       -2    1    3    3    0  502 -0.21757072549E+02 -0.43255901787E+03 -0.51926971959E+03  0.67618171806E+03  0.25500000920E-02 0. -1.
</event>
<event>
 5   0  0.3215352E-03  0.1111731E+04  0.7818609E-02  0.9193833E-01
        1   -1    0    0  501    0  0.00000000000E+00  0.00000000000E+00  0.13417785498E+04  0.13417785498E+04  0.50400001928E-02 0.  1.
       -1   -1    0    0    0  501  0.00000000000E+00  0.00000000000E+00 -0.23028127373E+03  0.23028127378E+03  0.50400001928E-02 0. -1.
    10030    2    1    2    0    0  0.00000000000E+00  0.00000000000E+00  0.11114972761E+04  0.15720598236E+04  0.11117310350E+04 0.  0.
        1    1    3    3  502    0  0.36728541283E+03 -0.32080451625E+03  0.93299497099E+03  0.10527553030E+04  0.50400001928E-02 0.  1.
       -1    1    3    3    0  502 -0.36728541283E+03  0.32080451625E+03  0.17850230507E+03  0.51930452055E+03  0.50400001928E-02 0. -1.
</event>
<event>
 5   0  0.3320192E-03  0.1101514E+04  0.7818609E-02  0.9203717E-01
        1   -1    0    0  501    0  0.00000000000E+00  0.00000000000E+00  0.95289573256E+03  0.95289573257E+03  0.50400001928E-02 0.  1.
       -1   -1    0    0    0  501  0.00000000000E+00  0.00000000000E+00 -0.31832791680E+03  0.31832791684E+03  0.50400001928E-02 0. -1.
    10030    2    1    2    0    0  0.00000000000E+00  0.00000000000E+00  0.63456781576E+03  0.12712236494E+04  0.11015140735E+04 0.  0.
        2    1    3    3  502    0  0.13399950639E+03 -0.16029984920E+03  0.90538547796E+03  0.92917962368E+03  0.25500000920E-02 0.  1.
       -2    1    3    3    0  502 -0.13399950639E+03  0.16029984920E+03 -0.27081766220E+03  0.34204402572E+03  0.25500000920E-02 0. -1.
</event>
<event>
 5   0  0.3316784E-03  0.1099183E+04  0.7818609E-02  0.9205989E-01
        1   -1    0    0  501    0  0.00000000000E+00  0.00000000000E+00  0.55884127455E+03  0.55884127457E+03  0.50400001928E-02 0.  1.
       -1   -1    0    0    0  501  0.00000000000E+00  0.00000000000E+00 -0.54049467801E+03  0.54049467804E+03  0.50400001928E-02 0. -1.
    10030    2    1    2    0    0  0.00000000000E+00  0.00000000000E+00  0.18346596538E+02  0.10993359526E+04  0.10991828506E+04 0.  0.
        4    1    3    3  502    0 -0.21859995172E+03  0.43083177971E+03  0.27121582389E+03  0.55404115129E+03  0.12699999809E+01 0.  1.
       -4    1    3    3    0  502  0.21859995172E+03 -0.43083177971E+03 -0.25286922736E+03  0.54529480131E+03  0.12699999809E+01 0. -1.
</event>
<event>
 5   0  0.3241189E-03  0.1103229E+04  0.7818609E-02  0.9202050E-01
       -1   -1    0    0    0  501  0.00000000000E+00  0.00000000000E+00  0.28621635985E+03  0.28621635989E+03  0.50400001928E-02 0. -1.
        1   -1    0    0  501    0  0.00000000000E+00  0.00000000000E+00 -0.10631073600E+04  0.10631073600E+04  0.50400001928E-02 0.  1.
    10030    2    1    2    0    0  0.00000000000E+00  0.00000000000E+00 -0.77689100011E+03  0.13493237199E+04  0.11032292939E+04 0.  0.
        5    1    3    3  502    0 -0.13262507591E+03 -0.34832060510E+03 -0.88576936761E+03  0.96100266248E+03  0.46999998093E+01 0.  1.
       -5    1    3    3    0  502  0.13262507591E+03  0.34832060510E+03  0.10887836749E+03  0.38832105738E+03  0.46999998093E+01 0. -1.
</event>
<event>
 5   0  0.5500363E-03  0.1095283E+04  0.7818609E-02  0.9209802E-01
       -2   -1    0    0    0  501  0.00000000000E+00  0.00000000000E+00  0.39718677139E+03  0.39718677140E+03  0.25500000920E-02 0.  1.
        2   -1    0    0  501    0  0.00000000000E+00  0.00000000000E+00 -0.75508852451E+03  0.75508852452E+03  0.25500000920E-02 0. -1.
    10030    2    1    2    0    0  0.00000000000E+00  0.00000000000E+00 -0.35790175312E+03  0.11522752959E+04  0.10952829282E+04 0.  0.
        3    1    3    3  502    0 -0.32618977773E+03  0.16983270780E+02  0.28349328239E+03  0.43250046699E+03  0.10100000352E+00 0.  1.
       -3    1    3    3    0  502  0.32618977773E+03 -0.16983270780E+02 -0.64139503551E+03  0.71977482893E+03  0.10100000352E+00 0. -1.
</event>
<event>
 5   0  0.2185750E-03  0.1121181E+04  0.7818609E-02  0.9184790E-01
       -3   -1    0    0    0  501  0.00000000000E+00  0.00000000000E+00  0.32606010591E+03  0.32606012155E+03  0.10100000352E+00 0.  1.
        3   -1    0    0  501    0  0.00000000000E+00  0.00000000000E+00 -0.96381513720E+03  0.96381514249E+03  0.10100000352E+00 0. -1.
    10030    2    1    2    0    0  0.00000000000E+00  0.00000000000E+00 -0.63775503129E+03  0.12898752640E+04  0.11211809474E+04 0.  0.
        3    1    3    3  502    0  0.19808752154E+03  0.52399718993E+03 -0.34328106831E+03  0.65700351849E+03  0.10100000352E+00 0. -1.
       -3    1    3    3    0  502 -0.19808752154E+03 -0.52399718993E+03 -0.29447396298E+03  0.63287174555E+03  0.10100000352E+00 0.  1.
</event>
<event>
 5   0  0.5500363E-03  0.1100734E+04  0.7818609E-02  0.9204477E-01
       -2   -1    0    0    0  501  0.00000000000E+00  0.00000000000E+00  0.16952939251E+03  0.16952939253E+03  0.25500000920E-02 0.  1.
        2   -1    0    0  501    0  0.00000000000E+00  0.00000000000E+00 -0.17867338256E+04  0.17867338256E+04  0.25500000920E-02 0. -1.
    10030    2    1    2    0    0  0.00000000000E+00  0.00000000000E+00 -0.16172044331E+04  0.19562632182E+04  0.11007341188E+04 0.  0.
        3    1    3    3  502    0 -0.16681236658E+03 -0.15652400959E+03  0.81041511276E+02  0.24268058838E+03  0.10100000352E+00 0.  1.
       -3    1    3    3    0  502  0.16681236658E+03  0.15652400959E+03 -0.16982459444E+04  0.17135826298E+04  0.10100000352E+00 0. -1.
</event>
<event>
 5   0  0.3328741E-03  0.1102367E+04  0.7818609E-02  0.9202887E-01
        1   -1    0    0  501    0  0.00000000000E+00  0.00000000000E+00  0.64028042408E+03  0.64028042410E+03  0.50400001928E-02 0. -1.
       -1   -1    0    0    0  501  0.00000000000E+00  0.00000000000E+00 -0.47448508174E+03  0.47448508176E+03  0.50400001928E-02 0.  1.
    10030    2    1    2    0    0  0.00000000000E+00  0.00000000000E+00  0.16579534234E+03  0.11147655059E+04  0.11023674694E+04 0.  0.
        3    1    3    3  502    0  0.15101174398E+03  0.14955902930E+03 -0.43137975752E+03  0.48089599235E+03  0.10100000352E+00 0.  1.
       -3    1    3    3    0  502 -0.15101174398E+03 -0.14955902930E+03  0.59717509986E+03  0.63386951351E+03  0.10100000352E+00 0. -1.
</event>
<event>
 5   0  0.3316784E-03  0.1092468E+04  0.7818609E-02  0.9212564E-01
       -1   -1    0    0    0  501  0.00000000000E+00  0.00000000000E+00  0.15637180690E+04  0.15637180690E+04  0.50400001928E-02 0.  1.
        1   -1    0    0  501    0  0.00000000000E+00  0.00000000000E+00 -0.19080899250E+03  0.19080899256E+03  0.50400001928E-02 0. -1.
    10030    2    1    2    0    0  0.00000000000E+00  0.00000000000E+00  0.13729090765E+04  0.17545270616E+04  0.10924677924E+04 0.  0.
        4    1    3    3  502    0  0.52798177954E+03 -0.43491809406E+02  0.90020366472E+03  0.10445212051E+04  0.12699999809E+01 0.  1.
       -4    1    3    3    0  502 -0.52798177954E+03  0.43491809406E+02  0.47270541179E+03  0.71000585649E+03  0.12699999809E+01 0. -1.
</event>
<event>
 5   0  0.3241189E-03  0.1095302E+04  0.7818609E-02  0.9209783E-01
       -1   -1    0    0    0  501  0.00000000000E+00  0.00000000000E+00  0.39546791219E+03  0.39546791222E+03  0.50400001928E-02 0.  1.
        1   -1    0    0  501    0  0.00000000000E+00  0.00000000000E+00 -0.75839626740E+03  0.75839626742E+03  0.50400001928E-02 0. -1.
    10030    2    1    2    0    0  0.00000000000E+00  0.00000000000E+00 -0.36292835521E+03  0.11538641796E+04  0.10953015813E+04 0.  0.
        5    1    3    3  502    0 -0.46901564014E+03 -0.80100108273E+02  0.10415482604E+03  0.48709548943E+03  0.46999998093E+01 0.  1.
       -5    1    3    3    0  502  0.46901564014E+03  0.80100108273E+02 -0.46708318125E+03  0.66676869021E+03  0.46999998093E+01 0. -1.
</event>
<event>
 5   0  0.5946359E-03  0.1092411E+04  0.7818609E-02  0.9212621E-01
        2   -1    0    0  501    0  0.00000000000E+00  0.00000000000E+00  0.98326586053E+03  0.98326586053E+03  0.25500000920E-02 0. -1.
       -2   -1    0    0    0  501  0.00000000000E+00  0.00000000000E+00 -0.30341775599E+03  0.30341775601E+03  0.25500000920E-02 0.  1.
    10030    2    1    2    0    0  0.00000000000E+00  0.00000000000E+00  0.67984810454E+03  0.12866836165E+04  0.10924107670E+04 0.  0.
        4    1    3    3  502    0  0.11247448083E+03  0.34559223051E+03 -0.14033120110E+03  0.38958818967E+03  0.12699999809E+01 0.  1.
       -4    1    3    3    0  502 -0.11247448083E+03 -0.34559223051E+03  0.82017930564E+03  0.89709542687E+03  0.12699999809E+01 0. -1.
</event>
<event>
 5   0  0.5946359E-03  0.1109437E+04  0.7818609E-02  0.9196042E-01
        2   -1    0    0  501    0  0.00000000000E+00  0.00000000000E+00  0.16389442175E+04  0.16389442175E+04  0.25500000920E-02 0.  1.
       -2   -1    0    0    0  501  0.00000000000E+00  0.00000000000E+00 -0.18775064615E+03  0.18775064617E+03  0.25500000920E-02 0. -1.
    10030    2    1    2    0    0  0.00000000000E+00  0.00000000000E+00  0.14511935714E+04  0.18266948637E+04  0.11094373995E+04 0.  0.
        4    1    3    3  502    0  0.45773387266E+02  0.54149490773E+03  0.54225497134E+03  0.76769395264E+03  0.12699999809E+01 0.  1.
       -4    1    3    3    0  502 -0.45773387266E+02 -0.54149490773E+03  0.90893860004E+03  0.10590009111E+04  0.12699999809E+01 0. -1.
</event>
<event>
 5   0  0.5500363E-03  0.1136937E+04  0.7818609E-02  0.9169920E-01
       -2   -1    0    0    0  501  0.00000000000E+00  0.00000000000E+00  0.34173886239E+03  0.34173886240E+03  0.25500000920E-02 0. -1.
        2   -1    0    0  501    0  0.00000000000E+00  0.00000000000E+00 -0.94562362183E+03  0.94562362183E+03  0.25500000920E-02 0.  1.
    10030    2    1    2    0    0  0.00000000000E+00  0.00000000000E+00 -0.60388475945E+03  0.12873624842E+04  0.11369368334E+04 0.  0.
        3    1    3    3  502    0 -0.19878458658E+03 -0.46833595568E+03 -0.14812574030E+02  0.50899243786E+03  0.10100000352E+00 0. -1.
       -3    1    3    3    0  502  0.19878458658E+03  0.46833595568E+03 -0.58907218542E+03  0.77837004637E+03  0.10100000352E+00 0.  1.
</event>
<event>
 5   0  0.3215352E-03  0.1093298E+04  0.7818609E-02  0.9211749E-01
       -1   -1    0    0    0  501  0.00000000000E+00  0.00000000000E+00  0.35153890590E+03  0.35153890593E+03  0.50400001928E-02 0. -1.
        1   -1    0    0  501    0  0.00000000000E+00  0.00000000000E+00 -0.85004887498E+03  0.85004887499E+03  0.50400001928E-02 0.  1.
    10030    2    1    2    0    0  0.00000000000E+00  0.00000000000E+00 -0.49850996908E+03  0.12015877809E+04  0.10932982237E+04 0.  0.
        1    1    3    3  502    0  0.47744196349E+03 -0.20268376399E+03 -0.43896016415E+03  0.67949802238E+03  0.50400001928E-02 0. -1.
       -1    1    3    3    0  502 -0.47744196349E+03  0.20268376399E+03 -0.59549804926E+02  0.52208975854E+03  0.50400001928E-02 0.  1.
</event>
<event>
 5   0  0.5946359E-03  0.1142918E+04  0.7818609E-02  0.9164342E-01
       -2   -1    0    0    0  501  0.00000000000E+00  0.00000000000E+00  0.87952964463E+03  0.87952964463E+03  0.25500000920E-02 0.  1.
        2   -1    0    0  501    0  0.00000000000E+00  0.00000000000E+00 -0.37129551513E+03  0.37129551513E+03  0.25500000920E-02 0. -1.
    10030    2    1    2    0    0  0.00000000000E+00  0.00000000000E+00  0.50823412951E+03  0.12508251598E+04  0.11429180416E+04 0.  0.
        4    1    3    3  502    0  0.50535025733E+03 -0.23161661412E+03  0.39905422155E+03  0.68430331225E+03  0.12699999809E+01 0. -1.
       -4    1    3    3    0  502 -0.50535025733E+03  0.23161661412E+03  0.10917990796E+03  0.56652184752E+03  0.12699999809E+01 0.  1.
</event>
<event>
 5   0  0.3316784E-03  0.1118450E+04  0.7818609E-02  0.9187394E-01
       -1   -1    0    0    0  501  0.00000000000E+00  0.00000000000E+00  0.35419392177E+03  0.35419392181E+03  0.50400001928E-02 0.  1.
        1   -1    0    0  501    0  0.00000000000E+00  0.00000000000E+00 -0.88294106808E+03  0.88294106809E+03  0.50400001928E-02 0. -1.
    10030    2    1    2    0    0  0.00000000000E+00  0.00000000000E+00 -0.52874714631E+03  0.12371349899E+04  0.11184495691E+04 0.  0.
        4    1    3    3  502    0  0.31164555954E+02 -0.52267169131E+03 -0.47129963595E+02  0.52571833981E+03  0.12699999809E+01 0.  1.
       -4    1    3    3    0  502 -0.31164555954E+02  0.52267169131E+03 -0.48161718271E+03  0.71141665009E+03  0.12699999809E+01 0. -1.
</event>
<event>
 5   0  0.5723194E-03  0.8695555E+03  0.7818609E-02  0.9464460E-01
        2   -1    0    0  501    0  0.00000000000E+00  0.00000000000E+00  0.14883707591E+04  0.14883707591E+04  0.25500000920E-02 0. -1.
       -2   -1    0    0    0  501  0.00000000000E+00  0.00000000000E+00 -0.12700579377E+03  0.12700579379E+03  0.25500000920E-02 0.  1.
    10030    2    1    2    0    0  0.00000000000E+00  0.00000000000E+00  0.13613649653E+04  0.16153765529E+04  0.86955554096E+03 0.  0.
        1    1    3    3  502    0  0.21581323096E+03  0.87207482046E+02  0.13628701728E+04  0.13826046447E+04  0.50400001928E-02 0. -1.
       -1    1    3    3    0  502 -0.21581323096E+03 -0.87207482046E+02 -0.15052074489E+01  0.23277190823E+03  0.50400001928E-02 0.  1.
</event>
<event>
 5   0  0.5941585E-03  0.1116308E+04  0.7818609E-02  0.9189441E-01
        2   -1    0    0  501    0  0.00000000000E+00  0.00000000000E+00  0.16156812164E+04  0.16156812164E+04  0.25500000920E-02 0. -1.
       -2   -1    0    0    0  501  0.00000000000E+00  0.00000000000E+00 -0.19282029229E+03  0.19282029231E+03  0.25500000920E-02 0.  1.
    10030    2    1    2    0    0  0.00000000000E+00  0.00000000000E+00  0.14228609241E+04  0.18085015087E+04  0.11163084241E+04 0.  0.
        5    1    3    3  502    0 -0.19504021018E+01  0.18224769144E+03 -0.14321927364E+03  0.23184450704E+03  0.46999998093E+01 0.  1.
       -5    1    3    3    0  502  0.19504021018E+01 -0.18224769144E+03  0.15660801978E+04  0.15766570017E+04  0.46999998093E+01 0. -1.
</event>
<event>
 5   0  0.3215352E-03  0.1077441E+04  0.7818609E-02  0.9227463E-01
        1   -1    0    0  501    0  0.00000000000E+00  0.00000000000E+00  0.64130336038E+03  0.64130336040E+03  0.50400001928E-02 0. -1.
       -1   -1    0    0    0  501  0.00000000000E+00  0.00000000000E+00 -0.45254664126E+03  0.45254664129E+03  0.50400001928E-02 0.  1.
    10030    2    1    2    0    0  0.00000000000E+00  0.00000000000E+00  0.18875671912E+03  0.10938500017E+04  0.10774408230E+04 0.  0.
        1    1    3    3  502    0 -0.20356540898E+03  0.42084984708E+03  0.36616091080E+03  0.59382428558E+03  0.50400001928E-02 0. -1.
       -1    1    3    3    0  502  0.20356540898E+03 -0.42084984708E+03 -0.17740419168E+03  0.50002571611E+03  0.50400001928E-02 0.  1.
</event>
<event>
 5   0  0.3215352E-03  0.1095233E+04  0.7818609E-02  0.9209850E-01
       -1   -1    0    0    0  501  0.00000000000E+00  0.00000000000E+00  0.28893751914E+03  0.28893751918E+03  0.50400001928E-02 0.  1.
        1   -1    0    0  501    0  0.00000000000E+00  0.00000000000E+00 -0.10378850007E+04  0.10378850007E+04  0.50400001928E-02 0. -1.
    10030    2    1    2    0    0  0.00000000000E+00  0.00000000000E+00 -0.74894748152E+03  0.13268225198E+04  0.10952331574E+04 0.  0.
        1    1    3    3  502    0  0.10051730502E+03  0.41324897222E+03 -0.79239043789E+03  0.89931142978E+03  0.50400001928E-02 0. -1.
       -1    1    3    3    0  502 -0.10051730502E+03 -0.41324897222E+03  0.43442956372E+02  0.42751109007E+03  0.50400001928E-02 0.  1.
</event>
<event>
 5   0  0.3316784E-03  0.1095931E+04  0.7818609E-02  0.9209167E-01
       -1   -1    0    0    0  501  0.00000000000E+00  0.00000000000E+00  0.23861028540E+03  0.23861028545E+03  0.50400001928E-02 0.  1.
        1   -1    0    0  501    0  0.00000000000E+00  0.00000000000E+00 -0.12583949757E+04  0.12583949757E+04  0.50400001928E-02 0. -1.
    10030    2    1    2    0    0  0.00000000000E+00  0.00000000000E+00 -0.10197846903E+04  0.14970052612E+04  0.10959306262E+04 0.  0.
        4    1    3    3  502    0 -0.52855425920E+02 -0.43580049914E+03 -0.95785586087E+03  0.10536627706E+04  0.12699999809E+01 0. -1.
       -4    1    3    3    0  502  0.52855425920E+02  0.43580049914E+03 -0.61928829432E+02  0.44334249053E+03  0.12699999809E+01 0.  1.
</event>
<event>
 5   0  0.5946359E-03  0.1101799E+04  0.7818609E-02  0.9203440E-01
        2   -1    0    0  501    0  0.00000000000E+00  0.00000000000E+00  0.17616296778E+04  0.17616296778E+04  0.25500000920E-02 0. -1.
       -2   -1    0    0    0  501  0.00000000000E+00  0.00000000000E+00 -0.17227825480E+03  0.17227825482E+03  0.25500000920E-02 0.  1.
    10030    2    1    2    0    0  0.00000000000E+00  0.00000000000E+00  0.15893514230E+04  0.19339079326E+04  0.11017994128E+04 0.  0.
        4    1    3    3  502    0 -0.23586487133E+03 -0.49728722116E+03  0.83628813009E+03  0.10011524695E+04  0.12699999809E+01 0.  1.
       -4    1    3    3    0  502  0.23586487133E+03  0.49728722116E+03  0.75306329293E+03  0.93275546309E+03  0.12699999809E+01 0. -1.
</event>
<event>
 5   0  0.3215352E-03  0.1091128E+04  0.7818609E-02  0.9213883E-01
       -1   -1    0    0    0  501  0.00000000000E+00  0.00000000000E+00  0.36420045473E+03  0.36420045477E+03  0.50400001928E-02 0. -1.
        1   -1    0    0  501    0  0.00000000000E+00  0.00000000000E+00 -0.81724212658E+03  0.81724212659E+03  0.50400001928E-02 0.  1.
    10030    2    1    2    0    0  0.00000000000E+00  0.00000000000E+00 -0.45304167184E+03  0.11814425814E+04  0.10911277728E+04 0.  0.
        1    1    3    3  502    0 -0.34232337936E+03  0.27510448944E+03  0.12395654552E+03  0.45632554319E+03  0.50400001928E-02 0. -1.
       -1    1    3    3    0  502  0.34232337936E+03 -0.27510448944E+03 -0.57699821737E+03  0.72511703817E+03  0.50400001928E-02 0.  1.
</event>
<event>
 5   0  0.5723194E-03  0.1106889E+04  0.7818609E-02  0.9198503E-01
        2   -1    0    0  501    0  0.00000000000E+00  0.00000000000E+00  0.13296505681E+04  0.13296505681E+04  0.25500000920E-02 0.  1.
       -2   -1    0    0    0  501  0.00000000000E+00  0.00000000000E+00 -0.23036185855E+03  0.23036185857E+03  0.25500000920E-02 0. -1.
    10030    2    1    2    0    0  0.00000000000E+00  0.00000000000E+00  0.10992887095E+04  0.15600124267E+04  0.11068889305E+04 0.  0.
        1    1    3    3  502    0  0.22359546701E+03 -0.17617110174E+03 -0.11927735960E+03  0.30863939881E+03  0.50400001928E-02 0. -1.
       -1    1    3    3    0  502 -0.22359546701E+03  0.17617110174E+03  0.12185660691E+04  0.12513730279E+04  0.50400001928E-02 0.  1.
</event>
<event>
 5   0  0.2185750E-03  0.1093208E+04  0.7818609E-02  0.9211837E-01
        3   -1    0    0  501    0  0.00000000000E+00  0.00000000000E+00  0.19628939312E+04  0.19628939338E+04  0.10100000352E+00 0.  1.
       -3   -1    0    0    0  501  0.00000000000E+00  0.00000000000E+00 -0.15221198014E+03  0.15221201365E+03  0.10100000352E+00 0. -1.
    10030    2    1    2    0    0  0.00000000000E+00  0.00000000000E+00  0.18106819511E+04  0.21151059475E+04  0.10932081417E+04 0.  0.
        1    1    3    3  502    0 -0.81332174263E+02 -0.25931393515E+03  0.18229142760E+04  0.18430613384E+04  0.50400001928E-02 0.  1.
       -1    1    3    3    0  502  0.81332174263E+02  0.25931393515E+03 -0.12232324882E+02  0.27204460908E+03  0.50400001928E-02 0. -1.
</event>
<event>
 5   0  0.3241189E-03  0.1085962E+04  0.7818609E-02  0.9218983E-01
       -1   -1    0    0    0  501  0.00000000000E+00  0.00000000000E+00  0.31690395981E+03  0.31690395985E+03  0.50400001928E-02 0.  1.
        1   -1    0    0  501    0  0.00000000000E+00  0.00000000000E+00 -0.93034039483E+03  0.93034039484E+03  0.50400001928E-02 0. -1.
    10030    2    1    2    0    0  0.00000000000E+00  0.00000000000E+00 -0.61343643502E+03  0.12472443547E+04  0.10859623476E+04 0.  0.
        5    1    3    3  502    0 -0.97998082924E+02  0.24057837535E+03  0.24087778659E+03  0.35429617132E+03  0.46999998093E+01 0.  1.
       -5    1    3    3    0  502  0.97998082924E+02 -0.24057837535E+03 -0.85431422161E+03  0.89294818337E+03  0.46999998093E+01 0. -1.
</event>
<event>
 5   0  0.5500363E-03  0.1081296E+04  0.7818609E-02  0.9223616E-01
       -2   -1    0    0    0  501  0.00000000000E+00  0.00000000000E+00  0.16236671458E+03  0.16236671460E+03  0.25500000920E-02 0.  1.
        2   -1    0    0  501    0  0.00000000000E+00  0.00000000000E+00 -0.18002475666E+04  0.18002475666E+04  0.25500000920E-02 0. -1.
    10030    2    1    2    0    0  0.00000000000E+00  0.00000000000E+00 -0.16378808521E+04  0.19626142812E+04  0.10812960424E+04 0.  0.
        3    1    3    3  502    0  0.14738888747E+02 -0.65390821570E+02  0.15479523762E+03  0.16868541780E+03  0.10100000352E+00 0.  1.
       -3    1    3    3    0  502 -0.14738888747E+02  0.65390821570E+02 -0.17926760897E+04  0.17939288635E+04  0.10100000352E+00 0. -1.
</event>
<event>
 5   0  0.3215352E-03  0.1113742E+04  0.7818609E-02  0.9191900E-01
       -1   -1    0    0    0  501  0.00000000000E+00  0.00000000000E+00  0.38377463296E+03  0.38377463299E+03  0.50400001928E-02 0.  1.
        1   -1    0    0  501    0  0.00000000000E+00  0.00000000000E+00 -0.80804058957E+03  0.80804058959E+03  0.50400001928E-02 0. -1.
    10030    2    1    2    0    0  0.00000000000E+00  0.00000000000E+00 -0.42426595661E+03  0.11918152226E+04  0.11137423054E+04 0.  0.
        1    1    3    3  502    0 -0.30007782479E+03  0.35182270202E+03  0.11990768576E+03  0.47770678007E+03  0.50400001928E-02 0.  1.
       -1    1    3    3    0  502  0.30007782479E+03 -0.35182270202E+03 -0.54417364237E+03  0.71410844251E+03  0.50400001928E-02 0. -1.
</event>
<event>
 5   0  0.3241189E-03  0.1094463E+04  0.7818609E-02  0.9210606E-01
        1   -1    0    0  501    0  0.00000000000E+00  0.00000000000E+00  0.12545066527E+04  0.12545066527E+04  0.50400001928E-02 0. -1.
       -1   -1    0    0    0  501  0.00000000000E+00  0.00000000000E+00 -0.23870914788E+03  0.23870914793E+03  0.50400001928E-02 0.  1.
    10030    2    1    2    0    0  0.00000000000E+00  0.00000000000E+00  0.10157975048E+04  0.14932158006E+04  0.10944628164E+04 0.  0.
        5    1    3    3  502    0  0.19546290490E+03 -0.46577470742E+03  0.79502048435E+03  0.94192966075E+03  0.46999998093E+01 0. -1.
       -5    1    3    3    0  502 -0.19546290490E+03  0.46577470742E+03  0.22077702046E+03  0.55128613988E+03  0.46999998093E+01 0.  1.
</event>
<event>
 5   0  0.2185750E-03  0.1093796E+04  0.7818609E-02  0.9211260E-01
       -3   -1    0    0    0  501  0.00000000000E+00  0.00000000000E+00  0.90956698791E+03  0.90956699352E+03  0.10100000352E+00 0.  1.
        3   -1    0    0  501    0  0.00000000000E+00  0.00000000000E+00 -0.32883469222E+03  0.32883470773E+03  0.10100000352E+00 0. -1.
    10030    2    1    2    0    0  0.00000000000E+00  0.00000000000E+00  0.58073229569E+03  0.12384017013E+04  0.10937955816E+04 0.  0.
        5    1    3    3  502    0  0.74354272518E+02  0.10686889440E+03  0.89174286734E+03  0.90120860508E+03  0.46999998093E+01 0.  1.
       -5    1    3    3    0  502 -0.74354272518E+02 -0.10686889440E+03 -0.31101057164E+03  0.33719309617E+03  0.46999998093E+01 0. -1.
</event>
<event>
 5   0  0.5941585E-03  0.1106714E+04  0.7818609E-02  0.9198673E-01
        2   -1    0    0  501    0  0.00000000000E+00  0.00000000000E+00  0.76230012065E+03  0.76230012065E+03  0.25500000920E-02 0. -1.
       -2   -1    0    0    0  501  0.00000000000E+00  0.00000000000E+00 -0.40168425209E+03  0.40168425210E+03  0.25500000920E-02 0.  1.
    10030    2    1    2    0    0  0.00000000000E+00  0.00000000000E+00  0.36061586856E+03  0.11639843727E+04  0.11067139718E+04 0.  0.
        5    1    3    3  502    0 -0.15193664063E+03  0.44245780568E+03  0.49111368031E+03  0.67828341389E+03  0.46999998093E+01 0. -1.
       -5    1    3    3    0  502  0.15193664063E+03 -0.44245780568E+03 -0.13049781174E+03  0.48570095886E+03  0.46999998093E+01 0.  1.
</event>
<event>
 5   0  0.3215352E-03  0.1105249E+04  0.7818609E-02  0.9200091E-01
       -1   -1    0    0    0  501  0.00000000000E+00  0.00000000000E+00  0.79640487176E+03  0.79640487178E+03  0.50400001928E-02 0.  1.
        1   -1    0    0  501    0  0.00000000000E+00  0.00000000000E+00 -0.38346578153E+03  0.38346578156E+03  0.50400001928E-02 0. -1.
    10030    2    1    2    0    0  0.00000000000E+00  0.00000000000E+00  0.41293909023E+03  0.11798706533E+04  0.11052493232E+04 0.  0.
        1    1    3    3  502    0  0.55522987012E+02  0.50518053564E+03 -0.25217794221E+02  0.50884782877E+03  0.50400001928E-02 0. -1.
       -1    1    3    3    0  502 -0.55522987012E+02 -0.50518053564E+03  0.43815688445E+03  0.67102282457E+03  0.50400001928E-02 0.  1.
</event>
<event>
 5   0  0.3241189E-03  0.1115607E+04  0.7818609E-02  0.9190112E-01
       -1   -1    0    0    0  501  0.00000000000E+00  0.00000000000E+00  0.80343637810E+03  0.80343637812E+03  0.50400001928E-02 0. -1.
        1   -1    0    0  501    0  0.00000000000E+00  0.00000000000E+00 -0.38726775805E+03  0.38726775808E+03  0.50400001928E-02 0.  1.
    10030    2    1    2    0    0  0.00000000000E+00  0.00000000000E+00  0.41616862006E+03  0.11907041362E+04  0.11156074666E+04 0.  0.
        5    1    3    3  502    0  0.54780067038E+03  0.72669939976E+01  0.31994647342E+03  0.63444954056E+03  0.46999998093E+01 0. -1.
       -5    1    3    3    0  502 -0.54780067038E+03 -0.72669939976E+01  0.96222146641E+02  0.55625459564E+03  0.46999998093E+01 0.  1.
</event>
<event>
 5   0  0.3328741E-03  0.1070691E+04  0.7818609E-02  0.9234238E-01
       -1   -1    0    0    0  501  0.00000000000E+00  0.00000000000E+00  0.14070336748E+03  0.14070336757E+03  0.50400001928E-02 0.  1.
        1   -1    0    0  501    0  0.00000000000E+00  0.00000000000E+00 -0.20368739293E+04  0.20368739293E+04  0.50400001928E-02 0. -1.
    10030    2    1    2    0    0  0.00000000000E+00  0.00000000000E+00 -0.18961705618E+04  0.21775772968E+04  0.10706914048E+04 0.  0.
        3    1    3    3  502    0  0.45837117345E+03 -0.11601752254E+03 -0.43747951218E+03  0.64416809295E+03  0.10100000352E+00 0.  1.
       -3    1    3    3    0  502 -0.45837117345E+03  0.11601752254E+03 -0.14586910496E+04  0.15334092039E+04  0.10100000352E+00 0. -1.
</event>
<event>
 5   0  0.5946359E-03  0.1130582E+04  0.7818609E-02  0.9175887E-01
        2   -1    0    0  501    0  0.00000000000E+00  0.00000000000E+00  0.94970898693E+03  0.94970898693E+03  0.25500000920E-02 0. -1.
       -2   -1    0    0    0  501  0.00000000000E+00  0.00000000000E+00 -0.33647543254E+03  0.33647543255E+03  0.25500000920E-02 0.  1.
    10030    2    1    2    0    0  0.00000000000E+00  0.00000000000E+00  0.61323355439E+03  0.12861844195E+04  0.11305816948E+04 0.  0.
        4    1    3    3  502    0  0.91523517580E+02  0.69649172968E+02  0.93625663105E+03  0.94329510422E+03  0.12699999809E+01 0. -1.
       -4    1    3    3    0  502 -0.91523517580E+02 -0.69649172968E+02 -0.32302307666E+03  0.34288931527E+03  0.12699999809E+01 0.  1.
</event>
<event>
 5   0  0.3320192E-03  0.1077690E+04  0.7818609E-02  0.9227214E-01
        1   -1    0    0  501    0  0.00000000000E+00  0.00000000000E+00  0.68329185016E+03  0.68329185018E+03  0.50400001928E-02 0. -1.
       -1   -1    0    0    0  501  0.00000000000E+00  0.00000000000E+00 -0.42493387057E+03  0.42493387060E+03  0.50400001928E-02 0.  1.
    10030    2    1    2    0    0  0.00000000000E+00  0.00000000000E+00  0.25835797959E+03  0.11082257208E+04  0.10776898453E+04 0.  0.
        2    1    3    3  502    0 -0.23488004004E+03 -0.48229069051E+03  0.18142109095E+03  0.56629193497E+03  0.25500000920E-02 0.  1.
       -2    1    3    3    0  502  0.23488004004E+03  0.48229069051E+03  0.76936888639E+02  0.54193378581E+03  0.25500000920E-02 0. -1.
</event>
<event>
 5   0  0.2185750E-03  0.1096271E+04  0.7818609E-02  0.9208834E-01
        3   -1    0    0  501    0  0.00000000000E+00  0.00000000000E+00  0.45633499638E+03  0.45633500755E+03  0.10100000352E+00 0. -1.
       -3   -1    0    0    0  501  0.00000000000E+00  0.00000000000E+00 -0.65840339629E+03  0.65840340404E+03  0.10100000352E+00 0.  1.
    10030    2    1    2    0    0  0.00000000000E+00  0.00000000000E+00 -0.20206839992E+03  0.11147384116E+04  0.10962709921E+04 0.  0.
        4    1    3    3  502    0  0.66553737168E+02  0.49529559288E+03  0.12793403335E+03  0.51586418179E+03  0.12699999809E+01 0. -1.
       -4    1    3    3    0  502 -0.66553737168E+02 -0.49529559288E+03 -0.33000243327E+03  0.59887422980E+03  0.12699999809E+01 0.  1.
</event>
<event>
 5   0  0.5723194E-03  0.1112474E+04  0.7818609E-02  0.9193119E-01
        2   -1    0    0  501    0  0.00000000000E+00  0.00000000000E+00  0.43857834211E+03  0.43857834211E+03  0.25500000920E-02 0. -1.
       -2   -1    0    0    0  501  0.00000000000E+00  0.00000000000E+00 -0.70546004263E+03  0.70546004263E+03  0.25500000920E-02 0.  1.
    10030    2    1    2    0    0  0.00000000000E+00  0.00000000000E+00 -0.26688170052E+03  0.11440383847E+04  0.11124738126E+04 0.  0.
        1    1    3    3  502    0  0.85870927323E+02 -0.47354173665E+03 -0.42025175947E+03  0.63892654810E+03  0.50400001928E-02 0.  1.
       -1    1    3    3    0  502 -0.85870927323E+02  0.47354173665E+03  0.15337005895E+03  0.50511183664E+03  0.50400001928E-02 0. -1.
</event>
<event>
 5   0  0.5723194E-03  0.1108185E+04  0.7818609E-02  0.9197251E-01
        2   -1    0    0  501    0  0.00000000000E+00  0.00000000000E+00  0.12933553616E+04  0.12933553616E+04  0.25500000920E-02 0.  1.
       -2   -1    0    0    0  501  0.00000000000E+00  0.00000000000E+00 -0.23738123617E+03  0.23738123619E+03  0.25500000920E-02 0. -1.
    10030    2    1    2    0    0  0.00000000000E+00  0.00000000000E+00  0.10559741254E+04  0.15307365978E+04  0.11081846318E+04 0.  0.
        1    1    3    3  502    0  0.43770741770E+03 -0.22412898568E+03  0.88068358625E+03  0.10086749550E+04  0.50400001928E-02 0.  1.
       -1    1    3    3    0  502 -0.43770741770E+03  0.22412898568E+03  0.17529053919E+03  0.52206164280E+03  0.50400001928E-02 0. -1.
</event>
<event>
 5   0  0.5946359E-03  0.1299408E+04  0.7818609E-02  0.9030035E-01
        2   -1    0    0  501    0  0.00000000000E+00  0.00000000000E+00  0.45405263041E+03  0.45405263042E+03  0.25500000920E-02 0.  1.
       -2   -1    0    0    0  501  0.00000000000E+00  0.00000000000E+00 -0.92966199545E+03  0.92966199546E+03  0.25500000920E-02 0. -1.
    10030    2    1    2    0    0  0.00000000000E+00  0.00000000000E+00 -0.47560936504E+03  0.13837146259E+04  0.12994082875E+04 0.  0.
        4    1    3    3  502    0  0.48524445044E+02 -0.15260238236E+03 -0.90831740774E+03  0.92232544960E+03  0.12699999809E+01 0. -1.
       -4    1    3    3    0  502 -0.48524445044E+02  0.15260238236E+03  0.43270804270E+03  0.46138917627E+03  0.12699999809E+01 0.  1.
</event>
<event>
 5   0  0.5627232E-03  0.1058762E+04  0.7818609E-02  0.9246344E-01
       -2   -1    0    0    0  501  0.00000000000E+00  0.00000000000E+00  0.40079939070E+03  0.40079939070E+03  0.25500000920E-02 0.  1.
        2   -1    0    0  501    0  0.00000000000E+00  0.00000000000E+00 -0.69921375471E+03  0.69921375472E+03  0.25500000920E-02 0. -1.
    10030    2    1    2    0    0  0.00000000000E+00  0.00000000000E+00 -0.29841436402E+03  0.11000131454E+04  0.10587623848E+04 0.  0.
        2    1    3    3  502    0 -0.15246889107E+03  0.19906916747E+03  0.33518633926E+03  0.41859906619E+03  0.25500000920E-02 0.  1.
       -2    1    3    3    0  502  0.15246889107E+03 -0.19906916747E+03 -0.63360070327E+03  0.68141407923E+03  0.25500000920E-02 0. -1.
</event>
<event>
 5   0  0.5500363E-03  0.1103264E+04  0.7818609E-02  0.9202017E-01
       -2   -1    0    0    0  501  0.00000000000E+00  0.00000000000E+00  0.25606316273E+03  0.25606316274E+03  0.25500000920E-02 0. -1.
        2   -1    0    0  501    0  0.00000000000E+00  0.00000000000E+00 -0.11883694671E+04  0.11883694671E+04  0.25500000920E-02 0.  1.
    10030    2    1    2    0    0  0.00000000000E+00  0.00000000000E+00 -0.93230630440E+03  0.14444326299E+04  0.11032636027E+04 0.  0.
        3    1    3    3  502    0  0.43921266651E+03  0.14489610076E+03 -0.72521353589E+02  0.46814741628E+03  0.10100000352E+00 0. -1.
       -3    1    3    3    0  502 -0.43921266651E+03 -0.14489610076E+03 -0.85978495081E+03  0.97628521359E+03  0.10100000352E+00 0.  1.
</event>
<event>
 5   0  0.3328741E-03  0.1102948E+04  0.7818609E-02  0.9202323E-01
       -1   -1    0    0    0  501  0.00000000000E+00  0.00000000000E+00  0.11305238274E+04  0.11305238274E+04  0.50400001928E-02 0.  1.
        1   -1    0    0  501    0  0.00000000000E+00  0.00000000000E+00 -0.26901137260E+03  0.26901137265E+03  0.50400001928E-02 0. -1.
    10030    2    1    2    0    0  0.00000000000E+00  0.00000000000E+00  0.86151245479E+03  0.13995352000E+04  0.11029483517E+04 0.  0.
        3    1    3    3  502    0 -0.26199570535E+03  0.20500826059E+03  0.98886272704E+03  0.10433214460E+04  0.10100000352E+00 0.  1.
       -3    1    3    3    0  502  0.26199570535E+03 -0.20500826059E+03 -0.12735027225E+03  0.35621375405E+03  0.10100000352E+00 0. -1.
</event>
<event>
 5   0  0.3316784E-03  0.1098631E+04  0.7818609E-02  0.9206527E-01
       -1   -1    0    0    0  501  0.00000000000E+00  0.00000000000E+00  0.19463962292E+03  0.19463962298E+03  0.50400001928E-02 0.  1.
        1   -1    0    0  501    0  0.00000000000E+00  0.00000000000E+00 -0.15502884648E+04  0.15502884648E+04  0.50400001928E-02 0. -1.
    10030    2    1    2    0    0  0.00000000000E+00  0.00000000000E+00 -0.13556488418E+04  0.17449280878E+04  0.10986310796E+04 0.  0.
        4    1    3    3  502    0 -0.87442608599E+02  0.75391618281E+02 -0.15307972742E+04  0.15351456001E+04  0.12699999809E+01 0. -1.
       -4    1    3    3    0  502  0.87442608599E+02 -0.75391618281E+02  0.17514843231E+03  0.20978248770E+03  0.12699999809E+01 0.  1.
</event>
<event>
 5   0  0.5500363E-03  0.1084409E+04  0.7818609E-02  0.9220523E-01
       -2   -1    0    0    0  501  0.00000000000E+00  0.00000000000E+00  0.35268839663E+03  0.35268839664E+03  0.25500000920E-02 0.  1.
        2   -1    0    0  501    0  0.00000000000E+00  0.00000000000E+00 -0.83355581971E+03  0.83355581971E+03  0.25500000920E-02 0. -1.
    10030    2    1    2    0    0  0.00000000000E+00  0.00000000000E+00 -0.48086742308E+03  0.11862442164E+04  0.10844085311E+04 0.  0.
        3    1    3    3  502    0 -0.20574636279E+03  0.50704196334E+02  0.30551670758E+03  0.37181036852E+03  0.10100000352E+00 0.  1.
       -3    1    3    3    0  502  0.20574636279E+03 -0.50704196334E+02 -0.78638413066E+03  0.81443384783E+03  0.10100000352E+00 0. -1.
</event>
<event>
 5   0  0.5627232E-03  0.1079851E+04  0.7818609E-02  0.9225056E-01
        2   -1    0    0  501    0  0.00000000000E+00  0.00000000000E+00  0.14495543708E+04  0.14495543708E+04  0.25500000920E-02 0.  1.
       -2   -1    0    0    0  501  0.00000000000E+00  0.00000000000E+00 -0.20110984821E+03  0.20110984822E+03  0.25500000920E-02 0. -1.
    10030    2    1    2    0    0  0.00000000000E+00  0.00000000000E+00  0.12484445226E+04  0.16506642190E+04  0.10798512110E+04 0.  0.
        2    1    3    3  502    0  0.23683268487E+03 -0.17685497621E+01 -0.11746834341E+03  0.26437030866E+03  0.25500000920E-02 0. -1.
       -2    1    3    3    0  502 -0.23683268487E+03  0.17685497621E+01  0.13659128660E+04  0.13862939104E+04  0.25500000920E-02 0.  1.
</event>
<event>
 5   0  0.3215352E-03  0.1103418E+04  0.7818609E-02  0.9201867E-01
       -1   -1    0    0    0  501  0.00000000000E+00  0.00000000000E+00  0.75230742521E+03  0.75230742523E+03  0.50400001928E-02 0.  1.
        1   -1    0    0  501    0  0.00000000000E+00  0.00000000000E+00 -0.40459881343E+03  0.40459881346E+03  0.50400001928E-02 0. -1.
    10030    2    1    2    0    0  0.00000000000E+00  0.00000000000E+00  0.34770861179E+03  0.11569062387E+04  0.11034177660E+04 0.  0.
        1    1    3    3  502    0 -0.44786130053E+03 -0.34385613692E+02  0.50972755552E+03  0.67939995277E+03  0.50400001928E-02 0.  1.
       -1    1    3    3    0  502  0.44786130053E+03  0.34385613692E+02 -0.16201894373E+03  0.47750628592E+03  0.50400001928E-02 0. -1.
</event>
<event>
 5   0  0.5723194E-03  0.1176484E+04  0.7818609E-02  0.9133693E-01
       -2   -1    0    0    0  501  0.00000000000E+00  0.00000000000E+00  0.12711439420E+04  0.12711439420E+04  0.25500000920E-02 0. -1.
        2   -1    0    0  501    0  0.00000000000E+00  0.00000000000E+00 -0.27221830175E+03  0.27221830176E+03  0.25500000920E-02 0.  1.
    10030    2    1    2    0    0  0.00000000000E+00  0.00000000000E+00  0.99892564025E+03  0.15433622438E+04  0.11764839909E+04 0.  0.
        1    1    3    3  502    0 -0.57361124717E+03  0.10876282299E+03  0.59378269261E+03  0.83272870769E+03  0.50400001928E-02 0. -1.
       -1    1    3    3    0  502  0.57361124717E+03 -0.10876282299E+03  0.40514294764E+03  0.71063353608E+03  0.50400001928E-02 0.  1.
</event>
<event>
 5   0  0.3320192E-03  0.1087168E+04  0.7818609E-02  0.9217789E-01
        1   -1    0    0  501    0  0.00000000000E+00  0.00000000000E+00  0.46070111880E+03  0.46070111883E+03  0.50400001928E-02 0.  1.
       -1   -1    0    0    0  501  0.00000000000E+00  0.00000000000E+00 -0.64137857693E+03  0.64137857695E+03  0.50400001928E-02 0. -1.
    10030    2    1    2    0    0  0.00000000000E+00  0.00000000000E+00 -0.18067745813E+03  0.11020796958E+04  0.10871684837E+04 0.  0.
        2    1    3    3  502    0  0.43660989337E+03 -0.13313797410E+03 -0.38956503912E+03  0.60009569141E+03  0.25500000920E-02 0. -1.
       -2    1    3    3    0  502 -0.43660989337E+03  0.13313797410E+03  0.20888758099E+03  0.50198400437E+03  0.25500000920E-02 0.  1.
</event>
<event>
 5   0  0.5941585E-03  0.1139623E+04  0.7818609E-02  0.9167411E-01
       -2   -1    0    0    0  501  0.00000000000E+00  0.00000000000E+00  0.17980598868E+03  0.17980598870E+03  0.25500000920E-02 0.  1.
        2   -1    0    0  501    0  0.00000000000E+00  0.00000000000E+00 -0.18057521697E+04  0.18057521697E+04  0.25500000920E-02 0. -1.
    10030    2    1    2    0    0  0.00000000000E+00  0.00000000000E+00 -0.16259461810E+04  0.19855581584E+04  0.11396228397E+04 0.  0.
        5    1    3    3  502    0 -0.15705762357E+03 -0.49718084158E+03 -0.12133486289E+04  0.13206410836E+04  0.46999998093E+01 0.  1.
       -5    1    3    3    0  502  0.15705762357E+03  0.49718084158E+03 -0.41259755203E+03  0.66491707475E+03  0.46999998093E+01 0. -1.
</event>
<event>
 5   0  0.3320192E-03  0.1051852E+04  0.7818609E-02  0.9253434E-01
        1   -1    0    0  501    0  0.00000000000E+00  0.00000000000E+00  0.38783102730E+03  0.38783102733E+03  0.50400001928E-02 0.  1.
       -1   -1    0    0    0  501  0.00000000000E+00  0.00000000000E+00 -0.71319195772E+03  0.71319195773E+03  0.50400001928E-02 0. -1.
    10030    2    1    2    0    0  0.00000000000E+00  0.00000000000E+00 -0.32536093042E+03  0.11010229851E+04  0.10518516429E+04 0.  0.
        2    1    3    3  502    0 -0.46921477217E+03 -0.22005020837E+03 -0.68978310985E+02  0.52282177080E+03  0.25500000920E-02 0. -1.
       -2    1    3    3    0  502  0.46921477217E+03  0.22005020837E+03 -0.25638261943E+03  0.57820121427E+03  0.25500000920E-02 0.  1.
</event>
<event>
 5   0  0.3328741E-03  0.1111433E+04  0.7818609E-02  0.9194120E-01
       -1   -1    0    0    0  501  0.00000000000E+00  0.00000000000E+00  0.32877724626E+03  0.32877724630E+03  0.50400001928E-02 0.  1.
        1   -1    0    0  501    0  0.00000000000E+00  0.00000000000E+00 -0.93930115295E+03  0.93930115297E+03  0.50400001928E-02 0. -1.
    10030    2    1    2    0    0  0.00000000000E+00  0.00000000000E+00 -0.61052390669E+03  0.12680783993E+04  0.11114330326E+04 0.  0.
        3    1    3    3  502    0 -0.48622114200E+03  0.21183988904E+03 -0.49458133753E+03  0.72518814603E+03  0.10100000352E+00 0. -1.
       -3    1    3    3    0  502  0.48622114200E+03 -0.21183988904E+03 -0.11594256916E+03  0.54289025323E+03  0.10100000352E+00 0.  1.
</event>
<event>
 5   0  0.3241189E-03  0.1098273E+04  0.7818609E-02  0.9206877E-01
       -1   -1    0    0    0  501  0.00000000000E+00  0.00000000000E+00  0.29482783324E+03  0.29482783328E+03  0.50400001928E-02 0. -1.
        1   -1    0    0  501    0  0.00000000000E+00  0.00000000000E+00 -0.10228030232E+04  0.10228030232E+04  0.50400001928E-02 0.  1.
    10030    2    1    2    0    0  0.00000000000E+00  0.00000000000E+00 -0.72797518992E+03  0.13176308564E+04  0.10982728244E+04 0.  0.
        5    1    3    3  502    0  0.39962776616E+03  0.10769613004E+03 -0.79693539769E+03  0.89801387852E+03  0.46999998093E+01 0.  1.
       -5    1    3    3    0  502 -0.39962776616E+03 -0.10769613004E+03  0.68960207773E+02  0.41961697793E+03  0.46999998093E+01 0. -1.
</event>
<event>
 5   0  0.5723194E-03  0.1094256E+04  0.7818609E-02  0.9210809E-01
        2   -1    0    0  501    0  0.00000000000E+00  0.00000000000E+00  0.12339208841E+04  0.12339208841E+04  0.25500000920E-02 0. -1.
       -2   -1    0    0    0  501  0.00000000000E+00  0.00000000000E+00 -0.24259968584E+03  0.24259968586E+03  0.25500000920E-02 0.  1.
    10030    2    1    2    0    0  0.00000000000E+00  0.00000000000E+00  0.99132119830E+03  0.14765205700E+04  0.10942555805E+04 0.  0.
        1    1    3    3  502    0  0.11227418157E+03  0.52302169530E+03  0.34068261209E+03  0.63420960873E+03  0.50400001928E-02 0.  1.
       -1    1    3    3    0  502 -0.11227418157E+03 -0.52302169530E+03  0.65063858622E+03  0.84231096128E+03  0.50400001928E-02 0. -1.
</event>
<event>
 5   0  0.3328741E-03  0.1071485E+04  0.7818609E-02  0.9233439E-01
       -1   -1    0    0    0  501  0.00000000000E+00  0.00000000000E+00  0.57449779116E+03  0.57449779118E+03  0.50400001928E-02 0. -1.
        1   -1    0    0  501    0  0.00000000000E+00  0.00000000000E+00 -0.49960166367E+03  0.49960166370E+03  0.50400001928E-02 0.  1.
    10030    2    1    2    0    0  0.00000000000E+00  0.00000000000E+00  0.74896127489E+02  0.10740994549E+04  0.10714850485E+04 0.  0.
        3    1    3    3  502    0  0.44817602229E+03  0.25943569200E+03  0.17508353653E+03  0.54664694292E+03  0.10100000352E+00 0. -1.
       -3    1    3    3    0  502 -0.44817602229E+03 -0.25943569200E+03 -0.10018740904E+03  0.52745251196E+03  0.10100000352E+00 0.  1.
</event>
<event>
 5   0  0.5627232E-03  0.1085733E+04  0.7818609E-02  0.9219210E-01
        2   -1    0    0  501    0  0.00000000000E+00  0.00000000000E+00  0.19715772378E+04  0.19715772378E+04  0.25500000920E-02 0.  1.
       -2   -1    0    0    0  501  0.00000000000E+00  0.00000000000E+00 -0.14947629864E+03  0.14947629866E+03  0.25500000920E-02 0. -1.
    10030    2    1    2    0    0  0.00000000000E+00  0.00000000000E+00  0.18221009392E+04  0.21210535365E+04  0.10857330575E+04 0.  0.
        2    1    3    3  502    0  0.10591150988E+03 -0.41562034652E+03  0.26093025845E+03  0.50203796684E+03  0.25500000920E-02 0. -1.
       -2    1    3    3    0  502 -0.10591150988E+03  0.41562034652E+03  0.15611706808E+04  0.16190155697E+04  0.25500000920E-02 0.  1.
</event>
<event>
 5   0  0.3316784E-03  0.1102121E+04  0.7818609E-02  0.9203127E-01
        1   -1    0    0  501    0  0.00000000000E+00  0.00000000000E+00  0.96894148707E+03  0.96894148708E+03  0.50400001928E-02 0. -1.
       -1   -1    0    0    0  501  0.00000000000E+00  0.00000000000E+00 -0.31340143904E+03  0.31340143908E+03  0.50400001928E-02 0.  1.
    10030    2    1    2    0    0  0.00000000000E+00  0.00000000000E+00  0.65554004803E+03  0.12823429262E+04  0.11021209669E+04 0.  0.
        4    1    3    3  502    0 -0.87890398140E+02  0.53964254216E+03  0.40776802143E+03  0.68206683514E+03  0.12699999809E+01 0. -1.
       -4    1    3    3    0  502  0.87890398140E+02 -0.53964254216E+03  0.24777202660E+03  0.60027609102E+03  0.12699999809E+01 0.  1.
</event>
<event>
 5   0  0.3241189E-03  0.1105022E+04  0.7818609E-02  0.9200311E-01
       -1   -1    0    0    0  501  0.00000000000E+00  0.00000000000E+00  0.78349852600E+03  0.78349852602E+03  0.50400001928E-02 0.  1.
        1   -1    0    0  501    0  0.00000000000E+00  0.00000000000E+00 -0.38962187725E+03  0.38962187728E+03  0.50400001928E-02 0. -1.
    10030    2    1    2    0    0  0.00000000000E+00  0.00000000000E+00  0.39387664876E+03  0.11731204033E+04  0.11050215682E+04 0.  0.
        5    1    3    3  502    0  0.20402228183E+03  0.44036519433E+03  0.47721477215E+03  0.68066337099E+03  0.46999998093E+01 0.  1.
       -5    1    3    3    0  502 -0.20402228183E+03 -0.44036519433E+03 -0.83338123389E+02  0.49245703231E+03  0.46999998093E+01 0. -1.
</event>
<event>
 5   0  0.5941585E-03  0.1092822E+04  0.7818609E-02  0.9212217E-01
       -2   -1    0    0    0  501  0.00000000000E+00  0.00000000000E+00  0.15852832663E+03  0.15852832665E+03  0.25500000920E-02 0.  1.
        2   -1    0    0  501    0  0.00000000000E+00  0.00000000000E+00 -0.18833529098E+04  0.18833529098E+04  0.25500000920E-02 0. -1.
    10030    2    1    2    0    0  0.00000000000E+00  0.00000000000E+00 -0.17248245832E+04  0.20418812365E+04  0.10928216419E+04 0.  0.
        5    1    3    3  502    0  0.16555079868E+03  0.22963204528E+02 -0.18343798361E+04  0.18419842151E+04  0.46999998093E+01 0. -1.
       -5    1    3    3    0  502 -0.16555079868E+03 -0.22963204528E+02  0.10955525290E+03  0.19989702134E+03  0.46999998093E+01 0.  1.
</event>
<event>
 5   0  0.3241189E-03  0.9672228E+03  0.7818609E-02  0.9345243E-01
        1   -1    0    0  501    0  0.00000000000E+00  0.00000000000E+00  0.51861189684E+03  0.51861189686E+03  0.50400001928E-02 0. -1.
       -1   -1    0    0    0  501  0.00000000000E+00  0.00000000000E+00 -0.45097309010E+03  0.45097309013E+03  0.50400001928E-02 0.  1.
    10030    2    1    2    0    0  0.00000000000E+00  0.00000000000E+00  0.67638806735E+02  0.96958498699E+03  0.96722284859E+03 0.  0.
        5    1    3    3  502    0  0.21299549746E+03 -0.31644238169E+03 -0.26415231145E+03  0.46400581517E+03  0.46999998093E+01 0.  1.
       -5    1    3    3    0  502 -0.21299549746E+03  0.31644238169E+03  0.33179111819E+03  0.50557917182E+03  0.46999998093E+01 0. -1.
</event>
<event>
 5   0  0.3320192E-03  0.1145469E+04  0.7818609E-02  0.9161974E-01
       -1   -1    0    0    0  501  0.00000000000E+00  0.00000000000E+00  0.12746020948E+04  0.12746020948E+04  0.50400001928E-02 0. -1.
        1   -1    0    0  501    0  0.00000000000E+00  0.00000000000E+00 -0.25735471040E+03  0.25735471044E+03  0.50400001928E-02 0.  1.
    10030    2    1    2    0    0  0.00000000000E+00  0.00000000000E+00  0.10172473844E+04  0.15319568053E+04  0.11454690795E+04 0.  0.
        2    1    3    3  502    0  0.47868150700E+03  0.25237692807E+03  0.25772285118E+03  0.59937564764E+03  0.25500000920E-02 0.  1.
       -2    1    3    3    0  502 -0.47868150700E+03 -0.25237692807E+03  0.75952453325E+03  0.93258115763E+03  0.25500000920E-02 0. -1.
</event>
<event>
 5   0  0.5723194E-03  0.1096350E+04  0.7818609E-02  0.9208757E-01
       -2   -1    0    0    0  501  0.00000000000E+00  0.00000000000E+00  0.28043758298E+03  0.28043758299E+03  0.25500000920E-02 0. -1.
        2   -1    0    0  501    0  0.00000000000E+00  0.00000000000E+00 -0.10715246500E+04  0.10715246500E+04  0.25500000920E-02 0.  1.
    10030    2    1    2    0    0  0.00000000000E+00  0.00000000000E+00 -0.79108706705E+03  0.13519622330E+04  0.10963499131E+04 0.  0.
        1    1    3    3  502    0  0.25217727961E+03 -0.23919999222E+03 -0.91826725776E+03  0.98184763244E+03  0.50400001928E-02 0.  1.
       -1    1    3    3    0  502 -0.25217727961E+03  0.23919999222E+03  0.12718019070E+03  0.37011460058E+03  0.50400001928E-02 0. -1.
</event>
<event>
 5   0  0.3316784E-03  0.1090769E+04  0.7818609E-02  0.9214236E-01
       -1   -1    0    0    0  501  0.00000000000E+00  0.00000000000E+00  0.44891800152E+03  0.44891800155E+03  0.50400001928E-02 0. -1.
        1   -1    0    0  501    0  0.00000000000E+00  0.00000000000E+00 -0.66257977107E+03  0.66257977109E+03  0.50400001928E-02 0.  1.
    10030    2    1    2    0    0  0.00000000000E+00  0.00000000000E+00 -0.21366176955E+03  0.11114977726E+04  0.10907685120E+04 0.  0.
        4    1    3    3  502    0  0.30920335403E+03  0.27824990369E+03 -0.46625588033E+03  0.62484068520E+03  0.12699999809E+01 0.  1.
       -4    1    3    3    0  502 -0.30920335403E+03 -0.27824990369E+03  0.25259411078E+03  0.48665708743E+03  0.12699999809E+01 0. -1.
</event>
<event>
 5   0  0.5723194E-03  0.1089604E+04  0.7818609E-02  0.9215384E-01
       -2   -1    0    0    0  501  0.00000000000E+00  0.00000000000E+00  0.34515497935E+03  0.34515497936E+03  0.25500000920E-02 0.  1.
        2   -1    0    0  501    0  0.00000000000E+00  0.00000000000E+00 -0.85992983579E+03  0.85992983580E+03  0.25500000920E-02 0. -1.
    10030    2    1    2    0    0  0.00000000000E+00  0.00000000000E+00 -0.51477485644E+03  0.12050848152E+04  0.10896037165E+04 0.  0.
        1    1    3    3  502    0  0.10585736054E+03  0.32591422884E+03  0.21103741595E+03  0.40244584269E+03  0.50400001928E-02 0.  1.
       -1    1    3    3    0  502 -0.10585736054E+03 -0.32591422884E+03 -0.72581227240E+03  0.80263897247E+03  0.50400001928E-02 0. -1.
</event>
<event>
 5   0  0.5723194E-03  0.1100933E+04  0.7818609E-02  0.9204283E-01
       -2   -1    0    0    0  501  0.00000000000E+00  0.00000000000E+00  0.32217890382E+03  0.32217890383E+03  0.25500000920E-02 0. -1.
        2   -1    0    0  501    0  0.00000000000E+00  0.00000000000E+00 -0.94051238378E+03  0.94051238379E+03  0.25500000920E-02 0.  1.
    10030    2    1    2    0    0  0.00000000000E+00  0.00000000000E+00 -0.61833347997E+03  0.12626912876E+04  0.11009327842E+04 0.  0.
        1    1    3    3  502    0  0.19385375689E+03 -0.48935299106E+03 -0.49398822359E+03  0.72185178118E+03  0.50400001928E-02 0.  1.
       -1    1    3    3    0  502 -0.19385375689E+03  0.48935299106E+03 -0.12434525637E+03  0.54083950644E+03  0.50400001928E-02 0. -1.
</event>
<event>
 5   0  0.3316784E-03  0.1086198E+04  0.7818609E-02  0.9218750E-01
       -1   -1    0    0    0  501  0.00000000000E+00  0.00000000000E+00  0.49072405667E+03  0.49072405670E+03  0.50400001928E-02 0.  1.
        1   -1    0    0  501    0  0.00000000000E+00  0.00000000000E+00 -0.60106394026E+03  0.60106394028E+03  0.50400001928E-02 0. -1.
    10030    2    1    2    0    0  0.00000000000E+00  0.00000000000E+00 -0.11033988358E+03  0.10917879970E+04  0.10861980208E+04 0.  0.
        4    1    3    3  502    0 -0.50990342128E+03  0.13165182578E+02 -0.24262394892E+03  0.56483875093E+03  0.12699999809E+01 0. -1.
       -4    1    3    3    0  502  0.50990342128E+03 -0.13165182578E+02  0.13228406534E+03  0.52694924604E+03  0.12699999809E+01 0.  1.
</event>
<event>
 5   0  0.3328741E-03  0.1079057E+04  0.7818609E-02  0.9225848E-01
       -1   -1    0    0    0  501  0.00000000000E+00  0.00000000000E+00  0.49650859098E+03  0.49650859100E+03  0.50400001928E-02 0.  1.
        1   -1    0    0  501    0  0.00000000000E+00  0.00000000000E+00 -0.58627576999E+03  0.58627577001E+03  0.50400001928E-02 0. -1.
    10030    2    1    2    0    0  0.00000000000E+00  0.00000000000E+00 -0.89767179011E+02  0.10827843610E+04  0.10790569151E+04 0.  0.
        3    1    3    3  502    0  0.63533212497E+02  0.40306281839E+03 -0.39908285274E+03  0.57075672419E+03  0.10100000352E+00 0.  1.
       -3    1    3    3    0  502 -0.63533212497E+02 -0.40306281839E+03  0.30931567373E+03  0.51202763682E+03  0.10100000352E+00 0. -1.
</event>
<event>
 5   0  0.5946359E-03  0.1103204E+04  0.7818609E-02  0.9202074E-01
       -2   -1    0    0    0  501  0.00000000000E+00  0.00000000000E+00  0.13501805535E+03  0.13501805538E+03  0.25500000920E-02 0. -1.
        2   -1    0    0  501    0  0.00000000000E+00  0.00000000000E+00 -0.22535129951E+04  0.22535129951E+04  0.25500000920E-02 0.  1.
    10030    2    1    2    0    0  0.00000000000E+00  0.00000000000E+00 -0.21184949397E+04  0.23885310505E+04  0.11032043190E+04 0.  0.
        4    1    3    3  502    0 -0.26934275232E+02 -0.28767266746E+03 -0.20765662812E+04  0.20965710462E+04  0.12699999809E+01 0.  1.
       -4    1    3    3    0  502  0.26934275232E+02  0.28767266746E+03 -0.41928658573E+02  0.29196000427E+03  0.12699999809E+01 0. -1.
</event>
<event>
 5   0  0.3316784E-03  0.1085449E+04  0.7818609E-02  0.9219492E-01
        1   -1    0    0  501    0  0.00000000000E+00  0.00000000000E+00  0.41153169583E+03  0.41153169587E+03  0.50400001928E-02 0. -1.
       -1   -1    0    0    0  501  0.00000000000E+00  0.00000000000E+00 -0.71573984104E+03  0.71573984105E+03  0.50400001928E-02 0.  1.
    10030    2    1    2    0    0  0.00000000000E+00  0.00000000000E+00 -0.30420814520E+03  0.11272715369E+04  0.10854485351E+04 0.  0.
        4    1    3    3  502    0  0.15228800693E+03 -0.16484869923E+03 -0.66529089230E+03  0.70212556923E+03  0.12699999809E+01 0.  1.
       -4    1    3    3    0  502 -0.15228800693E+03  0.16484869923E+03  0.36108274709E+03  0.42514596769E+03  0.12699999809E+01 0. -1.
</event>
<event>
 5   0  0.3215352E-03  0.1090185E+04  0.7818609E-02  0.9214811E-01
       -1   -1    0    0    0  501  0.00000000000E+00  0.00000000000E+00  0.53292345239E+03  0.53292345241E+03  0.50400001928E-02 0.  1.
        1   -1    0    0  501    0  0.00000000000E+00  0.00000000000E+00 -0.55753984240E+03  0.55753984242E+03  0.50400001928E-02 0. -1.
    10030    2    1    2    0    0  0.00000000000E+00  0.00000000000E+00 -0.24616390005E+02  0.10904632948E+04  0.10901854112E+04 0.  0.
        1    1    3    3  502    0 -0.53658715233E+03  0.70552064138E+02 -0.77307001281E+02  0.54669894666E+03  0.50400001928E-02 0.  1.
       -1    1    3    3    0  502  0.53658715233E+03 -0.70552064138E+02  0.52690611276E+02  0.54376434818E+03  0.50400001928E-02 0. -1.
</event>
<event>
 5   0  0.3241189E-03  0.8843144E+03  0.7818609E-02  0.9445404E-01
        1   -1    0    0  501    0  0.00000000000E+00  0.00000000000E+00  0.90222806515E+03  0.90222806516E+03  0.50400001928E-02 0. -1.
       -1   -1    0    0    0  501  0.00000000000E+00  0.00000000000E+00 -0.21668909625E+03  0.21668909631E+03  0.50400001928E-02 0.  1.
    10030    2    1    2    0    0  0.00000000000E+00  0.00000000000E+00  0.68553896890E+03  0.11189171615E+04  0.88431438773E+03 0.  0.
        5    1    3    3  502    0  0.25259411047E+03  0.18279819313E+03 -0.53858989514E+02  0.31645196287E+03  0.46999998093E+01 0.  1.
       -5    1    3    3    0  502 -0.25259411047E+03 -0.18279819313E+03  0.73939795841E+03  0.80246519860E+03  0.46999998093E+01 0. -1.
</event>
<event>
 5   0  0.5946359E-03  0.1085412E+04  0.7818609E-02  0.9219528E-01
       -2   -1    0    0    0  501  0.00000000000E+00  0.00000000000E+00  0.12595567551E+04  0.12595567551E+04  0.25500000920E-02 0. -1.
        2   -1    0    0  501    0  0.00000000000E+00  0.00000000000E+00 -0.23383603936E+03  0.23383603938E+03  0.25500000920E-02 0.  1.
    10030    2    1    2    0    0  0.00000000000E+00  0.00000000000E+00  0.10257207157E+04  0.14933927945E+04  0.10854119273E+04 0.  0.
        4    1    3    3  502    0 -0.38476247479E+03  0.36648931337E+03  0.36106699416E+03  0.64243876439E+03  0.12699999809E+01 0.  1.
       -4    1    3    3    0  502  0.38476247479E+03 -0.36648931337E+03  0.66465372156E+03  0.85095403007E+03  0.12699999809E+01 0. -1.
</event>
<event>
 5   0  0.5627232E-03  0.1093578E+04  0.7818609E-02  0.9211474E-01
       -2   -1    0    0    0  501  0.00000000000E+00  0.00000000000E+00  0.29522927120E+03  0.29522927121E+03  0.25500000920E-02 0. -1.
        2   -1    0    0  501    0  0.00000000000E+00  0.00000000000E+00 -0.10126978759E+04  0.10126978760E+04  0.25500000920E-02 0.  1.
    10030    2    1    2    0    0  0.00000000000E+00  0.00000000000E+00 -0.71746860475E+03  0.13079271472E+04  0.10935777172E+04 0.  0.
        2    1    3    3  502    0 -0.10426294641E+03 -0.33625378509E+03  0.14164968647E+03  0.37947595927E+03  0.25500000920E-02 0. -1.
       -2    1    3    3    0  502  0.10426294641E+03  0.33625378509E+03 -0.85911829122E+03  0.92845118789E+03  0.25500000920E-02 0.  1.
</event>
<event>
 5   0  0.3241189E-03  0.1013638E+04  0.7818609E-02  0.9293712E-01
       -1   -1    0    0    0  501  0.00000000000E+00  0.00000000000E+00  0.18788808265E+03  0.18788808272E+03  0.50400001928E-02 0.  1.
        1   -1    0    0  501    0  0.00000000000E+00  0.00000000000E+00 -0.13671195998E+04  0.13671195998E+04  0.50400001928E-02 0. -1.
    10030    2    1    2    0    0  0.00000000000E+00  0.00000000000E+00 -0.11792315171E+04  0.15550076825E+04  0.10136379638E+04 0.  0.
        5    1    3    3  502    0 -0.41902450362E+03 -0.16057122760E+03 -0.95095318966E+03  0.10515220933E+04  0.46999998093E+01 0. -1.
       -5    1    3    3    0  502  0.41902450362E+03  0.16057122760E+03 -0.22827832747E+03  0.50348558922E+03  0.46999998093E+01 0.  1.
</event>
<event>
 5   0  0.3215352E-03  0.1100158E+04  0.7818609E-02  0.9205038E-01
        1   -1    0    0  501    0  0.00000000000E+00  0.00000000000E+00  0.29066436456E+03  0.29066436461E+03  0.50400001928E-02 0. -1.
       -1   -1    0    0    0  501  0.00000000000E+00  0.00000000000E+00 -0.10410176356E+04  0.10410176356E+04  0.50400001928E-02 0.  1.
    10030    2    1    2    0    0  0.00000000000E+00  0.00000000000E+00 -0.75035327102E+03  0.13316820002E+04  0.11001576788E+04 0.  0.
        1    1    3    3  502    0 -0.44055561576E+03  0.31488912841E+03 -0.25818013632E+03  0.59991782486E+03  0.50400001928E-02 0. -1.
       -1    1    3    3    0  502  0.44055561576E+03 -0.31488912841E+03 -0.49217313470E+03  0.73176417534E+03  0.50400001928E-02 0.  1.
</event>
<event>
 5   0  0.5500363E-03  0.1089901E+04  0.7818609E-02  0.9215092E-01
        2   -1    0    0  501    0  0.00000000000E+00  0.00000000000E+00  0.18920263042E+04  0.18920263042E+04  0.25500000920E-02 0.  1.
       -2   -1    0    0    0  501  0.00000000000E+00  0.00000000000E+00 -0.15695915181E+03  0.15695915183E+03  0.25500000920E-02 0. -1.
    10030    2    1    2    0    0  0.00000000000E+00  0.00000000000E+00  0.17350671524E+04  0.20489854560E+04  0.10899006266E+04 0.  0.
        3    1    3    3  502    0 -0.16283720459E+02 -0.53285625830E+03  0.10799780402E+04  0.12043892764E+04  0.10100000352E+00 0. -1.
       -3    1    3    3    0  502  0.16283720459E+02  0.53285625830E+03  0.65508911214E+03  0.84459617960E+03  0.10100000352E+00 0.  1.
</event>
<event>
 5   0  0.5946359E-03  0.1091588E+04  0.7818609E-02  0.9213430E-01
       -2   -1    0    0    0  501  0.00000000000E+00  0.00000000000E+00  0.29476904906E+03  0.29476904907E+03  0.25500000920E-02 0. -1.
        2   -1    0    0  501    0  0.00000000000E+00  0.00000000000E+00 -0.10105916314E+04  0.10105916314E+04  0.25500000920E-02 0.  1.
    10030    2    1    2    0    0  0.00000000000E+00  0.00000000000E+00 -0.71582258231E+03  0.13053606805E+04  0.10915880801E+04 0.  0.
        4    1    3    3  502    0 -0.24393439537E+03  0.12000143797E+02 -0.94159890267E+03  0.97275798589E+03  0.12699999809E+01 0.  1.
       -4    1    3    3    0  502  0.24393439537E+03 -0.12000143797E+02  0.22577632036E+03  0.33260269456E+03  0.12699999809E+01 0. -1.
</event>
<event>
 5   0  0.5946359E-03  0.1086651E+04  0.7818609E-02  0.9218301E-01
        2   -1    0    0  501    0  0.00000000000E+00  0.00000000000E+00  0.32682756324E+03  0.32682756325E+03  0.25500000920E-02 0. -1.
       -2   -1    0    0    0  501  0.00000000000E+00  0.00000000000E+00 -0.90323729981E+03  0.90323729982E+03  0.25500000920E-02 0.  1.
    10030    2    1    2    0    0  0.00000000000E+00  0.00000000000E+00 -0.57640973657E+03  0.12300648631E+04  0.10866514542E+04 0.  0.
        4    1    3    3  502    0 -0.31208153797E+03 -0.41702013418E+03 -0.46320635289E+03  0.69703831811E+03  0.12699999809E+01 0.  1.
       -4    1    3    3    0  502  0.31208153797E+03  0.41702013418E+03 -0.11320338368E+03  0.53302654496E+03  0.12699999809E+01 0. -1.
</event>
<event>
 5   0  0.3328741E-03  0.1097066E+04  0.7818609E-02  0.9208057E-01
        1   -1    0    0  501    0  0.00000000000E+00  0.00000000000E+00  0.59830521290E+03  0.59830521292E+03  0.50400001928E-02 0. -1.
       -1   -1    0    0    0  501  0.00000000000E+00  0.00000000000E+00 -0.50290103762E+03  0.50290103765E+03  0.50400001928E-02 0.  1.
    10030    2    1    2    0    0  0.00000000000E+00  0.00000000000E+00  0.95404175276E+02  0.11012062506E+04  0.10970657454E+04 0.  0.
        3    1    3    3  502    0  0.64732777317E+02  0.50985866010E+03  0.24010786022E+03  0.56727240412E+03  0.10100000352E+00 0. -1.
       -3    1    3    3    0  502 -0.64732777317E+02 -0.50985866010E+03 -0.14470368494E+03  0.53393384644E+03  0.10100000352E+00 0.  1.
</event>
<event>
 5   0  0.3328741E-03  0.1118555E+04  0.7818609E-02  0.9187293E-01
       -1   -1    0    0    0  501  0.00000000000E+00  0.00000000000E+00  0.28366866506E+03  0.28366866510E+03  0.50400001928E-02 0.  1.
        1   -1    0    0  501    0  0.00000000000E+00  0.00000000000E+00 -0.11026645627E+04  0.11026645627E+04  0.50400001928E-02 0. -1.
    10030    2    1    2    0    0  0.00000000000E+00  0.00000000000E+00 -0.81899589765E+03  0.13863332278E+04  0.11185551118E+04 0.  0.
        3    1    3    3  502    0 -0.25679429630E+03 -0.10211047761E+03 -0.10121321048E+04  0.10491812369E+04  0.10100000352E+00 0. -1.
       -3    1    3    3    0  502  0.25679429630E+03  0.10211047761E+03  0.19313620712E+03  0.33715199088E+03  0.10100000352E+00 0.  1.
</event>
<event>
 5   0  0.3215352E-03  0.1089615E+04  0.7818609E-02  0.9215373E-01
        1   -1    0    0  501    0  0.00000000000E+00  0.00000000000E+00  0.12098371525E+04  0.12098371525E+04  0.50400001928E-02 0.  1.
       -1   -1    0    0    0  501  0.00000000000E+00  0.00000000000E+00 -0.24533490980E+03  0.24533490985E+03  0.50400001928E-02 0. -1.
    10030    2    1    2    0    0  0.00000000000E+00  0.00000000000E+00  0.96450224266E+03  0.14551720623E+04  0.10896151407E+04 0.  0.
        1    1    3    3  502    0 -0.10393730994E+03 -0.36084959380E+03  0.10093896974E+04  0.10769786232E+04  0.50400001928E-02 0.  1.
       -1    1    3    3    0  502  0.10393730994E+03  0.36084959380E+03 -0.44887454706E+02  0.37819343908E+03  0.50400001928E-02 0. -1.
</event>
<event>
 5   0  0.3320192E-03  0.1103539E+04  0.7818609E-02  0.9201749E-01
       -1   -1    0    0    0  501  0.00000000000E+00  0.00000000000E+00  0.28206993324E+03  0.28206993328E+03  0.50400001928E-02 0.  1.
        1   -1    0    0  501    0  0.00000000000E+00  0.00000000000E+00 -0.10793415936E+04  0.10793415936E+04  0.50400001928E-02 0. -1.
    10030    2    1    2    0    0  0.00000000000E+00  0.00000000000E+00 -0.79727166034E+03  0.13614115269E+04  0.11035394171E+04 0.  0.
        2    1    3    3  502    0 -0.43824157666E+03 -0.13653033600E+03 -0.77637806689E+03  0.90191968319E+03  0.25500000920E-02 0. -1.
       -2    1    3    3    0  502  0.43824157666E+03  0.13653033600E+03 -0.20893593449E+02  0.45949184369E+03  0.25500000920E-02 0.  1.
</event>
<event>
 5   0  0.5500363E-03  0.1089810E+04  0.7818609E-02  0.9215181E-01
       -2   -1    0    0    0  501  0.00000000000E+00  0.00000000000E+00  0.77919308541E+03  0.77919308541E+03  0.25500000920E-02 0.  1.
        2   -1    0    0  501    0  0.00000000000E+00  0.00000000000E+00 -0.38106245605E+03  0.38106245606E+03  0.25500000920E-02 0. -1.
    10030    2    1    2    0    0  0.00000000000E+00  0.00000000000E+00  0.39813062936E+03  0.11602555415E+04  0.10898095813E+04 0.  0.
        3    1    3    3  502    0 -0.39963628514E+03 -0.41123266202E+02 -0.19286262800E+03  0.44564143311E+03  0.10100000352E+00 0. -1.
       -3    1    3    3    0  502  0.39963628514E+03  0.41123266202E+02  0.59099325736E+03  0.71461410836E+03  0.10100000352E+00 0.  1.
</event>
<event>
 5   0  0.5500363E-03  0.1098129E+04  0.7818609E-02  0.9207017E-01
       -2   -1    0    0    0  501  0.00000000000E+00  0.00000000000E+00  0.56937477696E+03  0.56937477696E+03  0.25500000920E-02 0. -1.
        2   -1    0    0  501    0  0.00000000000E+00  0.00000000000E+00 -0.52947915204E+03  0.52947915205E+03  0.25500000920E-02 0.  1.
    10030    2    1    2    0    0  0.00000000000E+00  0.00000000000E+00  0.39895624917E+02  0.10988539290E+04  0.10981294534E+04 0.  0.
        3    1    3    3  502    0  0.28880769972E+03 -0.14232180804E+03 -0.42510023657E+03  0.53326879319E+03  0.10100000352E+00 0.  1.
       -3    1    3    3    0  502 -0.28880769972E+03  0.14232180804E+03  0.46499586149E+03  0.56558513582E+03  0.10100000352E+00 0. -1.
</event>
<event>
 5   0  0.3328741E-03  0.1088729E+04  0.7818609E-02  0.9216247E-01
       -1   -1    0    0    0  501  0.00000000000E+00  0.00000000000E+00  0.46501165499E+03  0.46501165502E+03  0.50400001928E-02 0.  1.
        1   -1    0    0  501    0  0.00000000000E+00  0.00000000000E+00 -0.63725917243E+03  0.63725917245E+03  0.50400001928E-02 0. -1.
    10030    2    1    2    0    0  0.00000000000E+00  0.00000000000E+00 -0.17224751744E+03  0.11022708275E+04  0.10887294291E+04 0.  0.
        3    1    3    3  502    0  0.18224704042E+03 -0.29714511850E+02 -0.60458286164E+03  0.63215297416E+03  0.10100000352E+00 0. -1.
       -3    1    3    3    0  502 -0.18224704042E+03  0.29714511850E+02  0.43233534419E+03  0.47011785331E+03  0.10100000352E+00 0.  1.
</event>
<event>
 5   0  0.5627232E-03  0.1095842E+04  0.7818609E-02  0.9209254E-01
       -2   -1    0    0    0  501  0.00000000000E+00  0.00000000000E+00  0.32135899770E+03  0.32135899771E+03  0.25500000920E-02 0.  1.
        2   -1    0    0  501    0  0.00000000000E+00  0.00000000000E+00 -0.93421252383E+03  0.93421252383E+03  0.25500000920E-02 0. -1.
    10030    2    1    2    0    0  0.00000000000E+00  0.00000000000E+00 -0.61285352612E+03  0.12555715215E+04  0.10958423250E+04 0.  0.
        2    1    3    3  502    0 -0.58087855081E+02  0.27869305673E+03 -0.84282518140E+03  0.88960570208E+03  0.25500000920E-02 0.  1.
       -2    1    3    3    0  502  0.58087855081E+02 -0.27869305673E+03  0.22997165527E+03  0.36596581946E+03  0.25500000920E-02 0. -1.
</event>
<event>
 5   0  0.5723194E-03  0.1103553E+04  0.7818609E-02  0.9201736E-01
        2   -1    0    0  501    0  0.00000000000E+00  0.00000000000E+00  0.91927465740E+03  0.91927465740E+03  0.25500000920E-02 0. -1.
       -2   -1    0    0    0  501  0.00000000000E+00  0.00000000000E+00 -0.33119289948E+03  0.33119289949E+03  0.25500000920E-02 0.  1.
    10030    2    1    2    0    0  0.00000000000E+00  0.00000000000E+00  0.58808175791E+03  0.12504675569E+04  0.11035528790E+04 0.  0.
        1    1    3    3  502    0 -0.54363848555E+03  0.57305966224E+02  0.20901496408E+03  0.58524698373E+03  0.50400001928E-02 0.  1.
       -1    1    3    3    0  502  0.54363848555E+03 -0.57305966224E+02  0.37906679384E+03  0.66522057316E+03  0.50400001928E-02 0. -1.
</event>
<event>
 5   0  0.5946359E-03  0.1095937E+04  0.7818609E-02  0.9209161E-01
        2   -1    0    0  501    0  0.00000000000E+00  0.00000000000E+00  0.10527915987E+04  0.10527915987E+04  0.25500000920E-02 0.  1.
       -2   -1    0    0    0  501  0.00000000000E+00  0.00000000000E+00 -0.28521273711E+03  0.28521273712E+03  0.25500000920E-02 0. -1.
    10030    2    1    2    0    0  0.00000000000E+00  0.00000000000E+00  0.76757886155E+03  0.13380043358E+04  0.10959371761E+04 0.  0.
        4    1    3    3  502    0 -0.24670067096E+02 -0.95527511570E+02 -0.27427774046E+03  0.29148586499E+03  0.12699999809E+01 0. -1.
       -4    1    3    3    0  502  0.24670067096E+02  0.95527511570E+02  0.10418566020E+04  0.10465184708E+04  0.12699999809E+01 0.  1.
</event>
<event>
 5   0  0.3241189E-03  0.1053469E+04  0.7818609E-02  0.9251770E-01
       -1   -1    0    0    0  501  0.00000000000E+00  0.00000000000E+00  0.29618381997E+03  0.29618382002E+03  0.50400001928E-02 0.  1.
        1   -1    0    0  501    0  0.00000000000E+00  0.00000000000E+00 -0.93674669456E+03  0.93674669457E+03  0.50400001928E-02 0. -1.
    10030    2    1    2    0    0  0.00000000000E+00  0.00000000000E+00 -0.64056287459E+03  0.12329305146E+04  0.10534689637E+04 0.  0.
        5    1    3    3  502    0  0.25516297853E+03  0.18292182614E+03  0.17468044024E+03  0.35931029249E+03  0.46999998093E+01 0.  1.
       -5    1    3    3    0  502 -0.25516297853E+03 -0.18292182614E+03 -0.81524331482E+03  0.87362022210E+03  0.46999998093E+01 0. -1.
</event>
<event>
 5   0  0.5723194E-03  0.1100309E+04  0.7818609E-02  0.9204891E-01
        2   -1    0    0  501    0  0.00000000000E+00  0.00000000000E+00  0.11618251510E+04  0.11618251510E+04  0.25500000920E-02 0. -1.
       -2   -1    0    0    0  501  0.00000000000E+00  0.00000000000E+00 -0.26051229859E+03  0.26051229861E+03  0.25500000920E-02 0.  1.
    10030    2    1    2    0    0  0.00000000000E+00  0.00000000000E+00  0.90131285243E+03  0.14223374496E+04  0.11003085761E+04 0.  0.
        1    1    3    3  502    0  0.92037351284E+02  0.24495258508E+03 -0.17491787775E+03  0.31475213573E+03  0.50400001928E-02 0.  1.
       -1    1    3    3    0  502 -0.92037351284E+02 -0.24495258508E+03  0.10762307302E+04  0.11075853139E+04  0.50400001928E-02 0. -1.
</event>
<event>
 5   0  0.5500363E-03  0.1097629E+04  0.7818609E-02  0.9207506E-01
       -2   -1    0    0    0  501  0.00000000000E+00  0.00000000000E+00  0.74642137663E+03  0.74642137663E+03  0.25500000920E-02 0. -1.
        2   -1    0    0  501    0  0.00000000000E+00  0.00000000000E+00 -0.40352207973E+03  0.40352207974E+03  0.25500000920E-02 0.  1.
    10030    2    1    2    0    0  0.00000000000E+00  0.00000000000E+00  0.34289929690E+03  0.11499434564E+04  0.10976292749E+04 0.  0.
        3    1    3    3  502    0 -0.53854008500E+03  0.96785246628E+02  0.21595599896E+03  0.58824298619E+03  0.10100000352E+00 0. -1.
       -3    1    3    3    0  502  0.53854008500E+03 -0.96785246628E+02  0.12694329794E+03  0.56170047019E+03  0.10100000352E+00 0.  1.
</event>
<event>
 5   0  0.3316784E-03  0.1061965E+04  0.7818609E-02  0.9243078E-01
       -1   -1    0    0    0  501  0.00000000000E+00  0.00000000000E+00  0.35374163054E+03  0.35374163058E+03  0.50400001928E-02 0. -1.
        1   -1    0    0  501    0  0.00000000000E+00  0.00000000000E+00 -0.79702865970E+03  0.79702865971E+03  0.50400001928E-02 0.  1.
    10030    2    1    2    0    0  0.00000000000E+00  0.00000000000E+00 -0.44328702915E+03  0.11507702903E+04  0.10619646278E+04 0.  0.
        4    1    3    3  502    0 -0.21245152536E+03  0.81460347483E+02  0.29823534990E+03  0.37512314734E+03  0.12699999809E+01 0. -1.
       -4    1    3    3    0  502  0.21245152536E+03 -0.81460347483E+02 -0.74152237905E+03  0.77564714295E+03  0.12699999809E+01 0.  1.
</event>
<event>
 5   0  0.5941585E-03  0.1080501E+04  0.7818609E-02  0.9224408E-01
       -2   -1    0    0    0  501  0.00000000000E+00  0.00000000000E+00  0.19935663195E+03  0.19935663196E+03  0.25500000920E-02 0.  1.
        2   -1    0    0  501    0  0.00000000000E+00  0.00000000000E+00 -0.14640637400E+04  0.14640637400E+04  0.25500000920E-02 0. -1.
    10030    2    1    2    0    0  0.00000000000E+00  0.00000000000E+00 -0.12647071080E+04  0.16634203719E+04  0.10805013950E+04 0.  0.
        5    1    3    3  502    0  0.37011388640E+03 -0.24674161498E+03 -0.11043093950E+04  0.11905406517E+04  0.46999998093E+01 0. -1.
       -5    1    3    3    0  502 -0.37011388640E+03  0.24674161498E+03 -0.16039771302E+03  0.47287972024E+03  0.46999998093E+01 0.  1.
</event>
<event>
 5   0  0.5627232E-03  0.1099652E+04  0.7818609E-02  0.9205531E-01
        2   -1    0    0  501    0  0.00000000000E+00  0.00000000000E+00  0.13903876651E+04  0.13903876651E+04  0.25500000920E-02 0. -1.
       -2   -1    0    0    0  501  0.00000000000E+00  0.00000000000E+00 -0.21742763270E+03  0.21742763272E+03  0.25500000920E-02 0.  1.
    10030    2    1    2    0    0  0.00000000000E+00  0.00000000000E+00  0.11729600324E+04  0.16078152978E+04  0.10996521242E+04 0.  0.
        2    1    3    3  502    0 -0.41601615898E+03  0.12939694322E+03  0.10768781079E+04  0.11616709830E+04  0.25500000920E-02 0. -1.
       -2    1    3    3    0  502  0.41601615898E+03 -0.12939694322E+03  0.96081924522E+02  0.44614431485E+03  0.25500000920E-02 0.  1.
</event>
<event>
 5   0  0.5627232E-03  0.1105818E+04  0.7818609E-02  0.9199540E-01
        2   -1    0    0  501    0  0.00000000000E+00  0.00000000000E+00  0.10138494035E+04  0.10138494036E+04  0.25500000920E-02 0. -1.
       -2   -1    0    0    0  501  0.00000000000E+00  0.00000000000E+00 -0.30153213663E+03  0.30153213664E+03  0.25500000920E-02 0.  1.
    10030    2    1    2    0    0  0.00000000000E+00  0.00000000000E+00  0.71231726692E+03  0.13153815402E+04  0.11058176647E+04 0.  0.
        2    1    3    3  502    0  0.49364388217E+03 -0.14015286680E+03  0.11127815229E+03  0.52508088488E+03  0.25500000920E-02 0.  1.
       -2    1    3    3    0  502 -0.49364388217E+03  0.14015286680E+03  0.60103911463E+03  0.79030065532E+03  0.25500000920E-02 0. -1.
</event>
<event>
 5   0  0.3328741E-03  0.1126700E+04  0.7818609E-02  0.9179552E-01
       -1   -1    0    0    0  501  0.00000000000E+00  0.00000000000E+00  0.42390630137E+03  0.42390630140E+03  0.50400001928E-02 0. -1.
        1   -1    0    0  501    0  0.00000000000E+00  0.00000000000E+00 -0.74866349853E+03  0.74866349855E+03  0.50400001928E-02 0.  1.
    10030    2    1    2    0    0  0.00000000000E+00  0.00000000000E+00 -0.32475719716E+03  0.11725697999E+04  0.11266999151E+04 0.  0.
        3    1    3    3  502    0  0.86652140233E+02  0.30539023945E+03 -0.64671935962E+03  0.72042885288E+03  0.10100000352E+00 0.  1.
       -3    1    3    3    0  502 -0.86652140233E+02 -0.30539023945E+03  0.32196216246E+03  0.45214094707E+03  0.10100000352E+00 0. -1.
</event>
<event>
 5   0  0.3320192E-03  0.1103523E+04  0.7818609E-02  0.9201765E-01
        1   -1    0    0  501    0  0.00000000000E+00  0.00000000000E+00  0.33976768066E+03  0.33976768069E+03  0.50400001928E-02 0. -1.
       -1   -1    0    0    0  501  0.00000000000E+00  0.00000000000E+00 -0.89602574096E+03  0.89602574098E+03  0.50400001928E-02 0.  1.
    10030    2    1    2    0    0  0.00000000000E+00  0.00000000000E+00 -0.55625806031E+03  0.12357934217E+04  0.11035227009E+04 0.  0.
        2    1    3    3  502    0  0.31436306151E+03 -0.16677697405E+03  0.19407838143E+03  0.40534566935E+03  0.25500000920E-02 0. -1.
       -2    1    3    3    0  502 -0.31436306151E+03  0.16677697405E+03 -0.75033644174E+03  0.83044775232E+03  0.25500000920E-02 0.  1.
</event>
<event>
 5   0  0.5723194E-03  0.1092931E+04  0.7818609E-02  0.9212110E-01
       -2   -1    0    0    0  501  0.00000000000E+00  0.00000000000E+00  0.34820061158E+03  0.34820061159E+03  0.25500000920E-02 0. -1.
        2   -1    0    0  501    0  0.00000000000E+00  0.00000000000E+00 -0.85762176331E+03  0.85762176331E+03  0.25500000920E-02 0.  1.
    10030    2    1    2    0    0  0.00000000000E+00  0.00000000000E+00 -0.50942115173E+03  0.12058223749E+04  0.10929307800E+04 0.  0.
        1    1    3    3  502    0  0.29122252537E+02  0.81722232596E+02 -0.84997528806E+03  0.85439137357E+03  0.50400001928E-02 0.  1.
       -1    1    3    3    0  502 -0.29122252537E+02 -0.81722232596E+02  0.34055413633E+03  0.35143100132E+03  0.50400001928E-02 0. -1.
</event>
<event>
 5   0  0.3320192E-03  0.1131712E+04  0.7818609E-02  0.9174823E-01
        1   -1    0    0  501    0  0.00000000000E+00  0.00000000000E+00  0.41591980694E+03  0.41591980697E+03  0.50400001928E-02 0.  1.
       -1   -1    0    0    0  501  0.00000000000E+00  0.00000000000E+00 -0.76984292282E+03  0.76984292284E+03  0.50400001928E-02 0. -1.
    10030    2    1    2    0    0  0.00000000000E+00  0.00000000000E+00 -0.35392311588E+03  0.11857627298E+04  0.11317118359E+04 0.  0.
        2    1    3    3  502    0  0.55607057926E+03  0.91250208786E+02 -0.23091694203E+03  0.60898581580E+03  0.25500000920E-02 0.  1.
       -2    1    3    3    0  502 -0.55607057926E+03 -0.91250208786E+02 -0.12300617385E+03  0.57677691401E+03  0.25500000920E-02 0. -1.
</event>
<event>
 5   0  0.3241189E-03  0.1103218E+04  0.7818609E-02  0.9202061E-01
       -1   -1    0    0    0  501  0.00000000000E+00  0.00000000000E+00  0.28589676028E+03  0.28589676032E+03  0.50400001928E-02 0.  1.
        1   -1    0    0  501    0  0.00000000000E+00  0.00000000000E+00 -0.10642744251E+04  0.10642744251E+04  0.50400001928E-02 0. -1.
    10030    2    1    2    0    0  0.00000000000E+00  0.00000000000E+00 -0.77837766483E+03  0.13501711854E+04  0.11032182200E+04 0.  0.
        5    1    3    3  502    0 -0.56319727239E+02  0.18969636988E+01 -0.10607178199E+04  0.10622240318E+04  0.46999998093E+01 0. -1.
       -5    1    3    3    0  502  0.56319727239E+02 -0.18969636988E+01  0.28234015508E+03  0.28794715369E+03  0.46999998093E+01 0.  1.
</event>
<event>
 5   0  0.5941585E-03  0.1081299E+04  0.7818609E-02  0.9223614E-01
       -2   -1    0    0    0  501  0.00000000000E+00  0.00000000000E+00  0.24512327521E+03  0.24512327522E+03  0.25500000920E-02 0.  1.
        2   -1    0    0  501    0  0.00000000000E+00  0.00000000000E+00 -0.11924678153E+04  0.11924678153E+04  0.25500000920E-02 0. -1.
    10030    2    1    2    0    0  0.00000000000E+00  0.00000000000E+00 -0.94734454004E+03  0.14375910905E+04  0.10812985091E+04 0.  0.
        5    1    3    3  502    0  0.76657632705E+02 -0.51717655828E+02  0.23450370073E+03  0.25212136805E+03  0.46999998093E+01 0.  1.
       -5    1    3    3    0  502 -0.76657632705E+02  0.51717655828E+02 -0.11818482408E+04  0.11854697224E+04  0.46999998093E+01 0. -1.
</event>
<event>
 5   0  0.3320192E-03  0.1104999E+04  0.7818609E-02  0.9200333E-01
       -1   -1    0    0    0  501  0.00000000000E+00  0.00000000000E+00  0.13079749542E+04  0.13079749542E+04  0.50400001928E-02 0. -1.
        1   -1    0    0  501    0  0.00000000000E+00  0.00000000000E+00 -0.23338036275E+03  0.23338036280E+03  0.50400001928E-02 0.  1.
    10030    2    1    2    0    0  0.00000000000E+00  0.00000000000E+00  0.10745945914E+04  0.15413553170E+04  0.11049989490E+04 0.  0.
        2    1    3    3  502    0 -0.13106051668E+03  0.28056669436E+03  0.11755445240E+04  0.12156477520E+04  0.25500000920E-02 0. -1.
       -2    1    3    3    0  502  0.13106051668E+03 -0.28056669436E+03 -0.10094993255E+03  0.32570756501E+03  0.25500000920E-02 0.  1.
</event>
<event>
 5   0  0.3328741E-03  0.1099772E+04  0.7818609E-02  0.9205414E-01
       -1   -1    0    0    0  501  0.00000000000E+00  0.00000000000E+00  0.77399860834E+03  0.77399860836E+03  0.50400001928E-02 0.  1.
        1   -1    0    0  501    0  0.00000000000E+00  0.00000000000E+00 -0.39066575172E+03  0.39066575175E+03  0.50400001928E-02 0. -1.
    10030    2    1    2    0    0  0.00000000000E+00  0.00000000000E+00  0.38333285663E+03  0.11646643601E+04  0.10997722458E+04 0.  0.
        3    1    3    3  502    0  0.20884462987E+03  0.21445779032E+03 -0.29681681457E+03  0.42155480648E+03  0.10100000352E+00 0. -1.
       -3    1    3    3    0  502 -0.20884462987E+03 -0.21445779032E+03  0.68014967120E+03  0.74310955362E+03  0.10100000352E+00 0.  1.
</event>
<event>
 5   0  0.3241189E-03  0.1103493E+04  0.7818609E-02  0.9201794E-01
       -1   -1    0    0    0  501  0.00000000000E+00  0.00000000000E+00  0.23307705135E+03  0.23307705141E+03  0.50400001928E-02 0. -1.
        1   -1    0    0  501    0  0.00000000000E+00  0.00000000000E+00 -0.13061088582E+04  0.13061088582E+04  0.50400001928E-02 0.  1.
    10030    2    1    2    0    0  0.00000000000E+00  0.00000000000E+00 -0.10730318068E+04  0.15391859096E+04  0.11034926397E+04 0.  0.
        5    1    3    3  502    0  0.40354726088E+03  0.27830328081E+03 -0.88965564911E+03  0.10157816556E+04  0.46999998093E+01 0.  1.
       -5    1    3    3    0  502 -0.40354726088E+03 -0.27830328081E+03 -0.18337615772E+03  0.52340425399E+03  0.46999998093E+01 0. -1.
</event>
<event>
 5   0  0.5627232E-03  0.1101668E+04  0.7818609E-02  0.9203568E-01
        2   -1    0    0  501    0  0.00000000000E+00  0.00000000000E+00  0.16748292030E+04  0.16748292030E+04  0.25500000920E-02 0.  1.
       -2   -1    0    0    0  501  0.00000000000E+00  0.00000000000E+00 -0.18116351148E+03  0.18116351150E+03  0.25500000920E-02 0. -1.
    10030    2    1    2    0    0  0.00000000000E+00  0.00000000000E+00  0.14936656915E+04  0.18559927145E+04  0.11016677168E+04 0.  0.
        2    1    3    3  502    0 -0.11995254122E+03 -0.83594649541E+02  0.16415421808E+04  0.16480404756E+04  0.25500000920E-02 0.  1.
       -2    1    3    3    0  502  0.11995254122E+03  0.83594649541E+02 -0.14787648933E+03  0.20795223893E+03  0.25500000920E-02 0. -1.
</event>
<event>
 5   0  0.5500363E-03  0.1085349E+04  0.7818609E-02  0.9219590E-01
        2   -1    0    0  501    0  0.00000000000E+00  0.00000000000E+00  0.46075776966E+03  0.46075776967E+03  0.25500000920E-02 0.  1.
       -2   -1    0    0    0  501  0.00000000000E+00  0.00000000000E+00 -0.63915551402E+03  0.63915551403E+03  0.25500000920E-02 0. -1.
    10030    2    1    2    0    0  0.00000000000E+00  0.00000000000E+00 -0.17839774436E+03  0.10999132837E+04  0.10853494720E+04 0.  0.
        3    1    3    3  502    0  0.67655915869E+02 -0.52991028594E+03 -0.18594518465E+03  0.56564817333E+03  0.10100000352E+00 0. -1.
       -3    1    3    3    0  502 -0.67655915869E+02  0.52991028594E+03  0.75474402874E+01  0.53426511037E+03  0.10100000352E+00 0.  1.
</event>
<event>
 5   0  0.3328741E-03  0.1108323E+04  0.7818609E-02  0.9197117E-01
        1   -1    0    0  501    0  0.00000000000E+00  0.00000000000E+00  0.55707513463E+03  0.55707513466E+03  0.50400001928E-02 0. -1.
       -1   -1    0    0    0  501  0.00000000000E+00  0.00000000000E+00 -0.55126325405E+03  0.55126325407E+03  0.50400001928E-02 0.  1.
    10030    2    1    2    0    0  0.00000000000E+00  0.00000000000E+00  0.58118805888E+01  0.11083383887E+04  0.11083231505E+04 0.  0.
        3    1    3    3  502    0 -0.24505096053E+03 -0.30671861272E+03 -0.38821164685E+03  0.55211826052E+03  0.10100000352E+00 0.  1.
       -3    1    3    3    0  502  0.24505096053E+03  0.30671861272E+03  0.39402352744E+03  0.55622012821E+03  0.10100000352E+00 0. -1.
</event>
<event>
 5   0  0.5723194E-03  0.1119662E+04  0.7818609E-02  0.9186237E-01
        2   -1    0    0  501    0  0.00000000000E+00  0.00000000000E+00  0.11773550273E+04  0.11773550273E+04  0.25500000920E-02 0. -1.
       -2   -1    0    0    0  501  0.00000000000E+00  0.00000000000E+00 -0.26619906945E+03  0.26619906946E+03  0.25500000920E-02 0.  1.
    10030    2    1    2    0    0  0.00000000000E+00  0.00000000000E+00  0.91115595787E+03  0.14435540968E+04  0.11196621146E+04 0.  0.
        1    1    3    3  502    0  0.11594337182E+02  0.35798442054E+03  0.10103019098E+04  0.10719128803E+04  0.50400001928E-02 0. -1.
       -1    1    3    3    0  502 -0.11594337182E+02 -0.35798442054E+03 -0.99145951901E+02  0.37164121650E+03  0.50400001928E-02 0.  1.
</event>
<event>
 5   0  0.5723194E-03  0.1110583E+04  0.7818609E-02  0.9194938E-01
        2   -1    0    0  501    0  0.00000000000E+00  0.00000000000E+00  0.58118013156E+03  0.58118013157E+03  0.25500000920E-02 0. -1.
       -2   -1    0    0    0  501  0.00000000000E+00  0.00000000000E+00 -0.53055638057E+03  0.53055638058E+03  0.25500000920E-02 0.  1.
    10030    2    1    2    0    0  0.00000000000E+00  0.00000000000E+00  0.50623750986E+02  0.11117365121E+04  0.11105833189E+04 0.  0.
        1    1    3    3  502    0  0.31906176179E+03  0.32267196674E+03 -0.29506923187E+03  0.54127946347E+03  0.50400001928E-02 0.  1.
       -1    1    3    3    0  502 -0.31906176179E+03 -0.32267196674E+03  0.34569298286E+03  0.57045704867E+03  0.50400001928E-02 0. -1.
</event>
<event>
 5   0  0.5941585E-03  0.8430370E+03  0.7818609E-02  0.9499730E-01
       -2   -1    0    0    0  501  0.00000000000E+00  0.00000000000E+00  0.19334685006E+03  0.19334685008E+03  0.25500000920E-02 0. -1.
        2   -1    0    0  501    0  0.00000000000E+00  0.00000000000E+00 -0.91895917233E+03  0.91895917233E+03  0.25500000920E-02 0.  1.
    10030    2    1    2    0    0  0.00000000000E+00  0.00000000000E+00 -0.72561232226E+03  0.11123060224E+04  0.84303703671E+03 0.  0.
        5    1    3    3  502    0 -0.11369422361E+03 -0.33826071755E+03 -0.65874422588E+03  0.74920807167E+03  0.46999998093E+01 0.  1.
       -5    1    3    3    0  502  0.11369422361E+03  0.33826071755E+03 -0.66868096384E+02  0.36309795074E+03  0.46999998093E+01 0. -1.
</event>
<event>
 5   0  0.5500363E-03  0.9948992E+03  0.7818609E-02  0.9314157E-01
       -2   -1    0    0    0  501  0.00000000000E+00  0.00000000000E+00  0.94082035894E+03  0.94082035894E+03  0.25500000920E-02 0. -1.
        2   -1    0    0  501    0  0.00000000000E+00  0.00000000000E+00 -0.26302162372E+03  0.26302162374E+03  0.25500000920E-02 0.  1.
    10030    2    1    2    0    0  0.00000000000E+00  0.00000000000E+00  0.67779873522E+03  0.12038419827E+04  0.99489918776E+03 0.  0.
        3    1    3    3  502    0 -0.46256186218E+03 -0.16525770373E+03  0.43404143532E+03  0.65548879682E+03  0.10100000352E+00 0. -1.
       -3    1    3    3    0  502  0.46256186218E+03  0.16525770373E+03  0.24375729990E+03  0.54835318586E+03  0.10100000352E+00 0.  1.
</event>
<event>
 5   0  0.3215352E-03  0.1092371E+04  0.7818609E-02  0.9212660E-01
       -1   -1    0    0    0  501  0.00000000000E+00  0.00000000000E+00  0.12333326416E+03  0.12333326426E+03  0.50400001928E-02 0.  1.
        1   -1    0    0  501    0  0.00000000000E+00  0.00000000000E+00 -0.24187991838E+04  0.24187991839E+04  0.50400001928E-02 0. -1.
    10030    2    1    2    0    0  0.00000000000E+00  0.00000000000E+00 -0.22954659197E+04  0.25421324481E+04  0.10923706309E+04 0.  0.
        1    1    3    3  502    0 -0.12139546884E+03  0.10117737399E+03 -0.23644328532E+04  0.23697080913E+04  0.50400001928E-02 0. -1.
       -1    1    3    3    0  502  0.12139546884E+03 -0.10117737399E+03  0.68966933512E+02  0.17242435677E+03  0.50400001928E-02 0.  1.
</event>
<event>
 5   0  0.3215352E-03  0.1086027E+04  0.7818609E-02  0.9218919E-01
        1   -1    0    0  501    0  0.00000000000E+00  0.00000000000E+00  0.17175027196E+04  0.17175027196E+04  0.50400001928E-02 0.  1.
       -1   -1    0    0    0  501  0.00000000000E+00  0.00000000000E+00 -0.17168169129E+03  0.17168169137E+03  0.50400001928E-02 0. -1.
    10030    2    1    2    0    0  0.00000000000E+00  0.00000000000E+00  0.15458210283E+04  0.18891844110E+04  0.10860272037E+04 0.  0.
        1    1    3    3  502    0 -0.11438959944E+02 -0.38830149344E+02 -0.16905336936E+03  0.17383231006E+03  0.50400001928E-02 0. -1.
       -1    1    3    3    0  502  0.11438959944E+02  0.38830149344E+02  0.17148743977E+04  0.17153521009E+04  0.50400001928E-02 0.  1.
</event>
<event>
 5   0  0.3215352E-03  0.1102677E+04  0.7818609E-02  0.9202587E-01
       -1   -1    0    0    0  501  0.00000000000E+00  0.00000000000E+00  0.55384879659E+03  0.55384879662E+03  0.50400001928E-02 0. -1.
        1   -1    0    0  501    0  0.00000000000E+00  0.00000000000E+00 -0.54883952621E+03  0.54883952623E+03  0.50400001928E-02 0.  1.
    10030    2    1    2    0    0  0.00000000000E+00  0.00000000000E+00  0.50092703852E+01  0.11026883229E+04  0.11026769448E+04 0.  0.
        1    1    3    3  502    0 -0.44884848677E+03 -0.12105194069E+03  0.29891210439E+03  0.55269067533E+03  0.50400001928E-02 0. -1.
       -1    1    3    3    0  502  0.44884848677E+03  0.12105194069E+03 -0.29390283401E+03  0.54999764752E+03  0.50400001928E-02 0.  1.
</event>
<event>
 5   0  0.5941585E-03  0.1094489E+04  0.7818609E-02  0.9210580E-01
       -2   -1    0    0    0  501  0.00000000000E+00  0.00000000000E+00  0.20947541694E+03  0.20947541696E+03  0.25500000920E-02 0.  1.
        2   -1    0    0  501    0  0.00000000000E+00  0.00000000000E+00 -0.14296504973E+04  0.14296504973E+04  0.25500000920E-02 0. -1.
    10030    2    1    2    0    0  0.00000000000E+00  0.00000000000E+00 -0.12201750803E+04  0.16391259142E+04  0.10944891667E+04 0.  0.
        5    1    3    3  502    0 -0.26236846955E+03  0.33447457114E+02  0.10736118362E+03  0.28548985963E+03  0.46999998093E+01 0.  1.
       -5    1    3    3    0  502  0.26236846955E+03 -0.33447457114E+02 -0.13275362640E+04  0.13536360546E+04  0.46999998093E+01 0. -1.
</event>
<event>
 5   0  0.5723194E-03  0.1113073E+04  0.7818609E-02  0.9192543E-01
        2   -1    0    0  501    0  0.00000000000E+00  0.00000000000E+00  0.60691666444E+03  0.60691666444E+03  0.25500000920E-02 0. -1.
       -2   -1    0    0    0  501  0.00000000000E+00  0.00000000000E+00 -0.51033809488E+03  0.51033809489E+03  0.25500000920E-02 0.  1.
    10030    2    1    2    0    0  0.00000000000E+00  0.00000000000E+00  0.96578569554E+02  0.11172547593E+04  0.11130726738E+04 0.  0.
        1    1    3    3  502    0  0.53499610975E+03 -0.41826477827E+02  0.19636441132E+03  0.57142740024E+03  0.50400001928E-02 0. -1.
       -1    1    3    3    0  502 -0.53499610975E+03  0.41826477827E+02 -0.99785841761E+02  0.54582735909E+03  0.50400001928E-02 0.  1.
</event>
<event>
 5   0  0.3241189E-03  0.1119834E+04  0.7818609E-02  0.9186073E-01
        1   -1    0    0  501    0  0.00000000000E+00  0.00000000000E+00  0.10445750790E+04  0.10445750790E+04  0.50400001928E-02 0. -1.
       -1   -1    0    0    0  501  0.00000000000E+00  0.00000000000E+00 -0.30012857051E+03  0.30012857056E+03  0.50400001928E-02 0.  1.
    10030    2    1    2    0    0  0.00000000000E+00  0.00000000000E+00  0.74444650844E+03  0.13447036495E+04  0.11198336042E+04 0.  0.
        5    1    3    3  502    0 -0.52668725545E+03 -0.18084933360E+03  0.44202296261E+03  0.71099390714E+03  0.46999998093E+01 0. -1.
       -5    1    3    3    0  502  0.52668725545E+03  0.18084933360E+03  0.30242354583E+03  0.63370974238E+03  0.46999998093E+01 0.  1.
</event>
<event>
 5   0  0.3328741E-03  0.1014958E+04  0.7818609E-02  0.9292290E-01
        1   -1    0    0  501    0  0.00000000000E+00  0.00000000000E+00  0.10698415738E+04  0.10698415738E+04  0.50400001928E-02 0. -1.
       -1   -1    0    0    0  501  0.00000000000E+00  0.00000000000E+00 -0.24072248361E+03  0.24072248366E+03  0.50400001928E-02 0.  1.
    10030    2    1    2    0    0  0.00000000000E+00  0.00000000000E+00  0.82911909015E+03  0.13105640574E+04  0.10149579710E+04 0.  0.
        3    1    3    3  502    0  0.32559780202E+03 -0.38923295772E+03  0.42014134177E+03  0.65881331295E+03  0.10100000352E+00 0. -1.
       -3    1    3    3    0  502 -0.32559780202E+03  0.38923295772E+03  0.40897774838E+03  0.65175074448E+03  0.10100000352E+00 0.  1.
</event>
<event>
 5   0  0.5723194E-03  0.1119629E+04  0.7818609E-02  0.9186268E-01
        2   -1    0    0  501    0  0.00000000000E+00  0.00000000000E+00  0.54812137855E+03  0.54812137855E+03  0.25500000920E-02 0.  1.
       -2   -1    0    0    0  501  0.00000000000E+00  0.00000000000E+00 -0.57175726884E+03  0.57175726885E+03  0.25500000920E-02 0. -1.
    10030    2    1    2    0    0  0.00000000000E+00  0.00000000000E+00 -0.23635890294E+02  0.11198786474E+04  0.11196291929E+04 0.  0.
        1    1    3    3  502    0  0.14226349043E+03 -0.53843513392E+03  0.45125295219E+02  0.55873749332E+03  0.50400001928E-02 0.  1.
       -1    1    3    3    0  502 -0.14226349043E+03  0.53843513392E+03 -0.68761185513E+02  0.56114115408E+03  0.50400001928E-02 0. -1.
</event>
<event>
 5   0  0.3215352E-03  0.1083405E+04  0.7818609E-02  0.9221519E-01
       -1   -1    0    0    0  501  0.00000000000E+00  0.00000000000E+00  0.39951240890E+03  0.39951240893E+03  0.50400001928E-02 0. -1.
        1   -1    0    0  501    0  0.00000000000E+00  0.00000000000E+00 -0.73449963357E+03  0.73449963359E+03  0.50400001928E-02 0.  1.
    10030    2    1    2    0    0  0.00000000000E+00  0.00000000000E+00 -0.33498722467E+03  0.11340120425E+04  0.10834052205E+04 0.  0.
        1    1    3    3  502    0 -0.38228070494E+02 -0.12801721755E+03  0.38199663207E+03  0.40468657045E+03  0.50400001928E-02 0. -1.
       -1    1    3    3    0  502  0.38228070494E+02  0.12801721755E+03 -0.71698385674E+03  0.72932547207E+03  0.50400001928E-02 0.  1.
</event>
<event>
 5   0  0.3320192E-03  0.1072955E+04  0.7818609E-02  0.9231960E-01
        1   -1    0    0  501    0  0.00000000000E+00  0.00000000000E+00  0.10719121886E+04  0.10719121887E+04  0.50400001928E-02 0.  1.
       -1   -1    0    0    0  501  0.00000000000E+00  0.00000000000E+00 -0.26849987090E+03  0.26849987095E+03  0.50400001928E-02 0. -1.
    10030    2    1    2    0    0  0.00000000000E+00  0.00000000000E+00  0.80341231773E+03  0.13404120596E+04  0.10729553286E+04 0.  0.
        2    1    3    3  502    0 -0.48412784984E+03  0.59283281511E+02  0.12260098905E+03  0.50291677739E+03  0.25500000920E-02 0. -1.
       -2    1    3    3    0  502  0.48412784984E+03 -0.59283281511E+02  0.68081132868E+03  0.83749528221E+03  0.25500000920E-02 0.  1.
</event>
<event>
 5   0  0.3316784E-03  0.1105926E+04  0.7818609E-02  0.9199435E-01
        1   -1    0    0  501    0  0.00000000000E+00  0.00000000000E+00  0.10516969448E+04  0.10516969449E+04  0.50400001928E-02 0.  1.
       -1   -1    0    0    0  501  0.00000000000E+00  0.00000000000E+00 -0.29073784249E+03  0.29073784253E+03  0.50400001928E-02 0. -1.
    10030    2    1    2    0    0  0.00000000000E+00  0.00000000000E+00  0.76095910236E+03  0.13424347874E+04  0.11059260386E+04 0.  0.
        4    1    3    3  502    0 -0.49614725579E+03 -0.21010838471E+03  0.53140267205E+03  0.75676815837E+03  0.12699999809E+01 0. -1.
       -4    1    3    3    0  502  0.49614725579E+03  0.21010838471E+03  0.22955643031E+03  0.58566662902E+03  0.12699999809E+01 0.  1.
</event>
<event>
 5   0  0.3316784E-03  0.1015050E+04  0.7818609E-02  0.9292190E-01
       -1   -1    0    0    0  501  0.00000000000E+00  0.00000000000E+00  0.21603004093E+03  0.21603004099E+03  0.50400001928E-02 0.  1.
        1   -1    0    0  501    0  0.00000000000E+00  0.00000000000E+00 -0.11923423365E+04  0.11923423365E+04  0.50400001928E-02 0. -1.
    10030    2    1    2    0    0  0.00000000000E+00  0.00000000000E+00 -0.97631229556E+03  0.14083723775E+04  0.10150502723E+04 0.  0.
        4    1    3    3  502    0 -0.13895420810E+03 -0.32430819275E+03 -0.99434499349E+03  0.10550865627E+04  0.12699999809E+01 0. -1.
       -4    1    3    3    0  502  0.13895420810E+03  0.32430819275E+03  0.18032697925E+02  0.35328581479E+03  0.12699999809E+01 0.  1.
</event>
<event>
 5   0  0.3215352E-03  0.1103820E+04  0.7818609E-02  0.9201477E-01
        1   -1    0    0  501    0  0.00000000000E+00  0.00000000000E+00  0.17503669370E+04  0.17503669370E+04  0.50400001928E-02 0.  1.
       -1   -1    0    0    0  501  0.00000000000E+00  0.00000000000E+00 -0.17402323861E+03  0.17402323868E+03  0.50400001928E-02 0. -1.
    10030    2    1    2    0    0  0.00000000000E+00  0.00000000000E+00  0.15763436984E+04  0.19243901757E+04  0.11038197737E+04 0.  0.
        1    1    3    3  502    0 -0.37494196027E+03  0.30863801253E+03  0.12453449448E+04  0.13366835556E+04  0.50400001928E-02 0.  1.
       -1    1    3    3    0  502  0.37494196027E+03 -0.30863801253E+03  0.33099875362E+03  0.58770662007E+03  0.50400001928E-02 0. -1.
</event>
<event>
 5   0  0.3328741E-03  0.1096734E+04  0.7818609E-02  0.9208381E-01
        1   -1    0    0  501    0  0.00000000000E+00  0.00000000000E+00  0.96655120409E+03  0.96655120411E+03  0.50400001928E-02 0.  1.
       -1   -1    0    0    0  501  0.00000000000E+00  0.00000000000E+00 -0.31111281930E+03  0.31111281934E+03  0.50400001928E-02 0. -1.
    10030    2    1    2    0    0  0.00000000000E+00  0.00000000000E+00  0.65543838479E+03  0.12776640235E+04  0.10967341887E+04 0.  0.
        3    1    3    3  502    0  0.46142110810E+03  0.14875634579E+03  0.62625337482E+03  0.79197928577E+03  0.10100000352E+00 0.  1.
       -3    1    3    3    0  502 -0.46142110810E+03 -0.14875634579E+03  0.29185009964E+02  0.48568473768E+03  0.10100000352E+00 0. -1.
</event>
<event>
 5   0  0.3316784E-03  0.1097210E+04  0.7818609E-02  0.9207916E-01
       -1   -1    0    0    0  501  0.00000000000E+00  0.00000000000E+00  0.18402825877E+03  0.18402825884E+03  0.50400001928E-02 0.  1.
        1   -1    0    0  501    0  0.00000000000E+00  0.00000000000E+00 -0.16354402179E+04  0.16354402179E+04  0.50400001928E-02 0. -1.
    10030    2    1    2    0    0  0.00000000000E+00  0.00000000000E+00 -0.14514119591E+04  0.18194684767E+04  0.10972095801E+04 0.  0.
        4    1    3    3  502    0 -0.13135925218E+03 -0.67224340135E+02 -0.16019112006E+04  0.16086937162E+04  0.12699999809E+01 0. -1.
       -4    1    3    3    0  502  0.13135925218E+03  0.67224340135E+02  0.15049924155E+03  0.21077476046E+03  0.12699999809E+01 0.  1.
</event>
<event>
 5   0  0.5941585E-03  0.1178623E+04  0.7818609E-02  0.9131776E-01
       -2   -1    0    0    0  501  0.00000000000E+00  0.00000000000E+00  0.48098915150E+03  0.48098915151E+03  0.25500000920E-02 0. -1.
        2   -1    0    0  501    0  0.00000000000E+00  0.00000000000E+00 -0.72202878288E+03  0.72202878288E+03  0.25500000920E-02 0.  1.
    10030    2    1    2    0    0  0.00000000000E+00  0.00000000000E+00 -0.24103963137E+03  0.12030179344E+04  0.11786229450E+04 0.  0.
        5    1    3    3  502    0  0.36205669470E+02  0.58014425756E+03 -0.21941544057E+03  0.62132393777E+03  0.46999998093E+01 0.  1.
       -5    1    3    3    0  502 -0.36205669470E+02 -0.58014425756E+03 -0.21624190808E+02  0.58169399663E+03  0.46999998093E+01 0. -1.
</event>
<event>
 5   0  0.3320192E-03  0.1041840E+04  0.7818609E-02  0.9263809E-01
        1   -1    0    0  501    0  0.00000000000E+00  0.00000000000E+00  0.11945254619E+04  0.11945254619E+04  0.50400001928E-02 0.  1.
       -1   -1    0    0    0  501  0.00000000000E+00  0.00000000000E+00 -0.22716783075E+03  0.22716783081E+03  0.50400001928E-02 0. -1.
    10030    2    1    2    0    0  0.00000000000E+00  0.00000000000E+00  0.96735763113E+03  0.14216932927E+04  0.10418402142E+04 0.  0.
        2    1    3    3  502    0 -0.22617757538E+02 -0.29388306366E+01  0.11938437796E+04  0.11940616273E+04  0.25500000920E-02 0.  1.
       -2    1    3    3    0  502  0.22617757538E+02  0.29388306366E+01 -0.22648614843E+03  0.22763166545E+03  0.25500000920E-02 0. -1.
</event>
<event>
 5   0  0.3328741E-03  0.1113620E+04  0.7818609E-02  0.9192018E-01
        1   -1    0    0  501    0  0.00000000000E+00  0.00000000000E+00  0.10340538640E+04  0.10340538640E+04  0.50400001928E-02 0.  1.
       -1   -1    0    0    0  501  0.00000000000E+00  0.00000000000E+00 -0.29982703882E+03  0.29982703887E+03  0.50400001928E-02 0. -1.
    10030    2    1    2    0    0  0.00000000000E+00  0.00000000000E+00  0.73422682520E+03  0.13338809029E+04  0.11136198778E+04 0.  0.
        3    1    3    3  502    0 -0.11922113039E+03 -0.25028666946E+03 -0.21128343662E+03  0.34856533911E+03  0.10100000352E+00 0. -1.
       -3    1    3    3    0  502  0.11922113039E+03  0.25028666946E+03  0.94551026182E+03  0.98531556379E+03  0.10100000352E+00 0.  1.
</event>
<event>
 5   0  0.3320192E-03  0.1086260E+04  0.7818609E-02  0.9218688E-01
       -1   -1    0    0    0  501  0.00000000000E+00  0.00000000000E+00  0.70934404261E+03  0.70934404263E+03  0.50400001928E-02 0. -1.
        1   -1    0    0  501    0  0.00000000000E+00  0.00000000000E+00 -0.41586326656E+03  0.41586326659E+03  0.50400001928E-02 0.  1.
    10030    2    1    2    0    0  0.00000000000E+00  0.00000000000E+00  0.29348077605E+03  0.11252073092E+04  0.10862598781E+04 0.  0.
        2    1    3    3  502    0  0.37142219007E+03  0.94921243768E+02  0.54527613947E+03  0.66655123890E+03  0.25500000920E-02 0. -1.
       -2    1    3    3    0  502 -0.37142219007E+03 -0.94921243768E+02 -0.25179536342E+03  0.45865607032E+03  0.25500000920E-02 0.  1.
</event>
<event>
 5   0  0.5723194E-03  0.1104367E+04  0.7818609E-02  0.9200946E-01
       -2   -1    0    0    0  501  0.00000000000E+00  0.00000000000E+00  0.45968267444E+03  0.45968267444E+03  0.25500000920E-02 0.  1.
        2   -1    0    0  501    0  0.00000000000E+00  0.00000000000E+00 -0.66329849456E+03  0.66329849456E+03  0.25500000920E-02 0. -1.
    10030    2    1    2    0    0  0.00000000000E+00  0.00000000000E+00 -0.20361582012E+03  0.11229811690E+04  0.11043673772E+04 0.  0.
        1    1    3    3  502    0 -0.19097984048E+03 -0.12132459166E+03 -0.61399780906E+03  0.65435943148E+03  0.50400001928E-02 0. -1.
       -1    1    3    3    0  502  0.19097984048E+03  0.12132459166E+03  0.41038198894E+03  0.46862173753E+03  0.50400001928E-02 0.  1.
</event>
<event>
 5   0  0.3215352E-03  0.1080839E+04  0.7818609E-02  0.9224072E-01
        1   -1    0    0  501    0  0.00000000000E+00  0.00000000000E+00  0.56117265377E+03  0.56117265379E+03  0.50400001928E-02 0. -1.
       -1   -1    0    0    0  501  0.00000000000E+00  0.00000000000E+00 -0.52043349565E+03  0.52043349568E+03  0.50400001928E-02 0.  1.
    10030    2    1    2    0    0  0.00000000000E+00  0.00000000000E+00  0.40739158113E+02  0.10816061495E+04  0.10808386483E+04 0.  0.
        1    1    3    3  502    0 -0.28409651153E+03 -0.46920224373E+02  0.47801336711E+03  0.55804042370E+03  0.50400001928E-02 0. -1.
       -1    1    3    3    0  502  0.28409651153E+03  0.46920224373E+02 -0.43727420900E+03  0.52356572577E+03  0.50400001928E-02 0.  1.
</event>
<event>
 5   0  0.5627232E-03  0.1083240E+04  0.7818609E-02  0.9221683E-01
       -2   -1    0    0    0  501  0.00000000000E+00  0.00000000000E+00  0.82597913764E+03  0.82597913764E+03  0.25500000920E-02 0.  1.
        2   -1    0    0  501    0  0.00000000000E+00  0.00000000000E+00 -0.35515697353E+03  0.35515697354E+03  0.25500000920E-02 0. -1.
    10030    2    1    2    0    0  0.00000000000E+00  0.00000000000E+00  0.47082216411E+03  0.11811361112E+04  0.10832400486E+04 0.  0.
        2    1    3    3  502    0  0.39631589244E+03 -0.13126350037E+02 -0.16686674947E+03  0.43021285400E+03  0.25500000920E-02 0. -1.
       -2    1    3    3    0  502 -0.39631589244E+03  0.13126350037E+02  0.63768891358E+03  0.75092325718E+03  0.25500000920E-02 0.  1.
</event>
<event>
 5   0  0.3241189E-03  0.1092363E+04  0.7818609E-02  0.9212667E-01
       -1   -1    0    0    0  501  0.00000000000E+00  0.00000000000E+00  0.17025426007E+03  0.17025426015E+03  0.50400001928E-02 0. -1.
        1   -1    0    0  501    0  0.00000000000E+00  0.00000000000E+00 -0.17521702252E+04  0.17521702252E+04  0.50400001928E-02 0.  1.
    10030    2    1    2    0    0  0.00000000000E+00  0.00000000000E+00 -0.15819159651E+04  0.19224244853E+04  0.10923633924E+04 0.  0.
        5    1    3    3  502    0  0.42228040334E+03 -0.25838421069E+03 -0.11969108201E+04  0.12952608774E+04  0.46999998093E+01 0.  1.
       -5    1    3    3    0  502 -0.42228040334E+03  0.25838421069E+03 -0.38500514501E+03  0.62716360789E+03  0.46999998093E+01 0. -1.
</event>
<event>
 5   0  0.3215352E-03  0.1074713E+04  0.7818609E-02  0.9230195E-01
       -1   -1    0    0    0  501  0.00000000000E+00  0.00000000000E+00  0.58780966782E+03  0.58780966785E+03  0.50400001928E-02 0. -1.
        1   -1    0    0  501    0  0.00000000000E+00  0.00000000000E+00 -0.49123361937E+03  0.49123361939E+03  0.50400001928E-02 0.  1.
    10030    2    1    2    0    0  0.00000000000E+00  0.00000000000E+00  0.96576048456E+02  0.10790432872E+04  0.10747127442E+04 0.  0.
        1    1    3    3  502    0 -0.51970761507E+03 -0.13504883233E+03  0.27768492242E+02  0.53768511367E+03  0.50400001928E-02 0.  1.
       -1    1    3    3    0  502  0.51970761507E+03  0.13504883233E+03  0.68807556214E+02  0.54135817357E+03  0.50400001928E-02 0. -1.
</event>
<event>
 5   0  0.3328741E-03  0.1131396E+04  0.7818609E-02  0.9175120E-01
        1   -1    0    0  501    0  0.00000000000E+00  0.00000000000E+00  0.94787002077E+03  0.94787002078E+03  0.50400001928E-02 0.  1.
       -1   -1    0    0    0  501  0.00000000000E+00  0.00000000000E+00 -0.33761423740E+03  0.33761423744E+03  0.50400001928E-02 0. -1.
    10030    2    1    2    0    0  0.00000000000E+00  0.00000000000E+00  0.61025578337E+03  0.12854842582E+04  0.11313963306E+04 0.  0.
        3    1    3    3  502    0  0.26338438624E+03  0.43790796946E+03  0.58082658973E+03  0.77362410909E+03  0.10100000352E+00 0.  1.
       -3    1    3    3    0  502 -0.26338438624E+03 -0.43790796946E+03  0.29429193631E+02  0.51186014913E+03  0.10100000352E+00 0. -1.
</event>
<event>
 5   0  0.2185750E-03  0.1092615E+04  0.7818609E-02  0.9212420E-01
        3   -1    0    0  501    0  0.00000000000E+00  0.00000000000E+00  0.10653416555E+04  0.10653416603E+04  0.10100000352E+00 0.  1.
       -3   -1    0    0    0  501  0.00000000000E+00  0.00000000000E+00 -0.28014662605E+03  0.28014664426E+03  0.10100000352E+00 0. -1.
    10030    2    1    2    0    0  0.00000000000E+00  0.00000000000E+00  0.78519502947E+03  0.13454883046E+04  0.10926150024E+04 0.  0.
        3    1    3    3  502    0 -0.75545334910E+02 -0.29891146513E+03  0.94797047846E+03  0.99684662805E+03  0.10100000352E+00 0.  1.
       -3    1    3    3    0  502  0.75545334910E+02  0.29891146513E+03 -0.16277544900E+03  0.34864167652E+03  0.10100000352E+00 0. -1.
</event>
<event>
 5   0  0.5500363E-03  0.1116220E+04  0.7818609E-02  0.9189526E-01
       -2   -1    0    0    0  501  0.00000000000E+00  0.00000000000E+00  0.24454327194E+03  0.24454327195E+03  0.25500000920E-02 0. -1.
        2   -1    0    0  501    0  0.00000000000E+00  0.00000000000E+00 -0.12737480865E+04  0.12737480865E+04  0.25500000920E-02 0.  1.
    10030    2    1    2    0    0  0.00000000000E+00  0.00000000000E+00 -0.10292048145E+04  0.15182913584E+04  0.11162195567E+04 0.  0.
        3    1    3    3  502    0 -0.14442516928E+03  0.35743251155E+03  0.34338868510E+02  0.38703462109E+03  0.10100000352E+00 0. -1.
       -3    1    3    3    0  502  0.14442516928E+03 -0.35743251155E+03 -0.10635436831E+04  0.11312567374E+04  0.10100000352E+00 0.  1.
</event>
<event>
 5   0  0.5946359E-03  0.1221944E+04  0.7818609E-02  0.9093863E-01
       -2   -1    0    0    0  501  0.00000000000E+00  0.00000000000E+00  0.25003975880E+03  0.25003975881E+03  0.25500000920E-02 0.  1.
        2   -1    0    0  501    0  0.00000000000E+00  0.00000000000E+00 -0.14929092439E+04  0.14929092439E+04  0.25500000920E-02 0. -1.
    10030    2    1    2    0    0  0.00000000000E+00  0.00000000000E+00 -0.12428694851E+04  0.17429490027E+04  0.12219438076E+04 0.  0.
        4    1    3    3  502    0 -0.20653492697E+03  0.23461573759E+03 -0.13702252225E+04  0.14054252004E+04  0.12699999809E+01 0. -1.
       -4    1    3    3    0  502  0.20653492697E+03 -0.23461573759E+03  0.12735573747E+03  0.33752380234E+03  0.12699999809E+01 0.  1.
</event>
<event>
 5   0  0.3215352E-03  0.1108979E+04  0.7818609E-02  0.9196484E-01
        1   -1    0    0  501    0  0.00000000000E+00  0.00000000000E+00  0.77691355438E+03  0.77691355440E+03  0.50400001928E-02 0.  1.
       -1   -1    0    0    0  501  0.00000000000E+00  0.00000000000E+00 -0.39574384025E+03  0.39574384028E+03  0.50400001928E-02 0. -1.
    10030    2    1    2    0    0  0.00000000000E+00  0.00000000000E+00  0.38116971413E+03  0.11726573947E+04  0.11089792669E+04 0.  0.
        1    1    3    3  502    0 -0.18821780420E+03 -0.47579674550E+03 -0.35342794946E+02  0.51289140958E+03  0.50400001928E-02 0. -1.
       -1    1    3    3    0  502  0.18821780420E+03  0.47579674550E+03  0.41651250908E+03  0.65976598509E+03  0.50400001928E-02 0.  1.
</event>
<event>
 5   0  0.3241189E-03  0.9007706E+03  0.7818609E-02  0.9424619E-01
       -1   -1    0    0    0  501  0.00000000000E+00  0.00000000000E+00  0.36665365042E+03  0.36665365045E+03  0.50400001928E-02 0. -1.
        1   -1    0    0  501    0  0.00000000000E+00  0.00000000000E+00 -0.55323844935E+03  0.55323844938E+03  0.50400001928E-02 0.  1.
    10030    2    1    2    0    0  0.00000000000E+00  0.00000000000E+00 -0.18658479894E+03  0.91989209983E+03  0.90077055244E+03 0.  0.
        5    1    3    3  502    0 -0.36125635875E+03  0.37232232014E+02 -0.36527747292E+03  0.51511369431E+03  0.46999998093E+01 0.  1.
       -5    1    3    3    0  502  0.36125635875E+03 -0.37232232014E+02  0.17869267399E+03  0.40477840552E+03  0.46999998093E+01 0. -1.
</event>
<event>
 5   0  0.5500363E-03  0.1105008E+04  0.7818609E-02  0.9200325E-01
        2   -1    0    0  501    0  0.00000000000E+00  0.00000000000E+00  0.14689324937E+04  0.14689324937E+04  0.25500000920E-02 0. -1.
       -2   -1    0    0    0  501  0.00000000000E+00  0.00000000000E+00 -0.20781111444E+03  0.20781111445E+03  0.25500000920E-02 0.  1.
    10030    2    1    2    0    0  0.00000000000E+00  0.00000000000E+00  0.12611213792E+04  0.16767436081E+04  0.11050076897E+04 0.  0.
        3    1    3    3  502    0  0.16053495658E+03  0.37489807978E+03  0.64952481564E+02  0.41296353056E+03  0.10100000352E+00 0.  1.
       -3    1    3    3    0  502 -0.16053495658E+03 -0.37489807978E+03  0.11961688977E+04  0.12637800776E+04  0.10100000352E+00 0. -1.
</event>
<event>
 5   0  0.3316784E-03  0.1104004E+04  0.7818609E-02  0.9201298E-01
       -1   -1    0    0    0  501  0.00000000000E+00  0.00000000000E+00  0.48007678577E+03  0.48007678579E+03  0.50400001928E-02 0. -1.
        1   -1    0    0  501    0  0.00000000000E+00  0.00000000000E+00 -0.63470268495E+03  0.63470268497E+03  0.50400001928E-02 0.  1.
    10030    2    1    2    0    0  0.00000000000E+00  0.00000000000E+00 -0.15462589919E+03  0.11147794708E+04  0.11040036684E+04 0.  0.
        4    1    3    3  502    0  0.40978016679E+03  0.23215972281E+03 -0.36802318345E+03  0.59771280599E+03  0.12699999809E+01 0.  1.
       -4    1    3    3    0  502 -0.40978016679E+03 -0.23215972281E+03  0.21339728426E+03  0.51706666477E+03  0.12699999809E+01 0. -1.
</event>
<event>
 5   0  0.5500363E-03  0.1105311E+04  0.7818609E-02  0.9200031E-01
       -2   -1    0    0    0  501  0.00000000000E+00  0.00000000000E+00  0.52301685231E+03  0.52301685232E+03  0.25500000920E-02 0.  1.
        2   -1    0    0  501    0  0.00000000000E+00  0.00000000000E+00 -0.58397343593E+03  0.58397343593E+03  0.25500000920E-02 0. -1.
    10030    2    1    2    0    0  0.00000000000E+00  0.00000000000E+00 -0.60956583611E+02  0.11069902883E+04  0.11053107225E+04 0.  0.
        3    1    3    3  502    0 -0.12126825397E+03  0.99943148991E+02 -0.56112613722E+03  0.58271534606E+03  0.10100000352E+00 0. -1.
       -3    1    3    3    0  502  0.12126825397E+03 -0.99943148991E+02  0.50016955361E+03  0.52427494220E+03  0.10100000352E+00 0.  1.
</event>
<event>
 5   0  0.3241189E-03  0.1102243E+04  0.7818609E-02  0.9203009E-01
        1   -1    0    0  501    0  0.00000000000E+00  0.00000000000E+00  0.40403506170E+03  0.40403506173E+03  0.50400001928E-02 0. -1.
       -1   -1    0    0    0  501  0.00000000000E+00  0.00000000000E+00 -0.75175352837E+03  0.75175352839E+03  0.50400001928E-02 0.  1.
    10030    2    1    2    0    0  0.00000000000E+00  0.00000000000E+00 -0.34771846667E+03  0.11557885901E+04  0.11022427741E+04 0.  0.
        5    1    3    3  502    0  0.44692935260E+03  0.32218244196E+03 -0.16037689221E+03  0.57383813892E+03  0.46999998093E+01 0. -1.
       -5    1    3    3    0  502 -0.44692935260E+03 -0.32218244196E+03 -0.18734157446E+03  0.58195045119E+03  0.46999998093E+01 0.  1.
</event>
<event>
 5   0  0.3320192E-03  0.1085858E+04  0.7818609E-02  0.9219086E-01
        1   -1    0    0  501    0  0.00000000000E+00  0.00000000000E+00  0.43149313770E+03  0.43149313773E+03  0.50400001928E-02 0.  1.
       -1   -1    0    0    0  501  0.00000000000E+00  0.00000000000E+00 -0.68314409177E+03  0.68314409179E+03  0.50400001928E-02 0. -1.
    10030    2    1    2    0    0  0.00000000000E+00  0.00000000000E+00 -0.25165095408E+03  0.11146372295E+04  0.10858581633E+04 0.  0.
        2    1    3    3  502    0 -0.41020517454E+02  0.37830155294E+03  0.27170746459E+03  0.46756784977E+03  0.25500000920E-02 0.  1.
       -2    1    3    3    0  502  0.41020517454E+02 -0.37830155294E+03 -0.52335841867E+03  0.64706937975E+03  0.25500000920E-02 0. -1.
</event>
<event>
 5   0  0.5941585E-03  0.1089599E+04  0.7818609E-02  0.9215389E-01
       -2   -1    0    0    0  501  0.00000000000E+00  0.00000000000E+00  0.60822692462E+03  0.60822692463E+03  0.25500000920E-02 0.  1.
        2   -1    0    0  501    0  0.00000000000E+00  0.00000000000E+00 -0.48798674366E+03  0.48798674367E+03  0.25500000920E-02 0. -1.
    10030    2    1    2    0    0  0.00000000000E+00  0.00000000000E+00  0.12024018096E+03  0.10962136683E+04  0.10895993325E+04 0.  0.
        5    1    3    3  502    0 -0.98828985799E+02 -0.41884834230E+03  0.39618900493E+03  0.58496916150E+03  0.46999998093E+01 0. -1.
       -5    1    3    3    0  502  0.98828985799E+02  0.41884834230E+03 -0.27594882397E+03  0.51124450680E+03  0.46999998093E+01 0.  1.
</event>
<event>
 5   0  0.3215352E-03  0.1101612E+04  0.7818609E-02  0.9203622E-01
       -1   -1    0    0    0  501  0.00000000000E+00  0.00000000000E+00  0.23980442625E+03  0.23980442630E+03  0.50400001928E-02 0.  1.
        1   -1    0    0  501    0  0.00000000000E+00  0.00000000000E+00 -0.12651444266E+04  0.12651444266E+04  0.50400001928E-02 0. -1.
    10030    2    1    2    0    0  0.00000000000E+00  0.00000000000E+00 -0.10253400004E+04  0.15049488529E+04  0.11016119705E+04 0.  0.
        1    1    3    3  502    0 -0.36232708232E+03 -0.27186504149E+03 -0.94076422477E+03  0.10441402406E+04  0.50400001928E-02 0. -1.
       -1    1    3    3    0  502  0.36232708232E+03  0.27186504149E+03 -0.84575775593E+02  0.46080861234E+03  0.50400001928E-02 0.  1.
</event>
<event>
 5   0  0.3215352E-03  0.1087536E+04  0.7818609E-02  0.9217426E-01
        1   -1    0    0  501    0  0.00000000000E+00  0.00000000000E+00  0.18513736648E+04  0.18513736648E+04  0.50400001928E-02 0.  1.
       -1   -1    0    0    0  501  0.00000000000E+00  0.00000000000E+00 -0.15971051853E+03  0.15971051861E+03  0.50400001928E-02 0. -1.
    10030    2    1    2    0    0  0.00000000000E+00  0.00000000000E+00  0.16916631463E+04  0.20110841835E+04  0.10875363867E+04 0.  0.
        1    1    3    3  502    0 -0.10941575025E+03 -0.41091584031E+03  0.21911487773E+03  0.47836697616E+03  0.50400001928E-02 0. -1.
       -1    1    3    3    0  502  0.10941575025E+03  0.41091584031E+03  0.14725482686E+04  0.15327172073E+04  0.50400001928E-02 0.  1.
</event>
<event>
 5   0  0.5500363E-03  0.1087927E+04  0.7818609E-02  0.9217039E-01
       -2   -1    0    0    0  501  0.00000000000E+00  0.00000000000E+00  0.43919666777E+03  0.43919666778E+03  0.25500000920E-02 0.  1.
        2   -1    0    0  501    0  0.00000000000E+00  0.00000000000E+00 -0.67372207339E+03  0.67372207340E+03  0.25500000920E-02 0. -1.
    10030    2    1    2    0    0  0.00000000000E+00  0.00000000000E+00 -0.23452540562E+03  0.11129187412E+04  0.10879273682E+04 0.  0.
        3    1    3    3  502    0  0.36643889130E+03 -0.70362271520E+02 -0.52216844688E+03  0.64178517233E+03  0.10100000352E+00 0. -1.
       -3    1    3    3    0  502 -0.36643889130E+03  0.70362271520E+02  0.28764304126E+03  0.47113356885E+03  0.10100000352E+00 0.  1.
</event>
<event>
 5   0  0.3316784E-03  0.1098848E+04  0.7818609E-02  0.9206316E-01
       -1   -1    0    0    0  501  0.00000000000E+00  0.00000000000E+00  0.30271350850E+03  0.30271350854E+03  0.50400001928E-02 0. -1.
        1   -1    0    0  501    0  0.00000000000E+00  0.00000000000E+00 -0.99720219406E+03  0.99720219408E+03  0.50400001928E-02 0.  1.
    10030    2    1    2    0    0  0.00000000000E+00  0.00000000000E+00 -0.69448868556E+03  0.12999157026E+04  0.10988477144E+04 0.  0.
        4    1    3    3  502    0 -0.14816892008E+03 -0.22994969219E+03 -0.91091210916E+03  0.95110113728E+03  0.12699999809E+01 0.  1.
       -4    1    3    3    0  502  0.14816892008E+03  0.22994969219E+03  0.21642342360E+03  0.34881456534E+03  0.12699999809E+01 0. -1.
</event>
<event>
 5   0  0.3215352E-03  0.1098285E+04  0.7818609E-02  0.9206865E-01
       -1   -1    0    0    0  501  0.00000000000E+00  0.00000000000E+00  0.43453673363E+03  0.43453673366E+03  0.50400001928E-02 0. -1.
        1   -1    0    0  501    0  0.00000000000E+00  0.00000000000E+00 -0.69397435740E+03  0.69397435741E+03  0.50400001928E-02 0.  1.
    10030    2    1    2    0    0  0.00000000000E+00  0.00000000000E+00 -0.25943762377E+03  0.11285110911E+04  0.10982847545E+04 0.  0.
        1    1    3    3  502    0  0.36138692636E+03 -0.33824783632E+03  0.11461800226E+03  0.50808404402E+03  0.50400001928E-02 0. -1.
       -1    1    3    3    0  502 -0.36138692636E+03  0.33824783632E+03 -0.37405562603E+03  0.62042704705E+03  0.50400001928E-02 0.  1.
</event>
<event>
 5   0  0.5941585E-03  0.8961952E+03  0.7818609E-02  0.9430350E-01
       -2   -1    0    0    0  501  0.00000000000E+00  0.00000000000E+00  0.14564912305E+03  0.14564912307E+03  0.25500000920E-02 0.  1.
        2   -1    0    0  501    0  0.00000000000E+00  0.00000000000E+00 -0.13785971863E+04  0.13785971863E+04  0.25500000920E-02 0. -1.
    10030    2    1    2    0    0  0.00000000000E+00  0.00000000000E+00 -0.12329480633E+04  0.15242463094E+04  0.89619522705E+03 0.  0.
        5    1    3    3  502    0  0.10235595457E+03  0.73375901621E+02 -0.13478338576E+04  0.13537130279E+04  0.46999998093E+01 0. -1.
       -5    1    3    3    0  502 -0.10235595457E+03 -0.73375901621E+02  0.11488579427E+03  0.17053328150E+03  0.46999998093E+01 0.  1.
</event>
<event>
 5   0  0.3241189E-03  0.9988728E+03  0.7818609E-02  0.9309782E-01
       -1   -1    0    0    0  501  0.00000000000E+00  0.00000000000E+00  0.29607325224E+03  0.29607325228E+03  0.50400001928E-02 0. -1.
        1   -1    0    0  501    0  0.00000000000E+00  0.00000000000E+00 -0.84248315753E+03  0.84248315755E+03  0.50400001928E-02 0.  1.
    10030    2    1    2    0    0  0.00000000000E+00  0.00000000000E+00 -0.54640990529E+03  0.11385564098E+04  0.99887282161E+03 0.  0.
        5    1    3    3  502    0  0.12917784768E+03 -0.40021625348E+03  0.33822386864E+02  0.42193128555E+03  0.46999998093E+01 0. -1.
       -5    1    3    3    0  502 -0.12917784768E+03  0.40021625348E+03 -0.58023229216E+03  0.71662512427E+03  0.46999998093E+01 0.  1.
</event>
<event>
 5   0  0.5500363E-03  0.9930917E+03  0.7818609E-02  0.9316154E-01
       -2   -1    0    0    0  501  0.00000000000E+00  0.00000000000E+00  0.88922100512E+02  0.88922100548E+02  0.25500000920E-02 0.  1.
        2   -1    0    0  501    0  0.00000000000E+00  0.00000000000E+00 -0.27727392475E+04  0.27727392475E+04  0.25500000920E-02 0. -1.
    10030    2    1    2    0    0  0.00000000000E+00  0.00000000000E+00 -0.26838171470E+04  0.28616613481E+04  0.99309173416E+03 0.  0.
        3    1    3    3  502    0  0.17447123418E+03  0.36950174246E+03 -0.52898949762E+03  0.66843223145E+03  0.10100000352E+00 0.  1.
       -3    1    3    3    0  502 -0.17447123418E+03 -0.36950174246E+03 -0.21548276494E+04  0.21932291166E+04  0.10100000352E+00 0. -1.
</event>
<event>
 5   0  0.3320192E-03  0.1134933E+04  0.7818609E-02  0.9171797E-01
       -1   -1    0    0    0  501  0.00000000000E+00  0.00000000000E+00  0.52146272547E+03  0.52146272549E+03  0.50400001928E-02 0. -1.
        1   -1    0    0  501    0  0.00000000000E+00  0.00000000000E+00 -0.61752895370E+03  0.61752895372E+03  0.50400001928E-02 0.  1.
    10030    2    1    2    0    0  0.00000000000E+00  0.00000000000E+00 -0.96066228232E+02  0.11389916792E+04  0.11349331809E+04 0.  0.
        2    1    3    3  502    0  0.24788617221E+03  0.41408351053E+03 -0.34760621455E+03  0.59476280017E+03  0.25500000920E-02 0.  1.
       -2    1    3    3    0  502 -0.24788617221E+03 -0.41408351053E+03  0.25153998632E+03  0.54422887905E+03  0.25500000920E-02 0. -1.
</event>
<event>
 5   0  0.3316784E-03  0.1088834E+04  0.7818609E-02  0.9216144E-01
       -1   -1    0    0    0  501  0.00000000000E+00  0.00000000000E+00  0.30098723903E+03  0.30098723907E+03  0.50400001928E-02 0. -1.
        1   -1    0    0  501    0  0.00000000000E+00  0.00000000000E+00 -0.98472503978E+03  0.98472503979E+03  0.50400001928E-02 0.  1.
    10030    2    1    2    0    0  0.00000000000E+00  0.00000000000E+00 -0.68373780076E+03  0.12857122789E+04  0.10888336346E+04 0.  0.
        4    1    3    3  502    0  0.13634462635E+02  0.11022202340E+03  0.28746649233E+03  0.30817753021E+03  0.12699999809E+01 0. -1.
       -4    1    3    3    0  502 -0.13634462635E+02 -0.11022202340E+03 -0.97120429309E+03  0.97753474865E+03  0.12699999809E+01 0.  1.
</event>
<event>
 5   0  0.3215352E-03  0.1147526E+04  0.7818609E-02  0.9160069E-01
       -1   -1    0    0    0  501  0.00000000000E+00  0.00000000000E+00  0.19197812599E+03  0.19197812606E+03  0.50400001928E-02 0. -1.
        1   -1    0    0  501    0  0.00000000000E+00  0.00000000000E+00 -0.17147999623E+04  0.17147999623E+04  0.50400001928E-02 0.  1.
    10030    2    1    2    0    0  0.00000000000E+00  0.00000000000E+00 -0.15228218363E+04  0.19067780884E+04  0.11475261797E+04 0.  0.
        1    1    3    3  502    0 -0.21740288387E+03  0.50175714470E+03 -0.47274467784E+03  0.72284976076E+03  0.50400001928E-02 0. -1.
       -1    1    3    3    0  502  0.21740288387E+03 -0.50175714470E+03 -0.10500771585E+04  0.11839283276E+04  0.50400001928E-02 0.  1.
</event>
<event>
 5   0  0.3316784E-03  0.1142829E+04  0.7818609E-02  0.9164424E-01
        1   -1    0    0  501    0  0.00000000000E+00  0.00000000000E+00  0.26537294384E+04  0.26537294384E+04  0.50400001928E-02 0. -1.
       -1   -1    0    0    0  501  0.00000000000E+00  0.00000000000E+00 -0.12303996125E+03  0.12303996135E+03  0.50400001928E-02 0.  1.
    10030    2    1    2    0    0  0.00000000000E+00  0.00000000000E+00  0.25306894771E+04  0.27767693998E+04  0.11428294141E+04 0.  0.
        4    1    3    3  502    0 -0.17074399499E+03 -0.76695419061E+02 -0.46434912837E+02  0.19285619814E+03  0.12699999809E+01 0.  1.
       -4    1    3    3    0  502  0.17074399499E+03  0.76695419061E+02  0.25771243900E+04  0.25839132016E+04  0.12699999809E+01 0. -1.
</event>
<event>
 5   0  0.5627232E-03  0.1093320E+04  0.7818609E-02  0.9211727E-01
        2   -1    0    0  501    0  0.00000000000E+00  0.00000000000E+00  0.94300395449E+03  0.94300395449E+03  0.25500000920E-02 0. -1.
       -2   -1    0    0    0  501  0.00000000000E+00  0.00000000000E+00 -0.31689905711E+03  0.31689905712E+03  0.25500000920E-02 0.  1.
    10030    2    1    2    0    0  0.00000000000E+00  0.00000000000E+00  0.62610489738E+03  0.12599030116E+04  0.10933198325E+04 0.  0.
        2    1    3    3  502    0 -0.31118194113E+03 -0.83126576903E+02 -0.19593907335E+03  0.37700974622E+03  0.25500000920E-02 0.  1.
       -2    1    3    3    0  502  0.31118194113E+03  0.83126576903E+02  0.82204397072E+03  0.88289326540E+03  0.25500000920E-02 0. -1.
</event>
<event>
 5   0  0.5723194E-03  0.1099510E+04  0.7818609E-02  0.9205670E-01
        2   -1    0    0  501    0  0.00000000000E+00  0.00000000000E+00  0.11881883673E+04  0.11881883673E+04  0.25500000920E-02 0. -1.
       -2   -1    0    0    0  501  0.00000000000E+00  0.00000000000E+00 -0.25436246529E+03  0.25436246530E+03  0.25500000920E-02 0.  1.
    10030    2    1    2    0    0  0.00000000000E+00  0.00000000000E+00  0.93382590206E+03  0.14425508326E+04  0.10995099315E+04 0.  0.
        1    1    3    3  502    0 -0.18501882978E+03 -0.40060159261E+03  0.89711291981E+03  0.99976256896E+03  0.50400001928E-02 0. -1.
       -1    1    3    3    0  502  0.18501882978E+03  0.40060159261E+03  0.36712982249E+02  0.44278826369E+03  0.50400001928E-02 0.  1.
</event>
<event>
 5   0  0.5500363E-03  0.1101551E+04  0.7818609E-02  0.9203682E-01
        2   -1    0    0  501    0  0.00000000000E+00  0.00000000000E+00  0.48546097869E+03  0.48546097870E+03  0.25500000920E-02 0. -1.
       -2   -1    0    0    0  501  0.00000000000E+00  0.00000000000E+00 -0.62487712959E+03  0.62487712960E+03  0.25500000920E-02 0.  1.
    10030    2    1    2    0    0  0.00000000000E+00  0.00000000000E+00 -0.13941615090E+03  0.11103381083E+04  0.11015506578E+04 0.  0.
        3    1    3    3  502    0 -0.16522986854E+03  0.44519096759E+03  0.21154749063E+03  0.51985407383E+03  0.10100000352E+00 0. -1.
       -3    1    3    3    0  502  0.16522986854E+03 -0.44519096759E+03 -0.35096364153E+03  0.59048403447E+03  0.10100000352E+00 0.  1.
</event>
<event>
 5   0  0.5723194E-03  0.1129244E+04  0.7818609E-02  0.9177148E-01
       -2   -1    0    0    0  501  0.00000000000E+00  0.00000000000E+00  0.68753605515E+03  0.68753605516E+03  0.25500000920E-02 0.  1.
        2   -1    0    0  501    0  0.00000000000E+00  0.00000000000E+00 -0.46368222532E+03  0.46368222533E+03  0.25500000920E-02 0. -1.
    10030    2    1    2    0    0  0.00000000000E+00  0.00000000000E+00  0.22385382983E+03  0.11512182805E+04  0.11292444342E+04 0.  0.
        1    1    3    3  502    0 -0.12905360429E+03  0.32661462742E+03  0.56264570635E+03  0.66325118811E+03  0.50400001928E-02 0.  1.
       -1    1    3    3    0  502  0.12905360429E+03 -0.32661462742E+03 -0.33879187652E+03  0.48796709238E+03  0.50400001928E-02 0. -1.
</event>
<event>
 5   0  0.5946359E-03  0.1081903E+04  0.7818609E-02  0.9223012E-01
        2   -1    0    0  501    0  0.00000000000E+00  0.00000000000E+00  0.56669569182E+03  0.56669569182E+03  0.25500000920E-02 0. -1.
       -2   -1    0    0    0  501  0.00000000000E+00  0.00000000000E+00 -0.51637665698E+03  0.51637665699E+03  0.25500000920E-02 0.  1.
    10030    2    1    2    0    0  0.00000000000E+00  0.00000000000E+00  0.50319034835E+02  0.10830723488E+04  0.10819028180E+04 0.  0.
        4    1    3    3  502    0  0.39485130559E+03 -0.29568418371E+03 -0.19709427049E+03  0.53121036735E+03  0.12699999809E+01 0. -1.
       -4    1    3    3    0  502 -0.39485130559E+03  0.29568418371E+03  0.24741330533E+03  0.55186198146E+03  0.12699999809E+01 0.  1.
</event>
<event>
 5   0  0.3328741E-03  0.1119327E+04  0.7818609E-02  0.9186556E-01
        1   -1    0    0  501    0  0.00000000000E+00  0.00000000000E+00  0.58881885431E+03  0.58881885433E+03  0.50400001928E-02 0. -1.
       -1   -1    0    0    0  501  0.00000000000E+00  0.00000000000E+00 -0.53195209214E+03  0.53195209216E+03  0.50400001928E-02 0.  1.
    10030    2    1    2    0    0  0.00000000000E+00  0.00000000000E+00  0.56866762173E+02  0.11207709465E+04  0.11193273363E+04 0.  0.
        3    1    3    3  502    0 -0.81007261252E+02 -0.24018588921E+03  0.52804782448E+03  0.58573539494E+03  0.10100000352E+00 0. -1.
       -3    1    3    3    0  502  0.81007261252E+02  0.24018588921E+03 -0.47118106230E+03  0.53503555155E+03  0.10100000352E+00 0.  1.
</event>
<event>
 5   0  0.3215352E-03  0.1079830E+04  0.7818609E-02  0.9225077E-01
       -1   -1    0    0    0  501  0.00000000000E+00  0.00000000000E+00  0.27605242372E+03  0.27605242377E+03  0.50400001928E-02 0. -1.
        1   -1    0    0  501    0  0.00000000000E+00  0.00000000000E+00 -0.10559886372E+04  0.10559886372E+04  0.50400001928E-02 0.  1.
    10030    2    1    2    0    0  0.00000000000E+00  0.00000000000E+00 -0.77993621345E+03  0.13320410610E+04  0.10798300288E+04 0.  0.
        1    1    3    3  502    0 -0.30840709512E+03  0.43252158312E+03 -0.50904626438E+03  0.73574313146E+03  0.50400001928E-02 0.  1.
       -1    1    3    3    0  502  0.30840709512E+03 -0.43252158312E+03 -0.27088994907E+03  0.59629792950E+03  0.50400001928E-02 0. -1.
</event>
<event>
 5   0  0.2185750E-03  0.1126990E+04  0.7818609E-02  0.9179277E-01
       -3   -1    0    0    0  501  0.00000000000E+00  0.00000000000E+00  0.34190829608E+03  0.34190831100E+03  0.10100000352E+00 0.  1.
        3   -1    0    0  501    0  0.00000000000E+00  0.00000000000E+00 -0.92868974193E+03  0.92868974743E+03  0.10100000352E+00 0. -1.
    10030    2    1    2    0    0  0.00000000000E+00  0.00000000000E+00 -0.58678144585E+03  0.12705980584E+04  0.11269902222E+04 0.  0.
        2    1    3    3  502    0  0.24905756186E+02  0.38020055962E+03  0.17466622354E+03  0.41914323552E+03  0.25500000920E-02 0.  1.
       -2    1    3    3    0  502 -0.24905756186E+02 -0.38020055962E+03 -0.76144766939E+03  0.85145482291E+03  0.25500000920E-02 0. -1.
</event>
<event>
 5   0  0.3215352E-03  0.1096674E+04  0.7818609E-02  0.9208440E-01
       -1   -1    0    0    0  501  0.00000000000E+00  0.00000000000E+00  0.13951373344E+04  0.13951373345E+04  0.50400001928E-02 0. -1.
        1   -1    0    0  501    0  0.00000000000E+00  0.00000000000E+00 -0.21551535387E+03  0.21551535393E+03  0.50400001928E-02 0.  1.
    10030    2    1    2    0    0  0.00000000000E+00  0.00000000000E+00  0.11796219806E+04  0.16106526884E+04  0.10966740927E+04 0.  0.
        1    1    3    3  502    0 -0.27764091091E+03 -0.26265146020E+03  0.12335402749E+02  0.38239041194E+03  0.50400001928E-02 0.  1.
       -1    1    3    3    0  502  0.27764091091E+03  0.26265146020E+03  0.11672865778E+04  0.12282622764E+04  0.50400001928E-02 0. -1.
</event>
<event>
 5   0  0.3316784E-03  0.1128487E+04  0.7818609E-02  0.9177863E-01
        1   -1    0    0  501    0  0.00000000000E+00  0.00000000000E+00  0.58566601204E+03  0.58566601206E+03  0.50400001928E-02 0. -1.
       -1   -1    0    0    0  501  0.00000000000E+00  0.00000000000E+00 -0.54360426183E+03  0.54360426185E+03  0.50400001928E-02 0.  1.
    10030    2    1    2    0    0  0.00000000000E+00  0.00000000000E+00  0.42061750205E+02  0.11292702739E+04  0.11284866684E+04 0.  0.
        4    1    3    3  502    0  0.18856806864E+02 -0.51131191814E+03  0.25904781868E+03  0.57350051618E+03  0.12699999809E+01 0. -1.
       -4    1    3    3    0  502 -0.18856806864E+02  0.51131191814E+03 -0.21698606848E+03  0.55576975773E+03  0.12699999809E+01 0.  1.
</event>
<event>
 5   0  0.3328741E-03  0.1092295E+04  0.7818609E-02  0.9212734E-01
        1   -1    0    0  501    0  0.00000000000E+00  0.00000000000E+00  0.14555580168E+04  0.14555580168E+04  0.50400001928E-02 0. -1.
       -1   -1    0    0    0  501  0.00000000000E+00  0.00000000000E+00 -0.20492294653E+03  0.20492294659E+03  0.50400001928E-02 0.  1.
    10030    2    1    2    0    0  0.00000000000E+00  0.00000000000E+00  0.12506350702E+04  0.16604809634E+04  0.10922952672E+04 0.  0.
        3    1    3    3  502    0  0.33389646152E+03 -0.38313938833E+03  0.32130291362E+03  0.60126384425E+03  0.10100000352E+00 0.  1.
       -3    1    3    3    0  502 -0.33389646152E+03  0.38313938833E+03  0.92933215660E+03  0.10592171191E+04  0.10100000352E+00 0. -1.
</event>
<event>
 5   0  0.5946359E-03  0.1073662E+04  0.7818609E-02  0.9231249E-01
       -2   -1    0    0    0  501  0.00000000000E+00  0.00000000000E+00  0.81472882916E+03  0.81472882917E+03  0.25500000920E-02 0.  1.
        2   -1    0    0  501    0  0.00000000000E+00  0.00000000000E+00 -0.35372222229E+03  0.35372222230E+03  0.25500000920E-02 0. -1.
    10030    2    1    2    0    0  0.00000000000E+00  0.00000000000E+00  0.46100660687E+03  0.11684510515E+04  0.10736623157E+04 0.  0.
        4    1    3    3  502    0 -0.13936847094E+03  0.13087021719E+03  0.77642300036E+03  0.79961545310E+03  0.12699999809E+01 0.  1.
       -4    1    3    3    0  502  0.13936847094E+03 -0.13087021719E+03 -0.31541639349E+03  0.36883559837E+03  0.12699999809E+01 0. -1.
</event>
<event>
 5   0  0.3320192E-03  0.1118908E+04  0.7818609E-02  0.9186956E-01
       -1   -1    0    0    0  501  0.00000000000E+00  0.00000000000E+00  0.47176284153E+03  0.47176284156E+03  0.50400001928E-02 0.  1.
        1   -1    0    0  501    0  0.00000000000E+00  0.00000000000E+00 -0.66344551692E+03  0.66344551694E+03  0.50400001928E-02 0. -1.
    10030    2    1    2    0    0  0.00000000000E+00  0.00000000000E+00 -0.19168267539E+03  0.11352083585E+04  0.11189082935E+04 0.  0.
        2    1    3    3  502    0  0.23937601412E+03  0.32782136009E+02  0.41610178535E+03  0.48116134544E+03  0.25500000920E-02 0.  1.
       -2    1    3    3    0  502 -0.23937601412E+03 -0.32782136009E+02 -0.60778446073E+03  0.65404701306E+03  0.25500000920E-02 0. -1.
</event>
<event>
 5   0  0.3328741E-03  0.1095975E+04  0.7818609E-02  0.9209124E-01
        1   -1    0    0  501    0  0.00000000000E+00  0.00000000000E+00  0.51908217962E+03  0.51908217964E+03  0.50400001928E-02 0. -1.
       -1   -1    0    0    0  501  0.00000000000E+00  0.00000000000E+00 -0.57850234951E+03  0.57850234953E+03  0.50400001928E-02 0.  1.
    10030    2    1    2    0    0  0.00000000000E+00  0.00000000000E+00 -0.59420169890E+02  0.10975845292E+04  0.10959749277E+04 0.  0.
        3    1    3    3  502    0  0.47096095997E+03  0.26540369182E+03 -0.11954637146E+03  0.55365575097E+03  0.10100000352E+00 0.  1.
       -3    1    3    3    0  502 -0.47096095997E+03 -0.26540369182E+03  0.60126201569E+02  0.54392877821E+03  0.10100000352E+00 0. -1.
</event>
<event>
 5   0  0.5941585E-03  0.1092922E+04  0.7818609E-02  0.9212118E-01
        2   -1    0    0  501    0  0.00000000000E+00  0.00000000000E+00  0.11067046934E+04  0.11067046935E+04  0.25500000920E-02 0. -1.
       -2   -1    0    0    0  501  0.00000000000E+00  0.00000000000E+00 -0.26982769963E+03  0.26982769964E+03  0.25500000920E-02 0.  1.
    10030    2    1    2    0    0  0.00000000000E+00  0.00000000000E+00  0.83687699382E+03  0.13765323931E+04  0.10929219215E+04 0.  0.
        5    1    3    3  502    0 -0.77144123476E+02  0.36667994581E+03  0.91938308043E+03  0.99282059660E+03  0.46999998093E+01 0. -1.
       -5    1    3    3    0  502  0.77144123476E+02 -0.36667994581E+03 -0.82506086612E+02  0.38371179650E+03  0.46999998093E+01 0.  1.
</event>
<event>
 5   0  0.3320192E-03  0.1052057E+04  0.7818609E-02  0.9253223E-01
       -1   -1    0    0    0  501  0.00000000000E+00  0.00000000000E+00  0.84264055335E+03  0.84264055336E+03  0.50400001928E-02 0. -1.
        1   -1    0    0  501    0  0.00000000000E+00  0.00000000000E+00 -0.32837942209E+03  0.32837942213E+03  0.50400001928E-02 0.  1.
    10030    2    1    2    0    0  0.00000000000E+00  0.00000000000E+00  0.51426113126E+03  0.11710199755E+04  0.10520566866E+04 0.  0.
        2    1    3    3  502    0 -0.21587072926E+03  0.20322089636E+02 -0.27632557662E+03  0.35123921105E+03  0.25500000920E-02 0.  1.
       -2    1    3    3    0  502  0.21587072926E+03 -0.20322089636E+02  0.79058670788E+03  0.81978076445E+03  0.25500000920E-02 0. -1.
</event>
<event>
 5   0  0.3241189E-03  0.1093082E+04  0.7818609E-02  0.9211961E-01
        1   -1    0    0  501    0  0.00000000000E+00  0.00000000000E+00  0.99543642547E+03  0.99543642548E+03  0.50400001928E-02 0. -1.
       -1   -1    0    0    0  501  0.00000000000E+00  0.00000000000E+00 -0.30007645429E+03  0.30007645433E+03  0.50400001928E-02 0.  1.
    10030    2    1    2    0    0  0.00000000000E+00  0.00000000000E+00  0.69535997118E+03  0.12955128798E+04  0.10930819421E+04 0.  0.
        5    1    3    3  502    0  0.30681026499E+03  0.16974592375E+03 -0.14916710586E+03  0.38107628213E+03  0.46999998093E+01 0.  1.
       -5    1    3    3    0  502 -0.30681026499E+03 -0.16974592375E+03  0.84452707704E+03  0.91443659768E+03  0.46999998093E+01 0. -1.
</event>
<event>
 5   0  0.3241189E-03  0.1098110E+04  0.7818609E-02  0.9207036E-01
        1   -1    0    0  501    0  0.00000000000E+00  0.00000000000E+00  0.73834177053E+03  0.73834177055E+03  0.50400001928E-02 0. -1.
       -1   -1    0    0    0  501  0.00000000000E+00  0.00000000000E+00 -0.40829499555E+03  0.40829499558E+03  0.50400001928E-02 0.  1.
    10030    2    1    2    0    0  0.00000000000E+00  0.00000000000E+00  0.33004677498E+03  0.11466367661E+04  0.10981097394E+04 0.  0.
        5    1    3    3  502    0 -0.33477099089E+02 -0.25495677288E+02  0.73663442267E+03  0.73785032925E+03  0.46999998093E+01 0. -1.
       -5    1    3    3    0  502  0.33477099089E+02  0.25495677288E+02 -0.40658764769E+03  0.40878643688E+03  0.46999998093E+01 0.  1.
</event>
<event>
 5   0  0.5627232E-03  0.1067887E+04  0.7818609E-02  0.9237069E-01
        2   -1    0    0  501    0  0.00000000000E+00  0.00000000000E+00  0.12472950952E+04  0.12472950952E+04  0.25500000920E-02 0.  1.
       -2   -1    0    0    0  501  0.00000000000E+00  0.00000000000E+00 -0.22857103201E+03  0.22857103203E+03  0.25500000920E-02 0. -1.
    10030    2    1    2    0    0  0.00000000000E+00  0.00000000000E+00  0.10187240632E+04  0.14758661273E+04  0.10678867490E+04 0.  0.
        2    1    3    3  502    0 -0.53309610374E+03 -0.19914712990E+02  0.47822843299E+03  0.71644293963E+03  0.25500000920E-02 0. -1.
       -2    1    3    3    0  502  0.53309610374E+03  0.19914712990E+02  0.54049563023E+03  0.75942318763E+03  0.25500000920E-02 0.  1.
</event>
<event>
 5   0  0.5627232E-03  0.9840621E+03  0.7818609E-02  0.9326200E-01
        2   -1    0    0  501    0  0.00000000000E+00  0.00000000000E+00  0.23612538697E+04  0.23612538697E+04  0.25500000920E-02 0.  1.
       -2   -1    0    0    0  501  0.00000000000E+00  0.00000000000E+00 -0.10252797221E+03  0.10252797224E+03  0.25500000920E-02 0. -1.
    10030    2    1    2    0    0  0.00000000000E+00  0.00000000000E+00  0.22587258975E+04  0.24637818420E+04  0.98406213455E+03 0.  0.
        2    1    3    3  502    0  0.11807282258E+03  0.13597569156E+03 -0.17051506179E+02  0.18089039222E+03  0.25500000920E-02 0. -1.
       -2    1    3    3    0  502 -0.11807282258E+03 -0.13597569156E+03  0.22757774037E+04  0.22828914497E+04  0.25500000920E-02 0.  1.
</event>
<event>
 5   0  0.5941585E-03  0.1081958E+04  0.7818609E-02  0.9222957E-01
       -2   -1    0    0    0  501  0.00000000000E+00  0.00000000000E+00  0.22564906046E+03  0.22564906048E+03  0.25500000920E-02 0. -1.
        2   -1    0    0  501    0  0.00000000000E+00  0.00000000000E+00 -0.12969621225E+04  0.12969621225E+04  0.25500000920E-02 0.  1.
    10030    2    1    2    0    0  0.00000000000E+00  0.00000000000E+00 -0.10713130620E+04  0.15226111830E+04  0.10819580110E+04 0.  0.
        5    1    3    3  502    0  0.43523872191E+03 -0.22423960012E+02 -0.84668380384E+02  0.44398919319E+03  0.46999998093E+01 0. -1.
       -5    1    3    3    0  502 -0.43523872191E+03  0.22423960012E+02 -0.98664468166E+03  0.10786219898E+04  0.46999998093E+01 0.  1.
</event>
<event>
 5   0  0.5946359E-03  0.1104150E+04  0.7818609E-02  0.9201157E-01
       -2   -1    0    0    0  501  0.00000000000E+00  0.00000000000E+00  0.14184293199E+03  0.14184293202E+03  0.25500000920E-02 0. -1.
        2   -1    0    0  501    0  0.00000000000E+00  0.00000000000E+00 -0.21487609672E+04  0.21487609672E+04  0.25500000920E-02 0.  1.
    10030    2    1    2    0    0  0.00000000000E+00  0.00000000000E+00 -0.20069180353E+04  0.22906038993E+04  0.11041495474E+04 0.  0.
        4    1    3    3  502    0  0.17164859523E+03 -0.16561870174E+03 -0.20363476136E+04  0.20502697411E+04  0.12699999809E+01 0.  1.
       -4    1    3    3    0  502 -0.17164859523E+03  0.16561870174E+03  0.29429578398E+02  0.24033415820E+03  0.12699999809E+01 0. -1.
</event>
<event>
 5   0  0.3215352E-03  0.1098574E+04  0.7818609E-02  0.9206583E-01
       -1   -1    0    0    0  501  0.00000000000E+00  0.00000000000E+00  0.44574924138E+03  0.44574924141E+03  0.50400001928E-02 0. -1.
        1   -1    0    0  501    0  0.00000000000E+00  0.00000000000E+00 -0.67687460870E+03  0.67687460872E+03  0.50400001928E-02 0.  1.
    10030    2    1    2    0    0  0.00000000000E+00  0.00000000000E+00 -0.23112536732E+03  0.11226238501E+04  0.10985742458E+04 0.  0.
        1    1    3    3  502    0  0.11059017949E+03 -0.21593872687E+03  0.38803047995E+03  0.45763235786E+03  0.50400001928E-02 0. -1.
       -1    1    3    3    0  502 -0.11059017949E+03  0.21593872687E+03 -0.61915584727E+03  0.66499149227E+03  0.50400001928E-02 0.  1.
</event>
<event>
 5   0  0.5946359E-03  0.1107557E+04  0.7818609E-02  0.9197857E-01
        2   -1    0    0  501    0  0.00000000000E+00  0.00000000000E+00  0.84430710411E+03  0.84430710411E+03  0.25500000920E-02 0. -1.
       -2   -1    0    0    0  501  0.00000000000E+00  0.00000000000E+00 -0.36322189995E+03  0.36322189995E+03  0.25500000920E-02 0.  1.
    10030    2    1    2    0    0  0.00000000000E+00  0.00000000000E+00  0.48108520417E+03  0.12075290041E+04  0.11075573674E+04 0.  0.
        4    1    3    3  502    0 -0.71793158454E+02  0.15064836051E+03 -0.33515354997E+03  0.37440446189E+03  0.12699999809E+01 0.  1.
       -4    1    3    3    0  502  0.71793158454E+02 -0.15064836051E+03  0.81623875414E+03  0.83312454218E+03  0.12699999809E+01 0. -1.
</event>
<event>
 5   0  0.3316784E-03  0.1168263E+04  0.7818609E-02  0.9141098E-01
        1   -1    0    0  501    0  0.00000000000E+00  0.00000000000E+00  0.63016648588E+03  0.63016648590E+03  0.50400001928E-02 0. -1.
       -1   -1    0    0    0  501  0.00000000000E+00  0.00000000000E+00 -0.54145966266E+03  0.54145966268E+03  0.50400001928E-02 0.  1.
    10030    2    1    2    0    0  0.00000000000E+00  0.00000000000E+00  0.88706823226E+02  0.11716261486E+04  0.11682632116E+04 0.  0.
        4    1    3    3  502    0 -0.30166145392E+03 -0.49795901510E+03 -0.31676539810E+01  0.58221513243E+03  0.12699999809E+01 0. -1.
       -4    1    3    3    0  502  0.30166145392E+03  0.49795901510E+03  0.91874477207E+02  0.58941101615E+03  0.12699999809E+01 0.  1.
</event>
<event>
 5   0  0.5723194E-03  0.1103641E+04  0.7818609E-02  0.9201651E-01
       -2   -1    0    0    0  501  0.00000000000E+00  0.00000000000E+00  0.10784811991E+04  0.10784811991E+04  0.25500000920E-02 0.  1.
        2   -1    0    0  501    0  0.00000000000E+00  0.00000000000E+00 -0.28234683387E+03  0.28234683388E+03  0.25500000920E-02 0. -1.
    10030    2    1    2    0    0  0.00000000000E+00  0.00000000000E+00  0.79613436520E+03  0.13608280329E+04  0.11036407966E+04 0.  0.
        1    1    3    3  502    0 -0.31629448515E+03  0.43633371285E+03  0.54435964261E+03  0.76600047704E+03  0.50400001928E-02 0. -1.
       -1    1    3    3    0  502  0.31629448515E+03 -0.43633371285E+03  0.25177472259E+03  0.59482755591E+03  0.50400001928E-02 0.  1.
</event>
<event>
 5   0  0.3328741E-03  0.1107381E+04  0.7818609E-02  0.9198027E-01
       -1   -1    0    0    0  501  0.00000000000E+00  0.00000000000E+00  0.65435907017E+03  0.65435907019E+03  0.50400001928E-02 0.  1.
        1   -1    0    0  501    0  0.00000000000E+00  0.00000000000E+00 -0.46850926247E+03  0.46850926250E+03  0.50400001928E-02 0. -1.
    10030    2    1    2    0    0  0.00000000000E+00  0.00000000000E+00  0.18584980770E+03  0.11228683327E+04  0.11073812088E+04 0.  0.
        3    1    3    3  502    0 -0.39543760610E+03  0.33949298097E+03 -0.96630406415E+02  0.53006021364E+03  0.10100000352E+00 0. -1.
       -3    1    3    3    0  502  0.39543760610E+03 -0.33949298097E+03  0.28248021412E+03  0.59280811905E+03  0.10100000352E+00 0.  1.
</event>
<event>
 5   0  0.5500363E-03  0.1137637E+04  0.7818609E-02  0.9169265E-01
        2   -1    0    0  501    0  0.00000000000E+00  0.00000000000E+00  0.14212264488E+04  0.14212264488E+04  0.25500000920E-02 0.  1.
       -2   -1    0    0    0  501  0.00000000000E+00  0.00000000000E+00 -0.22765869461E+03  0.22765869463E+03  0.25500000920E-02 0. -1.
    10030    2    1    2    0    0  0.00000000000E+00  0.00000000000E+00  0.11935677542E+04  0.16488851434E+04  0.11376371269E+04 0.  0.
        3    1    3    3  502    0  0.31292508688E+03 -0.29688370896E+03  0.59348619171E+02  0.43541281038E+03  0.10100000352E+00 0. -1.
       -3    1    3    3    0  502 -0.31292508688E+03  0.29688370896E+03  0.11342191350E+04  0.12134723331E+04  0.10100000352E+00 0.  1.
</event>
<event>
 5   0  0.3241189E-03  0.1127745E+04  0.7818609E-02  0.9178563E-01
        1   -1    0    0  501    0  0.00000000000E+00  0.00000000000E+00  0.15571451775E+04  0.15571451775E+04  0.50400001928E-02 0. -1.
       -1   -1    0    0    0  501  0.00000000000E+00  0.00000000000E+00 -0.20418935858E+03  0.20418935864E+03  0.50400001928E-02 0.  1.
    10030    2    1    2    0    0  0.00000000000E+00  0.00000000000E+00  0.13529558189E+04  0.17613345361E+04  0.11277454945E+04 0.  0.
        5    1    3    3  502    0  0.27134345676E+03 -0.47085384109E+03  0.44168617886E+03  0.70031377381E+03  0.46999998093E+01 0.  1.
       -5    1    3    3    0  502 -0.27134345676E+03  0.47085384109E+03  0.91126964005E+03  0.10610207623E+04  0.46999998093E+01 0. -1.
</event>
<event>
 5   0  0.5723194E-03  0.8595114E+03  0.7818609E-02  0.9477659E-01
        2   -1    0    0  501    0  0.00000000000E+00  0.00000000000E+00  0.36031986533E+03  0.36031986534E+03  0.25500000920E-02 0. -1.
       -2   -1    0    0    0  501  0.00000000000E+00  0.00000000000E+00 -0.51257218712E+03  0.51257218713E+03  0.25500000920E-02 0.  1.
    10030    2    1    2    0    0  0.00000000000E+00  0.00000000000E+00 -0.15225232179E+03  0.87289205246E+03  0.85951135290E+03 0.  0.
        1    1    3    3  502    0  0.40057888058E+03 -0.97729237571E+02  0.46902230401E+02  0.41498706327E+03  0.50400001928E-02 0. -1.
       -1    1    3    3    0  502 -0.40057888058E+03  0.97729237571E+02 -0.19915455219E+03  0.45790498919E+03  0.50400001928E-02 0.  1.
</event>
<event>
 5   0  0.5500363E-03  0.1111249E+04  0.7818609E-02  0.9194297E-01
       -2   -1    0    0    0  501  0.00000000000E+00  0.00000000000E+00  0.15959891635E+03  0.15959891637E+03  0.25500000920E-02 0.  1.
        2   -1    0    0  501    0  0.00000000000E+00  0.00000000000E+00 -0.19343393432E+04  0.19343393432E+04  0.25500000920E-02 0. -1.
    10030    2    1    2    0    0  0.00000000000E+00  0.00000000000E+00 -0.17747404268E+04  0.20939382595E+04  0.11112487805E+04 0.  0.
        3    1    3    3  502    0 -0.22703706378E+03  0.18837503100E+03 -0.16690932773E+00  0.29501020100E+03  0.10100000352E+00 0.  1.
       -3    1    3    3    0  502  0.22703706378E+03 -0.18837503100E+03 -0.17745735175E+04  0.17989280585E+04  0.10100000352E+00 0. -1.
</event>
<event>
 5   0  0.2185750E-03  0.1095994E+04  0.7818609E-02  0.9209105E-01
       -3   -1    0    0    0  501  0.00000000000E+00  0.00000000000E+00  0.42762154643E+03  0.42762155836E+03  0.10100000352E+00 0.  1.
        3   -1    0    0  501    0  0.00000000000E+00  0.00000000000E+00 -0.70225802526E+03  0.70225803253E+03  0.10100000352E+00 0. -1.
    10030    2    1    2    0    0  0.00000000000E+00  0.00000000000E+00 -0.27463647883E+03  0.11298795909E+04  0.10959939299E+04 0.  0.
        2    1    3    3  502    0  0.60922567138E+02 -0.54417892889E+03 -0.11524581716E+03  0.55957471727E+03  0.25500000920E-02 0. -1.
       -2    1    3    3    0  502 -0.60922567138E+02  0.54417892889E+03 -0.15939066167E+03  0.57030487361E+03  0.25500000920E-02 0.  1.
</event>
<event>
 5   0  0.3316784E-03  0.1067622E+04  0.7818609E-02  0.9237337E-01
       -1   -1    0    0    0  501  0.00000000000E+00  0.00000000000E+00  0.19163981186E+03  0.19163981192E+03  0.50400001928E-02 0.  1.
        1   -1    0    0  501    0  0.00000000000E+00  0.00000000000E+00 -0.14869262325E+04  0.14869262325E+04  0.50400001928E-02 0. -1.
    10030    2    1    2    0    0  0.00000000000E+00  0.00000000000E+00 -0.12952864206E+04  0.16785660444E+04  0.10676221495E+04 0.  0.
        4    1    3    3  502    0  0.23275029657E+03  0.47183013531E+03 -0.78963614902E+03  0.94885364408E+03  0.12699999809E+01 0.  1.
       -4    1    3    3    0  502 -0.23275029657E+03 -0.47183013531E+03 -0.50565027162E+03  0.72971240035E+03  0.12699999809E+01 0. -1.
</event>
<event>
 5   0  0.3320192E-03  0.1096401E+04  0.7818609E-02  0.9208707E-01
       -1   -1    0    0    0  501  0.00000000000E+00  0.00000000000E+00  0.14419288838E+04  0.14419288838E+04  0.50400001928E-02 0.  1.
        1   -1    0    0  501    0  0.00000000000E+00  0.00000000000E+00 -0.20841789941E+03  0.20841789947E+03  0.50400001928E-02 0. -1.
    10030    2    1    2    0    0  0.00000000000E+00  0.00000000000E+00  0.12335109844E+04  0.16503467833E+04  0.10964010017E+04 0.  0.
        2    1    3    3  502    0  0.43082420809E+03 -0.29834241236E+03  0.37448151365E+03  0.64409168397E+03  0.25500000920E-02 0. -1.
       -2    1    3    3    0  502 -0.43082420809E+03  0.29834241236E+03  0.85902947075E+03  0.10062550993E+04  0.25500000920E-02 0.  1.
</event>
<event>
 5   0  0.5946359E-03  0.1100111E+04  0.7818609E-02  0.9205084E-01
       -2   -1    0    0    0  501  0.00000000000E+00  0.00000000000E+00  0.21166200529E+03  0.21166200531E+03  0.25500000920E-02 0. -1.
        2   -1    0    0  501    0  0.00000000000E+00  0.00000000000E+00 -0.14294532471E+04  0.14294532471E+04  0.25500000920E-02 0.  1.
    10030    2    1    2    0    0  0.00000000000E+00  0.00000000000E+00 -0.12177912418E+04  0.16411152524E+04  0.11001107958E+04 0.  0.
        4    1    3    3  502    0  0.40081250697E+03  0.24937172040E+03 -0.18769126191E+03  0.50800250332E+03  0.12699999809E+01 0. -1.
       -4    1    3    3    0  502 -0.40081250697E+03 -0.24937172040E+03 -0.10300999799E+04  0.11331127491E+04  0.12699999809E+01 0.  1.
</event>
<event>
 5   0  0.5723194E-03  0.1102271E+04  0.7818609E-02  0.9202981E-01
       -2   -1    0    0    0  501  0.00000000000E+00  0.00000000000E+00  0.21617786365E+03  0.21617786366E+03  0.25500000920E-02 0. -1.
        2   -1    0    0  501    0  0.00000000000E+00  0.00000000000E+00 -0.14050940608E+04  0.14050940608E+04  0.25500000920E-02 0.  1.
    10030    2    1    2    0    0  0.00000000000E+00  0.00000000000E+00 -0.11889161971E+04  0.16212719244E+04  0.11022708057E+04 0.  0.
        1    1    3    3  502    0  0.32516118227E+03 -0.22897353693E+03 -0.33234850870E+02  0.39907797535E+03  0.50400001928E-02 0. -1.
       -1    1    3    3    0  502 -0.32516118227E+03  0.22897353693E+03 -0.11556813463E+04  0.12221939491E+04  0.50400001928E-02 0.  1.
</event>
<event>
 5   0  0.3215352E-03  0.1060051E+04  0.7818609E-02  0.9245028E-01
       -1   -1    0    0    0  501  0.00000000000E+00  0.00000000000E+00  0.10026139920E+04  0.10026139920E+04  0.50400001928E-02 0.  1.
        1   -1    0    0  501    0  0.00000000000E+00  0.00000000000E+00 -0.28019457807E+03  0.28019457811E+03  0.50400001928E-02 0. -1.
    10030    2    1    2    0    0  0.00000000000E+00  0.00000000000E+00  0.72241941392E+03  0.12828085701E+04  0.10600509506E+04 0.  0.
        1    1    3    3  502    0 -0.49154591418E+02  0.21432048433E+03  0.94481472625E+03  0.97006407563E+03  0.50400001928E-02 0.  1.
       -1    1    3    3    0  502  0.49154591418E+02 -0.21432048433E+03 -0.22239531233E+03  0.31274449449E+03  0.50400001928E-02 0. -1.
</event>
<event>
 5   0  0.5941585E-03  0.1112531E+04  0.7818609E-02  0.9193063E-01
        2   -1    0    0  501    0  0.00000000000E+00  0.00000000000E+00  0.13619729588E+04  0.13619729588E+04  0.25500000920E-02 0. -1.
       -2   -1    0    0    0  501  0.00000000000E+00  0.00000000000E+00 -0.22719352708E+03  0.22719352709E+03  0.25500000920E-02 0.  1.
    10030    2    1    2    0    0  0.00000000000E+00  0.00000000000E+00  0.11347794317E+04  0.15891664859E+04  0.11125312406E+04 0.  0.
        5    1    3    3  502    0 -0.24783231313E+03  0.87528869401E+02 -0.13286918619E+03  0.29454790620E+03  0.46999998093E+01 0.  1.
       -5    1    3    3    0  502  0.24783231313E+03 -0.87528869401E+02  0.12676486179E+04  0.12946185797E+04  0.46999998093E+01 0. -1.
</event>
<event>
 5   0  0.3316784E-03  0.1095000E+04  0.7818609E-02  0.9210079E-01
       -1   -1    0    0    0  501  0.00000000000E+00  0.00000000000E+00  0.43064072905E+03  0.43064072908E+03  0.50400001928E-02 0.  1.
        1   -1    0    0  501    0  0.00000000000E+00  0.00000000000E+00 -0.69607083093E+03  0.69607083095E+03  0.50400001928E-02 0. -1.
    10030    2    1    2    0    0  0.00000000000E+00  0.00000000000E+00 -0.26543010188E+03  0.11267115600E+04  0.10950003655E+04 0.  0.
        4    1    3    3  502    0  0.26413817791E+03  0.41465378837E+02  0.35889364836E+03  0.44754286767E+03  0.12699999809E+01 0.  1.
       -4    1    3    3    0  502 -0.26413817791E+03 -0.41465378837E+02 -0.62432375024E+03  0.67916869236E+03  0.12699999809E+01 0. -1.
</event>
<event>
 5   0  0.3328741E-03  0.1087171E+04  0.7818609E-02  0.9217787E-01
        1   -1    0    0  501    0  0.00000000000E+00  0.00000000000E+00  0.63644575309E+03  0.63644575311E+03  0.50400001928E-02 0. -1.
       -1   -1    0    0    0  501  0.00000000000E+00  0.00000000000E+00 -0.46427407350E+03  0.46427407352E+03  0.50400001928E-02 0.  1.
    10030    2    1    2    0    0  0.00000000000E+00  0.00000000000E+00  0.17217167959E+03  0.11007198266E+04  0.10871711225E+04 0.  0.
        3    1    3    3  502    0  0.29109691576E+03 -0.23584442930E+03 -0.31268199344E+03  0.48798570514E+03  0.10100000352E+00 0.  1.
       -3    1    3    3    0  502 -0.29109691576E+03  0.23584442930E+03  0.48485367304E+03  0.61273412150E+03  0.10100000352E+00 0. -1.
</event>
<event>
 5   0  0.2185750E-03  0.1100802E+04  0.7818609E-02  0.9204411E-01
       -3   -1    0    0    0  501  0.00000000000E+00  0.00000000000E+00  0.29915449878E+03  0.29915451583E+03  0.10100000352E+00 0.  1.
        3   -1    0    0  501    0  0.00000000000E+00  0.00000000000E+00 -0.10126572886E+04  0.10126572937E+04  0.10100000352E+00 0. -1.
    10030    2    1    2    0    0  0.00000000000E+00  0.00000000000E+00 -0.71350278986E+03  0.13118118095E+04  0.11008015227E+04 0.  0.
        5    1    3    3  502    0  0.37002370453E+03 -0.39901564255E+03 -0.45493290213E+03  0.70930745122E+03  0.46999998093E+01 0.  1.
       -5    1    3    3    0  502 -0.37002370453E+03  0.39901564255E+03 -0.25856988772E+03  0.60250435829E+03  0.46999998093E+01 0. -1.
</event>
<event>
 5   0  0.3320192E-03  0.1102272E+04  0.7818609E-02  0.9202980E-01
       -1   -1    0    0    0  501  0.00000000000E+00  0.00000000000E+00  0.23379246933E+03  0.23379246938E+03  0.50400001928E-02 0. -1.
        1   -1    0    0  501    0  0.00000000000E+00  0.00000000000E+00 -0.12992327854E+04  0.12992327854E+04  0.50400001928E-02 0.  1.
    10030    2    1    2    0    0  0.00000000000E+00  0.00000000000E+00 -0.10654403161E+04  0.15330252548E+04  0.11022719105E+04 0.  0.
        2    1    3    3  502    0  0.64451658731E+02 -0.19930920086E+03 -0.12417114011E+04  0.12592558824E+04  0.25500000920E-02 0.  1.
       -2    1    3    3    0  502 -0.64451658731E+02  0.19930920086E+03  0.17627108497E+03  0.27376937240E+03  0.25500000920E-02 0. -1.
</event>
<event>
 5   0  0.5946359E-03  0.1142718E+04  0.7818609E-02  0.9164528E-01
        2   -1    0    0  501    0  0.00000000000E+00  0.00000000000E+00  0.20710523635E+04  0.20710523635E+04  0.25500000920E-02 0.  1.
       -2   -1    0    0    0  501  0.00000000000E+00  0.00000000000E+00 -0.15762578862E+03  0.15762578864E+03  0.25500000920E-02 0. -1.
    10030    2    1    2    0    0  0.00000000000E+00  0.00000000000E+00  0.19134265749E+04  0.22286781521E+04  0.11427182716E+04 0.  0.
        4    1    3    3  502    0  0.16668380915E+02 -0.53062334659E+03  0.13686472480E+04  0.14680040440E+04  0.12699999809E+01 0.  1.
       -4    1    3    3    0  502 -0.16668380915E+02  0.53062334659E+03  0.54477932684E+03  0.76067410809E+03  0.12699999809E+01 0. -1.
</event>
<event>
 5   0  0.3215352E-03  0.1066258E+04  0.7818609E-02  0.9238718E-01
        1   -1    0    0  501    0  0.00000000000E+00  0.00000000000E+00  0.23835243057E+03  0.23835243062E+03  0.50400001928E-02 0.  1.
       -1   -1    0    0    0  501  0.00000000000E+00  0.00000000000E+00 -0.11924637475E+04  0.11924637475E+04  0.50400001928E-02 0. -1.
    10030    2    1    2    0    0  0.00000000000E+00  0.00000000000E+00 -0.95411131694E+03  0.14308161781E+04  0.10662581913E+04 0.  0.
        1    1    3    3  502    0  0.30620259659E+03 -0.97715373344E+02 -0.10478277379E+04  0.10960161006E+04  0.50400001928E-02 0. -1.
       -1    1    3    3    0  502 -0.30620259659E+03  0.97715373344E+02  0.93716420988E+02  0.33480007756E+03  0.50400001928E-02 0.  1.
</event>
<event>
 5   0  0.3328741E-03  0.1102504E+04  0.7818609E-02  0.9202755E-01
        1   -1    0    0  501    0  0.00000000000E+00  0.00000000000E+00  0.41689103804E+03  0.41689103807E+03  0.50400001928E-02 0. -1.
       -1   -1    0    0    0  501  0.00000000000E+00  0.00000000000E+00 -0.72891590466E+03  0.72891590467E+03  0.50400001928E-02 0.  1.
    10030    2    1    2    0    0  0.00000000000E+00  0.00000000000E+00 -0.31202486662E+03  0.11458069427E+04  0.11025035295E+04 0.  0.
        3    1    3    3  502    0 -0.35939311715E+03 -0.22034563493E+02 -0.58981526741E+03  0.69103617453E+03  0.10100000352E+00 0.  1.
       -3    1    3    3    0  502  0.35939311715E+03  0.22034563493E+02  0.27779040079E+03  0.45477076821E+03  0.10100000352E+00 0. -1.
</event>
<event>
 5   0  0.5627232E-03  0.1095270E+04  0.7818609E-02  0.9209815E-01
        2   -1    0    0  501    0  0.00000000000E+00  0.00000000000E+00  0.95786917512E+03  0.95786917513E+03  0.25500000920E-02 0.  1.
       -2   -1    0    0    0  501  0.00000000000E+00  0.00000000000E+00 -0.31309493559E+03  0.31309493560E+03  0.25500000920E-02 0. -1.
    10030    2    1    2    0    0  0.00000000000E+00  0.00000000000E+00  0.64477423953E+03  0.12709641107E+04  0.10952698073E+04 0.  0.
        2    1    3    3  502    0  0.40035015450E+03 -0.67531147974E+02  0.74884959804E+03  0.85183121723E+03  0.25500000920E-02 0.  1.
       -2    1    3    3    0  502 -0.40035015450E+03  0.67531147974E+02 -0.10407535851E+03  0.41913289350E+03  0.25500000920E-02 0. -1.
</event>
<event>
 5   0  0.5946359E-03  0.1252607E+04  0.7818609E-02  0.9068016E-01
        2   -1    0    0  501    0  0.00000000000E+00  0.00000000000E+00  0.86648712888E+03  0.86648712888E+03  0.25500000920E-02 0. -1.
       -2   -1    0    0    0  501  0.00000000000E+00  0.00000000000E+00 -0.45269708843E+03  0.45269708844E+03  0.25500000920E-02 0.  1.
    10030    2    1    2    0    0  0.00000000000E+00  0.00000000000E+00  0.41379004044E+03  0.13191842173E+04  0.12526072017E+04 0.  0.
        4    1    3    3  502    0 -0.89719474442E+02 -0.96366657199E+02  0.85174540155E+03  0.86186307421E+03  0.12699999809E+01 0. -1.
       -4    1    3    3    0  502  0.89719474442E+02  0.96366657199E+02 -0.43795536111E+03  0.45732114311E+03  0.12699999809E+01 0.  1.
</event>
<event>
 5   0  0.3241189E-03  0.1086753E+04  0.7818609E-02  0.9218200E-01
        1   -1    0    0  501    0  0.00000000000E+00  0.00000000000E+00  0.53706009967E+03  0.53706009970E+03  0.50400001928E-02 0.  1.
       -1   -1    0    0    0  501  0.00000000000E+00  0.00000000000E+00 -0.54976714165E+03  0.54976714167E+03  0.50400001928E-02 0. -1.
    10030    2    1    2    0    0  0.00000000000E+00  0.00000000000E+00 -0.12707041974E+02  0.10868272414E+04  0.10867529543E+04 0.  0.
        5    1    3    3  502    0  0.90824030994E+02 -0.10335569195E+02  0.52929496369E+03  0.53715088865E+03  0.46999998093E+01 0.  1.
       -5    1    3    3    0  502 -0.90824030994E+02  0.10335569195E+02 -0.54200200566E+03  0.54967635272E+03  0.46999998093E+01 0. -1.
</event>
<event>
 5   0  0.5946359E-03  0.1101785E+04  0.7818609E-02  0.9203454E-01
        2   -1    0    0  501    0  0.00000000000E+00  0.00000000000E+00  0.10411464858E+04  0.10411464858E+04  0.25500000920E-02 0.  1.
       -2   -1    0    0    0  501  0.00000000000E+00  0.00000000000E+00 -0.29148890915E+03  0.29148890916E+03  0.25500000920E-02 0. -1.
    10030    2    1    2    0    0  0.00000000000E+00  0.00000000000E+00  0.74965757660E+03  0.13326353949E+04  0.11017851940E+04 0.  0.
        4    1    3    3  502    0  0.26462978580E+03  0.40178324831E+03  0.69942841858E+03  0.84891720902E+03  0.12699999809E+01 0.  1.
       -4    1    3    3    0  502 -0.26462978580E+03 -0.40178324831E+03  0.50229158023E+02  0.48371818590E+03  0.12699999809E+01 0. -1.
</event>
<event>
 5   0  0.3320192E-03  0.1134678E+04  0.7818609E-02  0.9172036E-01
       -1   -1    0    0    0  501  0.00000000000E+00  0.00000000000E+00  0.48701689231E+03  0.48701689234E+03  0.50400001928E-02 0.  1.
        1   -1    0    0  501    0  0.00000000000E+00  0.00000000000E+00 -0.66090811245E+03  0.66090811247E+03  0.50400001928E-02 0. -1.
    10030    2    1    2    0    0  0.00000000000E+00  0.00000000000E+00 -0.17389122014E+03  0.11479250048E+04  0.11346777781E+04 0.  0.
        2    1    3    3  502    0  0.30477986750E+03 -0.13903988121E+02 -0.57084920267E+03  0.64726571106E+03  0.25500000920E-02 0. -1.
       -2    1    3    3    0  502 -0.30477986750E+03  0.13903988121E+02  0.39695798253E+03  0.50065929375E+03  0.25500000920E-02 0.  1.
</event>
<event>
 5   0  0.5941585E-03  0.1107667E+04  0.7818609E-02  0.9197751E-01
       -2   -1    0    0    0  501  0.00000000000E+00  0.00000000000E+00  0.49191904161E+03  0.49191904161E+03  0.25500000920E-02 0.  1.
        2   -1    0    0  501    0  0.00000000000E+00  0.00000000000E+00 -0.62354063825E+03  0.62354063826E+03  0.25500000920E-02 0. -1.
    10030    2    1    2    0    0  0.00000000000E+00  0.00000000000E+00 -0.13162159665E+03  0.11154596799E+04  0.11076669412E+04 0.  0.
        5    1    3    3  502    0 -0.44819376370E+03  0.11951924198E+03 -0.37050666368E+03  0.59368322939E+03  0.46999998093E+01 0. -1.
       -5    1    3    3    0  502  0.44819376370E+03 -0.11951924198E+03  0.23888506704E+03  0.52177645048E+03  0.46999998093E+01 0.  1.
</event>
<event>
 5   0  0.3316784E-03  0.9896964E+03  0.7818609E-02  0.9319918E-01
        1   -1    0    0  501    0  0.00000000000E+00  0.00000000000E+00  0.58810099379E+03  0.58810099381E+03  0.50400001928E-02 0.  1.
       -1   -1    0    0    0  501  0.00000000000E+00  0.00000000000E+00 -0.41638213716E+03  0.41638213719E+03  0.50400001928E-02 0. -1.
    10030    2    1    2    0    0  0.00000000000E+00  0.00000000000E+00  0.17171885663E+03  0.10044831310E+04  0.98969641545E+03 0.  0.
        4    1    3    3  502    0  0.28090416937E+03 -0.35223582484E+03  0.29360245248E+03  0.53775574537E+03  0.12699999809E+01 0. -1.
       -4    1    3    3    0  502 -0.28090416937E+03  0.35223582484E+03 -0.12188359585E+03  0.46672738564E+03  0.12699999809E+01 0.  1.
</event>
<event>
 5   0  0.5500363E-03  0.1096213E+04  0.7818609E-02  0.9208891E-01
        2   -1    0    0  501    0  0.00000000000E+00  0.00000000000E+00  0.21874758767E+04  0.21874758767E+04  0.25500000920E-02 0.  1.
       -2   -1    0    0    0  501  0.00000000000E+00  0.00000000000E+00 -0.13733676100E+03  0.13733676102E+03  0.25500000920E-02 0. -1.
    10030    2    1    2    0    0  0.00000000000E+00  0.00000000000E+00  0.20501391157E+04  0.23248126378E+04  0.10962132123E+04 0.  0.
        3    1    3    3  502    0 -0.37615027958E+03 -0.28353736023E+03  0.16194080780E+04  0.16865245331E+04  0.10100000352E+00 0.  1.
       -3    1    3    3    0  502  0.37615027958E+03  0.28353736023E+03  0.43073103774E+03  0.63828810466E+03  0.10100000352E+00 0. -1.
</event>
<event>
 5   0  0.2185750E-03  0.1107544E+04  0.7818609E-02  0.9197870E-01
       -4   -1    0    0    0  501  0.00000000000E+00  0.00000000000E+00  0.95269029324E+03  0.95269113974E+03  0.12699999809E+01 0.  1.
        4   -1    0    0  501    0  0.00000000000E+00  0.00000000000E+00 -0.32189005654E+03  0.32189256189E+03  0.12699999809E+01 0. -1.
    10030    2    1    2    0    0  0.00000000000E+00  0.00000000000E+00  0.63080023670E+03  0.12745837016E+04  0.11075444343E+04 0.  0.
        3    1    3    3  502    0 -0.28596082579E+03 -0.19525556599E+03 -0.18194210282E+03  0.39115376633E+03  0.10100000352E+00 0. -1.
       -3    1    3    3    0  502  0.28596082579E+03  0.19525556599E+03  0.81274233952E+03  0.88342993530E+03  0.10100000352E+00 0.  1.
</event>
<event>
 5   0  0.5627232E-03  0.1115099E+04  0.7818609E-02  0.9190600E-01
        2   -1    0    0  501    0  0.00000000000E+00  0.00000000000E+00  0.17519086196E+03  0.17519086198E+03  0.25500000920E-02 0. -1.
       -2   -1    0    0    0  501  0.00000000000E+00  0.00000000000E+00 -0.17744143380E+04  0.17744143380E+04  0.25500000920E-02 0.  1.
    10030    2    1    2    0    0  0.00000000000E+00  0.00000000000E+00 -0.15992234760E+04  0.19496052000E+04  0.11150985201E+04 0.  0.
        2    1    3    3  502    0  0.23158931048E+03 -0.47504530398E+03 -0.48901371765E+03  0.72002504513E+03  0.25500000920E-02 0. -1.
       -2    1    3    3    0  502 -0.23158931048E+03  0.47504530398E+03 -0.11102097584E+04  0.12295801548E+04  0.25500000920E-02 0.  1.
</event>
<event>
 5   0  0.2185750E-03  0.9978054E+03  0.7818609E-02  0.9310955E-01
       -3   -1    0    0    0  501  0.00000000000E+00  0.00000000000E+00  0.75035701849E+03  0.75035702529E+03  0.10100000352E+00 0. -1.
        3   -1    0    0  501    0  0.00000000000E+00  0.00000000000E+00 -0.33171393560E+03  0.33171395097E+03  0.10100000352E+00 0.  1.
    10030    2    1    2    0    0  0.00000000000E+00  0.00000000000E+00  0.41864308290E+03  0.10820709763E+04  0.99780537522E+03 0.  0.
        4    1    3    3  502    0  0.11268213094E+03 -0.29122703349E+03 -0.21262859356E+03  0.37778694971E+03  0.12699999809E+01 0.  1.
       -4    1    3    3    0  502 -0.11268213094E+03  0.29122703349E+03  0.63127167645E+03  0.70428402655E+03  0.12699999809E+01 0. -1.
</event>
<event>
 5   0  0.5946359E-03  0.1101504E+04  0.7818609E-02  0.9203727E-01
        2   -1    0    0  501    0  0.00000000000E+00  0.00000000000E+00  0.10977404784E+04  0.10977404784E+04  0.25500000920E-02 0.  1.
       -2   -1    0    0    0  501  0.00000000000E+00  0.00000000000E+00 -0.27632032103E+03  0.27632032104E+03  0.25500000920E-02 0. -1.
    10030    2    1    2    0    0  0.00000000000E+00  0.00000000000E+00  0.82142015741E+03  0.13740607995E+04  0.11015044284E+04 0.  0.
        4    1    3    3  502    0  0.16843280223E+03  0.41222617486E+03  0.81497760793E+03  0.92870347390E+03  0.12699999809E+01 0. -1.
       -4    1    3    3    0  502 -0.16843280223E+03 -0.41222617486E+03  0.64425494758E+01  0.44535732558E+03  0.12699999809E+01 0.  1.
</event>
<event>
 5   0  0.5941585E-03  0.1129338E+04  0.7818609E-02  0.9177060E-01
        2   -1    0    0  501    0  0.00000000000E+00  0.00000000000E+00  0.87365469773E+03  0.87365469773E+03  0.25500000920E-02 0. -1.
       -2   -1    0    0    0  501  0.00000000000E+00  0.00000000000E+00 -0.36496229445E+03  0.36496229446E+03  0.25500000920E-02 0.  1.
    10030    2    1    2    0    0  0.00000000000E+00  0.00000000000E+00  0.50869240328E+03  0.12386169922E+04  0.11293378999E+04 0.  0.
        5    1    3    3  502    0  0.52832632183E+02  0.55728388420E+03  0.33547944010E+03  0.65262941960E+03  0.46999998093E+01 0. -1.
       -5    1    3    3    0  502 -0.52832632183E+02 -0.55728388420E+03  0.17321296319E+03  0.58598757258E+03  0.46999998093E+01 0.  1.
</event>
<event>
 5   0  0.3316784E-03  0.1097714E+04  0.7818609E-02  0.9207423E-01
       -1   -1    0    0    0  501  0.00000000000E+00  0.00000000000E+00  0.22578093421E+03  0.22578093426E+03  0.50400001928E-02 0.  1.
        1   -1    0    0  501    0  0.00000000000E+00  0.00000000000E+00 -0.13342318266E+04  0.13342318266E+04  0.50400001928E-02 0. -1.
    10030    2    1    2    0    0  0.00000000000E+00  0.00000000000E+00 -0.11084508924E+04  0.15600127609E+04  0.10977141856E+04 0.  0.
        4    1    3    3  502    0  0.36186585931E+03  0.18266128426E+03 -0.10801081568E+04  0.11536668879E+04  0.12699999809E+01 0. -1.
       -4    1    3    3    0  502 -0.36186585931E+03 -0.18266128426E+03 -0.28342735545E+02  0.40634587295E+03  0.12699999809E+01 0.  1.
</event>
<event>
 5   0  0.2185750E-03  0.1154616E+04  0.7818609E-02  0.9153536E-01
        4   -1    0    0  501    0  0.00000000000E+00  0.00000000000E+00  0.55063444253E+03  0.55063590711E+03  0.12699999809E+01 0. -1.
       -4   -1    0    0    0  501  0.00000000000E+00  0.00000000000E+00 -0.60527028815E+03  0.60527162053E+03  0.12699999809E+01 0.  1.
    10030    2    1    2    0    0  0.00000000000E+00  0.00000000000E+00 -0.54635845622E+02  0.11559075276E+04  0.11546155797E+04 0.  0.
        5    1    3    3  502    0 -0.42676529417E+03  0.37503326875E+03 -0.12982206661E+03  0.58279878857E+03  0.46999998093E+01 0.  1.
       -5    1    3    3    0  502  0.42676529417E+03 -0.37503326875E+03  0.75186220992E+02  0.57310873907E+03  0.46999998093E+01 0. -1.
</event>
<event>
 5   0  0.5941585E-03  0.1102154E+04  0.7818609E-02  0.9203095E-01
        2   -1    0    0  501    0  0.00000000000E+00  0.00000000000E+00  0.24172213684E+03  0.24172213685E+03  0.25500000920E-02 0.  1.
       -2   -1    0    0    0  501  0.00000000000E+00  0.00000000000E+00 -0.12563438107E+04  0.12563438107E+04  0.25500000920E-02 0. -1.
    10030    2    1    2    0    0  0.00000000000E+00  0.00000000000E+00 -0.10146216738E+04  0.14980659475E+04  0.11021544548E+04 0.  0.
        5    1    3    3  502    0 -0.70213233912E+02 -0.32631192427E+03 -0.11032842675E+04  0.11526784613E+04  0.46999998093E+01 0. -1.
       -5    1    3    3    0  502  0.70213233912E+02  0.32631192427E+03  0.88662593688E+02  0.34538748625E+03  0.46999998093E+01 0.  1.
</event>
<event>
 5   0  0.3328741E-03  0.1119350E+04  0.7818609E-02  0.9186535E-01
        1   -1    0    0  501    0  0.00000000000E+00  0.00000000000E+00  0.13097456236E+04  0.13097456236E+04  0.50400001928E-02 0. -1.
       -1   -1    0    0    0  501  0.00000000000E+00  0.00000000000E+00 -0.23915800099E+03  0.23915800105E+03  0.50400001928E-02 0.  1.
    10030    2    1    2    0    0  0.00000000000E+00  0.00000000000E+00  0.10705876226E+04  0.15489036246E+04  0.11193500707E+04 0.  0.
        3    1    3    3  502    0 -0.41415426245E+03 -0.36770862868E+03  0.64687908157E+03  0.85157850201E+03  0.10100000352E+00 0. -1.
       -3    1    3    3    0  502  0.41415426245E+03  0.36770862868E+03  0.42370854102E+03  0.69732512262E+03  0.10100000352E+00 0.  1.
</event>
<event>
 5   0  0.5723194E-03  0.1103159E+04  0.7818609E-02  0.9202118E-01
        2   -1    0    0  501    0  0.00000000000E+00  0.00000000000E+00  0.14756497370E+04  0.14756497370E+04  0.25500000920E-02 0.  1.
       -2   -1    0    0    0  501  0.00000000000E+00  0.00000000000E+00 -0.20617371923E+03  0.20617371924E+03  0.25500000920E-02 0. -1.
    10030    2    1    2    0    0  0.00000000000E+00  0.00000000000E+00  0.12694760178E+04  0.16818234563E+04  0.11031594528E+04 0.  0.
        1    1    3    3  502    0  0.25961583036E+03  0.12643520041E+03  0.13512025564E+04  0.13817143654E+04  0.50400001928E-02 0.  1.
       -1    1    3    3    0  502 -0.25961583036E+03 -0.12643520041E+03 -0.81726538568E+02  0.30010909084E+03  0.50400001928E-02 0. -1.
</event>
<event>
 5   0  0.3215352E-03  0.1132187E+04  0.7818609E-02  0.9174376E-01
       -1   -1    0    0    0  501  0.00000000000E+00  0.00000000000E+00  0.10678408123E+04  0.10678408123E+04  0.50400001928E-02 0.  1.
        1   -1    0    0  501    0  0.00000000000E+00  0.00000000000E+00 -0.30010237898E+03  0.30010237902E+03  0.50400001928E-02 0. -1.
    10030    2    1    2    0    0  0.00000000000E+00  0.00000000000E+00  0.76773843327E+03  0.13679431913E+04  0.11321865008E+04 0.  0.
        1    1    3    3  502    0 -0.48820434669E+03 -0.12430941697E+03  0.69582989430E+03  0.85905503729E+03  0.50400001928E-02 0.  1.
       -1    1    3    3    0  502  0.48820434669E+03  0.12430941697E+03  0.71908538972E+02  0.50888815399E+03  0.50400001928E-02 0. -1.
</event>
<event>
 5   0  0.5723194E-03  0.1105431E+04  0.7818609E-02  0.9199915E-01
       -2   -1    0    0    0  501  0.00000000000E+00  0.00000000000E+00  0.27163032502E+03  0.27163032503E+03  0.25500000920E-02 0.  1.
        2   -1    0    0  501    0  0.00000000000E+00  0.00000000000E+00 -0.11246695603E+04  0.11246695603E+04  0.25500000920E-02 0. -1.
    10030    2    1    2    0    0  0.00000000000E+00  0.00000000000E+00 -0.85303923524E+03  0.13962998853E+04  0.11054308811E+04 0.  0.
        1    1    3    3  502    0  0.45509011925E+03  0.31166991949E+03 -0.47116366782E+03  0.72542426018E+03  0.50400001928E-02 0. -1.
       -1    1    3    3    0  502 -0.45509011925E+03 -0.31166991949E+03 -0.38187556742E+03  0.67087562511E+03  0.50400001928E-02 0.  1.
</event>
<event>
 5   0  0.5723194E-03  0.1144561E+04  0.7818609E-02  0.9162816E-01
       -2   -1    0    0    0  501  0.00000000000E+00  0.00000000000E+00  0.61777134135E+03  0.61777134136E+03  0.25500000920E-02 0. -1.
        2   -1    0    0  501    0  0.00000000000E+00  0.00000000000E+00 -0.53013969640E+03  0.53013969640E+03  0.25500000920E-02 0.  1.
    10030    2    1    2    0    0  0.00000000000E+00  0.00000000000E+00  0.87631644957E+02  0.11479110378E+04  0.11445612458E+04 0.  0.
        1    1    3    3  502    0  0.53220903073E+02 -0.52252642975E+03 -0.18409091757E+03  0.55655709525E+03  0.50400001928E-02 0.  1.
       -1    1    3    3    0  502 -0.53220903073E+02  0.52252642975E+03  0.27172256252E+03  0.59135394251E+03  0.50400001928E-02 0. -1.
</event>
<event>
 5   0  0.5941585E-03  0.1089697E+04  0.7818609E-02  0.9215292E-01
        2   -1    0    0  501    0  0.00000000000E+00  0.00000000000E+00  0.59531224922E+03  0.59531224923E+03  0.25500000920E-02 0.  1.
       -2   -1    0    0    0  501  0.00000000000E+00  0.00000000000E+00 -0.49866264584E+03  0.49866264584E+03  0.25500000920E-02 0. -1.
    10030    2    1    2    0    0  0.00000000000E+00  0.00000000000E+00  0.96649603385E+02  0.10939748951E+04  0.10896971713E+04 0.  0.
        5    1    3    3  502    0 -0.42956739410E+02 -0.17240855692E+03 -0.46873869800E+03  0.50130634243E+03  0.46999998093E+01 0. -1.
       -5    1    3    3    0  502  0.42956739410E+02  0.17240855692E+03  0.56538830138E+03  0.59266855265E+03  0.46999998093E+01 0.  1.
</event>
<event>
 5   0  0.5500363E-03  0.1098589E+04  0.7818609E-02  0.9206568E-01
       -2   -1    0    0    0  501  0.00000000000E+00  0.00000000000E+00  0.13645862993E+04  0.13645862993E+04  0.25500000920E-02 0.  1.
        2   -1    0    0  501    0  0.00000000000E+00  0.00000000000E+00 -0.22111076228E+03  0.22111076230E+03  0.25500000920E-02 0. -1.
    10030    2    1    2    0    0  0.00000000000E+00  0.00000000000E+00  0.11434755370E+04  0.15856970616E+04  0.10985894900E+04 0.  0.
        3    1    3    3  502    0  0.45632252411E+03  0.14940736678E+03  0.95680721409E+03  0.10705292441E+04  0.10100000352E+00 0.  1.
       -3    1    3    3    0  502 -0.45632252411E+03 -0.14940736678E+03  0.18666832295E+03  0.51516781756E+03  0.10100000352E+00 0. -1.
</event>
<event>
 5   0  0.3320192E-03  0.1105592E+04  0.7818609E-02  0.9199759E-01
       -1   -1    0    0    0  501  0.00000000000E+00  0.00000000000E+00  0.59318270549E+03  0.59318270551E+03  0.50400001928E-02 0. -1.
        1   -1    0    0  501    0  0.00000000000E+00  0.00000000000E+00 -0.51515889100E+03  0.51515889102E+03  0.50400001928E-02 0.  1.
    10030    2    1    2    0    0  0.00000000000E+00  0.00000000000E+00  0.78023814492E+02  0.11083415965E+04  0.11055918682E+04 0.  0.
        2    1    3    3  502    0  0.36810956198E+03  0.41209300671E+03  0.22908052973E+02  0.55303713682E+03  0.25500000920E-02 0.  1.
       -2    1    3    3    0  502 -0.36810956198E+03 -0.41209300671E+03  0.55115761519E+02  0.55530445971E+03  0.25500000920E-02 0. -1.
</event>
<event>
 5   0  0.3328741E-03  0.1102701E+04  0.7818609E-02  0.9202563E-01
        1   -1    0    0  501    0  0.00000000000E+00  0.00000000000E+00  0.10486236016E+04  0.10486236016E+04  0.50400001928E-02 0. -1.
       -1   -1    0    0    0  501  0.00000000000E+00  0.00000000000E+00 -0.28989178399E+03  0.28989178404E+03  0.50400001928E-02 0.  1.
    10030    2    1    2    0    0  0.00000000000E+00  0.00000000000E+00  0.75873181758E+03  0.13385153856E+04  0.11027009869E+04 0.  0.
        3    1    3    3  502    0 -0.11069750493E+01  0.27243169673E+03  0.96121388393E+03  0.99907577072E+03  0.10100000352E+00 0. -1.
       -3    1    3    3    0  502  0.11069750493E+01 -0.27243169673E+03 -0.20248206635E+03  0.33943961491E+03  0.10100000352E+00 0.  1.
</event>
<event>
 5   0  0.2185750E-03  0.1110261E+04  0.7818609E-02  0.9195248E-01
       -3   -1    0    0    0  501  0.00000000000E+00  0.00000000000E+00  0.33786517052E+03  0.33786518562E+03  0.10100000352E+00 0. -1.
        3   -1    0    0  501    0  0.00000000000E+00  0.00000000000E+00 -0.91210842640E+03  0.91210843199E+03  0.10100000352E+00 0.  1.
    10030    2    1    2    0    0  0.00000000000E+00  0.00000000000E+00 -0.57424325588E+03  0.12499736176E+04  0.11102606576E+04 0.  0.
        1    1    3    3  502    0 -0.10093285247E+03  0.50831084953E+02  0.32477772819E+03  0.34387761291E+03  0.50400001928E-02 0. -1.
       -1    1    3    3    0  502  0.10093285247E+03 -0.50831084953E+02 -0.89902098407E+03  0.90609600470E+03  0.50400001928E-02 0.  1.
</event>
<event>
 5   0  0.3320192E-03  0.1095545E+04  0.7818609E-02  0.9209545E-01
       -1   -1    0    0    0  501  0.00000000000E+00  0.00000000000E+00  0.67159644001E+03  0.67159644003E+03  0.50400001928E-02 0. -1.
        1   -1    0    0  501    0  0.00000000000E+00  0.00000000000E+00 -0.44677847383E+03  0.44677847385E+03  0.50400001928E-02 0.  1.
    10030    2    1    2    0    0  0.00000000000E+00  0.00000000000E+00  0.22481796619E+03  0.11183749139E+04  0.10955452205E+04 0.  0.
        2    1    3    3  502    0 -0.25516777354E+03 -0.34180595743E+03  0.46324633558E+03  0.62971348455E+03  0.25500000920E-02 0. -1.
       -2    1    3    3    0  502  0.25516777354E+03  0.34180595743E+03 -0.23842836939E+03  0.48866142934E+03  0.25500000920E-02 0.  1.
</event>
<event>
 5   0  0.3215352E-03  0.1058365E+04  0.7818609E-02  0.9246750E-01
        1   -1    0    0  501    0  0.00000000000E+00  0.00000000000E+00  0.79958207347E+03  0.79958207348E+03  0.50400001928E-02 0. -1.
       -1   -1    0    0    0  501  0.00000000000E+00  0.00000000000E+00 -0.35022547214E+03  0.35022547217E+03  0.50400001928E-02 0.  1.
    10030    2    1    2    0    0  0.00000000000E+00  0.00000000000E+00  0.44935660133E+03  0.11498075457E+04  0.10583647939E+04 0.  0.
        1    1    3    3  502    0  0.50818313358E+03 -0.35690649319E+01  0.38497725567E+03  0.63755025127E+03  0.50400001928E-02 0. -1.
       -1    1    3    3    0  502 -0.50818313358E+03  0.35690649319E+01  0.64379345656E+02  0.51225729439E+03  0.50400001928E-02 0.  1.
</event>
<event>
 5   0  0.5723194E-03  0.1080402E+04  0.7818609E-02  0.9224507E-01
        2   -1    0    0  501    0  0.00000000000E+00  0.00000000000E+00  0.10576733918E+04  0.10576733918E+04  0.25500000920E-02 0.  1.
       -2   -1    0    0    0  501  0.00000000000E+00  0.00000000000E+00 -0.27590462263E+03  0.27590462264E+03  0.25500000920E-02 0. -1.
    10030    2    1    2    0    0  0.00000000000E+00  0.00000000000E+00  0.78176876917E+03  0.13335780145E+04  0.10804017365E+04 0.  0.
        1    1    3    3  502    0  0.32325210358E+03 -0.25140590848E+03  0.82574918451E+03  0.92171501509E+03  0.50400001928E-02 0.  1.
       -1    1    3    3    0  502 -0.32325210358E+03  0.25140590848E+03 -0.43980415342E+02  0.41186299937E+03  0.50400001928E-02 0. -1.
</event>
<event>
 5   0  0.3328741E-03  0.1102722E+04  0.7818609E-02  0.9202543E-01
        1   -1    0    0  501    0  0.00000000000E+00  0.00000000000E+00  0.10623635715E+04  0.10623635715E+04  0.50400001928E-02 0. -1.
       -1   -1    0    0    0  501  0.00000000000E+00  0.00000000000E+00 -0.28615338234E+03  0.28615338238E+03  0.50400001928E-02 0.  1.
    10030    2    1    2    0    0  0.00000000000E+00  0.00000000000E+00  0.77621018912E+03  0.13485169539E+04  0.11027219582E+04 0.  0.
        3    1    3    3  502    0 -0.33251198604E+02  0.34986428050E+03 -0.13142997651E+03  0.37521261427E+03  0.10100000352E+00 0.  1.
       -3    1    3    3    0  502  0.33251198604E+02 -0.34986428050E+03  0.90764016564E+03  0.97330433959E+03  0.10100000352E+00 0. -1.
</event>
<event>
 5   0  0.5627232E-03  0.1068555E+04  0.7818609E-02  0.9236394E-01
        2   -1    0    0  501    0  0.00000000000E+00  0.00000000000E+00  0.13037882539E+04  0.13037882539E+04  0.25500000920E-02 0.  1.
       -2   -1    0    0    0  501  0.00000000000E+00  0.00000000000E+00 -0.21894076748E+03  0.21894076750E+03  0.25500000920E-02 0. -1.
    10030    2    1    2    0    0  0.00000000000E+00  0.00000000000E+00  0.10848474864E+04  0.15227290214E+04  0.10685549138E+04 0.  0.
        2    1    3    3  502    0 -0.35548557076E+03  0.39642012797E+03  0.47976279299E+03  0.71672257284E+03  0.25500000920E-02 0. -1.
       -2    1    3    3    0  502  0.35548557076E+03 -0.39642012797E+03  0.60508469340E+03  0.80600644853E+03  0.25500000920E-02 0.  1.
</event>
<event>
 5   0  0.3241189E-03  0.1091903E+04  0.7818609E-02  0.9213120E-01
        1   -1    0    0  501    0  0.00000000000E+00  0.00000000000E+00  0.66315243705E+03  0.66315243707E+03  0.50400001928E-02 0.  1.
       -1   -1    0    0    0  501  0.00000000000E+00  0.00000000000E+00 -0.44946410229E+03  0.44946410232E+03  0.50400001928E-02 0. -1.
    10030    2    1    2    0    0  0.00000000000E+00  0.00000000000E+00  0.21368833476E+03  0.11126165394E+04  0.10919033196E+04 0.  0.
        5    1    3    3  502    0  0.48381959098E+03 -0.23406318259E+03  0.92453946601E+01  0.53756351939E+03  0.46999998093E+01 0. -1.
       -5    1    3    3    0  502 -0.48381959098E+03  0.23406318259E+03  0.20444294010E+03  0.57505302000E+03  0.46999998093E+01 0.  1.
</event>
<event>
 5   0  0.5946359E-03  0.1107963E+04  0.7818609E-02  0.9197465E-01
       -2   -1    0    0    0  501  0.00000000000E+00  0.00000000000E+00  0.51458390175E+03  0.51458390175E+03  0.25500000920E-02 0.  1.
        2   -1    0    0  501    0  0.00000000000E+00  0.00000000000E+00 -0.59639511969E+03  0.59639511970E+03  0.25500000920E-02 0. -1.
    10030    2    1    2    0    0  0.00000000000E+00  0.00000000000E+00 -0.81811217945E+02  0.11109790214E+04  0.11079626847E+04 0.  0.
        4    1    3    3  502    0 -0.28734649236E+03  0.16340779374E+03 -0.48666461736E+03  0.58831469165E+03  0.12699999809E+01 0. -1.
       -4    1    3    3    0  502  0.28734649236E+03 -0.16340779374E+03  0.40485339941E+03  0.52266432980E+03  0.12699999809E+01 0.  1.
</event>
<event>
 5   0  0.5723194E-03  0.1100789E+04  0.7818609E-02  0.9204423E-01
        2   -1    0    0  501    0  0.00000000000E+00  0.00000000000E+00  0.11541131105E+04  0.11541131105E+04  0.25500000920E-02 0.  1.
       -2   -1    0    0    0  501  0.00000000000E+00  0.00000000000E+00 -0.26248224495E+03  0.26248224496E+03  0.25500000920E-02 0. -1.
    10030    2    1    2    0    0  0.00000000000E+00  0.00000000000E+00  0.89163086556E+03  0.14165953555E+04  0.11007891718E+04 0.  0.
        1    1    3    3  502    0  0.19485238802E+03  0.36983061470E+03 -0.14941876956E+02  0.41828865200E+03  0.50400001928E-02 0. -1.
       -1    1    3    3    0  502 -0.19485238802E+03 -0.36983061470E+03  0.90657274251E+03  0.99830670346E+03  0.50400001928E-02 0.  1.
</event>
<event>
 5   0  0.5723194E-03  0.1104603E+04  0.7818609E-02  0.9200717E-01
        2   -1    0    0  501    0  0.00000000000E+00  0.00000000000E+00  0.49181146235E+03  0.49181146235E+03  0.25500000920E-02 0.  1.
       -2   -1    0    0    0  501  0.00000000000E+00  0.00000000000E+00 -0.62023122116E+03  0.62023122116E+03  0.25500000920E-02 0. -1.
    10030    2    1    2    0    0  0.00000000000E+00  0.00000000000E+00 -0.12841975881E+03  0.11120426835E+04  0.11046027773E+04 0.  0.
        1    1    3    3  502    0 -0.18320992635E+03 -0.16025884409E+03 -0.56331923196E+03  0.61365896990E+03  0.50400001928E-02 0. -1.
       -1    1    3    3    0  502  0.18320992635E+03  0.16025884409E+03  0.43489947315E+03  0.49838371361E+03  0.50400001928E-02 0.  1.
</event>
<event>
 5   0  0.3316784E-03  0.1110036E+04  0.7818609E-02  0.9195465E-01
        1   -1    0    0  501    0  0.00000000000E+00  0.00000000000E+00  0.16668505812E+04  0.16668505812E+04  0.50400001928E-02 0. -1.
       -1   -1    0    0    0  501  0.00000000000E+00  0.00000000000E+00 -0.18480643210E+03  0.18480643217E+03  0.50400001928E-02 0.  1.
    10030    2    1    2    0    0  0.00000000000E+00  0.00000000000E+00  0.14820441491E+04  0.18516570134E+04  0.11100355108E+04 0.  0.
        4    1    3    3  502    0  0.22349239425E+03  0.27528867177E+03  0.14532670357E+04  0.14959008634E+04  0.12699999809E+01 0. -1.
       -4    1    3    3    0  502 -0.22349239425E+03 -0.27528867177E+03  0.28777113366E+02  0.35575614998E+03  0.12699999809E+01 0.  1.
</event>
<event>
 5   0  0.5946359E-03  0.1106447E+04  0.7818609E-02  0.9198931E-01
        2   -1    0    0  501    0  0.00000000000E+00  0.00000000000E+00  0.25355557380E+03  0.25355557382E+03  0.25500000920E-02 0. -1.
       -2   -1    0    0    0  501  0.00000000000E+00  0.00000000000E+00 -0.12070569002E+04  0.12070569002E+04  0.25500000920E-02 0.  1.
    10030    2    1    2    0    0  0.00000000000E+00  0.00000000000E+00 -0.95350132635E+03  0.14606124740E+04  0.11064465734E+04 0.  0.
        4    1    3    3  502    0  0.24449867515E+03 -0.77838602903E+02  0.17025110869E+03  0.30793749879E+03  0.12699999809E+01 0. -1.
       -4    1    3    3    0  502 -0.24449867515E+03  0.77838602903E+02 -0.11237524350E+04  0.11526749752E+04  0.12699999809E+01 0.  1.
</event>
<event>
 5   0  0.5946359E-03  0.1104123E+04  0.7818609E-02  0.9201182E-01
       -2   -1    0    0    0  501  0.00000000000E+00  0.00000000000E+00  0.30007041794E+03  0.30007041795E+03  0.25500000920E-02 0.  1.
        2   -1    0    0  501    0  0.00000000000E+00  0.00000000000E+00 -0.10156683800E+04  0.10156683800E+04  0.25500000920E-02 0. -1.
    10030    2    1    2    0    0  0.00000000000E+00  0.00000000000E+00 -0.71559796203E+03  0.13157387979E+04  0.11041232454E+04 0.  0.
        4    1    3    3  502    0 -0.30853073817E+03  0.33222677571E+03  0.17535081362E+02  0.45373443651E+03  0.12699999809E+01 0.  1.
       -4    1    3    3    0  502  0.30853073817E+03 -0.33222677571E+03 -0.73313304339E+03  0.86200436142E+03  0.12699999809E+01 0. -1.
</event>
<event>
 5   0  0.3320192E-03  0.1103543E+04  0.7818609E-02  0.9201745E-01
        1   -1    0    0  501    0  0.00000000000E+00  0.00000000000E+00  0.32529488458E+03  0.32529488462E+03  0.50400001928E-02 0. -1.
       -1   -1    0    0    0  501  0.00000000000E+00  0.00000000000E+00 -0.93592576100E+03  0.93592576101E+03  0.50400001928E-02 0.  1.
    10030    2    1    2    0    0  0.00000000000E+00  0.00000000000E+00 -0.61063087641E+03  0.12612206456E+04  0.11035431345E+04 0.  0.
        2    1    3    3  502    0  0.10709060865E+03 -0.44369924730E+03 -0.65963577689E+03  0.80215757721E+03  0.25500000920E-02 0.  1.
       -2    1    3    3    0  502 -0.10709060865E+03  0.44369924730E+03  0.49004900479E+02  0.45906306842E+03  0.25500000920E-02 0. -1.
</event>
<event>
 5   0  0.5723194E-03  0.1106538E+04  0.7818609E-02  0.9198843E-01
       -2   -1    0    0    0  501  0.00000000000E+00  0.00000000000E+00  0.45148372578E+03  0.45148372578E+03  0.25500000920E-02 0.  1.
        2   -1    0    0  501    0  0.00000000000E+00  0.00000000000E+00 -0.67800160389E+03  0.67800160389E+03  0.25500000920E-02 0. -1.
    10030    2    1    2    0    0  0.00000000000E+00  0.00000000000E+00 -0.22651787811E+03  0.11294853297E+04  0.11065381877E+04 0.  0.
        1    1    3    3  502    0 -0.21078769196E+03  0.34034975076E+03  0.27654702108E+03  0.48656721922E+03  0.50400001928E-02 0.  1.
       -1    1    3    3    0  502  0.21078769196E+03 -0.34034975076E+03 -0.50306489920E+03  0.64291811046E+03  0.50400001928E-02 0. -1.
</event>
<event>
 5   0  0.3241189E-03  0.1118006E+04  0.7818609E-02  0.9187817E-01
        1   -1    0    0  501    0  0.00000000000E+00  0.00000000000E+00  0.17400951739E+04  0.17400951739E+04  0.50400001928E-02 0.  1.
       -1   -1    0    0    0  501  0.00000000000E+00  0.00000000000E+00 -0.17957900602E+03  0.17957900609E+03  0.50400001928E-02 0. -1.
    10030    2    1    2    0    0  0.00000000000E+00  0.00000000000E+00  0.15605161679E+04  0.19196741800E+04  0.11180063717E+04 0.  0.
        5    1    3    3  502    0  0.24537655311E+03  0.35741499205E+03  0.17438630120E+03  0.46731980635E+03  0.46999998093E+01 0. -1.
       -5    1    3    3    0  502 -0.24537655311E+03 -0.35741499205E+03  0.13861298667E+04  0.14523543736E+04  0.46999998093E+01 0.  1.
</event>
<event>
 5   0  0.3241189E-03  0.1096574E+04  0.7818609E-02  0.9208537E-01
       -1   -1    0    0    0  501  0.00000000000E+00  0.00000000000E+00  0.50673425595E+03  0.50673425598E+03  0.50400001928E-02 0. -1.
        1   -1    0    0  501    0  0.00000000000E+00  0.00000000000E+00 -0.59324713248E+03  0.59324713250E+03  0.50400001928E-02 0.  1.
    10030    2    1    2    0    0  0.00000000000E+00  0.00000000000E+00 -0.86512876526E+02  0.10999813885E+04  0.10965740181E+04 0.  0.
        5    1    3    3  502    0 -0.64307264574E+02 -0.31142457180E+02  0.50202374928E+03  0.50710473450E+03  0.46999998093E+01 0. -1.
       -5    1    3    3    0  502  0.64307264574E+02  0.31142457180E+02 -0.58853662581E+03  0.59287665398E+03  0.46999998093E+01 0.  1.
</event>
<event>
 5   0  0.3241189E-03  0.1123401E+04  0.7818609E-02  0.9182680E-01
        1   -1    0    0  501    0  0.00000000000E+00  0.00000000000E+00  0.10288030684E+04  0.10288030685E+04  0.50400001928E-02 0.  1.
       -1   -1    0    0    0  501  0.00000000000E+00  0.00000000000E+00 -0.30667404761E+03  0.30667404765E+03  0.50400001928E-02 0. -1.
    10030    2    1    2    0    0  0.00000000000E+00  0.00000000000E+00  0.72212902083E+03  0.13354771161E+04  0.11234005541E+04 0.  0.
        5    1    3    3  502    0  0.49373180962E+03 -0.26736524582E+03  0.34304215612E+03  0.65799337792E+03  0.46999998093E+01 0. -1.
       -5    1    3    3    0  502 -0.49373180962E+03  0.26736524582E+03  0.37908686471E+03  0.67748373818E+03  0.46999998093E+01 0.  1.
</event>
<event>
 5   0  0.3320192E-03  0.1162883E+04  0.7818609E-02  0.9145980E-01
       -1   -1    0    0    0  501  0.00000000000E+00  0.00000000000E+00  0.43234434822E+03  0.43234434825E+03  0.50400001928E-02 0. -1.
        1   -1    0    0  501    0  0.00000000000E+00  0.00000000000E+00 -0.78195638362E+03  0.78195638364E+03  0.50400001928E-02 0.  1.
    10030    2    1    2    0    0  0.00000000000E+00  0.00000000000E+00 -0.34961203540E+03  0.12143007319E+04  0.11628833528E+04 0.  0.
        2    1    3    3  502    0 -0.26136513996E+03  0.51434222457E+02  0.36487983818E+03  0.45176820599E+03  0.25500000920E-02 0. -1.
       -2    1    3    3    0  502  0.26136513996E+03 -0.51434222457E+02 -0.71449187358E+03  0.76253252590E+03  0.25500000920E-02 0.  1.
</event>
<event>
 5   0  0.5500363E-03  0.1098630E+04  0.7818609E-02  0.9206529E-01
        2   -1    0    0  501    0  0.00000000000E+00  0.00000000000E+00  0.16705894327E+04  0.16705894327E+04  0.25500000920E-02 0. -1.
       -2   -1    0    0    0  501  0.00000000000E+00  0.00000000000E+00 -0.18062290288E+03  0.18062290290E+03  0.25500000920E-02 0.  1.
    10030    2    1    2    0    0  0.00000000000E+00  0.00000000000E+00  0.14899665298E+04  0.18512123356E+04  0.10986295333E+04 0.  0.
        3    1    3    3  502    0  0.68573343978E+02 -0.27924329599E+03 -0.43684376205E+02  0.29083922842E+03  0.10100000352E+00 0.  1.
       -3    1    3    3    0  502 -0.68573343978E+02  0.27924329599E+03  0.15336509060E+04  0.15603731071E+04  0.10100000352E+00 0. -1.
</event>
<event>
 5   0  0.5941585E-03  0.1109923E+04  0.7818609E-02  0.9195574E-01
        2   -1    0    0  501    0  0.00000000000E+00  0.00000000000E+00  0.81510918629E+03  0.81510918629E+03  0.25500000920E-02 0.  1.
       -2   -1    0    0    0  501  0.00000000000E+00  0.00000000000E+00 -0.37784175001E+03  0.37784175002E+03  0.25500000920E-02 0. -1.
    10030    2    1    2    0    0  0.00000000000E+00  0.00000000000E+00  0.43726743628E+03  0.11929509363E+04  0.11099230269E+04 0.  0.
        5    1    3    3  502    0  0.49399303896E+03 -0.13370376213E+03 -0.12022494781E+02  0.51193012114E+03  0.46999998093E+01 0. -1.
       -5    1    3    3    0  502 -0.49399303896E+03  0.13370376213E+03  0.44928993106E+03  0.68102081517E+03  0.46999998093E+01 0.  1.
</event>
<event>
 5   0  0.5627232E-03  0.1098528E+04  0.7818609E-02  0.9206628E-01
        2   -1    0    0  501    0  0.00000000000E+00  0.00000000000E+00  0.82390866432E+03  0.82390866433E+03  0.25500000920E-02 0. -1.
       -2   -1    0    0    0  501  0.00000000000E+00  0.00000000000E+00 -0.36617046491E+03  0.36617046492E+03  0.25500000920E-02 0.  1.
    10030    2    1    2    0    0  0.00000000000E+00  0.00000000000E+00  0.45773819941E+03  0.11900791292E+04  0.10985281401E+04 0.  0.
        2    1    3    3  502    0 -0.91927277239E+02 -0.42052384702E+03  0.59847705284E+03  0.73720127034E+03  0.25500000920E-02 0. -1.
       -2    1    3    3    0  502  0.91927277239E+02  0.42052384702E+03 -0.14073885343E+03  0.45287785890E+03  0.25500000920E-02 0.  1.
</event>
<event>
 5   0  0.3320192E-03  0.1098099E+04  0.7818609E-02  0.9207047E-01
        1   -1    0    0  501    0  0.00000000000E+00  0.00000000000E+00  0.78594590028E+03  0.78594590030E+03  0.50400001928E-02 0.  1.
       -1   -1    0    0    0  501  0.00000000000E+00  0.00000000000E+00 -0.38355726398E+03  0.38355726402E+03  0.50400001928E-02 0. -1.
    10030    2    1    2    0    0  0.00000000000E+00  0.00000000000E+00  0.40238863630E+03  0.11695031643E+04  0.10980988283E+04 0.  0.
        2    1    3    3  502    0 -0.44040487676E+03  0.48027535186E+02  0.54661764181E+03  0.70360070065E+03  0.25500000920E-02 0.  1.
       -2    1    3    3    0  502  0.44040487676E+03 -0.48027535186E+02 -0.14422900551E+03  0.46590246366E+03  0.25500000920E-02 0. -1.
</event>
<event>
 5   0  0.5723194E-03  0.8707170E+03  0.7818609E-02  0.9462946E-01
        2   -1    0    0  501    0  0.00000000000E+00  0.00000000000E+00  0.80356969725E+03  0.80356969726E+03  0.25500000920E-02 0. -1.
       -2   -1    0    0    0  501  0.00000000000E+00  0.00000000000E+00 -0.23586880888E+03  0.23586880890E+03  0.25500000920E-02 0.  1.
    10030    2    1    2    0    0  0.00000000000E+00  0.00000000000E+00  0.56770088837E+03  0.10394385062E+04  0.87071700880E+03 0.  0.
        1    1    3    3  502    0  0.13347651802E+03  0.14703504308E+03 -0.17865264748E+03  0.26711805112E+03  0.50400001928E-02 0.  1.
       -1    1    3    3    0  502 -0.13347651802E+03 -0.14703504308E+03  0.74635353585E+03  0.77232045503E+03  0.50400001928E-02 0. -1.
</event>
<event>
 5   0  0.2185750E-03  0.1116615E+04  0.7818609E-02  0.9189147E-01
        3   -1    0    0  501    0  0.00000000000E+00  0.00000000000E+00  0.69760312687E+03  0.69760313418E+03  0.10100000352E+00 0.  1.
       -3   -1    0    0    0  501  0.00000000000E+00  0.00000000000E+00 -0.44682628572E+03  0.44682629713E+03  0.10100000352E+00 0. -1.
    10030    2    1    2    0    0  0.00000000000E+00  0.00000000000E+00  0.25077684115E+03  0.11444294313E+04  0.11166152870E+04 0.  0.
        1    1    3    3  502    0 -0.28137401368E+03  0.15839660870E+03  0.59219676763E+03  0.67450562106E+03  0.50400001928E-02 0.  1.
       -1    1    3    3    0  502  0.28137401368E+03 -0.15839660870E+03 -0.34141992648E+03  0.46992381026E+03  0.50400001928E-02 0. -1.
</event>
<event>
 5   0  0.2185750E-03  0.1076501E+04  0.7818609E-02  0.9228403E-01
        4   -1    0    0  501    0  0.00000000000E+00  0.00000000000E+00  0.52867575636E+03  0.52867728177E+03  0.12699999809E+01 0. -1.
       -4   -1    0    0    0  501  0.00000000000E+00  0.00000000000E+00 -0.54799557846E+03  0.54799705009E+03  0.12699999809E+01 0.  1.
    10030    2    1    2    0    0  0.00000000000E+00  0.00000000000E+00 -0.19319822099E+02  0.10766743319E+04  0.10765009807E+04 0.  0.
        5    1    3    3  502    0  0.46731043616E+02  0.33299354942E+03  0.41067316459E+03  0.53079471786E+03  0.46999998093E+01 0. -1.
       -5    1    3    3    0  502 -0.46731043616E+02 -0.33299354942E+03 -0.42999298669E+03  0.54587961401E+03  0.46999998093E+01 0.  1.
</event>
<event>
 5   0  0.3215352E-03  0.1081166E+04  0.7818609E-02  0.9223746E-01
       -1   -1    0    0    0  501  0.00000000000E+00  0.00000000000E+00  0.83086152173E+03  0.83086152175E+03  0.50400001928E-02 0. -1.
        1   -1    0    0  501    0  0.00000000000E+00  0.00000000000E+00 -0.35171916263E+03  0.35171916267E+03  0.50400001928E-02 0.  1.
    10030    2    1    2    0    0  0.00000000000E+00  0.00000000000E+00  0.47914235910E+03  0.11825806844E+04  0.10811658868E+04 0.  0.
        1    1    3    3  502    0 -0.21089642209E+03  0.15142454635E+03  0.75820284948E+03  0.80142264448E+03  0.50400001928E-02 0. -1.
       -1    1    3    3    0  502  0.21089642209E+03 -0.15142454635E+03 -0.27906049038E+03  0.38115803994E+03  0.50400001928E-02 0.  1.
</event>
<event>
 5   0  0.3328741E-03  0.1007252E+04  0.7818609E-02  0.9300627E-01
       -1   -1    0    0    0  501  0.00000000000E+00  0.00000000000E+00  0.49307446900E+03  0.49307446902E+03  0.50400001928E-02 0.  1.
        1   -1    0    0  501    0  0.00000000000E+00  0.00000000000E+00 -0.51440296463E+03  0.51440296466E+03  0.50400001928E-02 0. -1.
    10030    2    1    2    0    0  0.00000000000E+00  0.00000000000E+00 -0.21328495636E+02  0.10074774337E+04  0.10072516441E+04 0.  0.
        3    1    3    3  502    0  0.44490006341E+03  0.38183738656E+02 -0.24362178980E+03  0.50867047387E+03  0.10100000352E+00 0. -1.
       -3    1    3    3    0  502 -0.44490006341E+03 -0.38183738656E+02  0.22229329416E+03  0.49880695981E+03  0.10100000352E+00 0.  1.
</event>
<event>
 5   0  0.3320192E-03  0.1117038E+04  0.7818609E-02  0.9188742E-01
       -1   -1    0    0    0  501  0.00000000000E+00  0.00000000000E+00  0.56283960206E+03  0.56283960209E+03  0.50400001928E-02 0. -1.
        1   -1    0    0  501    0  0.00000000000E+00  0.00000000000E+00 -0.55423197688E+03  0.55423197690E+03  0.50400001928E-02 0.  1.
    10030    2    1    2    0    0  0.00000000000E+00  0.00000000000E+00  0.86076251833E+01  0.11170715790E+04  0.11170384154E+04 0.  0.
        2    1    3    3  502    0 -0.26609435628E+03 -0.25293689990E+03 -0.41661297623E+03  0.55529240382E+03  0.25500000920E-02 0.  1.
       -2    1    3    3    0  502  0.26609435628E+03  0.25293689990E+03  0.42522060141E+03  0.56177917516E+03  0.25500000920E-02 0. -1.
</event>
<event>
 5   0  0.3328741E-03  0.1097640E+04  0.7818609E-02  0.9207495E-01
       -1   -1    0    0    0  501  0.00000000000E+00  0.00000000000E+00  0.17374179214E+03  0.17374179222E+03  0.50400001928E-02 0. -1.
        1   -1    0    0  501    0  0.00000000000E+00  0.00000000000E+00 -0.17336273469E+04  0.17336273469E+04  0.50400001928E-02 0.  1.
    10030    2    1    2    0    0  0.00000000000E+00  0.00000000000E+00 -0.15598855547E+04  0.19073691391E+04  0.10976402366E+04 0.  0.
        3    1    3    3  502    0 -0.23354978081E+03 -0.31209459231E+03 -0.10860800215E+03  0.40465323797E+03  0.10100000352E+00 0. -1.
       -3    1    3    3    0  502  0.23354978081E+03  0.31209459231E+03 -0.14512775526E+04  0.15027159011E+04  0.10100000352E+00 0.  1.
</event>
<event>
 5   0  0.3316784E-03  0.1049721E+04  0.7818609E-02  0.9255632E-01
        1   -1    0    0  501    0  0.00000000000E+00  0.00000000000E+00  0.32581848358E+03  0.32581848362E+03  0.50400001928E-02 0. -1.
       -1   -1    0    0    0  501  0.00000000000E+00  0.00000000000E+00 -0.84549765795E+03  0.84549765796E+03  0.50400001928E-02 0.  1.
    10030    2    1    2    0    0  0.00000000000E+00  0.00000000000E+00 -0.51967917437E+03  0.11713161416E+04  0.10497214198E+04 0.  0.
        4    1    3    3  502    0  0.10650635242E+03  0.43255207450E+03  0.49856961316E+02  0.44825464834E+03  0.12699999809E+01 0. -1.
       -4    1    3    3    0  502 -0.10650635242E+03 -0.43255207450E+03 -0.56953613568E+03  0.72306149324E+03  0.12699999809E+01 0.  1.
</event>
<event>
 5   0  0.3320192E-03  0.1105473E+04  0.7818609E-02  0.9199874E-01
        1   -1    0    0  501    0  0.00000000000E+00  0.00000000000E+00  0.12681006871E+04  0.12681006871E+04  0.50400001928E-02 0. -1.
       -1   -1    0    0    0  501  0.00000000000E+00  0.00000000000E+00 -0.24092516812E+03  0.24092516817E+03  0.50400001928E-02 0.  1.
    10030    2    1    2    0    0  0.00000000000E+00  0.00000000000E+00  0.10271755190E+04  0.15090258553E+04  0.11054725167E+04 0.  0.
        2    1    3    3  502    0  0.10474206066E+03  0.46022537805E+03  0.90623636322E+03  0.10217840495E+04  0.25500000920E-02 0. -1.
       -2    1    3    3    0  502 -0.10474206066E+03 -0.46022537805E+03  0.12093915577E+03  0.48724180575E+03  0.25500000920E-02 0.  1.
</event>
<event>
 5   0  0.5627232E-03  0.1012623E+04  0.7818609E-02  0.9294807E-01
        2   -1    0    0  501    0  0.00000000000E+00  0.00000000000E+00  0.11590928468E+04  0.11590928468E+04  0.25500000920E-02 0. -1.
       -2   -1    0    0    0  501  0.00000000000E+00  0.00000000000E+00 -0.22116551517E+03  0.22116551519E+03  0.25500000920E-02 0.  1.
    10030    2    1    2    0    0  0.00000000000E+00  0.00000000000E+00  0.93792733160E+03  0.13802583620E+04  0.10126230624E+04 0.  0.
        2    1    3    3  502    0  0.36952194004E+03 -0.44110428778E+02  0.10192526950E+01  0.37214678956E+03  0.25500000920E-02 0.  1.
       -2    1    3    3    0  502 -0.36952194004E+03  0.44110428778E+02  0.93690807890E+03  0.10081115724E+04  0.25500000920E-02 0. -1.
</event>
<event>
 5   0  0.3320192E-03  0.1101432E+04  0.7818609E-02  0.9203798E-01
        1   -1    0    0  501    0  0.00000000000E+00  0.00000000000E+00  0.43906414341E+03  0.43906414344E+03  0.50400001928E-02 0. -1.
       -1   -1    0    0    0  501  0.00000000000E+00  0.00000000000E+00 -0.69076001866E+03  0.69076001868E+03  0.50400001928E-02 0.  1.
    10030    2    1    2    0    0  0.00000000000E+00  0.00000000000E+00 -0.25169587524E+03  0.11298241621E+04  0.11014317154E+04 0.  0.
        2    1    3    3  502    0 -0.30325129827E+03  0.18646968465E+03  0.30516877101E+03  0.46889260178E+03  0.25500000920E-02 0. -1.
       -2    1    3    3    0  502  0.30325129827E+03 -0.18646968465E+03 -0.55686464625E+03  0.66093156034E+03  0.25500000920E-02 0.  1.
</event>
<event>
 5   0  0.3241189E-03  0.1100155E+04  0.7818609E-02  0.9205040E-01
       -1   -1    0    0    0  501  0.00000000000E+00  0.00000000000E+00  0.35384847078E+03  0.35384847082E+03  0.50400001928E-02 0. -1.
        1   -1    0    0  501    0  0.00000000000E+00  0.00000000000E+00 -0.85512716264E+03  0.85512716266E+03  0.50400001928E-02 0.  1.
    10030    2    1    2    0    0  0.00000000000E+00  0.00000000000E+00 -0.50127869186E+03  0.12089756335E+04  0.11001553324E+04 0.  0.
        5    1    3    3  502    0 -0.15930926550E+03 -0.16496697806E+02  0.32763542367E+03  0.36471721094E+03  0.46999998093E+01 0. -1.
       -5    1    3    3    0  502  0.15930926550E+03  0.16496697806E+02 -0.82891411553E+03  0.84425842254E+03  0.46999998093E+01 0.  1.
</event>
<event>
 5   0  0.2185750E-03  0.1092812E+04  0.7818609E-02  0.9212227E-01
       -3   -1    0    0    0  501  0.00000000000E+00  0.00000000000E+00  0.13019692335E+04  0.13019692374E+04  0.10100000352E+00 0. -1.
        3   -1    0    0  501    0  0.00000000000E+00  0.00000000000E+00 -0.22931360175E+03  0.22931362400E+03  0.10100000352E+00 0.  1.
    10030    2    1    2    0    0  0.00000000000E+00  0.00000000000E+00  0.10726556318E+04  0.15312828614E+04  0.10928115562E+04 0.  0.
        4    1    3    3  502    0  0.35124381112E+03  0.39591370474E+03  0.34606035789E+03  0.63236007199E+03  0.12699999809E+01 0.  1.
       -4    1    3    3    0  502 -0.35124381112E+03 -0.39591370474E+03  0.72659527386E+03  0.89892278943E+03  0.12699999809E+01 0. -1.
</event>
<event>
 5   0  0.5500363E-03  0.1117316E+04  0.7818609E-02  0.9188477E-01
       -2   -1    0    0    0  501  0.00000000000E+00  0.00000000000E+00  0.40128104883E+03  0.40128104884E+03  0.25500000920E-02 0. -1.
        2   -1    0    0  501    0  0.00000000000E+00  0.00000000000E+00 -0.77775577884E+03  0.77775577884E+03  0.25500000920E-02 0.  1.
    10030    2    1    2    0    0  0.00000000000E+00  0.00000000000E+00 -0.37647473001E+03  0.11790368277E+04  0.11173158097E+04 0.  0.
        3    1    3    3  502    0  0.29621051393E+03  0.20149749278E+03  0.26411103769E+03  0.44508039565E+03  0.10100000352E+00 0. -1.
       -3    1    3    3    0  502 -0.29621051393E+03 -0.20149749278E+03 -0.64058576769E+03  0.73395643204E+03  0.10100000352E+00 0.  1.
</event>
<event>
 5   0  0.5500363E-03  0.1093260E+04  0.7818609E-02  0.9211786E-01
        2   -1    0    0  501    0  0.00000000000E+00  0.00000000000E+00  0.12482014838E+04  0.12482014838E+04  0.25500000920E-02 0. -1.
       -2   -1    0    0    0  501  0.00000000000E+00  0.00000000000E+00 -0.23938775214E+03  0.23938775215E+03  0.25500000920E-02 0.  1.
    10030    2    1    2    0    0  0.00000000000E+00  0.00000000000E+00  0.10088137316E+04  0.14875892359E+04  0.10932596168E+04 0.  0.
        3    1    3    3  502    0 -0.28175858411E+03 -0.15298470004E+03  0.11068290567E+04  0.11523292885E+04  0.10100000352E+00 0. -1.
       -3    1    3    3    0  502  0.28175858411E+03  0.15298470004E+03 -0.98015325113E+02  0.33525994739E+03  0.10100000352E+00 0.  1.
</event>
<event>
 5   0  0.5946359E-03  0.1090019E+04  0.7818609E-02  0.9214975E-01
       -2   -1    0    0    0  501  0.00000000000E+00  0.00000000000E+00  0.18928580185E+03  0.18928580187E+03  0.25500000920E-02 0. -1.
        2   -1    0    0  501    0  0.00000000000E+00  0.00000000000E+00 -0.15692414544E+04  0.15692414544E+04  0.25500000920E-02 0.  1.
    10030    2    1    2    0    0  0.00000000000E+00  0.00000000000E+00 -0.13799556525E+04  0.17585272563E+04  0.10900185815E+04 0.  0.
        4    1    3    3  502    0  0.51534810173E+03  0.11548627724E+03 -0.47285393489E+03  0.70888165643E+03  0.12699999809E+01 0. -1.
       -4    1    3    3    0  502 -0.51534810173E+03 -0.11548627724E+03 -0.90710171766E+03  0.10496455998E+04  0.12699999809E+01 0.  1.
</event>
<event>
 5   0  0.5500363E-03  0.1087112E+04  0.7818609E-02  0.9217845E-01
        2   -1    0    0  501    0  0.00000000000E+00  0.00000000000E+00  0.10418898448E+04  0.10418898448E+04  0.25500000920E-02 0.  1.
       -2   -1    0    0    0  501  0.00000000000E+00  0.00000000000E+00 -0.28357411384E+03  0.28357411385E+03  0.25500000920E-02 0. -1.
    10030    2    1    2    0    0  0.00000000000E+00  0.00000000000E+00  0.75831573097E+03  0.13254639587E+04  0.10871117504E+04 0.  0.
        3    1    3    3  502    0  0.28957761203E+03 -0.42656330939E+03  0.16924259450E+03  0.54263663376E+03  0.10100000352E+00 0. -1.
       -3    1    3    3    0  502 -0.28957761203E+03  0.42656330939E+03  0.58907313647E+03  0.78282732491E+03  0.10100000352E+00 0.  1.
</event>
<event>
 5   0  0.5723194E-03  0.1099287E+04  0.7818609E-02  0.9205887E-01
       -2   -1    0    0    0  501  0.00000000000E+00  0.00000000000E+00  0.49467680069E+03  0.49467680070E+03  0.25500000920E-02 0.  1.
        2   -1    0    0  501    0  0.00000000000E+00  0.00000000000E+00 -0.61071844803E+03  0.61071844803E+03  0.25500000920E-02 0. -1.
    10030    2    1    2    0    0  0.00000000000E+00  0.00000000000E+00 -0.11604164734E+03  0.11053952487E+04  0.10992874929E+04 0.  0.
        1    1    3    3  502    0  0.46847537268E+03  0.14753865532E+03  0.19007132325E+03  0.52665352706E+03  0.50400001928E-02 0.  1.
       -1    1    3    3    0  502 -0.46847537268E+03 -0.14753865532E+03 -0.30611297059E+03  0.57874172167E+03  0.50400001928E-02 0. -1.
</event>
<event>
 5   0  0.5941585E-03  0.1122224E+04  0.7818609E-02  0.9183798E-01
       -2   -1    0    0    0  501  0.00000000000E+00  0.00000000000E+00  0.20173749789E+03  0.20173749791E+03  0.25500000920E-02 0. -1.
        2   -1    0    0  501    0  0.00000000000E+00  0.00000000000E+00 -0.15606742575E+04  0.15606742575E+04  0.25500000920E-02 0.  1.
    10030    2    1    2    0    0  0.00000000000E+00  0.00000000000E+00 -0.13589367596E+04  0.17624117554E+04  0.11222237205E+04 0.  0.
        5    1    3    3  502    0 -0.44860947851E+03  0.12335052882E+03 -0.18693674076E+03  0.50143120387E+03  0.46999998093E+01 0. -1.
       -5    1    3    3    0  502  0.44860947851E+03 -0.12335052882E+03 -0.11720000188E+04  0.12609805515E+04  0.46999998093E+01 0.  1.
</event>
<event>
 5   0  0.5941585E-03  0.1117536E+04  0.7818609E-02  0.9188267E-01
        2   -1    0    0  501    0  0.00000000000E+00  0.00000000000E+00  0.16080656671E+04  0.16080656671E+04  0.25500000920E-02 0. -1.
       -2   -1    0    0    0  501  0.00000000000E+00  0.00000000000E+00 -0.19415969953E+03  0.19415969955E+03  0.25500000920E-02 0.  1.
    10030    2    1    2    0    0  0.00000000000E+00  0.00000000000E+00  0.14139059676E+04  0.18022253667E+04  0.11175357655E+04 0.  0.
        5    1    3    3  502    0 -0.12002867158E+03 -0.42789452617E+03  0.16078379386E+03  0.47262471993E+03  0.46999998093E+01 0.  1.
       -5    1    3    3    0  502  0.12002867158E+03  0.42789452617E+03  0.12531221737E+04  0.13296006468E+04  0.46999998093E+01 0. -1.
</event>
<event>
 5   0  0.3328741E-03  0.1094359E+04  0.7818609E-02  0.9210708E-01
        1   -1    0    0  501    0  0.00000000000E+00  0.00000000000E+00  0.54933738568E+03  0.54933738571E+03  0.50400001928E-02 0. -1.
       -1   -1    0    0    0  501  0.00000000000E+00  0.00000000000E+00 -0.54502972372E+03  0.54502972374E+03  0.50400001928E-02 0.  1.
    10030    2    1    2    0    0  0.00000000000E+00  0.00000000000E+00  0.43076619625E+01  0.10943671094E+04  0.10943586315E+04 0.  0.
        3    1    3    3  502    0 -0.66123965125E+02  0.30723189314E+03 -0.44577974354E+03  0.54542039280E+03  0.10100000352E+00 0.  1.
       -3    1    3    3    0  502  0.66123965125E+02 -0.30723189314E+03  0.45008740551E+03  0.54894671665E+03  0.10100000352E+00 0. -1.
</event>
<event>
 5   0  0.3215352E-03  0.1101488E+04  0.7818609E-02  0.9203743E-01
       -1   -1    0    0    0  501  0.00000000000E+00  0.00000000000E+00  0.40097331272E+03  0.40097331275E+03  0.50400001928E-02 0.  1.
        1   -1    0    0  501    0  0.00000000000E+00  0.00000000000E+00 -0.75645644475E+03  0.75645644477E+03  0.50400001928E-02 0. -1.
    10030    2    1    2    0    0  0.00000000000E+00  0.00000000000E+00 -0.35548313203E+03  0.11574297575E+04  0.11014878058E+04 0.  0.
        1    1    3    3  502    0 -0.49487544872E+03 -0.19561592301E+03 -0.32690732822E+03  0.62452838234E+03  0.50400001928E-02 0. -1.
       -1    1    3    3    0  502  0.49487544872E+03  0.19561592301E+03 -0.28575803809E+02  0.53290137518E+03  0.50400001928E-02 0.  1.
</event>
<event>
 5   0  0.3328741E-03  0.1123457E+04  0.7818609E-02  0.9182626E-01
        1   -1    0    0  501    0  0.00000000000E+00  0.00000000000E+00  0.78845495200E+03  0.78845495202E+03  0.50400001928E-02 0.  1.
       -1   -1    0    0    0  501  0.00000000000E+00  0.00000000000E+00 -0.40019923205E+03  0.40019923208E+03  0.50400001928E-02 0. -1.
    10030    2    1    2    0    0  0.00000000000E+00  0.00000000000E+00  0.38825571996E+03  0.11886541841E+04  0.11234572824E+04 0.  0.
        3    1    3    3  502    0  0.11562810014E+03 -0.54925808347E+03  0.17083296801E+03  0.58671817167E+03  0.10100000352E+00 0. -1.
       -3    1    3    3    0  502 -0.11562810014E+03  0.54925808347E+03  0.21742275194E+03  0.60193601243E+03  0.10100000352E+00 0.  1.
</event>
<event>
 5   0  0.3215352E-03  0.1105280E+04  0.7818609E-02  0.9200061E-01
        1   -1    0    0  501    0  0.00000000000E+00  0.00000000000E+00  0.13877738348E+04  0.13877738348E+04  0.50400001928E-02 0. -1.
       -1   -1    0    0    0  501  0.00000000000E+00  0.00000000000E+00 -0.22007263578E+03  0.22007263584E+03  0.50400001928E-02 0.  1.
    10030    2    1    2    0    0  0.00000000000E+00  0.00000000000E+00  0.11677011990E+04  0.16078464706E+04  0.11052801378E+04 0.  0.
        1    1    3    3  502    0  0.44109937589E+03  0.23321986141E+03  0.23822366536E+03  0.55291109406E+03  0.50400001928E-02 0.  1.
       -1    1    3    3    0  502 -0.44109937589E+03 -0.23321986141E+03  0.92947753365E+03  0.10549353766E+04  0.50400001928E-02 0. -1.
</event>
<event>
 5   0  0.3316784E-03  0.1134902E+04  0.7818609E-02  0.9171826E-01
       -1   -1    0    0    0  501  0.00000000000E+00  0.00000000000E+00  0.31414994613E+03  0.31414994617E+03  0.50400001928E-02 0. -1.
        1   -1    0    0  501    0  0.00000000000E+00  0.00000000000E+00 -0.10249910255E+04  0.10249910256E+04  0.50400001928E-02 0.  1.
    10030    2    1    2    0    0  0.00000000000E+00  0.00000000000E+00 -0.71084107942E+03  0.13391409717E+04  0.11349024196E+04 0.  0.
        4    1    3    3  502    0 -0.34122884366E+03 -0.44986437881E+03 -0.42200402868E+03  0.70491424740E+03  0.12699999809E+01 0.  1.
       -4    1    3    3    0  502  0.34122884366E+03  0.44986437881E+03 -0.28883705074E+03  0.63422672432E+03  0.12699999809E+01 0. -1.
</event>
<event>
 5   0  0.5946359E-03  0.1097330E+04  0.7818609E-02  0.9207799E-01
        2   -1    0    0  501    0  0.00000000000E+00  0.00000000000E+00  0.23764645300E+03  0.23764645301E+03  0.25500000920E-02 0. -1.
       -2   -1    0    0    0  501  0.00000000000E+00  0.00000000000E+00 -0.12667264083E+04  0.12667264083E+04  0.25500000920E-02 0.  1.
    10030    2    1    2    0    0  0.00000000000E+00  0.00000000000E+00 -0.10290799553E+04  0.15043728613E+04  0.10973295546E+04 0.  0.
        4    1    3    3  502    0 -0.63875549025E+02  0.27798603615E+03  0.12801284120E+03  0.31264232354E+03  0.12699999809E+01 0. -1.
       -4    1    3    3    0  502  0.63875549025E+02 -0.27798603615E+03 -0.11570927965E+04  0.11917305378E+04  0.12699999809E+01 0.  1.
</event>
<event>
 5   0  0.5941585E-03  0.1099083E+04  0.7818609E-02  0.9206086E-01
        2   -1    0    0  501    0  0.00000000000E+00  0.00000000000E+00  0.61669279696E+03  0.61669279697E+03  0.25500000920E-02 0. -1.
       -2   -1    0    0    0  501  0.00000000000E+00  0.00000000000E+00 -0.48970268919E+03  0.48970268920E+03  0.25500000920E-02 0.  1.
    10030    2    1    2    0    0  0.00000000000E+00  0.00000000000E+00  0.12699010777E+03  0.11063954862E+04  0.10990834747E+04 0.  0.
        5    1    3    3  502    0  0.25427192319E+03 -0.42221896153E+02 -0.42505538548E+03  0.49712279184E+03  0.46999998093E+01 0.  1.
       -5    1    3    3    0  502 -0.25427192319E+03  0.42221896153E+02  0.55204549325E+03  0.60927269433E+03  0.46999998093E+01 0. -1.
</event>
<event>
 5   0  0.3215352E-03  0.1060178E+04  0.7818609E-02  0.9244898E-01
       -1   -1    0    0    0  501  0.00000000000E+00  0.00000000000E+00  0.40740078823E+03  0.40740078826E+03  0.50400001928E-02 0.  1.
        1   -1    0    0  501    0  0.00000000000E+00  0.00000000000E+00 -0.68972496747E+03  0.68972496749E+03  0.50400001928E-02 0. -1.
    10030    2    1    2    0    0  0.00000000000E+00  0.00000000000E+00 -0.28232417924E+03  0.10971257558E+04  0.10601782783E+04 0.  0.
        1    1    3    3  502    0 -0.22369992293E+03  0.94987814701E+02  0.34635031073E+03  0.42311095263E+03  0.50400001928E-02 0.  1.
       -1    1    3    3    0  502  0.22369992293E+03 -0.94987814701E+02 -0.62867448998E+03  0.67401480313E+03  0.50400001928E-02 0. -1.
</event>
<event>
 5   0  0.5500363E-03  0.1108451E+04  0.7818609E-02  0.9196994E-01
        2   -1    0    0  501    0  0.00000000000E+00  0.00000000000E+00  0.16377712278E+04  0.16377712278E+04  0.25500000920E-02 0.  1.
       -2   -1    0    0    0  501  0.00000000000E+00  0.00000000000E+00 -0.18755127488E+03  0.18755127490E+03  0.25500000920E-02 0. -1.
    10030    2    1    2    0    0  0.00000000000E+00  0.00000000000E+00  0.14502199529E+04  0.18253225027E+04  0.11084513192E+04 0.  0.
        3    1    3    3  502    0  0.28388862042E+03  0.11726251687E+03  0.14847924115E+04  0.15162294556E+04  0.10100000352E+00 0.  1.
       -3    1    3    3    0  502 -0.28388862042E+03 -0.11726251687E+03 -0.34572458570E+02  0.30909304709E+03  0.10100000352E+00 0. -1.
</event>
<event>
 5   0  0.5723194E-03  0.1102191E+04  0.7818609E-02  0.9203059E-01
       -2   -1    0    0    0  501  0.00000000000E+00  0.00000000000E+00  0.36675268335E+03  0.36675268336E+03  0.25500000920E-02 0.  1.
        2   -1    0    0  501    0  0.00000000000E+00  0.00000000000E+00 -0.82809525359E+03  0.82809525359E+03  0.25500000920E-02 0. -1.
    10030    2    1    2    0    0  0.00000000000E+00  0.00000000000E+00 -0.46134257024E+03  0.11948479369E+04  0.11021908298E+04 0.  0.
        1    1    3    3  502    0 -0.70110724342E+02 -0.17019746810E+03  0.33244190707E+03  0.38000041240E+03  0.50400001928E-02 0.  1.
       -1    1    3    3    0  502  0.70110724342E+02  0.17019746810E+03 -0.79378447732E+03  0.81484752455E+03  0.50400001928E-02 0. -1.
</event>
<event>
 5   0  0.5627232E-03  0.1074008E+04  0.7818609E-02  0.9230902E-01
       -2   -1    0    0    0  501  0.00000000000E+00  0.00000000000E+00  0.30348426827E+03  0.30348426828E+03  0.25500000920E-02 0. -1.
        2   -1    0    0  501    0  0.00000000000E+00  0.00000000000E+00 -0.95020903058E+03  0.95020903058E+03  0.25500000920E-02 0.  1.
    10030    2    1    2    0    0  0.00000000000E+00  0.00000000000E+00 -0.64672476231E+03  0.12536932989E+04  0.10740083656E+04 0.  0.
        2    1    3    3  502    0 -0.20903208149E+03 -0.90205475183E+01 -0.90067338384E+03  0.92465578770E+03  0.25500000920E-02 0.  1.
       -2    1    3    3    0  502  0.20903208149E+03  0.90205475183E+01  0.25394862153E+03  0.32903751116E+03  0.25500000920E-02 0. -1.
</event>
<event>
 5   0  0.3320192E-03  0.1047809E+04  0.7818609E-02  0.9257609E-01
       -1   -1    0    0    0  501  0.00000000000E+00  0.00000000000E+00  0.34982951420E+03  0.34982951424E+03  0.50400001928E-02 0.  1.
        1   -1    0    0  501    0  0.00000000000E+00  0.00000000000E+00 -0.78459911305E+03  0.78459911306E+03  0.50400001928E-02 0. -1.
    10030    2    1    2    0    0  0.00000000000E+00  0.00000000000E+00 -0.43476959885E+03  0.11344286273E+04  0.10478090028E+04 0.  0.
        2    1    3    3  502    0  0.32552533958E+03  0.89103088007E+02 -0.65122222220E+03  0.73348243993E+03  0.25500000920E-02 0. -1.
       -2    1    3    3    0  502 -0.32552533958E+03 -0.89103088007E+02  0.21645262335E+03  0.40094618737E+03  0.25500000920E-02 0.  1.
</event>
<event>
 5   0  0.3316784E-03  0.1084749E+04  0.7818609E-02  0.9220185E-01
       -1   -1    0    0    0  501  0.00000000000E+00  0.00000000000E+00  0.17945920426E+03  0.17945920433E+03  0.50400001928E-02 0.  1.
        1   -1    0    0  501    0  0.00000000000E+00  0.00000000000E+00 -0.16392031071E+04  0.16392031071E+04  0.50400001928E-02 0. -1.
    10030    2    1    2    0    0  0.00000000000E+00  0.00000000000E+00 -0.14597439028E+04  0.18186623114E+04  0.10847489761E+04 0.  0.
        4    1    3    3  502    0 -0.28367757390E+03  0.44433501781E+03 -0.94367231513E+03  0.10809373827E+04  0.12699999809E+01 0. -1.
       -4    1    3    3    0  502  0.28367757390E+03 -0.44433501781E+03 -0.51607158770E+03  0.73772492876E+03  0.12699999809E+01 0.  1.
</event>
<event>
 5   0  0.5941585E-03  0.1095641E+04  0.7818609E-02  0.9209451E-01
       -2   -1    0    0    0  501  0.00000000000E+00  0.00000000000E+00  0.32974203806E+03  0.32974203807E+03  0.25500000920E-02 0. -1.
        2   -1    0    0  501    0  0.00000000000E+00  0.00000000000E+00 -0.91012754823E+03  0.91012754824E+03  0.25500000920E-02 0.  1.
    10030    2    1    2    0    0  0.00000000000E+00  0.00000000000E+00 -0.58038551018E+03  0.12398695863E+04  0.10956410227E+04 0.  0.
        5    1    3    3  502    0 -0.24430049053E+03 -0.34883034457E+03  0.99721805711E+02  0.43741498317E+03  0.46999998093E+01 0. -1.
       -5    1    3    3    0  502  0.24430049053E+03  0.34883034457E+03 -0.68010731589E+03  0.80245460313E+03  0.46999998093E+01 0.  1.
</event>
<event>
 5   0  0.2185750E-03  0.1093659E+04  0.7818609E-02  0.9211394E-01
        4   -1    0    0  501    0  0.00000000000E+00  0.00000000000E+00  0.39806417543E+03  0.39806620135E+03  0.12699999809E+01 0. -1.
       -4   -1    0    0    0  501  0.00000000000E+00  0.00000000000E+00 -0.75118754769E+03  0.75118862126E+03  0.12699999809E+01 0.  1.
    10030    2    1    2    0    0  0.00000000000E+00  0.00000000000E+00 -0.35312337226E+03  0.11492548226E+04  0.10936592391E+04 0.  0.
        3    1    3    3  502    0 -0.43676847959E+03  0.23799442723E+03  0.62175718051E+02  0.50127226361E+03  0.10100000352E+00 0. -1.
       -3    1    3    3    0  502  0.43676847959E+03 -0.23799442723E+03 -0.41529909031E+03  0.64798255900E+03  0.10100000352E+00 0.  1.
</event>
<event>
 5   0  0.3241189E-03  0.1102039E+04  0.7818609E-02  0.9203207E-01
       -1   -1    0    0    0  501  0.00000000000E+00  0.00000000000E+00  0.85845770807E+03  0.85845770808E+03  0.50400001928E-02 0.  1.
        1   -1    0    0  501    0  0.00000000000E+00  0.00000000000E+00 -0.35368357849E+03  0.35368357852E+03  0.50400001928E-02 0. -1.
    10030    2    1    2    0    0  0.00000000000E+00  0.00000000000E+00  0.50477412958E+03  0.12121412866E+04  0.11020388273E+04 0.  0.
        5    1    3    3  502    0  0.39391021451E+03 -0.37659906410E+03  0.16297468070E+03  0.56883648681E+03  0.46999998093E+01 0. -1.
       -5    1    3    3    0  502 -0.39391021451E+03  0.37659906410E+03  0.34179944888E+03  0.64330479979E+03  0.46999998093E+01 0.  1.
</event>
<event>
 5   0  0.3316784E-03  0.1124351E+04  0.7818609E-02  0.9181777E-01
       -1   -1    0    0    0  501  0.00000000000E+00  0.00000000000E+00  0.21397205388E+03  0.21397205394E+03  0.50400001928E-02 0.  1.
        1   -1    0    0  501    0  0.00000000000E+00  0.00000000000E+00 -0.14770218929E+04  0.14770218929E+04  0.50400001928E-02 0. -1.
    10030    2    1    2    0    0  0.00000000000E+00  0.00000000000E+00 -0.12630498391E+04  0.16909939469E+04  0.11243512051E+04 0.  0.
        4    1    3    3  502    0  0.38161403964E+03 -0.27697956334E+03 -0.17116949142E+03  0.50164485590E+03  0.12699999809E+01 0.  1.
       -4    1    3    3    0  502 -0.38161403964E+03  0.27697956334E+03 -0.10918803476E+04  0.11893490910E+04  0.12699999809E+01 0. -1.
</event>
<event>
 5   0  0.3328741E-03  0.1099334E+04  0.7818609E-02  0.9205841E-01
        1   -1    0    0  501    0  0.00000000000E+00  0.00000000000E+00  0.15154793487E+04  0.15154793487E+04  0.50400001928E-02 0. -1.
       -1   -1    0    0    0  501  0.00000000000E+00  0.00000000000E+00 -0.19936523332E+03  0.19936523338E+03  0.50400001928E-02 0.  1.
    10030    2    1    2    0    0  0.00000000000E+00  0.00000000000E+00  0.13161141154E+04  0.17148445821E+04  0.10993341512E+04 0.  0.
        3    1    3    3  502    0 -0.30776324183E+03 -0.43867921934E+03  0.46716139788E+03  0.71091311169E+03  0.10100000352E+00 0.  1.
       -3    1    3    3    0  502  0.30776324183E+03  0.43867921934E+03  0.84895271753E+03  0.10039314704E+04  0.10100000352E+00 0. -1.
</event>
<event>
 5   0  0.2185750E-03  0.1094803E+04  0.7818609E-02  0.9210272E-01
       -3   -1    0    0    0  501  0.00000000000E+00  0.00000000000E+00  0.10478772092E+04  0.10478772140E+04  0.10100000352E+00 0. -1.
        3   -1    0    0  501    0  0.00000000000E+00  0.00000000000E+00 -0.28595755860E+03  0.28595757643E+03  0.10100000352E+00 0.  1.
    10030    2    1    2    0    0  0.00000000000E+00  0.00000000000E+00  0.76191965057E+03  0.13338347905E+04  0.10948030391E+04 0.  0.
        5    1    3    3  502    0 -0.98878281697E+02 -0.31157461412E+03  0.91587699125E+03  0.97247540218E+03  0.46999998093E+01 0. -1.
       -5    1    3    3    0  502  0.98878281697E+02  0.31157461412E+03 -0.15395734068E+03  0.36135938828E+03  0.46999998093E+01 0.  1.
</event>
<event>
 5   0  0.3241189E-03  0.1086661E+04  0.7818609E-02  0.9218291E-01
       -1   -1    0    0    0  501  0.00000000000E+00  0.00000000000E+00  0.20105749588E+03  0.20105749594E+03  0.50400001928E-02 0. -1.
        1   -1    0    0  501    0  0.00000000000E+00  0.00000000000E+00 -0.14682777062E+04  0.14682777062E+04  0.50400001928E-02 0.  1.
    10030    2    1    2    0    0  0.00000000000E+00  0.00000000000E+00 -0.12672202103E+04  0.16693352021E+04  0.10866613804E+04 0.  0.
        5    1    3    3  502    0 -0.33520791069E+03  0.28457043499E+03 -0.11238533918E+04  0.12068194613E+04  0.46999998093E+01 0.  1.
       -5    1    3    3    0  502  0.33520791069E+03 -0.28457043499E+03 -0.14336681846E+03  0.46251574081E+03  0.46999998093E+01 0. -1.
</event>
<event>
 5   0  0.3215352E-03  0.1088690E+04  0.7818609E-02  0.9216286E-01
        1   -1    0    0  501    0  0.00000000000E+00  0.00000000000E+00  0.71204603148E+03  0.71204603150E+03  0.50400001928E-02 0.  1.
       -1   -1    0    0    0  501  0.00000000000E+00  0.00000000000E+00 -0.41614058864E+03  0.41614058867E+03  0.50400001928E-02 0. -1.
    10030    2    1    2    0    0  0.00000000000E+00  0.00000000000E+00  0.29590544284E+03  0.11281866202E+04  0.10886895879E+04 0.  0.
        1    1    3    3  502    0 -0.44106338575E+03 -0.30211226366E+03  0.41752914105E+02  0.53623878633E+03  0.50400001928E-02 0. -1.
       -1    1    3    3    0  502  0.44106338575E+03  0.30211226366E+03  0.25415252873E+03  0.59194783384E+03  0.50400001928E-02 0.  1.
</event>
<event>
 5   0  0.2185750E-03  0.1101691E+04  0.7818609E-02  0.9203545E-01
        3   -1    0    0  501    0  0.00000000000E+00  0.00000000000E+00  0.34473916845E+03  0.34473918324E+03  0.10100000352E+00 0.  1.
       -3   -1    0    0    0  501  0.00000000000E+00  0.00000000000E+00 -0.88017504582E+03  0.88017505161E+03  0.10100000352E+00 0. -1.
    10030    2    1    2    0    0  0.00000000000E+00  0.00000000000E+00 -0.53543587737E+03  0.12249142349E+04  0.11016911110E+04 0.  0.
        1    1    3    3  502    0 -0.11426420646E+03 -0.53847535383E+03 -0.29047177196E+03  0.62240329842E+03  0.50400001928E-02 0. -1.
       -1    1    3    3    0  502  0.11426420646E+03  0.53847535383E+03 -0.24496410541E+03  0.60251093643E+03  0.50400001928E-02 0.  1.
</event>
<event>
 5   0  0.5723194E-03  0.1098354E+04  0.7818609E-02  0.9206797E-01
        2   -1    0    0  501    0  0.00000000000E+00  0.00000000000E+00  0.55914193706E+03  0.55914193707E+03  0.25500000920E-02 0.  1.
       -2   -1    0    0    0  501  0.00000000000E+00  0.00000000000E+00 -0.53939007802E+03  0.53939007802E+03  0.25500000920E-02 0. -1.
    10030    2    1    2    0    0  0.00000000000E+00  0.00000000000E+00  0.19751859043E+02  0.10985320151E+04  0.10983544292E+04 0.  0.
        1    1    3    3  502    0 -0.51869918474E+03  0.15820007395E+03  0.96605031590E+02  0.55082541681E+03  0.50400001928E-02 0.  1.
       -1    1    3    3    0  502  0.51869918474E+03 -0.15820007395E+03 -0.76853172547E+02  0.54770659828E+03  0.50400001928E-02 0. -1.
</event>
<event>
 5   0  0.3215352E-03  0.1058406E+04  0.7818609E-02  0.9246708E-01
       -1   -1    0    0    0  501  0.00000000000E+00  0.00000000000E+00  0.15669091986E+03  0.15669091994E+03  0.50400001928E-02 0. -1.
        1   -1    0    0  501    0  0.00000000000E+00  0.00000000000E+00 -0.17873128835E+04  0.17873128835E+04  0.50400001928E-02 0.  1.
    10030    2    1    2    0    0  0.00000000000E+00  0.00000000000E+00 -0.16306219637E+04  0.19440038035E+04  0.10584057821E+04 0.  0.
        1    1    3    3  502    0 -0.50161442034E+03  0.14856802472E+03 -0.66876106927E+03  0.84907647033E+03  0.50400001928E-02 0.  1.
       -1    1    3    3    0  502  0.50161442034E+03 -0.14856802472E+03 -0.96186089438E+03  0.10949273331E+04  0.50400001928E-02 0. -1.
</event>
<event>
 5   0  0.5723194E-03  0.1088835E+04  0.7818609E-02  0.9216142E-01
       -2   -1    0    0    0  501  0.00000000000E+00  0.00000000000E+00  0.17397249122E+03  0.17397249124E+03  0.25500000920E-02 0.  1.
        2   -1    0    0  501    0  0.00000000000E+00  0.00000000000E+00 -0.17036640813E+04  0.17036640813E+04  0.25500000920E-02 0. -1.
    10030    2    1    2    0    0  0.00000000000E+00  0.00000000000E+00 -0.15296915901E+04  0.18776365725E+04  0.10888354962E+04 0.  0.
        1    1    3    3  502    0 -0.13386846382E+03  0.56603498614E+02 -0.16695893999E+04  0.16759037818E+04  0.50400001928E-02 0. -1.
       -1    1    3    3    0  502  0.13386846382E+03 -0.56603498614E+02  0.13989780977E+03  0.20173279075E+03  0.50400001928E-02 0.  1.
</event>
<event>
 5   0  0.5941585E-03  0.1118468E+04  0.7818609E-02  0.9187376E-01
        2   -1    0    0  501    0  0.00000000000E+00  0.00000000000E+00  0.24661809925E+04  0.24661809925E+04  0.25500000920E-02 0. -1.
       -2   -1    0    0    0  501  0.00000000000E+00  0.00000000000E+00 -0.12681262619E+03  0.12681262621E+03  0.25500000920E-02 0.  1.
    10030    2    1    2    0    0  0.00000000000E+00  0.00000000000E+00  0.23393683663E+04  0.25929936187E+04  0.11184683962E+04 0.  0.
        5    1    3    3  502    0 -0.54309059077E+03 -0.55758328031E+02  0.14504279599E+04  0.15497805451E+04  0.46999998093E+01 0.  1.
       -5    1    3    3    0  502  0.54309059077E+03  0.55758328031E+02  0.88894040637E+03  0.10432130736E+04  0.46999998093E+01 0. -1.
</event>
<event>
 5   0  0.3320192E-03  0.1081787E+04  0.7818609E-02  0.9223128E-01
       -1   -1    0    0    0  501  0.00000000000E+00  0.00000000000E+00  0.56649645200E+03  0.56649645202E+03  0.50400001928E-02 0.  1.
        1   -1    0    0  501    0  0.00000000000E+00  0.00000000000E+00 -0.51644723629E+03  0.51644723631E+03  0.50400001928E-02 0. -1.
    10030    2    1    2    0    0  0.00000000000E+00  0.00000000000E+00  0.50049215711E+02  0.10829436883E+04  0.10817865354E+04 0.  0.
        2    1    3    3  502    0  0.77751016387E+02 -0.53370385280E+03  0.66062408278E+02  0.54336844299E+03  0.25500000920E-02 0.  1.
       -2    1    3    3    0  502 -0.77751016387E+02  0.53370385280E+03 -0.16013192567E+02  0.53957524534E+03  0.25500000920E-02 0. -1.
</event>
<event>
 5   0  0.3215352E-03  0.1103462E+04  0.7818609E-02  0.9201824E-01
       -1   -1    0    0    0  501  0.00000000000E+00  0.00000000000E+00  0.21674449572E+03  0.21674449578E+03  0.50400001928E-02 0. -1.
        1   -1    0    0  501    0  0.00000000000E+00  0.00000000000E+00 -0.14044509419E+04  0.14044509419E+04  0.50400001928E-02 0.  1.
    10030    2    1    2    0    0  0.00000000000E+00  0.00000000000E+00 -0.11877064461E+04  0.16211954377E+04  0.11034618457E+04 0.  0.
        1    1    3    3  502    0 -0.50819651707E+03  0.19208500127E+03 -0.73512993507E+03  0.91409866488E+03  0.50400001928E-02 0.  1.
       -1    1    3    3    0  502  0.50819651707E+03 -0.19208500127E+03 -0.45257651108E+03  0.70709677278E+03  0.50400001928E-02 0. -1.
</event>
<event>
 5   0  0.5627232E-03  0.1131316E+04  0.7818609E-02  0.9175196E-01
        2   -1    0    0  501    0  0.00000000000E+00  0.00000000000E+00  0.99631231754E+03  0.99631231755E+03  0.25500000920E-02 0. -1.
       -2   -1    0    0    0  501  0.00000000000E+00  0.00000000000E+00 -0.32115324523E+03  0.32115324524E+03  0.25500000920E-02 0.  1.
    10030    2    1    2    0    0  0.00000000000E+00  0.00000000000E+00  0.67515907231E+03  0.13174655628E+04  0.11313159312E+04 0.  0.
        2    1    3    3  502    0  0.24070979642E+01 -0.49536309107E+03  0.19553753021E+02  0.49575471292E+03  0.25500000920E-02 0.  1.
       -2    1    3    3    0  502 -0.24070979642E+01  0.49536309107E+03  0.65560531929E+03  0.82171084987E+03  0.25500000920E-02 0. -1.
</event>
<event>
 5   0  0.3328741E-03  0.1079925E+04  0.7818609E-02  0.9224982E-01
        1   -1    0    0  501    0  0.00000000000E+00  0.00000000000E+00  0.66573328435E+03  0.66573328437E+03  0.50400001928E-02 0.  1.
       -1   -1    0    0    0  501  0.00000000000E+00  0.00000000000E+00 -0.43795243758E+03  0.43795243761E+03  0.50400001928E-02 0. -1.
    10030    2    1    2    0    0  0.00000000000E+00  0.00000000000E+00  0.22778084676E+03  0.11036857220E+04  0.10799250246E+04 0.  0.
        3    1    3    3  502    0  0.33849503452E+03 -0.39514820073E+02  0.54193635755E+03  0.64018382925E+03  0.10100000352E+00 0.  1.
       -3    1    3    3    0  502 -0.33849503452E+03  0.39514820073E+02 -0.31415551078E+03  0.46350189273E+03  0.10100000352E+00 0. -1.
</event>
<event>
 5   0  0.3328741E-03  0.1103315E+04  0.7818609E-02  0.9201967E-01
       -1   -1    0    0    0  501  0.00000000000E+00  0.00000000000E+00  0.56264357128E+03  0.56264357130E+03  0.50400001928E-02 0.  1.
        1   -1    0    0  501    0  0.00000000000E+00  0.00000000000E+00 -0.54088555960E+03  0.54088555962E+03  0.50400001928E-02 0. -1.
    10030    2    1    2    0    0  0.00000000000E+00  0.00000000000E+00  0.21758011680E+02  0.11035291309E+04  0.11033146114E+04 0.  0.
        3    1    3    3  502    0  0.26507099388E+03 -0.12927539973E+03 -0.45542083343E+03  0.54257064655E+03  0.10100000352E+00 0. -1.
       -3    1    3    3    0  502 -0.26507099388E+03  0.12927539973E+03  0.47717884511E+03  0.56095848438E+03  0.10100000352E+00 0.  1.
</event>
<event>
 5   0  0.5627232E-03  0.1073784E+04  0.7818609E-02  0.9231128E-01
       -2   -1    0    0    0  501  0.00000000000E+00  0.00000000000E+00  0.61500251752E+03  0.61500251752E+03  0.25500000920E-02 0.  1.
        2   -1    0    0  501    0  0.00000000000E+00  0.00000000000E+00 -0.46870177049E+03  0.46870177050E+03  0.25500000920E-02 0. -1.
    10030    2    1    2    0    0  0.00000000000E+00  0.00000000000E+00  0.14630074703E+03  0.10837042880E+04  0.10737835328E+04 0.  0.
        2    1    3    3  502    0  0.14675477265E+02  0.53641684995E+03  0.55834869823E+02  0.53951454034E+03  0.25500000920E-02 0.  1.
       -2    1    3    3    0  502 -0.14675477265E+02 -0.53641684995E+03  0.90465877204E+02  0.54418974768E+03  0.25500000920E-02 0. -1.
</event>
<event>
 5   0  0.3241189E-03  0.1073937E+04  0.7818609E-02  0.9230974E-01
        1   -1    0    0  501    0  0.00000000000E+00  0.00000000000E+00  0.34392701023E+03  0.34392701026E+03  0.50400001928E-02 0.  1.
       -1   -1    0    0    0  501  0.00000000000E+00  0.00000000000E+00 -0.83836104943E+03  0.83836104944E+03  0.50400001928E-02 0. -1.
    10030    2    1    2    0    0  0.00000000000E+00  0.00000000000E+00 -0.49443403920E+03  0.11822880597E+04  0.10739367006E+04 0.  0.
        5    1    3    3  502    0 -0.22297403316E+02 -0.58700107683E+02  0.33984845570E+03  0.34563266581E+03  0.46999998093E+01 0.  1.
       -5    1    3    3    0  502  0.22297403316E+02  0.58700107683E+02 -0.83428249490E+03  0.83665539389E+03  0.46999998093E+01 0. -1.
</event>
<event>
 5   0  0.5500363E-03  0.8423926E+03  0.7818609E-02  0.9500605E-01
        2   -1    0    0  501    0  0.00000000000E+00  0.00000000000E+00  0.16332709935E+04  0.16332709935E+04  0.25500000920E-02 0. -1.
       -2   -1    0    0    0  501  0.00000000000E+00  0.00000000000E+00 -0.10862027353E+03  0.10862027356E+03  0.25500000920E-02 0.  1.
    10030    2    1    2    0    0  0.00000000000E+00  0.00000000000E+00  0.15246507200E+04  0.17418912671E+04  0.84239264500E+03 0.  0.
        3    1    3    3  502    0  0.23098158305E+03 -0.12234700436E+03  0.14452756510E+04  0.14687215525E+04  0.10100000352E+00 0. -1.
       -3    1    3    3    0  502 -0.23098158305E+03  0.12234700436E+03  0.79375068988E+02  0.27316971458E+03  0.10100000352E+00 0.  1.
</event>
<event>
 5   0  0.5500363E-03  0.1115561E+04  0.7818609E-02  0.9190157E-01
       -2   -1    0    0    0  501  0.00000000000E+00  0.00000000000E+00  0.29259061043E+03  0.29259061044E+03  0.25500000920E-02 0.  1.
        2   -1    0    0  501    0  0.00000000000E+00  0.00000000000E+00 -0.10633251290E+04  0.10633251290E+04  0.25500000920E-02 0. -1.
    10030    2    1    2    0    0  0.00000000000E+00  0.00000000000E+00 -0.77073451854E+03  0.13559157394E+04  0.11155607533E+04 0.  0.
        3    1    3    3  502    0  0.21351021605E+00 -0.26541567635E+03  0.21091725707E+03  0.33901567274E+03  0.10100000352E+00 0.  1.
       -3    1    3    3    0  502 -0.21351021605E+00  0.26541567635E+03 -0.98165177561E+03  0.10169000667E+04  0.10100000352E+00 0. -1.
</event>
<event>
 5   0  0.5627232E-03  0.1058917E+04  0.7818609E-02  0.9246186E-01
        2   -1    0    0  501    0  0.00000000000E+00  0.00000000000E+00  0.48545660991E+03  0.48545660992E+03  0.25500000920E-02 0. -1.
       -2   -1    0    0    0  501  0.00000000000E+00  0.00000000000E+00 -0.57744829113E+03  0.57744829113E+03  0.25500000920E-02 0.  1.
    10030    2    1    2    0    0  0.00000000000E+00  0.00000000000E+00 -0.91991681211E+02  0.10629049011E+04  0.10589165969E+04 0.  0.
        2    1    3    3  502    0  0.12590068141E+02 -0.48858290261E+03 -0.25036605012E+03  0.54914016571E+03  0.25500000920E-02 0.  1.
       -2    1    3    3    0  502 -0.12590068141E+02  0.48858290261E+03  0.15837436891E+03  0.51376473534E+03  0.25500000920E-02 0. -1.
</event>
<event>
 5   0  0.3316784E-03  0.1092662E+04  0.7818609E-02  0.9212373E-01
        1   -1    0    0  501    0  0.00000000000E+00  0.00000000000E+00  0.68835688462E+03  0.68835688464E+03  0.50400001928E-02 0. -1.
       -1   -1    0    0    0  501  0.00000000000E+00  0.00000000000E+00 -0.43360902229E+03  0.43360902232E+03  0.50400001928E-02 0.  1.
    10030    2    1    2    0    0  0.00000000000E+00  0.00000000000E+00  0.25474786233E+03  0.11219659070E+04  0.10926623555E+04 0.  0.
        4    1    3    3  502    0 -0.10395029443E+03 -0.40968293870E+03 -0.22807493025E+03  0.48027654605E+03  0.12699999809E+01 0.  1.
       -4    1    3    3    0  502  0.10395029443E+03  0.40968293870E+03  0.48282279258E+03  0.64168936091E+03  0.12699999809E+01 0. -1.
</event>
<event>
 5   0  0.5723194E-03  0.1099181E+04  0.7818609E-02  0.9205991E-01
        2   -1    0    0  501    0  0.00000000000E+00  0.00000000000E+00  0.10848657925E+04  0.10848657925E+04  0.25500000920E-02 0.  1.
       -2   -1    0    0    0  501  0.00000000000E+00  0.00000000000E+00 -0.27842117264E+03  0.27842117265E+03  0.25500000920E-02 0. -1.
    10030    2    1    2    0    0  0.00000000000E+00  0.00000000000E+00  0.80644461985E+03  0.13632869651E+04  0.10991807970E+04 0.  0.
        1    1    3    3  502    0  0.12404484906E+03  0.10138582570E+03  0.10552621377E+04  0.10673539196E+04  0.50400001928E-02 0.  1.
       -1    1    3    3    0  502 -0.12404484906E+03 -0.10138582570E+03 -0.24881751789E+03  0.29593304558E+03  0.50400001928E-02 0. -1.
</event>
<event>
 5   0  0.5627232E-03  0.1146222E+04  0.7818609E-02  0.9161276E-01
       -2   -1    0    0    0  501  0.00000000000E+00  0.00000000000E+00  0.21835362842E+03  0.21835362844E+03  0.25500000920E-02 0. -1.
        2   -1    0    0  501    0  0.00000000000E+00  0.00000000000E+00 -0.15042398047E+04  0.15042398047E+04  0.25500000920E-02 0.  1.
    10030    2    1    2    0    0  0.00000000000E+00  0.00000000000E+00 -0.12858861763E+04  0.17225934331E+04  0.11462220019E+04 0.  0.
        2    1    3    3  502    0  0.21623376849E+03  0.22805290996E+03  0.77311577866E+02  0.32363907746E+03  0.25500000920E-02 0. -1.
       -2    1    3    3    0  502 -0.21623376849E+03 -0.22805290996E+03 -0.13631977542E+04  0.13989543557E+04  0.25500000920E-02 0.  1.
</event>
<event>
 5   0  0.5723194E-03  0.1172442E+04  0.7818609E-02  0.9137326E-01
       -2   -1    0    0    0  501  0.00000000000E+00  0.00000000000E+00  0.22487694638E+03  0.22487694639E+03  0.25500000920E-02 0. -1.
        2   -1    0    0  501    0  0.00000000000E+00  0.00000000000E+00 -0.15281910677E+04  0.15281910678E+04  0.25500000920E-02 0.  1.
    10030    2    1    2    0    0  0.00000000000E+00  0.00000000000E+00 -0.13033141214E+04  0.17530680141E+04  0.11724417952E+04 0.  0.
        1    1    3    3  502    0 -0.23728960889E+01  0.46070987029E+03 -0.11936555709E+04  0.12794814720E+04  0.50400001928E-02 0.  1.
       -1    1    3    3    0  502  0.23728960889E+01 -0.46070987029E+03 -0.10965855052E+03  0.47358654219E+03  0.50400001928E-02 0. -1.
</event>
<event>
 5   0  0.5500363E-03  0.1100034E+04  0.7818609E-02  0.9205159E-01
        2   -1    0    0  501    0  0.00000000000E+00  0.00000000000E+00  0.11779619335E+04  0.11779619335E+04  0.25500000920E-02 0.  1.
       -2   -1    0    0    0  501  0.00000000000E+00  0.00000000000E+00 -0.25681542059E+03  0.25681542060E+03  0.25500000920E-02 0. -1.
    10030    2    1    2    0    0  0.00000000000E+00  0.00000000000E+00  0.92114651295E+03  0.14347773541E+04  0.11000341620E+04 0.  0.
        3    1    3    3  502    0  0.14418115466E+03 -0.50925396253E+03  0.65574405911E+03  0.84269097834E+03  0.10100000352E+00 0.  1.
       -3    1    3    3    0  502 -0.14418115466E+03  0.50925396253E+03  0.26540245385E+03  0.59208637581E+03  0.10100000352E+00 0. -1.
</event>
<event>
 5   0  0.3320192E-03  0.1073382E+04  0.7818609E-02  0.9231531E-01
        1   -1    0    0  501    0  0.00000000000E+00  0.00000000000E+00  0.10943147192E+04  0.10943147192E+04  0.50400001928E-02 0.  1.
       -1   -1    0    0    0  501  0.00000000000E+00  0.00000000000E+00 -0.26321251149E+03  0.26321251154E+03  0.50400001928E-02 0. -1.
    10030    2    1    2    0    0  0.00000000000E+00  0.00000000000E+00  0.83110220771E+03  0.13575272307E+04  0.10733821792E+04 0.  0.
        2    1    3    3  502    0  0.57266996849E+02  0.53225329668E+03  0.36715604462E+03  0.64913530320E+03  0.25500000920E-02 0. -1.
       -2    1    3    3    0  502 -0.57266996849E+02 -0.53225329668E+03  0.46394616309E+03  0.70839192754E+03  0.25500000920E-02 0.  1.
</event>
<event>
 5   0  0.5500363E-03  0.1103527E+04  0.7818609E-02  0.9201761E-01
       -2   -1    0    0    0  501  0.00000000000E+00  0.00000000000E+00  0.21227700379E+03  0.21227700380E+03  0.25500000920E-02 0. -1.
        2   -1    0    0  501    0  0.00000000000E+00  0.00000000000E+00 -0.14341774956E+04  0.14341774956E+04  0.25500000920E-02 0.  1.
    10030    2    1    2    0    0  0.00000000000E+00  0.00000000000E+00 -0.12219004918E+04  0.16464544994E+04  0.11035268944E+04 0.  0.
        3    1    3    3  502    0 -0.11205226608E+03 -0.43481600563E+03 -0.13252916875E+03  0.46817161368E+03  0.10100000352E+00 0. -1.
       -3    1    3    3    0  502  0.11205226608E+03  0.43481600563E+03 -0.10893713231E+04  0.11782828857E+04  0.10100000352E+00 0.  1.
</event>
<event>
 5   0  0.5946359E-03  0.1117429E+04  0.7818609E-02  0.9188369E-01
        2   -1    0    0  501    0  0.00000000000E+00  0.00000000000E+00  0.45388590101E+03  0.45388590102E+03  0.25500000920E-02 0.  1.
       -2   -1    0    0    0  501  0.00000000000E+00  0.00000000000E+00 -0.68775397009E+03  0.68775397010E+03  0.25500000920E-02 0. -1.
    10030    2    1    2    0    0  0.00000000000E+00  0.00000000000E+00 -0.23386806909E+03  0.11416398711E+04  0.11174288888E+04 0.  0.
        4    1    3    3  502    0 -0.71572163306E+02  0.27152974009E+03  0.37655238466E+03  0.46972788464E+03  0.12699999809E+01 0.  1.
       -4    1    3    3    0  502  0.71572163306E+02 -0.27152974009E+03 -0.61042045375E+03  0.67191198647E+03  0.12699999809E+01 0. -1.
</event>
<event>
 5   0  0.3215352E-03  0.1103763E+04  0.7818609E-02  0.9201532E-01
       -1   -1    0    0    0  501  0.00000000000E+00  0.00000000000E+00  0.35746015064E+03  0.35746015068E+03  0.50400001928E-02 0. -1.
        1   -1    0    0  501    0  0.00000000000E+00  0.00000000000E+00 -0.85204833033E+03  0.85204833034E+03  0.50400001928E-02 0.  1.
    10030    2    1    2    0    0  0.00000000000E+00  0.00000000000E+00 -0.49458817968E+03  0.12095084810E+04  0.11037632437E+04 0.  0.
        1    1    3    3  502    0 -0.46417079468E+03  0.14400585444E+03  0.39256343216E+02  0.48757899181E+03  0.50400001928E-02 0. -1.
       -1    1    3    3    0  502  0.46417079468E+03 -0.14400585444E+03 -0.53384452290E+03  0.72192948921E+03  0.50400001928E-02 0.  1.
</event>
<event>
 5   0  0.3320192E-03  0.1104169E+04  0.7818609E-02  0.9201138E-01
       -1   -1    0    0    0  501  0.00000000000E+00  0.00000000000E+00  0.27006025083E+03  0.27006025088E+03  0.50400001928E-02 0.  1.
        1   -1    0    0  501    0  0.00000000000E+00  0.00000000000E+00 -0.11286265673E+04  0.11286265673E+04  0.50400001928E-02 0. -1.
    10030    2    1    2    0    0  0.00000000000E+00  0.00000000000E+00 -0.85856631648E+03  0.13986868182E+04  0.11041687804E+04 0.  0.
        2    1    3    3  502    0 -0.45293742306E+03 -0.27868527998E+03 -0.61708192296E+03  0.81462131947E+03  0.25500000920E-02 0. -1.
       -2    1    3    3    0  502  0.45293742306E+03  0.27868527998E+03 -0.24148439352E+03  0.58406549873E+03  0.25500000920E-02 0.  1.
</event>
<event>
 5   0  0.3241189E-03  0.1136032E+04  0.7818609E-02  0.9170767E-01
        1   -1    0    0  501    0  0.00000000000E+00  0.00000000000E+00  0.96665586296E+03  0.96665586297E+03  0.50400001928E-02 0. -1.
       -1   -1    0    0    0  501  0.00000000000E+00  0.00000000000E+00 -0.33377165978E+03  0.33377165981E+03  0.50400001928E-02 0.  1.
    10030    2    1    2    0    0  0.00000000000E+00  0.00000000000E+00  0.63288420318E+03  0.13004275228E+04  0.11360322739E+04 0.  0.
        5    1    3    3  502    0 -0.52068820186E+03 -0.11417907905E+03  0.91929544498E+02  0.54094934772E+03  0.46999998093E+01 0.  1.
       -5    1    3    3    0  502  0.52068820186E+03  0.11417907905E+03  0.54095465868E+03  0.75947817506E+03  0.46999998093E+01 0. -1.
</event>
<event>
 5   0  0.2185750E-03  0.1102370E+04  0.7818609E-02  0.9202885E-01
        3   -1    0    0  501    0  0.00000000000E+00  0.00000000000E+00  0.36741880825E+03  0.36741882213E+03  0.10100000352E+00 0.  1.
       -3   -1    0    0    0  501  0.00000000000E+00  0.00000000000E+00 -0.82686295125E+03  0.82686295742E+03  0.10100000352E+00 0. -1.
    10030    2    1    2    0    0  0.00000000000E+00  0.00000000000E+00 -0.45944414300E+03  0.11942817796E+04  0.11023701957E+04 0.  0.
        4    1    3    3  502    0 -0.36148313839E+03 -0.14438054842E+03 -0.65249932270E+03  0.75978469393E+03  0.12699999809E+01 0. -1.
       -4    1    3    3    0  502  0.36148313839E+03  0.14438054842E+03  0.19305517970E+03  0.43449708562E+03  0.12699999809E+01 0.  1.
</event>
<event>
 5   0  0.3328741E-03  0.9892020E+03  0.7818609E-02  0.9320468E-01
        1   -1    0    0  501    0  0.00000000000E+00  0.00000000000E+00  0.44536624534E+03  0.44536624537E+03  0.50400001928E-02 0.  1.
       -1   -1    0    0    0  501  0.00000000000E+00  0.00000000000E+00 -0.54927858279E+03  0.54927858281E+03  0.50400001928E-02 0. -1.
    10030    2    1    2    0    0  0.00000000000E+00  0.00000000000E+00 -0.10391233745E+03  0.99464482819E+03  0.98920198158E+03 0.  0.
        3    1    3    3  502    0  0.23780207781E+03 -0.24475279906E+03  0.30803101021E+03  0.45971390485E+03  0.10100000352E+00 0.  1.
       -3    1    3    3    0  502 -0.23780207781E+03  0.24475279906E+03 -0.41194334766E+03  0.53493092334E+03  0.10100000352E+00 0. -1.
</event>
<event>
 5   0  0.5946359E-03  0.1098547E+04  0.7818609E-02  0.9206609E-01
        2   -1    0    0  501    0  0.00000000000E+00  0.00000000000E+00  0.12249286962E+04  0.12249286962E+04  0.25500000920E-02 0. -1.
       -2   -1    0    0    0  501  0.00000000000E+00  0.00000000000E+00 -0.24630133882E+03  0.24630133883E+03  0.25500000920E-02 0.  1.
    10030    2    1    2    0    0  0.00000000000E+00  0.00000000000E+00  0.97862735734E+03  0.14712300350E+04  0.10985473642E+04 0.  0.
        4    1    3    3  502    0 -0.39102331966E+03  0.38490123819E+03  0.45512302550E+03  0.71287220518E+03  0.12699999809E+01 0. -1.
       -4    1    3    3    0  502  0.39102331966E+03 -0.38490123819E+03  0.52350433184E+03  0.75835782981E+03  0.12699999809E+01 0.  1.
</event>
<event>
 5   0  0.3215352E-03  0.1101697E+04  0.7818609E-02  0.9203540E-01
       -1   -1    0    0    0  501  0.00000000000E+00  0.00000000000E+00  0.52031046547E+03  0.52031046549E+03  0.50400001928E-02 0.  1.
        1   -1    0    0  501    0  0.00000000000E+00  0.00000000000E+00 -0.58317855730E+03  0.58317855732E+03  0.50400001928E-02 0. -1.
    10030    2    1    2    0    0  0.00000000000E+00  0.00000000000E+00 -0.62868091830E+02  0.11034890228E+04  0.11016967035E+04 0.  0.
        1    1    3    3  502    0 -0.82297902304E+02 -0.75536867179E+02  0.50884607318E+03  0.52096361605E+03  0.50400001928E-02 0.  1.
       -1    1    3    3    0  502  0.82297902304E+02  0.75536867179E+02 -0.57171416501E+03  0.58252540677E+03  0.50400001928E-02 0. -1.
</event>
<event>
 5   0  0.5941585E-03  0.1083071E+04  0.7818609E-02  0.9221851E-01
        2   -1    0    0  501    0  0.00000000000E+00  0.00000000000E+00  0.95284621433E+03  0.95284621434E+03  0.25500000920E-02 0. -1.
       -2   -1    0    0    0  501  0.00000000000E+00  0.00000000000E+00 -0.30777331859E+03  0.30777331860E+03  0.25500000920E-02 0.  1.
    10030    2    1    2    0    0  0.00000000000E+00  0.00000000000E+00  0.64507289574E+03  0.12606195329E+04  0.10830708961E+04 0.  0.
        5    1    3    3  502    0  0.38596356739E+03 -0.34541096219E+03  0.13864296300E+03  0.53620944540E+03  0.46999998093E+01 0.  1.
       -5    1    3    3    0  502 -0.38596356739E+03  0.34541096219E+03  0.50642993274E+03  0.72441008754E+03  0.46999998093E+01 0. -1.
</event>
<event>
 5   0  0.5941585E-03  0.1101325E+04  0.7818609E-02  0.9203902E-01
       -2   -1    0    0    0  501  0.00000000000E+00  0.00000000000E+00  0.20082798303E+03  0.20082798304E+03  0.25500000920E-02 0. -1.
        2   -1    0    0  501    0  0.00000000000E+00  0.00000000000E+00 -0.15098942424E+04  0.15098942424E+04  0.25500000920E-02 0.  1.
    10030    2    1    2    0    0  0.00000000000E+00  0.00000000000E+00 -0.13090662594E+04  0.17107222255E+04  0.11013246847E+04 0.  0.
        5    1    3    3  502    0 -0.52685437625E+03 -0.10086327894E+02 -0.90272446673E+03  0.10452802594E+04  0.46999998093E+01 0.  1.
       -5    1    3    3    0  502  0.52685437625E+03  0.10086327894E+02 -0.40634179265E+03  0.66544196609E+03  0.46999998093E+01 0. -1.
</event>
<event>
 5   0  0.5941585E-03  0.1164834E+04  0.7818609E-02  0.9144207E-01
        2   -1    0    0  501    0  0.00000000000E+00  0.00000000000E+00  0.84879868984E+03  0.84879868985E+03  0.25500000920E-02 0.  1.
       -2   -1    0    0    0  501  0.00000000000E+00  0.00000000000E+00 -0.39963456821E+03  0.39963456822E+03  0.25500000920E-02 0. -1.
    10030    2    1    2    0    0  0.00000000000E+00  0.00000000000E+00  0.44916412163E+03  0.12484332581E+04  0.11648335468E+04 0.  0.
        5    1    3    3  502    0 -0.46636940074E+03 -0.31481049058E+03  0.63526976431E+02  0.56627186904E+03  0.46999998093E+01 0. -1.
       -5    1    3    3    0  502  0.46636940074E+03  0.31481049058E+03  0.38563714520E+03  0.68216138903E+03  0.46999998093E+01 0.  1.
</event>
<event>
 5   0  0.5627232E-03  0.1103026E+04  0.7818609E-02  0.9202248E-01
        2   -1    0    0  501    0  0.00000000000E+00  0.00000000000E+00  0.28259281391E+03  0.28259281392E+03  0.25500000920E-02 0.  1.
       -2   -1    0    0    0  501  0.00000000000E+00  0.00000000000E+00 -0.10763421859E+04  0.10763421859E+04  0.25500000920E-02 0. -1.
    10030    2    1    2    0    0  0.00000000000E+00  0.00000000000E+00 -0.79374937203E+03  0.13589349999E+04  0.11030259599E+04 0.  0.
        2    1    3    3  502    0 -0.40385017725E+03 -0.37559494280E+03 -0.39662725429E+03  0.67932297589E+03  0.25500000920E-02 0. -1.
       -2    1    3    3    0  502  0.40385017725E+03  0.37559494280E+03 -0.39712211774E+03  0.67961202397E+03  0.25500000920E-02 0.  1.
</event>
<event>
 5   0  0.3316784E-03  0.1091768E+04  0.7818609E-02  0.9213253E-01
        1   -1    0    0  501    0  0.00000000000E+00  0.00000000000E+00  0.37863805936E+03  0.37863805939E+03  0.50400001928E-02 0. -1.
       -1   -1    0    0    0  501  0.00000000000E+00  0.00000000000E+00 -0.78700252044E+03  0.78700252045E+03  0.50400001928E-02 0.  1.
    10030    2    1    2    0    0  0.00000000000E+00  0.00000000000E+00 -0.40836446108E+03  0.11656405798E+04  0.10917675706E+04 0.  0.
        4    1    3    3  502    0  0.50873300814E+03  0.10195886685E+02 -0.41522956636E+03  0.65675751641E+03  0.12699999809E+01 0. -1.
       -4    1    3    3    0  502 -0.50873300814E+03 -0.10195886685E+02  0.68651052847E+01  0.50888306344E+03  0.12699999809E+01 0.  1.
</event>
<event>
 5   0  0.5723194E-03  0.1111598E+04  0.7818609E-02  0.9193961E-01
        2   -1    0    0  501    0  0.00000000000E+00  0.00000000000E+00  0.71326662949E+03  0.71326662950E+03  0.25500000920E-02 0.  1.
       -2   -1    0    0    0  501  0.00000000000E+00  0.00000000000E+00 -0.43309555080E+03  0.43309555081E+03  0.25500000920E-02 0. -1.
    10030    2    1    2    0    0  0.00000000000E+00  0.00000000000E+00  0.28017107869E+03  0.11463621803E+04  0.11115981356E+04 0.  0.
        1    1    3    3  502    0  0.53563450825E+03 -0.59977520165E+02  0.15502606051E+00  0.53898205295E+03  0.50400001928E-02 0. -1.
       -1    1    3    3    0  502 -0.53563450825E+03  0.59977520165E+02  0.28001605263E+03  0.60738012735E+03  0.50400001928E-02 0.  1.
</event>
<event>
 5   0  0.5941585E-03  0.1099042E+04  0.7818609E-02  0.9206126E-01
       -2   -1    0    0    0  501  0.00000000000E+00  0.00000000000E+00  0.31917335312E+03  0.31917335313E+03  0.25500000920E-02 0. -1.
        2   -1    0    0  501    0  0.00000000000E+00  0.00000000000E+00 -0.94611059816E+03  0.94611059817E+03  0.25500000920E-02 0.  1.
    10030    2    1    2    0    0  0.00000000000E+00  0.00000000000E+00 -0.62693724504E+03  0.12652839513E+04  0.10990419320E+04 0.  0.
        5    1    3    3  502    0  0.38494875457E+03 -0.29877029514E+03 -0.60585707968E+03  0.77751792514E+03  0.46999998093E+01 0.  1.
       -5    1    3    3    0  502 -0.38494875457E+03  0.29877029514E+03 -0.21080165359E+02  0.48776602616E+03  0.46999998093E+01 0. -1.
</event>
<event>
 5   0  0.5946359E-03  0.1109869E+04  0.7818609E-02  0.9195626E-01
        2   -1    0    0  501    0  0.00000000000E+00  0.00000000000E+00  0.89686452465E+03  0.89686452465E+03  0.25500000920E-02 0.  1.
       -2   -1    0    0    0  501  0.00000000000E+00  0.00000000000E+00 -0.34336554945E+03  0.34336554946E+03  0.25500000920E-02 0. -1.
    10030    2    1    2    0    0  0.00000000000E+00  0.00000000000E+00  0.55349897519E+03  0.12402300741E+04  0.11098691460E+04 0.  0.
        4    1    3    3  502    0  0.15829876012E+03 -0.52693893929E+03  0.35754414805E+03  0.65617267079E+03  0.12699999809E+01 0. -1.
       -4    1    3    3    0  502 -0.15829876012E+03  0.52693893929E+03  0.19595482714E+03  0.58405740332E+03  0.12699999809E+01 0.  1.
</event>
<event>
 5   0  0.5500363E-03  0.1098922E+04  0.7818609E-02  0.9206243E-01
        2   -1    0    0  501    0  0.00000000000E+00  0.00000000000E+00  0.16448585318E+04  0.16448585318E+04  0.25500000920E-02 0.  1.
       -2   -1    0    0    0  501  0.00000000000E+00  0.00000000000E+00 -0.18354625917E+03  0.18354625918E+03  0.25500000920E-02 0. -1.
    10030    2    1    2    0    0  0.00000000000E+00  0.00000000000E+00  0.14613122726E+04  0.18284047910E+04  0.10989224365E+04 0.  0.
        3    1    3    3  502    0 -0.11599352564E+03 -0.29086555703E+03  0.14818655833E+04  0.15145900064E+04  0.10100000352E+00 0.  1.
       -3    1    3    3    0  502  0.11599352564E+03  0.29086555703E+03 -0.20553310669E+02  0.31381478460E+03  0.10100000352E+00 0. -1.
</event>
<event>
 5   0  0.5941585E-03  0.1164943E+04  0.7818609E-02  0.9144108E-01
        2   -1    0    0  501    0  0.00000000000E+00  0.00000000000E+00  0.65617651132E+03  0.65617651133E+03  0.25500000920E-02 0.  1.
       -2   -1    0    0    0  501  0.00000000000E+00  0.00000000000E+00 -0.51704521755E+03  0.51704521756E+03  0.25500000920E-02 0. -1.
    10030    2    1    2    0    0  0.00000000000E+00  0.00000000000E+00  0.13913129377E+03  0.11732217289E+04  0.11649427918E+04 0.  0.
        5    1    3    3  502    0 -0.39282062419E+03  0.22008096095E+03  0.44166012299E+03  0.63073720867E+03  0.46999998093E+01 0.  1.
       -5    1    3    3    0  502  0.39282062419E+03 -0.22008096095E+03 -0.30252882923E+03  0.54248452022E+03  0.46999998093E+01 0. -1.
</event>
<event>
 5   0  0.3316784E-03  0.1086807E+04  0.7818609E-02  0.9218147E-01
        1   -1    0    0  501    0  0.00000000000E+00  0.00000000000E+00  0.55857165066E+03  0.55857165068E+03  0.50400001928E-02 0.  1.
       -1   -1    0    0    0  501  0.00000000000E+00  0.00000000000E+00 -0.52864676284E+03  0.52864676286E+03  0.50400001928E-02 0. -1.
    10030    2    1    2    0    0  0.00000000000E+00  0.00000000000E+00  0.29924887820E+02  0.10872184135E+04  0.10868065052E+04 0.  0.
        4    1    3    3  502    0 -0.33570888935E+03  0.85072061196E+02  0.43386662109E+03  0.55513923639E+03  0.12699999809E+01 0. -1.
       -4    1    3    3    0  502  0.33570888935E+03 -0.85072061196E+02 -0.40394173327E+03  0.53207917715E+03  0.12699999809E+01 0.  1.
</event>
<event>
 5   0  0.3328741E-03  0.1107128E+04  0.7818609E-02  0.9198272E-01
        1   -1    0    0  501    0  0.00000000000E+00  0.00000000000E+00  0.16159954100E+04  0.16159954100E+04  0.50400001928E-02 0.  1.
       -1   -1    0    0    0  501  0.00000000000E+00  0.00000000000E+00 -0.18962507663E+03  0.18962507669E+03  0.50400001928E-02 0. -1.
    10030    2    1    2    0    0  0.00000000000E+00  0.00000000000E+00  0.14263703334E+04  0.18056204867E+04  0.11071282735E+04 0.  0.
        3    1    3    3  502    0  0.12104981724E+03 -0.23736599905E+03 -0.78160835927E+02  0.27767751481E+03  0.10100000352E+00 0. -1.
       -3    1    3    3    0  502 -0.12104981724E+03  0.23736599905E+03  0.15045311693E+04  0.15279429719E+04  0.10100000352E+00 0.  1.
</event>
<event>
 5   0  0.3241189E-03  0.1098653E+04  0.7818609E-02  0.9206506E-01
       -1   -1    0    0    0  501  0.00000000000E+00  0.00000000000E+00  0.13646009940E+03  0.13646009949E+03  0.50400001928E-02 0.  1.
        1   -1    0    0  501    0  0.00000000000E+00  0.00000000000E+00 -0.22113395345E+04  0.22113395345E+04  0.50400001928E-02 0. -1.
    10030    2    1    2    0    0  0.00000000000E+00  0.00000000000E+00 -0.20748794351E+04  0.23477996340E+04  0.10986530167E+04 0.  0.
        5    1    3    3  502    0  0.48340652403E+03 -0.13991214047E+03 -0.56691450924E+03  0.75807085771E+03  0.46999998093E+01 0.  1.
       -5    1    3    3    0  502 -0.48340652403E+03  0.13991214047E+03 -0.15079649258E+04  0.15897287763E+04  0.46999998093E+01 0. -1.
</event>
<event>
 5   0  0.5723194E-03  0.1102394E+04  0.7818609E-02  0.9202861E-01
        2   -1    0    0  501    0  0.00000000000E+00  0.00000000000E+00  0.57216872115E+03  0.57216872116E+03  0.25500000920E-02 0.  1.
       -2   -1    0    0    0  501  0.00000000000E+00  0.00000000000E+00 -0.53099413234E+03  0.53099413234E+03  0.25500000920E-02 0. -1.
    10030    2    1    2    0    0  0.00000000000E+00  0.00000000000E+00  0.41174588814E+02  0.11031628535E+04  0.11023941829E+04 0.  0.
        1    1    3    3  502    0  0.10752471210E+03 -0.53899903560E+03  0.62290199558E+02  0.55313795122E+03  0.50400001928E-02 0.  1.
       -1    1    3    3    0  502 -0.10752471210E+03  0.53899903560E+03 -0.21115610744E+02  0.55002490228E+03  0.50400001928E-02 0. -1.
</event>
<event>
 5   0  0.5941585E-03  0.1076443E+04  0.7818609E-02  0.9228461E-01
       -2   -1    0    0    0  501  0.00000000000E+00  0.00000000000E+00  0.23884870963E+03  0.23884870965E+03  0.25500000920E-02 0.  1.
        2   -1    0    0  501    0  0.00000000000E+00  0.00000000000E+00 -0.12128281795E+04  0.12128281795E+04  0.25500000920E-02 0. -1.
    10030    2    1    2    0    0  0.00000000000E+00  0.00000000000E+00 -0.97397946989E+03  0.14516768892E+04  0.10764431164E+04 0.  0.
        5    1    3    3  502    0 -0.20847402238E+02  0.24478523136E+03 -0.11327726082E+04  0.11591161700E+04  0.46999998093E+01 0. -1.
       -5    1    3    3    0  502  0.20847402238E+02 -0.24478523136E+03  0.15879313826E+03  0.29256071922E+03  0.46999998093E+01 0.  1.
</event>
<event>
 5   0  0.3241189E-03  0.1072801E+04  0.7818609E-02  0.9232115E-01
        1   -1    0    0  501    0  0.00000000000E+00  0.00000000000E+00  0.64916865456E+03  0.64916865458E+03  0.50400001928E-02 0.  1.
       -1   -1    0    0    0  501  0.00000000000E+00  0.00000000000E+00 -0.44322148948E+03  0.44322148950E+03  0.50400001928E-02 0. -1.
    10030    2    1    2    0    0  0.00000000000E+00  0.00000000000E+00  0.20594716508E+03  0.10923901441E+04  0.10728010030E+04 0.  0.
        5    1    3    3  502    0  0.27906656754E+03  0.26899593851E+03 -0.27456118413E+03  0.47501883950E+03  0.46999998093E+01 0. -1.
       -5    1    3    3    0  502 -0.27906656754E+03 -0.26899593851E+03  0.48050834921E+03  0.61737130458E+03  0.46999998093E+01 0.  1.
</event>
<event>
 5   0  0.3215352E-03  0.1112188E+04  0.7818609E-02  0.9193393E-01
       -1   -1    0    0    0  501  0.00000000000E+00  0.00000000000E+00  0.78121761838E+03  0.78121761839E+03  0.50400001928E-02 0. -1.
        1   -1    0    0  501    0  0.00000000000E+00  0.00000000000E+00 -0.39584448193E+03  0.39584448196E+03  0.50400001928E-02 0.  1.
    10030    2    1    2    0    0  0.00000000000E+00  0.00000000000E+00  0.38537313645E+03  0.11770621004E+04  0.11121882636E+04 0.  0.
        1    1    3    3  502    0 -0.29538081941E+03 -0.20390396295E+03 -0.25684088609E+03  0.44135461408E+03  0.50400001928E-02 0.  1.
       -1    1    3    3    0  502  0.29538081941E+03  0.20390396295E+03  0.64221402254E+03  0.73570748627E+03  0.50400001928E-02 0. -1.
</event>
<event>
 5   0  0.5946359E-03  0.1243095E+04  0.7818609E-02  0.9075950E-01
        2   -1    0    0  501    0  0.00000000000E+00  0.00000000000E+00  0.81732612419E+03  0.81732612420E+03  0.25500000920E-02 0. -1.
       -2   -1    0    0    0  501  0.00000000000E+00  0.00000000000E+00 -0.47266491681E+03  0.47266491682E+03  0.25500000920E-02 0.  1.
    10030    2    1    2    0    0  0.00000000000E+00  0.00000000000E+00  0.34466120738E+03  0.12899910410E+04  0.12430951444E+04 0.  0.
        4    1    3    3  502    0 -0.18950468764E+03 -0.58790185927E+03  0.10059122654E+03  0.62582811580E+03  0.12699999809E+01 0. -1.
       -4    1    3    3    0  502  0.18950468764E+03  0.58790185927E+03  0.24406998084E+03  0.66416292521E+03  0.12699999809E+01 0.  1.
</event>
<event>
 5   0  0.3215352E-03  0.1041818E+04  0.7818609E-02  0.9263832E-01
       -1   -1    0    0    0  501  0.00000000000E+00  0.00000000000E+00  0.60853327789E+03  0.60853327791E+03  0.50400001928E-02 0.  1.
        1   -1    0    0  501    0  0.00000000000E+00  0.00000000000E+00 -0.44590217488E+03  0.44590217490E+03  0.50400001928E-02 0. -1.
    10030    2    1    2    0    0  0.00000000000E+00  0.00000000000E+00  0.16263110302E+03  0.10544354528E+04  0.10418182416E+04 0.  0.
        1    1    3    3  502    0  0.14175386777E+03  0.10272463587E+03  0.57786889320E+03  0.60380374924E+03  0.50400001928E-02 0.  1.
       -1    1    3    3    0  502 -0.14175386777E+03 -0.10272463587E+03 -0.41523779019E+03  0.45063170358E+03  0.50400001928E-02 0. -1.
</event>
<event>
 5   0  0.5946359E-03  0.9963858E+03  0.7818609E-02  0.9312518E-01
       -2   -1    0    0    0  501  0.00000000000E+00  0.00000000000E+00  0.14146799483E+03  0.14146799485E+03  0.25500000920E-02 0.  1.
        2   -1    0    0  501    0  0.00000000000E+00  0.00000000000E+00 -0.17544333476E+04  0.17544333476E+04  0.25500000920E-02 0. -1.
    10030    2    1    2    0    0  0.00000000000E+00  0.00000000000E+00 -0.16129653528E+04  0.18959013425E+04  0.99638580433E+03 0.  0.
        4    1    3    3  502    0  0.20828409697E+03  0.41228568763E+03 -0.11616086241E+04  0.12500791822E+04  0.12699999809E+01 0. -1.
       -4    1    3    3    0  502 -0.20828409697E+03 -0.41228568763E+03 -0.45135672872E+03  0.64582216030E+03  0.12699999809E+01 0.  1.
</event>
<event>
 5   0  0.5723194E-03  0.1107032E+04  0.7818609E-02  0.9198365E-01
       -2   -1    0    0    0  501  0.00000000000E+00  0.00000000000E+00  0.23305746707E+03  0.23305746708E+03  0.25500000920E-02 0.  1.
        2   -1    0    0  501    0  0.00000000000E+00  0.00000000000E+00 -0.13146117418E+04  0.13146117418E+04  0.25500000920E-02 0. -1.
    10030    2    1    2    0    0  0.00000000000E+00  0.00000000000E+00 -0.10815542748E+04  0.15476692089E+04  0.11070322177E+04 0.  0.
        1    1    3    3  502    0  0.24590072362E+02  0.76787049564E+02 -0.13063579229E+04  0.13088437437E+04  0.50400001928E-02 0. -1.
       -1    1    3    3    0  502 -0.24590072362E+02 -0.76787049564E+02  0.22480364810E+03  0.23882546527E+03  0.50400001928E-02 0.  1.
</event>
<event>
 5   0  0.2185750E-03  0.1104554E+04  0.7818609E-02  0.9200765E-01
        4   -1    0    0  501    0  0.00000000000E+00  0.00000000000E+00  0.67540915431E+03  0.67541034832E+03  0.12699999809E+01 0. -1.
       -4   -1    0    0    0  501  0.00000000000E+00  0.00000000000E+00 -0.45159003230E+03  0.45159181810E+03  0.12699999809E+01 0.  1.
    10030    2    1    2    0    0  0.00000000000E+00  0.00000000000E+00  0.22381912201E+03  0.11270021664E+04  0.11045537034E+04 0.  0.
        1    1    3    3  502    0  0.41726876654E+03  0.33441552159E+03 -0.28964411880E+02  0.53552395072E+03  0.50400001928E-02 0.  1.
       -1    1    3    3    0  502 -0.41726876654E+03 -0.33441552159E+03  0.25278353389E+03  0.59147821570E+03  0.50400001928E-02 0. -1.
</event>
<event>
 5   0  0.3215352E-03  0.1107238E+04  0.7818609E-02  0.9198166E-01
       -1   -1    0    0    0  501  0.00000000000E+00  0.00000000000E+00  0.12665637426E+03  0.12665637436E+03  0.50400001928E-02 0.  1.
        1   -1    0    0  501    0  0.00000000000E+00  0.00000000000E+00 -0.24198866863E+04  0.24198866863E+04  0.50400001928E-02 0. -1.
    10030    2    1    2    0    0  0.00000000000E+00  0.00000000000E+00 -0.22932303120E+04  0.25465430606E+04  0.11072381387E+04 0.  0.
        1    1    3    3  502    0 -0.42890745452E+03  0.92104511411E+02 -0.36991004450E+03  0.57382774995E+03  0.50400001928E-02 0.  1.
       -1    1    3    3    0  502  0.42890745452E+03 -0.92104511411E+02 -0.19233202675E+04  0.19727153107E+04  0.50400001928E-02 0. -1.
</event>
<event>
 5   0  0.2185750E-03  0.1107175E+04  0.7818609E-02  0.9198227E-01
       -3   -1    0    0    0  501  0.00000000000E+00  0.00000000000E+00  0.10802569770E+04  0.10802569817E+04  0.10100000352E+00 0.  1.
        3   -1    0    0  501    0  0.00000000000E+00  0.00000000000E+00 -0.28369076833E+03  0.28369078631E+03  0.10100000352E+00 0. -1.
    10030    2    1    2    0    0  0.00000000000E+00  0.00000000000E+00  0.79656620864E+03  0.13639477680E+04  0.11071746877E+04 0.  0.
        2    1    3    3  502    0 -0.46673272184E+03  0.15153254723E+03  0.71394592580E+03  0.86632576522E+03  0.25500000920E-02 0.  1.
       -2    1    3    3    0  502  0.46673272184E+03 -0.15153254723E+03  0.82620282837E+02  0.49762200278E+03  0.25500000920E-02 0. -1.
</event>
<event>
 5   0  0.5946359E-03  0.1085955E+04  0.7818609E-02  0.9218990E-01
        2   -1    0    0  501    0  0.00000000000E+00  0.00000000000E+00  0.52497732942E+03  0.52497732943E+03  0.25500000920E-02 0. -1.
       -2   -1    0    0    0  501  0.00000000000E+00  0.00000000000E+00 -0.56159496168E+03  0.56159496169E+03  0.25500000920E-02 0.  1.
    10030    2    1    2    0    0  0.00000000000E+00  0.00000000000E+00 -0.36617632259E+02  0.10865722911E+04  0.10859551063E+04 0.  0.
        4    1    3    3  502    0  0.12225946289E+02  0.28453417321E+03 -0.48086349548E+03  0.55887430043E+03  0.12699999809E+01 0.  1.
       -4    1    3    3    0  502 -0.12225946289E+02 -0.28453417321E+03  0.44424586322E+03  0.52769799069E+03  0.12699999809E+01 0. -1.
</event>
<event>
 5   0  0.3316784E-03  0.1103849E+04  0.7818609E-02  0.9201449E-01
        1   -1    0    0  501    0  0.00000000000E+00  0.00000000000E+00  0.14637170075E+04  0.14637170075E+04  0.50400001928E-02 0. -1.
       -1   -1    0    0    0  501  0.00000000000E+00  0.00000000000E+00 -0.20811432658E+03  0.20811432664E+03  0.50400001928E-02 0.  1.
    10030    2    1    2    0    0  0.00000000000E+00  0.00000000000E+00  0.12556026809E+04  0.16718313341E+04  0.11038486841E+04 0.  0.
        4    1    3    3  502    0 -0.76099512328E+02 -0.13890110862E+03  0.14285577087E+04  0.14373111680E+04  0.12699999809E+01 0. -1.
       -4    1    3    3    0  502  0.76099512328E+02  0.13890110862E+03 -0.17295502782E+03  0.23452016608E+03  0.12699999809E+01 0.  1.
</event>
<event>
 5   0  0.5946359E-03  0.1116000E+04  0.7818609E-02  0.9189736E-01
       -2   -1    0    0    0  501  0.00000000000E+00  0.00000000000E+00  0.15812873141E+03  0.15812873143E+03  0.25500000920E-02 0. -1.
        2   -1    0    0  501    0  0.00000000000E+00  0.00000000000E+00 -0.19690523385E+04  0.19690523385E+04  0.25500000920E-02 0.  1.
    10030    2    1    2    0    0  0.00000000000E+00  0.00000000000E+00 -0.18109236071E+04  0.21271810699E+04  0.11159995491E+04 0.  0.
        4    1    3    3  502    0 -0.37921994710E+03  0.31447404804E+03 -0.40600983125E+03  0.63839430695E+03  0.12699999809E+01 0.  1.
       -4    1    3    3    0  502  0.37921994710E+03 -0.31447404804E+03 -0.14049137758E+04  0.14887867630E+04  0.12699999809E+01 0. -1.
</event>
<event>
 5   0  0.3320192E-03  0.1260163E+04  0.7818609E-02  0.9061766E-01
       -1   -1    0    0    0  501  0.00000000000E+00  0.00000000000E+00  0.65360548825E+03  0.65360548827E+03  0.50400001928E-02 0. -1.
        1   -1    0    0  501    0  0.00000000000E+00  0.00000000000E+00 -0.60740456501E+03  0.60740456503E+03  0.50400001928E-02 0.  1.
    10030    2    1    2    0    0  0.00000000000E+00  0.00000000000E+00  0.46200923243E+02  0.12610100533E+04  0.12601634137E+04 0.  0.
        2    1    3    3  502    0  0.23141775654E+03  0.27967861031E+03  0.53845001401E+03  0.64938641863E+03  0.25500000920E-02 0. -1.
       -2    1    3    3    0  502 -0.23141775654E+03 -0.27967861031E+03 -0.49224909077E+03  0.61162363466E+03  0.25500000920E-02 0.  1.
</event>
<event>
 5   0  0.5723194E-03  0.9954633E+03  0.7818609E-02  0.9313535E-01
        2   -1    0    0  501    0  0.00000000000E+00  0.00000000000E+00  0.28606110936E+03  0.28606110937E+03  0.25500000920E-02 0.  1.
       -2   -1    0    0    0  501  0.00000000000E+00  0.00000000000E+00 -0.86602745865E+03  0.86602745866E+03  0.25500000920E-02 0. -1.
    10030    2    1    2    0    0  0.00000000000E+00  0.00000000000E+00 -0.57996634929E+03  0.11520885680E+04  0.99546326013E+03 0.  0.
        1    1    3    3  502    0  0.64958449802E+02  0.34838576248E+03  0.11449738480E+03  0.37242702756E+03  0.50400001928E-02 0.  1.
       -1    1    3    3    0  502 -0.64958449802E+02 -0.34838576248E+03 -0.69446373409E+03  0.77966154047E+03  0.50400001928E-02 0. -1.
</event>
<event>
 5   0  0.3328741E-03  0.1102807E+04  0.7818609E-02  0.9202461E-01
        1   -1    0    0  501    0  0.00000000000E+00  0.00000000000E+00  0.98871133430E+03  0.98871133431E+03  0.50400001928E-02 0. -1.
       -1   -1    0    0    0  501  0.00000000000E+00  0.00000000000E+00 -0.30751712645E+03  0.30751712649E+03  0.50400001928E-02 0.  1.
    10030    2    1    2    0    0  0.00000000000E+00  0.00000000000E+00  0.68119420785E+03  0.12962284608E+04  0.11028067255E+04 0.  0.
        3    1    3    3  502    0 -0.15358235940E+03 -0.13096362329E+03 -0.26253584965E+03  0.33115569495E+03  0.10100000352E+00 0.  1.
       -3    1    3    3    0  502  0.15358235940E+03  0.13096362329E+03  0.94373005750E+03  0.96507276585E+03  0.10100000352E+00 0. -1.
</event>
<event>
 5   0  0.3215352E-03  0.9999397E+03  0.7818609E-02  0.9308611E-01
        1   -1    0    0  501    0  0.00000000000E+00  0.00000000000E+00  0.61179918283E+03  0.61179918285E+03  0.50400001928E-02 0.  1.
       -1   -1    0    0    0  501  0.00000000000E+00  0.00000000000E+00 -0.40858156419E+03  0.40858156422E+03  0.50400001928E-02 0. -1.
    10030    2    1    2    0    0  0.00000000000E+00  0.00000000000E+00  0.20321761864E+03  0.10203807471E+04  0.99993973241E+03 0.  0.
        1    1    3    3  502    0 -0.13948584316E+03 -0.31826782147E+03 -0.26521024576E+03  0.43713519775E+03  0.50400001928E-02 0. -1.
       -1    1    3    3    0  502  0.13948584316E+03  0.31826782147E+03  0.46842786440E+03  0.58324554932E+03  0.50400001928E-02 0.  1.
</event>
<event>
 5   0  0.3328741E-03  0.1068522E+04  0.7818609E-02  0.9236428E-01
       -1   -1    0    0    0  501  0.00000000000E+00  0.00000000000E+00  0.25136315532E+03  0.25136315537E+03  0.50400001928E-02 0. -1.
        1   -1    0    0  501    0  0.00000000000E+00  0.00000000000E+00 -0.11355472623E+04  0.11355472623E+04  0.50400001928E-02 0.  1.
    10030    2    1    2    0    0  0.00000000000E+00  0.00000000000E+00 -0.88418410694E+03  0.13869104176E+04  0.10685218629E+04 0.  0.
        3    1    3    3  502    0  0.44300305533E+03 -0.21366602303E+03 -0.17128584652E+03  0.52081064491E+03  0.10100000352E+00 0. -1.
       -3    1    3    3    0  502 -0.44300305533E+03  0.21366602303E+03 -0.71289826042E+03  0.86609977274E+03  0.10100000352E+00 0.  1.
</event>
<event>
 5   0  0.5500363E-03  0.1096419E+04  0.7818609E-02  0.9208689E-01
       -2   -1    0    0    0  501  0.00000000000E+00  0.00000000000E+00  0.32283560540E+03  0.32283560541E+03  0.25500000920E-02 0. -1.
        2   -1    0    0  501    0  0.00000000000E+00  0.00000000000E+00 -0.93091934879E+03  0.93091934879E+03  0.25500000920E-02 0.  1.
    10030    2    1    2    0    0  0.00000000000E+00  0.00000000000E+00 -0.60808374339E+03  0.12537549542E+04  0.10964194664E+04 0.  0.
        3    1    3    3  502    0  0.30266322486E+03  0.34660396928E+03  0.36702828364E+02  0.46161287571E+03  0.10100000352E+00 0. -1.
       -3    1    3    3    0  502 -0.30266322486E+03 -0.34660396928E+03 -0.64478657176E+03  0.79214207850E+03  0.10100000352E+00 0.  1.
</event>
<event>
 5   0  0.5627232E-03  0.1092116E+04  0.7818609E-02  0.9212910E-01
       -2   -1    0    0    0  501  0.00000000000E+00  0.00000000000E+00  0.44352123501E+03  0.44352123501E+03  0.25500000920E-02 0.  1.
        2   -1    0    0  501    0  0.00000000000E+00  0.00000000000E+00 -0.67230052937E+03  0.67230052937E+03  0.25500000920E-02 0. -1.
    10030    2    1    2    0    0  0.00000000000E+00  0.00000000000E+00 -0.22877929436E+03  0.11158217644E+04  0.10921164060E+04 0.  0.
        2    1    3    3  502    0 -0.12699188362E+03  0.29376679824E+03  0.33765452699E+03  0.46522730988E+03  0.25500000920E-02 0.  1.
       -2    1    3    3    0  502  0.12699188362E+03 -0.29376679824E+03 -0.56643382135E+03  0.65059445451E+03  0.25500000920E-02 0. -1.
</event>
<event>
 5   0  0.3316784E-03  0.1091173E+04  0.7818609E-02  0.9213839E-01
       -1   -1    0    0    0  501  0.00000000000E+00  0.00000000000E+00  0.34077651048E+03  0.34077651052E+03  0.50400001928E-02 0.  1.
        1   -1    0    0  501    0  0.00000000000E+00  0.00000000000E+00 -0.87348876137E+03  0.87348876138E+03  0.50400001928E-02 0. -1.
    10030    2    1    2    0    0  0.00000000000E+00  0.00000000000E+00 -0.53271225089E+03  0.12142652719E+04  0.10911726757E+04 0.  0.
        4    1    3    3  502    0 -0.19473757222E+03 -0.50964614175E+03 -0.26742774361E+03  0.60760276726E+03  0.12699999809E+01 0. -1.
       -4    1    3    3    0  502  0.19473757222E+03  0.50964614175E+03 -0.26528450728E+03  0.60666250464E+03  0.12699999809E+01 0.  1.
</event>
<event>
 5   0  0.5723194E-03  0.1099496E+04  0.7818609E-02  0.9205683E-01
       -2   -1    0    0    0  501  0.00000000000E+00  0.00000000000E+00  0.42940477342E+03  0.42940477343E+03  0.25500000920E-02 0.  1.
        2   -1    0    0  501    0  0.00000000000E+00  0.00000000000E+00 -0.70381825800E+03  0.70381825800E+03  0.25500000920E-02 0. -1.
    10030    2    1    2    0    0  0.00000000000E+00  0.00000000000E+00 -0.27441348458E+03  0.11332230314E+04  0.10994961021E+04 0.  0.
        1    1    3    3  502    0  0.28658973416E+03  0.46906865414E+03 -0.12897155590E+03  0.56461733969E+03  0.50400001928E-02 0. -1.
       -1    1    3    3    0  502 -0.28658973416E+03 -0.46906865414E+03 -0.14544192868E+03  0.56860569173E+03  0.50400001928E-02 0.  1.
</event>
<event>
 5   0  0.2185750E-03  0.1111211E+04  0.7818609E-02  0.9194334E-01
       -4   -1    0    0    0  501  0.00000000000E+00  0.00000000000E+00  0.49012925731E+03  0.49013090269E+03  0.12699999809E+01 0.  1.
        4   -1    0    0  501    0  0.00000000000E+00  0.00000000000E+00 -0.62982488313E+03  0.62982616356E+03  0.12699999809E+01 0. -1.
    10030    2    1    2    0    0  0.00000000000E+00  0.00000000000E+00 -0.13969562582E+03  0.11199570663E+04  0.11112105842E+04 0.  0.
        2    1    3    3  502    0  0.47287349952E+02  0.46828003442E+03 -0.36742584986E+03  0.59709634001E+03  0.25500000920E-02 0. -1.
       -2    1    3    3    0  502 -0.47287349952E+02 -0.46828003442E+03  0.22773022404E+03  0.52286072624E+03  0.25500000920E-02 0.  1.
</event>
<event>
 5   0  0.3316784E-03  0.1101739E+04  0.7818609E-02  0.9203498E-01
       -1   -1    0    0    0  501  0.00000000000E+00  0.00000000000E+00  0.40286454485E+03  0.40286454488E+03  0.50400001928E-02 0. -1.
        1   -1    0    0  501    0  0.00000000000E+00  0.00000000000E+00 -0.75324910229E+03  0.75324910231E+03  0.50400001928E-02 0.  1.
    10030    2    1    2    0    0  0.00000000000E+00  0.00000000000E+00 -0.35038455744E+03  0.11561136472E+04  0.11017392737E+04 0.  0.
        4    1    3    3  502    0 -0.19031724284E+03  0.49948785123E+03 -0.35399771122E+02  0.53568976390E+03  0.12699999809E+01 0. -1.
       -4    1    3    3    0  502  0.19031724284E+03 -0.49948785123E+03 -0.31498478632E+03  0.62042388329E+03  0.12699999809E+01 0.  1.
</event>
<event>
 5   0  0.5723194E-03  0.1083060E+04  0.7818609E-02  0.9221862E-01
        2   -1    0    0  501    0  0.00000000000E+00  0.00000000000E+00  0.30113920293E+04  0.30113920293E+04  0.25500000920E-02 0. -1.
       -2   -1    0    0    0  501  0.00000000000E+00  0.00000000000E+00 -0.97381767763E+02  0.97381767797E+02  0.25500000920E-02 0.  1.
    10030    2    1    2    0    0  0.00000000000E+00  0.00000000000E+00  0.29140102616E+04  0.31087737971E+04  0.10830598862E+04 0.  0.
        1    1    3    3  502    0 -0.93137214172E+02  0.47359055295E+03  0.21618068480E+04  0.22150330473E+04  0.50400001928E-02 0. -1.
       -1    1    3    3    0  502  0.93137214172E+02 -0.47359055295E+03  0.75220341355E+03  0.89374074982E+03  0.50400001928E-02 0.  1.
</event>
<event>
 5   0  0.3215352E-03  0.1096710E+04  0.7818609E-02  0.9208404E-01
       -1   -1    0    0    0  501  0.00000000000E+00  0.00000000000E+00  0.41178029022E+03  0.41178029025E+03  0.50400001928E-02 0.  1.
        1   -1    0    0  501    0  0.00000000000E+00  0.00000000000E+00 -0.73022794244E+03  0.73022794245E+03  0.50400001928E-02 0. -1.
    10030    2    1    2    0    0  0.00000000000E+00  0.00000000000E+00 -0.31844765222E+03  0.11420082327E+04  0.10967104888E+04 0.  0.
        1    1    3    3  502    0 -0.30227824771E+03  0.23122582855E+03  0.25186808625E+03  0.45637162020E+03  0.50400001928E-02 0.  1.
       -1    1    3    3    0  502  0.30227824771E+03 -0.23122582855E+03 -0.57031573847E+03  0.68563661250E+03  0.50400001928E-02 0. -1.
</event>
<event>
 5   0  0.5723194E-03  0.1096744E+04  0.7818609E-02  0.9208371E-01
       -2   -1    0    0    0  501  0.00000000000E+00  0.00000000000E+00  0.63122357424E+03  0.63122357424E+03  0.25500000920E-02 0.  1.
        2   -1    0    0  501    0  0.00000000000E+00  0.00000000000E+00 -0.47639508737E+03  0.47639508738E+03  0.25500000920E-02 0. -1.
    10030    2    1    2    0    0  0.00000000000E+00  0.00000000000E+00  0.15482848686E+03  0.11076186616E+04  0.10967439260E+04 0.  0.
        1    1    3    3  502    0 -0.60560109019E+02 -0.30963847046E+03  0.53037940411E+03  0.61712707081E+03  0.50400001928E-02 0.  1.
       -1    1    3    3    0  502  0.60560109019E+02  0.30963847046E+03 -0.37555091725E+03  0.49049159082E+03  0.50400001928E-02 0. -1.
</event>
<event>
 5   0  0.3316784E-03  0.1033389E+04  0.7818609E-02  0.9272664E-01
       -1   -1    0    0    0  501  0.00000000000E+00  0.00000000000E+00  0.52599491884E+03  0.52599491887E+03  0.50400001928E-02 0.  1.
        1   -1    0    0  501    0  0.00000000000E+00  0.00000000000E+00 -0.50755878356E+03  0.50755878358E+03  0.50400001928E-02 0. -1.
    10030    2    1    2    0    0  0.00000000000E+00  0.00000000000E+00  0.18436135284E+02  0.10335537025E+04  0.10333892610E+04 0.  0.
        4    1    3    3  502    0 -0.42574424720E+03  0.59416933999E+01  0.30197313657E+03  0.52199890407E+03  0.12699999809E+01 0.  1.
       -4    1    3    3    0  502  0.42574424720E+03 -0.59416933999E+01 -0.28353700128E+03  0.51155479838E+03  0.12699999809E+01 0. -1.
</event>
<event>
 5   0  0.5627232E-03  0.1127371E+04  0.7818609E-02  0.9178918E-01
        2   -1    0    0  501    0  0.00000000000E+00  0.00000000000E+00  0.14206957384E+04  0.14206957384E+04  0.25500000920E-02 0.  1.
       -2   -1    0    0    0  501  0.00000000000E+00  0.00000000000E+00 -0.22365179216E+03  0.22365179217E+03  0.25500000920E-02 0. -1.
    10030    2    1    2    0    0  0.00000000000E+00  0.00000000000E+00  0.11970439462E+04  0.16443475306E+04  0.11273706543E+04 0.  0.
        2    1    3    3  502    0 -0.57374829776E+02 -0.46744274490E+03  0.14672680447E+03  0.49327816292E+03  0.25500000920E-02 0. -1.
       -2    1    3    3    0  502  0.57374829776E+02  0.46744274490E+03  0.10503171418E+04  0.11510693677E+04  0.25500000920E-02 0.  1.
</event>
<event>
 5   0  0.5627232E-03  0.1093043E+04  0.7818609E-02  0.9212000E-01
        2   -1    0    0  501    0  0.00000000000E+00  0.00000000000E+00  0.81795935131E+03  0.81795935131E+03  0.25500000920E-02 0. -1.
       -2   -1    0    0    0  501  0.00000000000E+00  0.00000000000E+00 -0.36515937401E+03  0.36515937402E+03  0.25500000920E-02 0.  1.
    10030    2    1    2    0    0  0.00000000000E+00  0.00000000000E+00  0.45279997730E+03  0.11831187253E+04  0.10930425878E+04 0.  0.
        2    1    3    3  502    0 -0.52557546735E+03  0.31530187196E+02  0.38497119030E+03  0.65224730122E+03  0.25500000920E-02 0.  1.
       -2    1    3    3    0  502  0.52557546735E+03 -0.31530187196E+02  0.67828787001E+02  0.53087142411E+03  0.25500000920E-02 0. -1.
</event>
<event>
 5   0  0.3316784E-03  0.1082896E+04  0.7818609E-02  0.9222025E-01
        1   -1    0    0  501    0  0.00000000000E+00  0.00000000000E+00  0.34781015378E+03  0.34781015382E+03  0.50400001928E-02 0. -1.
       -1   -1    0    0    0  501  0.00000000000E+00  0.00000000000E+00 -0.84289058284E+03  0.84289058286E+03  0.50400001928E-02 0.  1.
    10030    2    1    2    0    0  0.00000000000E+00  0.00000000000E+00 -0.49508042906E+03  0.11907007367E+04  0.10828959383E+04 0.  0.
        4    1    3    3  502    0 -0.49812080579E+02  0.29370157588E+03 -0.74468189066E+03  0.80205647571E+03  0.12699999809E+01 0.  1.
       -4    1    3    3    0  502  0.49812080579E+02 -0.29370157588E+03  0.24960146160E+03  0.38864426097E+03  0.12699999809E+01 0. -1.
</event>
<event>
 5   0  0.3241189E-03  0.1167413E+04  0.7818609E-02  0.9141868E-01
        1   -1    0    0  501    0  0.00000000000E+00  0.00000000000E+00  0.77830568386E+03  0.77830568387E+03  0.50400001928E-02 0. -1.
       -1   -1    0    0    0  501  0.00000000000E+00  0.00000000000E+00 -0.43776265164E+03  0.43776265167E+03  0.50400001928E-02 0.  1.
    10030    2    1    2    0    0  0.00000000000E+00  0.00000000000E+00  0.34054303221E+03  0.12160683355E+04  0.11674127976E+04 0.  0.
        5    1    3    3  502    0  0.84953580273E+02 -0.57672156696E+03  0.20092931438E+03  0.61661945799E+03  0.46999998093E+01 0.  1.
       -5    1    3    3    0  502 -0.84953580273E+02  0.57672156696E+03  0.13961371784E+03  0.59944887756E+03  0.46999998093E+01 0. -1.
</event>
<event>
 5   0  0.3320192E-03  0.1105614E+04  0.7818609E-02  0.9199737E-01
       -1   -1    0    0    0  501  0.00000000000E+00  0.00000000000E+00  0.24036948838E+03  0.24036948843E+03  0.50400001928E-02 0. -1.
        1   -1    0    0  501    0  0.00000000000E+00  0.00000000000E+00 -0.12713581966E+04  0.12713581966E+04  0.50400001928E-02 0.  1.
    10030    2    1    2    0    0  0.00000000000E+00  0.00000000000E+00 -0.10309887082E+04  0.15117276851E+04  0.11056142534E+04 0.  0.
        2    1    3    3  502    0  0.52291493489E+03  0.28583140881E+02 -0.75754730762E+03  0.92094242402E+03  0.25500000920E-02 0.  1.
       -2    1    3    3    0  502 -0.52291493489E+03 -0.28583140881E+02 -0.27344140062E+03  0.59078526104E+03  0.25500000920E-02 0. -1.
</event>
<event>
 5   0  0.5500363E-03  0.1103322E+04  0.7818609E-02  0.9201960E-01
        2   -1    0    0  501    0  0.00000000000E+00  0.00000000000E+00  0.92777922302E+03  0.92777922302E+03  0.25500000920E-02 0. -1.
       -2   -1    0    0    0  501  0.00000000000E+00  0.00000000000E+00 -0.32801950262E+03  0.32801950263E+03  0.25500000920E-02 0.  1.
    10030    2    1    2    0    0  0.00000000000E+00  0.00000000000E+00  0.59975972040E+03  0.12557987257E+04  0.11033216744E+04 0.  0.
        3    1    3    3  502    0 -0.46797537662E+02  0.54598501864E+03  0.37222503835E+03  0.66245085817E+03  0.10100000352E+00 0.  1.
       -3    1    3    3    0  502  0.46797537662E+02 -0.54598501864E+03  0.22753468205E+03  0.59334786748E+03  0.10100000352E+00 0. -1.
</event>
<event>
 5   0  0.3320192E-03  0.1083667E+04  0.7818609E-02  0.9221259E-01
        1   -1    0    0  501    0  0.00000000000E+00  0.00000000000E+00  0.86397549293E+03  0.86397549294E+03  0.50400001928E-02 0. -1.
       -1   -1    0    0    0  501  0.00000000000E+00  0.00000000000E+00 -0.33980541612E+03  0.33980541616E+03  0.50400001928E-02 0.  1.
    10030    2    1    2    0    0  0.00000000000E+00  0.00000000000E+00  0.52417007680E+03  0.12037809091E+04  0.10836670188E+04 0.  0.
        2    1    3    3  502    0  0.53156372370E+03 -0.71980728560E+02  0.17717778410E+03  0.56491874178E+03  0.25500000920E-02 0. -1.
       -2    1    3    3    0  502 -0.53156372370E+03  0.71980728560E+02  0.34699229270E+03  0.63886216732E+03  0.25500000920E-02 0.  1.
</event>
<event>
 5   0  0.3215352E-03  0.1104342E+04  0.7818609E-02  0.9200971E-01
       -1   -1    0    0    0  501  0.00000000000E+00  0.00000000000E+00  0.45661051700E+03  0.45661051703E+03  0.50400001928E-02 0. -1.
        1   -1    0    0  501    0  0.00000000000E+00  0.00000000000E+00 -0.66773017322E+03  0.66773017324E+03  0.50400001928E-02 0.  1.
    10030    2    1    2    0    0  0.00000000000E+00  0.00000000000E+00 -0.21111965622E+03  0.11243406903E+04  0.11043416494E+04 0.  0.
        1    1    3    3  502    0  0.26818260743E+03 -0.38515433889E+03  0.19061527542E+03  0.50655696515E+03  0.50400001928E-02 0. -1.
       -1    1    3    3    0  502 -0.26818260743E+03  0.38515433889E+03 -0.40173493164E+03  0.61778372512E+03  0.50400001928E-02 0.  1.
</event>
<event>
 5   0  0.5723194E-03  0.1106920E+04  0.7818609E-02  0.9198474E-01
        2   -1    0    0  501    0  0.00000000000E+00  0.00000000000E+00  0.59683035161E+03  0.59683035161E+03  0.25500000920E-02 0. -1.
       -2   -1    0    0    0  501  0.00000000000E+00  0.00000000000E+00 -0.51324086812E+03  0.51324086813E+03  0.25500000920E-02 0.  1.
    10030    2    1    2    0    0  0.00000000000E+00  0.00000000000E+00  0.83589483484E+02  0.11100712197E+04  0.11069195595E+04 0.  0.
        1    1    3    3  502    0  0.29452122307E+03  0.19101621762E+03  0.47090061877E+03  0.58734771560E+03  0.50400001928E-02 0. -1.
       -1    1    3    3    0  502 -0.29452122307E+03 -0.19101621762E+03 -0.38731113529E+03  0.52272350414E+03  0.50400001928E-02 0.  1.
</event>
<event>
 5   0  0.3241189E-03  0.1098640E+04  0.7818609E-02  0.9206519E-01
        1   -1    0    0  501    0  0.00000000000E+00  0.00000000000E+00  0.20391383140E+04  0.20391383140E+04  0.50400001928E-02 0.  1.
       -1   -1    0    0    0  501  0.00000000000E+00  0.00000000000E+00 -0.14798025694E+03  0.14798025703E+03  0.50400001928E-02 0. -1.
    10030    2    1    2    0    0  0.00000000000E+00  0.00000000000E+00  0.18911580570E+04  0.21871185710E+04  0.10986395437E+04 0.  0.
        5    1    3    3  502    0  0.16795619229E+03 -0.51438334156E+03  0.11337089340E+04  0.12562314841E+04  0.46999998093E+01 0.  1.
       -5    1    3    3    0  502 -0.16795619229E+03  0.51438334156E+03  0.75744912306E+03  0.93088708694E+03  0.46999998093E+01 0. -1.
</event>
<event>
 5   0  0.3241189E-03  0.1093565E+04  0.7818609E-02  0.9211486E-01
       -1   -1    0    0    0  501  0.00000000000E+00  0.00000000000E+00  0.59407363743E+03  0.59407363745E+03  0.50400001928E-02 0. -1.
        1   -1    0    0  501    0  0.00000000000E+00  0.00000000000E+00 -0.50325622128E+03  0.50325622131E+03  0.50400001928E-02 0.  1.
    10030    2    1    2    0    0  0.00000000000E+00  0.00000000000E+00  0.90817416147E+02  0.10973298588E+04  0.10935652774E+04 0.  0.
        5    1    3    3  502    0  0.27232174345E+03 -0.46811559424E+03 -0.30068728430E+02  0.54241825186E+03  0.46999998093E+01 0. -1.
       -5    1    3    3    0  502 -0.27232174345E+03  0.46811559424E+03  0.12088614458E+03  0.55491160690E+03  0.46999998093E+01 0.  1.
</event>
<event>
 5   0  0.5627232E-03  0.1112765E+04  0.7818609E-02  0.9192839E-01
        2   -1    0    0  501    0  0.00000000000E+00  0.00000000000E+00  0.10051129950E+04  0.10051129950E+04  0.25500000920E-02 0. -1.
       -2   -1    0    0    0  501  0.00000000000E+00  0.00000000000E+00 -0.30798667685E+03  0.30798667686E+03  0.25500000920E-02 0.  1.
    10030    2    1    2    0    0  0.00000000000E+00  0.00000000000E+00  0.69712631819E+03  0.13130996719E+04  0.11127648650E+04 0.  0.
        2    1    3    3  502    0  0.55232665453E+03  0.65207413002E+02  0.36702120439E+03  0.66634923614E+03  0.25500000920E-02 0.  1.
       -2    1    3    3    0  502 -0.55232665453E+03 -0.65207413002E+02  0.33010511380E+03  0.64675043578E+03  0.25500000920E-02 0. -1.
</event>
<event>
 5   0  0.5627232E-03  0.9786105E+03  0.7818609E-02  0.9332321E-01
        2   -1    0    0  501    0  0.00000000000E+00  0.00000000000E+00  0.71349467655E+03  0.71349467655E+03  0.25500000920E-02 0.  1.
       -2   -1    0    0    0  501  0.00000000000E+00  0.00000000000E+00 -0.33555911369E+03  0.33555911370E+03  0.25500000920E-02 0. -1.
    10030    2    1    2    0    0  0.00000000000E+00  0.00000000000E+00  0.37793556285E+03  0.10490537903E+04  0.97861052783E+03 0.  0.
        2    1    3    3  502    0 -0.14158135501E+03  0.37035528438E+03 -0.11839671179E+03  0.41379475363E+03  0.25500000920E-02 0. -1.
       -2    1    3    3    0  502  0.14158135501E+03 -0.37035528438E+03  0.49633227465E+03  0.63525903663E+03  0.25500000920E-02 0.  1.
</event>
<event>
 5   0  0.3328741E-03  0.1093777E+04  0.7818609E-02  0.9211278E-01
        1   -1    0    0  501    0  0.00000000000E+00  0.00000000000E+00  0.66555930703E+03  0.66555930705E+03  0.50400001928E-02 0.  1.
       -1   -1    0    0    0  501  0.00000000000E+00  0.00000000000E+00 -0.44937735622E+03  0.44937735625E+03  0.50400001928E-02 0. -1.
    10030    2    1    2    0    0  0.00000000000E+00  0.00000000000E+00  0.21618195081E+03  0.11149366633E+04  0.10937774579E+04 0.  0.
        3    1    3    3  502    0  0.17507863914E+03 -0.40985107128E+03  0.43117165455E+03  0.62011243852E+03  0.10100000352E+00 0.  1.
       -3    1    3    3    0  502 -0.17507863914E+03  0.40985107128E+03 -0.21498970374E+03  0.49482422478E+03  0.10100000352E+00 0. -1.
</event>
<event>
 5   0  0.5941585E-03  0.1094075E+04  0.7818609E-02  0.9210986E-01
       -2   -1    0    0    0  501  0.00000000000E+00  0.00000000000E+00  0.38103216905E+03  0.38103216906E+03  0.25500000920E-02 0. -1.
        2   -1    0    0  501    0  0.00000000000E+00  0.00000000000E+00 -0.78536712784E+03  0.78536712784E+03  0.25500000920E-02 0.  1.
    10030    2    1    2    0    0  0.00000000000E+00  0.00000000000E+00 -0.40433495878E+03  0.11663992969E+04  0.10940752081E+04 0.  0.
        5    1    3    3  502    0  0.32934934566E+03  0.89734307827E+02 -0.65786332151E+03  0.74116764451E+03  0.46999998093E+01 0.  1.
       -5    1    3    3    0  502 -0.32934934566E+03 -0.89734307827E+02  0.25352836272E+03  0.42523165239E+03  0.46999998093E+01 0. -1.
</event>
<event>
 5   0  0.3316784E-03  0.1122061E+04  0.7818609E-02  0.9183953E-01
       -1   -1    0    0    0  501  0.00000000000E+00  0.00000000000E+00  0.22661556437E+03  0.22661556442E+03  0.50400001928E-02 0. -1.
        1   -1    0    0  501    0  0.00000000000E+00  0.00000000000E+00 -0.13889379169E+04  0.13889379169E+04  0.50400001928E-02 0.  1.
    10030    2    1    2    0    0  0.00000000000E+00  0.00000000000E+00 -0.11623223525E+04  0.16155534813E+04  0.11220605152E+04 0.  0.
        4    1    3    3  502    0  0.11354326376E+03  0.29122744412E+03 -0.12519453287E+04  0.12903775478E+04  0.12699999809E+01 0.  1.
       -4    1    3    3    0  502 -0.11354326376E+03 -0.29122744412E+03  0.89622976198E+02  0.32517593348E+03  0.12699999809E+01 0. -1.
</event>
<event>
 5   0  0.5627232E-03  0.1098177E+04  0.7818609E-02  0.9206970E-01
       -2   -1    0    0    0  501  0.00000000000E+00  0.00000000000E+00  0.20334486260E+03  0.20334486261E+03  0.25500000920E-02 0. -1.
        2   -1    0    0  501    0  0.00000000000E+00  0.00000000000E+00 -0.14826942917E+04  0.14826942917E+04  0.25500000920E-02 0.  1.
    10030    2    1    2    0    0  0.00000000000E+00  0.00000000000E+00 -0.12793494291E+04  0.16860391543E+04  0.10981771570E+04 0.  0.
        2    1    3    3  502    0  0.92047954596E+02  0.40897418269E+03 -0.11841474193E+04  0.12561599495E+04  0.25500000920E-02 0.  1.
       -2    1    3    3    0  502 -0.92047954596E+02 -0.40897418269E+03 -0.95202009778E+02  0.42987920480E+03  0.25500000920E-02 0. -1.
</event>
<event>
 5   0  0.3241189E-03  0.1077997E+04  0.7818609E-02  0.9226907E-01
       -1   -1    0    0    0  501  0.00000000000E+00  0.00000000000E+00  0.66436708293E+03  0.66436708295E+03  0.50400001928E-02 0. -1.
        1   -1    0    0  501    0  0.00000000000E+00  0.00000000000E+00 -0.43728756831E+03  0.43728756834E+03  0.50400001928E-02 0.  1.
    10030    2    1    2    0    0  0.00000000000E+00  0.00000000000E+00  0.22707951462E+03  0.11016546513E+04  0.10779971543E+04 0.  0.
        5    1    3    3  502    0  0.44623384331E+03 -0.80510562949E+02 -0.18421460059E+03  0.48945245196E+03  0.46999998093E+01 0.  1.
       -5    1    3    3    0  502 -0.44623384331E+03  0.80510562949E+02  0.41129411521E+03  0.61220219933E+03  0.46999998093E+01 0. -1.
</event>
<event>
 5   0  0.3241189E-03  0.1098308E+04  0.7818609E-02  0.9206842E-01
       -1   -1    0    0    0  501  0.00000000000E+00  0.00000000000E+00  0.14489497516E+03  0.14489497525E+03  0.50400001928E-02 0. -1.
        1   -1    0    0  501    0  0.00000000000E+00  0.00000000000E+00 -0.20813023088E+04  0.20813023088E+04  0.50400001928E-02 0.  1.
    10030    2    1    2    0    0  0.00000000000E+00  0.00000000000E+00 -0.19364073336E+04  0.22261972840E+04  0.10983082380E+04 0.  0.
        5    1    3    3  502    0 -0.46377560129E+03 -0.19676019813E+03 -0.52530245377E+03  0.72785104372E+03  0.46999998093E+01 0. -1.
       -5    1    3    3    0  502  0.46377560129E+03  0.19676019813E+03 -0.14111048798E+04  0.14983462403E+04  0.46999998093E+01 0.  1.
</event>
<event>
 5   0  0.3320192E-03  0.1089154E+04  0.7818609E-02  0.9215828E-01
       -1   -1    0    0    0  501  0.00000000000E+00  0.00000000000E+00  0.56738338152E+03  0.56738338155E+03  0.50400001928E-02 0. -1.
        1   -1    0    0  501    0  0.00000000000E+00  0.00000000000E+00 -0.52268774017E+03  0.52268774019E+03  0.50400001928E-02 0.  1.
    10030    2    1    2    0    0  0.00000000000E+00  0.00000000000E+00  0.44695641358E+02  0.10900711217E+04  0.10891544198E+04 0.  0.
        2    1    3    3  502    0 -0.90629977816E+02  0.34260952897E+03 -0.39148448076E+03  0.52806740186E+03  0.25500000920E-02 0.  1.
       -2    1    3    3    0  502  0.90629977816E+02 -0.34260952897E+03  0.43618012212E+03  0.56200371988E+03  0.25500000920E-02 0. -1.
</event>
<event>
 5   0  0.3241189E-03  0.1092918E+04  0.7818609E-02  0.9212122E-01
       -1   -1    0    0    0  501  0.00000000000E+00  0.00000000000E+00  0.11600940461E+04  0.11600940461E+04  0.50400001928E-02 0.  1.
        1   -1    0    0  501    0  0.00000000000E+00  0.00000000000E+00 -0.25740797619E+03  0.25740797624E+03  0.50400001928E-02 0. -1.
    10030    2    1    2    0    0  0.00000000000E+00  0.00000000000E+00  0.90268606990E+03  0.14175020224E+04  0.10929180402E+04 0.  0.
        5    1    3    3  502    0  0.13290427176E+03 -0.49418632826E+03  0.20283620494E+03  0.55049821845E+03  0.46999998093E+01 0. -1.
       -5    1    3    3    0  502 -0.13290427176E+03  0.49418632826E+03  0.69984986496E+03  0.86700380390E+03  0.46999998093E+01 0.  1.
</event>
<event>
 5   0  0.5627232E-03  0.1101477E+04  0.7818609E-02  0.9203754E-01
       -2   -1    0    0    0  501  0.00000000000E+00  0.00000000000E+00  0.78436625354E+03  0.78436625355E+03  0.25500000920E-02 0. -1.
        2   -1    0    0  501    0  0.00000000000E+00  0.00000000000E+00 -0.38669781986E+03  0.38669781987E+03  0.25500000920E-02 0.  1.
    10030    2    1    2    0    0  0.00000000000E+00  0.00000000000E+00  0.39766843368E+03  0.11710640734E+04  0.11014766820E+04 0.  0.
        2    1    3    3  502    0 -0.26477434867E+03 -0.43391446676E+03 -0.26512798250E+02  0.50900898681E+03  0.25500000920E-02 0.  1.
       -2    1    3    3    0  502  0.26477434867E+03  0.43391446676E+03  0.42418123193E+03  0.66205508661E+03  0.25500000920E-02 0. -1.
</event>
<event>
 5   0  0.5627232E-03  0.1114819E+04  0.7818609E-02  0.9190868E-01
       -2   -1    0    0    0  501  0.00000000000E+00  0.00000000000E+00  0.51143484992E+03  0.51143484993E+03  0.25500000920E-02 0.  1.
        2   -1    0    0  501    0  0.00000000000E+00  0.00000000000E+00 -0.60751652104E+03  0.60751652105E+03  0.25500000920E-02 0. -1.
    10030    2    1    2    0    0  0.00000000000E+00  0.00000000000E+00 -0.96081671120E+02  0.11189513710E+04  0.11148185875E+04 0.  0.
        2    1    3    3  502    0 -0.33785665861E+03  0.42032711126E+03 -0.18957108183E+03  0.57162854836E+03  0.25500000920E-02 0.  1.
       -2    1    3    3    0  502  0.33785665861E+03 -0.42032711126E+03  0.93489410712E+02  0.54732282261E+03  0.25500000920E-02 0. -1.
</event>
<event>
 5   0  0.3316784E-03  0.1090091E+04  0.7818609E-02  0.9214904E-01
        1   -1    0    0  501    0  0.00000000000E+00  0.00000000000E+00  0.25870187676E+03  0.25870187681E+03  0.50400001928E-02 0. -1.
       -1   -1    0    0    0  501  0.00000000000E+00  0.00000000000E+00 -0.11483282224E+04  0.11483282224E+04  0.50400001928E-02 0.  1.
    10030    2    1    2    0    0  0.00000000000E+00  0.00000000000E+00 -0.88962634566E+03  0.14070300992E+04  0.10900911271E+04 0.  0.
        4    1    3    3  502    0  0.16531104347E+03 -0.16977306328E+03  0.18873434122E+03  0.30294042082E+03  0.12699999809E+01 0. -1.
       -4    1    3    3    0  502 -0.16531104347E+03  0.16977306328E+03 -0.10783606869E+04  0.11040896784E+04  0.12699999809E+01 0.  1.
</event>
<event>
 5   0  0.5946359E-03  0.1106128E+04  0.7818609E-02  0.9199240E-01
        2   -1    0    0  501    0  0.00000000000E+00  0.00000000000E+00  0.91067095770E+03  0.91067095771E+03  0.25500000920E-02 0.  1.
       -2   -1    0    0    0  501  0.00000000000E+00  0.00000000000E+00 -0.33588376480E+03  0.33588376481E+03  0.25500000920E-02 0. -1.
    10030    2    1    2    0    0  0.00000000000E+00  0.00000000000E+00  0.57478719290E+03  0.12465547225E+04  0.11061276414E+04 0.  0.
        4    1    3    3  502    0  0.19773905988E+01  0.31527997761E+03  0.79947301273E+03  0.85939751299E+03  0.12699999809E+01 0.  1.
       -4    1    3    3    0  502 -0.19773905988E+01 -0.31527997761E+03 -0.22468581983E+03  0.38715720952E+03  0.12699999809E+01 0. -1.
</event>
<event>
 5   0  0.2185750E-03  0.1097329E+04  0.7818609E-02  0.9207799E-01
        3   -1    0    0  501    0  0.00000000000E+00  0.00000000000E+00  0.41098651782E+03  0.41098653023E+03  0.10100000352E+00 0.  1.
       -3   -1    0    0    0  501  0.00000000000E+00  0.00000000000E+00 -0.73246383225E+03  0.73246383921E+03  0.10100000352E+00 0. -1.
    10030    2    1    2    0    0  0.00000000000E+00  0.00000000000E+00 -0.32147731443E+03  0.11434503694E+04  0.10973290681E+04 0.  0.
        4    1    3    3  502    0  0.18909740007E+03  0.12959113509E+03 -0.68016705644E+03  0.71776077252E+03  0.12699999809E+01 0. -1.
       -4    1    3    3    0  502 -0.18909740007E+03 -0.12959113509E+03  0.35868974200E+03  0.42568959692E+03  0.12699999809E+01 0.  1.
</event>
<event>
 5   0  0.3241189E-03  0.1184764E+04  0.7818609E-02  0.9126298E-01
        1   -1    0    0  501    0  0.00000000000E+00  0.00000000000E+00  0.16713310365E+03  0.16713310373E+03  0.50400001928E-02 0.  1.
       -1   -1    0    0    0  501  0.00000000000E+00  0.00000000000E+00 -0.20996222867E+04  0.20996222867E+04  0.50400001928E-02 0. -1.
    10030    2    1    2    0    0  0.00000000000E+00  0.00000000000E+00 -0.19324891830E+04  0.22667553904E+04  0.11847639248E+04 0.  0.
        5    1    3    3  502    0  0.15711648683E+03  0.57022057302E+03 -0.10284535394E+04  0.11864130246E+04  0.46999998093E+01 0. -1.
       -5    1    3    3    0  502 -0.15711648683E+03 -0.57022057302E+03 -0.90403564362E+03  0.10803423658E+04  0.46999998093E+01 0.  1.
</event>
<event>
 5   0  0.3328741E-03  0.1102507E+04  0.7818609E-02  0.9202752E-01
       -1   -1    0    0    0  501  0.00000000000E+00  0.00000000000E+00  0.14344197563E+03  0.14344197572E+03  0.50400001928E-02 0.  1.
        1   -1    0    0  501    0  0.00000000000E+00  0.00000000000E+00 -0.21184905406E+04  0.21184905406E+04  0.50400001928E-02 0. -1.
    10030    2    1    2    0    0  0.00000000000E+00  0.00000000000E+00 -0.19750485650E+04  0.22619325163E+04  0.11025070859E+04 0.  0.
        3    1    3    3  502    0  0.75608587149E+02 -0.35296368984E+03 -0.18422930379E+04  0.18773235396E+04  0.10100000352E+00 0. -1.
       -3    1    3    3    0  502 -0.75608587149E+02  0.35296368984E+03 -0.13275552712E+03  0.38460897673E+03  0.10100000352E+00 0.  1.
</event>
<event>
 5   0  0.5627232E-03  0.1090408E+04  0.7818609E-02  0.9214591E-01
        2   -1    0    0  501    0  0.00000000000E+00  0.00000000000E+00  0.14839154483E+04  0.14839154483E+04  0.25500000920E-02 0. -1.
       -2   -1    0    0    0  501  0.00000000000E+00  0.00000000000E+00 -0.20031301856E+03  0.20031301857E+03  0.25500000920E-02 0.  1.
    10030    2    1    2    0    0  0.00000000000E+00  0.00000000000E+00  0.12836024297E+04  0.16842284669E+04  0.10904083322E+04 0.  0.
        2    1    3    3  502    0 -0.72990429994E+02  0.26537685658E+03  0.13687334161E+04  0.13961316711E+04  0.25500000920E-02 0. -1.
       -2    1    3    3    0  502  0.72990429994E+02 -0.26537685658E+03 -0.85130986323E+02  0.28809679574E+03  0.25500000920E-02 0.  1.
</event>
<event>
 5   0  0.3215352E-03  0.1238725E+04  0.7818609E-02  0.9079620E-01
        1   -1    0    0  501    0  0.00000000000E+00  0.00000000000E+00  0.82605730888E+03  0.82605730890E+03  0.50400001928E-02 0. -1.
       -1   -1    0    0    0  501  0.00000000000E+00  0.00000000000E+00 -0.46438683277E+03  0.46438683280E+03  0.50400001928E-02 0.  1.
    10030    2    1    2    0    0  0.00000000000E+00  0.00000000000E+00  0.36167047611E+03  0.12904441417E+04  0.12387253729E+04 0.  0.
        1    1    3    3  502    0  0.48052771182E+03  0.22200572562E+03 -0.15417612871E+03  0.55132903309E+03  0.50400001928E-02 0.  1.
       -1    1    3    3    0  502 -0.48052771182E+03 -0.22200572562E+03  0.51584660482E+03  0.73911510860E+03  0.50400001928E-02 0. -1.
</event>
<event>
 5   0  0.5627232E-03  0.1101856E+04  0.7818609E-02  0.9203385E-01
       -2   -1    0    0    0  501  0.00000000000E+00  0.00000000000E+00  0.28092565671E+03  0.28092565672E+03  0.25500000920E-02 0. -1.
        2   -1    0    0  501    0  0.00000000000E+00  0.00000000000E+00 -0.10804346128E+04  0.10804346128E+04  0.25500000920E-02 0.  1.
    10030    2    1    2    0    0  0.00000000000E+00  0.00000000000E+00 -0.79950895613E+03  0.13613602696E+04  0.11018562577E+04 0.  0.
        2    1    3    3  502    0  0.61039222583E+02  0.54485048569E+03 -0.33283145179E+03  0.64137712288E+03  0.25500000920E-02 0. -1.
       -2    1    3    3    0  502 -0.61039222583E+02 -0.54485048569E+03 -0.46667750434E+03  0.71998314668E+03  0.25500000920E-02 0.  1.
</event>
<event>
 5   0  0.5627232E-03  0.1110189E+04  0.7818609E-02  0.9195317E-01
        2   -1    0    0  501    0  0.00000000000E+00  0.00000000000E+00  0.92266852109E+03  0.92266852109E+03  0.25500000920E-02 0. -1.
       -2   -1    0    0    0  501  0.00000000000E+00  0.00000000000E+00 -0.33395532861E+03  0.33395532862E+03  0.25500000920E-02 0.  1.
    10030    2    1    2    0    0  0.00000000000E+00  0.00000000000E+00  0.58871319248E+03  0.12566238497E+04  0.11101892977E+04 0.  0.
        2    1    3    3  502    0  0.25661665573E+03 -0.28229125274E+03 -0.16205288327E+03  0.41448956121E+03  0.25500000920E-02 0.  1.
       -2    1    3    3    0  502 -0.25661665573E+03  0.28229125274E+03  0.75076607575E+03  0.84213428850E+03  0.25500000920E-02 0. -1.
</event>
<event>
 5   0  0.3328741E-03  0.1112755E+04  0.7818609E-02  0.9192849E-01
        1   -1    0    0  501    0  0.00000000000E+00  0.00000000000E+00  0.10687436102E+04  0.10687436102E+04  0.50400001928E-02 0.  1.
       -1   -1    0    0    0  501  0.00000000000E+00  0.00000000000E+00 -0.28964454669E+03  0.28964454674E+03  0.50400001928E-02 0. -1.
    10030    2    1    2    0    0  0.00000000000E+00  0.00000000000E+00  0.77909906347E+03  0.13583881569E+04  0.11127547053E+04 0.  0.
        3    1    3    3  502    0  0.30572108663E+03 -0.17822473906E+03  0.91365429800E+03  0.97979264484E+03  0.10100000352E+00 0. -1.
       -3    1    3    3    0  502 -0.30572108663E+03  0.17822473906E+03 -0.13455523453E+03  0.37859551208E+03  0.10100000352E+00 0.  1.
</event>
<event>
 5   0  0.3215352E-03  0.1063881E+04  0.7818609E-02  0.9241129E-01
       -1   -1    0    0    0  501  0.00000000000E+00  0.00000000000E+00  0.17925449378E+03  0.17925449385E+03  0.50400001928E-02 0. -1.
        1   -1    0    0  501    0  0.00000000000E+00  0.00000000000E+00 -0.15785424207E+04  0.15785424207E+04  0.50400001928E-02 0.  1.
    10030    2    1    2    0    0  0.00000000000E+00  0.00000000000E+00 -0.13992879269E+04  0.17577969146E+04  0.10638812389E+04 0.  0.
        1    1    3    3  502    0 -0.20522947073E+03 -0.43679794321E+03 -0.10692800020E+04  0.11731458995E+04  0.50400001928E-02 0.  1.
       -1    1    3    3    0  502  0.20522947073E+03  0.43679794321E+03 -0.33000792488E+03  0.58465101501E+03  0.50400001928E-02 0. -1.
</event>
<event>
 5   0  0.3328741E-03  0.1089491E+04  0.7818609E-02  0.9215496E-01
       -1   -1    0    0    0  501  0.00000000000E+00  0.00000000000E+00  0.53062052507E+03  0.53062052509E+03  0.50400001928E-02 0. -1.
        1   -1    0    0  501    0  0.00000000000E+00  0.00000000000E+00 -0.55924639325E+03  0.55924639328E+03  0.50400001928E-02 0.  1.
    10030    2    1    2    0    0  0.00000000000E+00  0.00000000000E+00 -0.28625868183E+02  0.10898669184E+04  0.10894909176E+04 0.  0.
        3    1    3    3  502    0 -0.28862602100E+03 -0.41399342911E+03 -0.21944970801E+03  0.55032147322E+03  0.10100000352E+00 0.  1.
       -3    1    3    3    0  502  0.28862602100E+03  0.41399342911E+03  0.19082383982E+03  0.53954544515E+03  0.10100000352E+00 0. -1.
</event>
<event>
 5   0  0.2185750E-03  0.1078333E+04  0.7818609E-02  0.9226571E-01
        3   -1    0    0  501    0  0.00000000000E+00  0.00000000000E+00  0.13701033329E+04  0.13701033366E+04  0.10100000352E+00 0.  1.
       -3   -1    0    0    0  501  0.00000000000E+00  0.00000000000E+00 -0.21217404329E+03  0.21217406732E+03  0.10100000352E+00 0. -1.
    10030    2    1    2    0    0  0.00000000000E+00  0.00000000000E+00  0.11579292896E+04  0.15822774039E+04  0.10783327609E+04 0.  0.
        2    1    3    3  502    0  0.37575094068E+02 -0.77159799349E+02 -0.20208714970E+03  0.21955577517E+03  0.25500000920E-02 0. -1.
       -2    1    3    3    0  502 -0.37575094068E+02  0.77159799349E+02  0.13600164393E+04  0.13627216288E+04  0.25500000920E-02 0.  1.
</event>
<event>
 5   0  0.3316784E-03  0.1103477E+04  0.7818609E-02  0.9201810E-01
       -1   -1    0    0    0  501  0.00000000000E+00  0.00000000000E+00  0.61563043657E+03  0.61563043659E+03  0.50400001928E-02 0.  1.
        1   -1    0    0  501    0  0.00000000000E+00  0.00000000000E+00 -0.49447730863E+03  0.49447730866E+03  0.50400001928E-02 0. -1.
    10030    2    1    2    0    0  0.00000000000E+00  0.00000000000E+00  0.12115312793E+03  0.11101077452E+04  0.11034768351E+04 0.  0.
        4    1    3    3  502    0 -0.21058866670E+03  0.20309420460E+02  0.57320075171E+03  0.61099981487E+03  0.12699999809E+01 0.  1.
       -4    1    3    3    0  502  0.21058866670E+03 -0.20309420460E+02 -0.45204762378E+03  0.49910793038E+03  0.12699999809E+01 0. -1.
</event>
<event>
 5   0  0.3316784E-03  0.1089027E+04  0.7818609E-02  0.9215954E-01
       -1   -1    0    0    0  501  0.00000000000E+00  0.00000000000E+00  0.29086046131E+03  0.29086046135E+03  0.50400001928E-02 0.  1.
        1   -1    0    0  501    0  0.00000000000E+00  0.00000000000E+00 -0.10193713188E+04  0.10193713188E+04  0.50400001928E-02 0. -1.
    10030    2    1    2    0    0  0.00000000000E+00  0.00000000000E+00 -0.72851085752E+03  0.13102317802E+04  0.10890267436E+04 0.  0.
        4    1    3    3  502    0  0.43766539992E+03  0.22795690063E+03 -0.87333886237E+02  0.50114286528E+03  0.12699999809E+01 0.  1.
       -4    1    3    3    0  502 -0.43766539992E+03 -0.22795690063E+03 -0.64117697128E+03  0.80908891492E+03  0.12699999809E+01 0. -1.
</event>
<event>
 5   0  0.5723194E-03  0.1094431E+04  0.7818609E-02  0.9210637E-01
        2   -1    0    0  501    0  0.00000000000E+00  0.00000000000E+00  0.10265070099E+04  0.10265070099E+04  0.25500000920E-02 0. -1.
       -2   -1    0    0    0  501  0.00000000000E+00  0.00000000000E+00 -0.29171242660E+03  0.29171242661E+03  0.25500000920E-02 0.  1.
    10030    2    1    2    0    0  0.00000000000E+00  0.00000000000E+00  0.73479458330E+03  0.13182194365E+04  0.10944310865E+04 0.  0.
        1    1    3    3  502    0  0.70524954651E+01 -0.13926037903E+03 -0.26995506123E+03  0.30384029681E+03  0.50400001928E-02 0.  1.
       -1    1    3    3    0  502 -0.70524954651E+01  0.13926037903E+03  0.10047496445E+04  0.10143791397E+04  0.50400001928E-02 0. -1.
</event>
<event>
 5   0  0.5500363E-03  0.1094267E+04  0.7818609E-02  0.9210798E-01
       -2   -1    0    0    0  501  0.00000000000E+00  0.00000000000E+00  0.39262301487E+03  0.39262301488E+03  0.25500000920E-02 0.  1.
        2   -1    0    0  501    0  0.00000000000E+00  0.00000000000E+00 -0.76244886576E+03  0.76244886577E+03  0.25500000920E-02 0. -1.
    10030    2    1    2    0    0  0.00000000000E+00  0.00000000000E+00 -0.36982585089E+03  0.11550718806E+04  0.10942668274E+04 0.  0.
        3    1    3    3  502    0 -0.37610839393E+03 -0.36335356683E+03 -0.15128589604E+02  0.52317513601E+03  0.10100000352E+00 0.  1.
       -3    1    3    3    0  502  0.37610839393E+03  0.36335356683E+03 -0.35469726129E+03  0.63189674463E+03  0.10100000352E+00 0. -1.
</event>
<event>
 5   0  0.3241189E-03  0.1061006E+04  0.7818609E-02  0.9244055E-01
        1   -1    0    0  501    0  0.00000000000E+00  0.00000000000E+00  0.14703796916E+04  0.14703796916E+04  0.50400001928E-02 0. -1.
       -1   -1    0    0    0  501  0.00000000000E+00  0.00000000000E+00 -0.19140175806E+03  0.19140175812E+03  0.50400001928E-02 0.  1.
    10030    2    1    2    0    0  0.00000000000E+00  0.00000000000E+00  0.12789779335E+04  0.16617814497E+04  0.10610056702E+04 0.  0.
        5    1    3    3  502    0  0.27371425987E+03  0.45149724753E+03  0.55898542226E+03  0.76893176087E+03  0.46999998093E+01 0. -1.
       -5    1    3    3    0  502 -0.27371425987E+03 -0.45149724753E+03  0.71999251124E+03  0.89284968882E+03  0.46999998093E+01 0.  1.
</event>
<event>
 5   0  0.5627232E-03  0.1118680E+04  0.7818609E-02  0.9187174E-01
       -2   -1    0    0    0  501  0.00000000000E+00  0.00000000000E+00  0.37755477136E+03  0.37755477137E+03  0.25500000920E-02 0.  1.
        2   -1    0    0  501    0  0.00000000000E+00  0.00000000000E+00 -0.82865150593E+03  0.82865150594E+03  0.25500000920E-02 0. -1.
    10030    2    1    2    0    0  0.00000000000E+00  0.00000000000E+00 -0.45109673457E+03  0.12062062773E+04  0.11186801685E+04 0.  0.
        2    1    3    3  502    0 -0.26695814208E+03 -0.29535040149E+03 -0.64917865031E+03  0.76153229040E+03  0.25500000920E-02 0. -1.
       -2    1    3    3    0  502  0.26695814208E+03  0.29535040149E+03  0.19808191574E+03  0.44467398691E+03  0.25500000920E-02 0.  1.
</event>
<event>
 5   0  0.5946359E-03  0.1094526E+04  0.7818609E-02  0.9210544E-01
       -2   -1    0    0    0  501  0.00000000000E+00  0.00000000000E+00  0.30416372858E+03  0.30416372859E+03  0.25500000920E-02 0. -1.
        2   -1    0    0  501    0  0.00000000000E+00  0.00000000000E+00 -0.98465574274E+03  0.98465574274E+03  0.25500000920E-02 0.  1.
    10030    2    1    2    0    0  0.00000000000E+00  0.00000000000E+00 -0.68049201416E+03  0.12888194713E+04  0.10945255814E+04 0.  0.
        4    1    3    3  502    0 -0.19927769609E+03  0.47124080614E+03 -0.11156724700E+03  0.52366817837E+03  0.12699999809E+01 0. -1.
       -4    1    3    3    0  502  0.19927769609E+03 -0.47124080614E+03 -0.56892476717E+03  0.76515129296E+03  0.12699999809E+01 0.  1.
</event>
<event>
 5   0  0.3316784E-03  0.1111520E+04  0.7818609E-02  0.9194036E-01
        1   -1    0    0  501    0  0.00000000000E+00  0.00000000000E+00  0.20712817643E+03  0.20712817649E+03  0.50400001928E-02 0. -1.
       -1   -1    0    0    0  501  0.00000000000E+00  0.00000000000E+00 -0.14911969292E+04  0.14911969292E+04  0.50400001928E-02 0.  1.
    10030    2    1    2    0    0  0.00000000000E+00  0.00000000000E+00 -0.12840687528E+04  0.16983251057E+04  0.11115195018E+04 0.  0.
        4    1    3    3  502    0  0.30516953863E+03  0.51260872446E+02 -0.13473879042E+04  0.13824658773E+04  0.12699999809E+01 0.  1.
       -4    1    3    3    0  502 -0.30516953863E+03 -0.51260872446E+02  0.63319151476E+02  0.31585922845E+03  0.12699999809E+01 0. -1.
</event>
<event>
 5   0  0.5941585E-03  0.1103719E+04  0.7818609E-02  0.9201574E-01
       -2   -1    0    0    0  501  0.00000000000E+00  0.00000000000E+00  0.19925730742E+03  0.19925730743E+03  0.25500000920E-02 0. -1.
        2   -1    0    0  501    0  0.00000000000E+00  0.00000000000E+00 -0.15284208534E+04  0.15284208534E+04  0.25500000920E-02 0.  1.
    10030    2    1    2    0    0  0.00000000000E+00  0.00000000000E+00 -0.13291635460E+04  0.17276781608E+04  0.11037192104E+04 0.  0.
        5    1    3    3  502    0 -0.50155945083E+03  0.90790490986E+02 -0.33355317087E+03  0.60916713943E+03  0.46999998093E+01 0. -1.
       -5    1    3    3    0  502  0.50155945083E+03 -0.90790490986E+02 -0.99561037512E+03  0.11185110214E+04  0.46999998093E+01 0.  1.
</event>
<event>
 5   0  0.5500363E-03  0.1105148E+04  0.7818609E-02  0.9200189E-01
       -2   -1    0    0    0  501  0.00000000000E+00  0.00000000000E+00  0.48974597587E+03  0.48974597588E+03  0.25500000920E-02 0.  1.
        2   -1    0    0  501    0  0.00000000000E+00  0.00000000000E+00 -0.62346221134E+03  0.62346221135E+03  0.25500000920E-02 0. -1.
    10030    2    1    2    0    0  0.00000000000E+00  0.00000000000E+00 -0.13371623547E+03  0.11132081872E+04  0.11051481514E+04 0.  0.
        3    1    3    3  502    0 -0.58167881448E+02  0.22234539699E+03 -0.57303383242E+03  0.61740486011E+03  0.10100000352E+00 0. -1.
       -3    1    3    3    0  502  0.58167881448E+02 -0.22234539699E+03  0.43931759694E+03  0.49580332712E+03  0.10100000352E+00 0.  1.
</event>
<event>
 5   0  0.3316784E-03  0.1118961E+04  0.7818609E-02  0.9186906E-01
        1   -1    0    0  501    0  0.00000000000E+00  0.00000000000E+00  0.68328971893E+03  0.68328971895E+03  0.50400001928E-02 0. -1.
       -1   -1    0    0    0  501  0.00000000000E+00  0.00000000000E+00 -0.45810501572E+03  0.45810501575E+03  0.50400001928E-02 0.  1.
    10030    2    1    2    0    0  0.00000000000E+00  0.00000000000E+00  0.22518470321E+03  0.11413947347E+04  0.11189610314E+04 0.  0.
        4    1    3    3  502    0  0.30313456238E+03  0.11847754735E+03  0.57678662365E+03  0.66227782256E+03  0.12699999809E+01 0. -1.
       -4    1    3    3    0  502 -0.30313456238E+03 -0.11847754735E+03 -0.35160192044E+03  0.47911691213E+03  0.12699999809E+01 0.  1.
</event>
<event>
 5   0  0.3328741E-03  0.1116237E+04  0.7818609E-02  0.9189509E-01
       -1   -1    0    0    0  501  0.00000000000E+00  0.00000000000E+00  0.37936013647E+03  0.37936013651E+03  0.50400001928E-02 0. -1.
        1   -1    0    0  501    0  0.00000000000E+00  0.00000000000E+00 -0.82110968478E+03  0.82110968479E+03  0.50400001928E-02 0.  1.
    10030    2    1    2    0    0  0.00000000000E+00  0.00000000000E+00 -0.44174954830E+03  0.12004698213E+04  0.11162370395E+04 0.  0.
        3    1    3    3  502    0 -0.49038153560E+03 -0.10458601397E+03  0.42742696994E+02  0.50322880793E+03  0.10100000352E+00 0. -1.
       -3    1    3    3    0  502  0.49038153560E+03  0.10458601397E+03 -0.48449224530E+03  0.69724101337E+03  0.10100000352E+00 0.  1.
</event>
<event>
 5   0  0.5946359E-03  0.1093881E+04  0.7818609E-02  0.9211177E-01
        2   -1    0    0  501    0  0.00000000000E+00  0.00000000000E+00  0.44787003256E+03  0.44787003257E+03  0.25500000920E-02 0. -1.
       -2   -1    0    0    0  501  0.00000000000E+00  0.00000000000E+00 -0.66792543773E+03  0.66792543773E+03  0.25500000920E-02 0.  1.
    10030    2    1    2    0    0  0.00000000000E+00  0.00000000000E+00 -0.22005540517E+03  0.11157954703E+04  0.10938807751E+04 0.  0.
        4    1    3    3  502    0  0.30211427559E+03 -0.44397442731E+03 -0.21581582593E+03  0.57876110031E+03  0.12699999809E+01 0.  1.
       -4    1    3    3    0  502 -0.30211427559E+03  0.44397442731E+03 -0.42395792435E+01  0.53703436999E+03  0.12699999809E+01 0. -1.
</event>
<event>
 5   0  0.5500363E-03  0.1122628E+04  0.7818609E-02  0.9183413E-01
        2   -1    0    0  501    0  0.00000000000E+00  0.00000000000E+00  0.17767237047E+04  0.17767237047E+04  0.25500000920E-02 0.  1.
       -2   -1    0    0    0  501  0.00000000000E+00  0.00000000000E+00 -0.17733404938E+03  0.17733404940E+03  0.25500000920E-02 0. -1.
    10030    2    1    2    0    0  0.00000000000E+00  0.00000000000E+00  0.15993896554E+04  0.19540577542E+04  0.11226283610E+04 0.  0.
        3    1    3    3  502    0 -0.11750982374E+03 -0.40745353495E+03  0.15957002370E+03  0.45308889247E+03  0.10100000352E+00 0. -1.
       -3    1    3    3    0  502  0.11750982374E+03  0.40745353495E+03  0.14398196317E+04  0.15009688617E+04  0.10100000352E+00 0.  1.
</event>
<event>
 5   0  0.5627232E-03  0.1092146E+04  0.7818609E-02  0.9212881E-01
        2   -1    0    0  501    0  0.00000000000E+00  0.00000000000E+00  0.29037308546E+03  0.29037308547E+03  0.25500000920E-02 0. -1.
       -2   -1    0    0    0  501  0.00000000000E+00  0.00000000000E+00 -0.10269399600E+04  0.10269399600E+04  0.25500000920E-02 0.  1.
    10030    2    1    2    0    0  0.00000000000E+00  0.00000000000E+00 -0.73656687455E+03  0.13173130455E+04  0.10921460063E+04 0.  0.
        2    1    3    3  502    0  0.38240653595E+03 -0.33626780563E+03 -0.13043574311E+03  0.52566555806E+03  0.25500000920E-02 0. -1.
       -2    1    3    3    0  502 -0.38240653595E+03  0.33626780563E+03 -0.60613113144E+03  0.79164748742E+03  0.25500000920E-02 0.  1.
</event>
<event>
 5   0  0.5627232E-03  0.1063687E+04  0.7818609E-02  0.9241326E-01
       -2   -1    0    0    0  501  0.00000000000E+00  0.00000000000E+00  0.61314170670E+03  0.61314170670E+03  0.25500000920E-02 0.  1.
        2   -1    0    0  501    0  0.00000000000E+00  0.00000000000E+00 -0.46132468927E+03  0.46132468928E+03  0.25500000920E-02 0. -1.
    10030    2    1    2    0    0  0.00000000000E+00  0.00000000000E+00  0.15181701743E+03  0.10744663960E+04  0.10636868098E+04 0.  0.
        2    1    3    3  502    0  0.48137261966E+03 -0.19052887406E+00  0.30433683894E+03  0.56950904014E+03  0.25500000920E-02 0.  1.
       -2    1    3    3    0  502 -0.48137261966E+03  0.19052887406E+00 -0.15251982151E+03  0.50495735584E+03  0.25500000920E-02 0. -1.
</event>
<event>
 5   0  0.5946359E-03  0.1102557E+04  0.7818609E-02  0.9202704E-01
        2   -1    0    0  501    0  0.00000000000E+00  0.00000000000E+00  0.78428146014E+03  0.78428146014E+03  0.25500000920E-02 0.  1.
       -2   -1    0    0    0  501  0.00000000000E+00  0.00000000000E+00 -0.38749837224E+03  0.38749837225E+03  0.25500000920E-02 0. -1.
    10030    2    1    2    0    0  0.00000000000E+00  0.00000000000E+00  0.39678308790E+03  0.11717798324E+04  0.11025566456E+04 0.  0.
        4    1    3    3  502    0 -0.27975619216E+02  0.46168008308E+03 -0.12039951809E+03  0.47794224676E+03  0.12699999809E+01 0.  1.
       -4    1    3    3    0  502  0.27975619216E+02 -0.46168008308E+03  0.51718260599E+03  0.69383758562E+03  0.12699999809E+01 0. -1.
</event>
<event>
 5   0  0.5941585E-03  0.1242241E+04  0.7818609E-02  0.9076666E-01
        2   -1    0    0  501    0  0.00000000000E+00  0.00000000000E+00  0.17333852653E+04  0.17333852653E+04  0.25500000920E-02 0. -1.
       -2   -1    0    0    0  501  0.00000000000E+00  0.00000000000E+00 -0.22256501940E+03  0.22256501941E+03  0.25500000920E-02 0.  1.
    10030    2    1    2    0    0  0.00000000000E+00  0.00000000000E+00  0.15108202459E+04  0.19559502847E+04  0.12422414020E+04 0.  0.
        5    1    3    3  502    0 -0.37818247562E+03 -0.59158079315E+01  0.15311164002E+04  0.15771482183E+04  0.46999998093E+01 0. -1.
       -5    1    3    3    0  502  0.37818247562E+03  0.59158079315E+01 -0.20296154250E+02  0.37880206642E+03  0.46999998093E+01 0.  1.
</event>
<event>
 5   0  0.5941585E-03  0.1098780E+04  0.7818609E-02  0.9206382E-01
        2   -1    0    0  501    0  0.00000000000E+00  0.00000000000E+00  0.16405747142E+04  0.16405747142E+04  0.25500000920E-02 0. -1.
       -2   -1    0    0    0  501  0.00000000000E+00  0.00000000000E+00 -0.18397766102E+03  0.18397766104E+03  0.25500000920E-02 0.  1.
    10030    2    1    2    0    0  0.00000000000E+00  0.00000000000E+00  0.14565970532E+04  0.18245523753E+04  0.10987795023E+04 0.  0.
        5    1    3    3  502    0  0.21578641091E+03 -0.50400422911E+03  0.67022826383E+03  0.86591688615E+03  0.46999998093E+01 0. -1.
       -5    1    3    3    0  502 -0.21578641091E+03  0.50400422911E+03  0.78636878937E+03  0.95863548911E+03  0.46999998093E+01 0.  1.
</event>
<event>
 5   0  0.5500363E-03  0.1104295E+04  0.7818609E-02  0.9201016E-01
       -2   -1    0    0    0  501  0.00000000000E+00  0.00000000000E+00  0.27562547284E+03  0.27562547285E+03  0.25500000920E-02 0. -1.
        2   -1    0    0  501    0  0.00000000000E+00  0.00000000000E+00 -0.11060909713E+04  0.11060909713E+04  0.25500000920E-02 0.  1.
    10030    2    1    2    0    0  0.00000000000E+00  0.00000000000E+00 -0.83046549850E+03  0.13817164442E+04  0.11042949733E+04 0.  0.
        3    1    3    3  502    0  0.87974480133E+02 -0.45578729469E+03 -0.78931474656E+03  0.91569609942E+03  0.10100000352E+00 0.  1.
       -3    1    3    3    0  502 -0.87974480133E+02  0.45578729469E+03 -0.41150751938E+02  0.46602034478E+03  0.10100000352E+00 0. -1.
</event>
<event>
 5   0  0.3215352E-03  0.1099489E+04  0.7818609E-02  0.9205690E-01
       -1   -1    0    0    0  501  0.00000000000E+00  0.00000000000E+00  0.34671023551E+03  0.34671023555E+03  0.50400001928E-02 0. -1.
        1   -1    0    0  501    0  0.00000000000E+00  0.00000000000E+00 -0.87167622250E+03  0.87167622251E+03  0.50400001928E-02 0.  1.
    10030    2    1    2    0    0  0.00000000000E+00  0.00000000000E+00 -0.52496598698E+03  0.12183864581E+04  0.10994890967E+04 0.  0.
        1    1    3    3  502    0 -0.67702569358E+02 -0.42332307476E+03  0.11887294229E+03  0.44487845526E+03  0.50400001928E-02 0. -1.
       -1    1    3    3    0  502  0.67702569358E+02  0.42332307476E+03 -0.64383892927E+03  0.77350800280E+03  0.50400001928E-02 0.  1.
</event>
<event>
 5   0  0.3215352E-03  0.1091808E+04  0.7818609E-02  0.9213213E-01
        1   -1    0    0  501    0  0.00000000000E+00  0.00000000000E+00  0.62193784876E+03  0.62193784878E+03  0.50400001928E-02 0.  1.
       -1   -1    0    0    0  501  0.00000000000E+00  0.00000000000E+00 -0.47916566269E+03  0.47916566271E+03  0.50400001928E-02 0. -1.
    10030    2    1    2    0    0  0.00000000000E+00  0.00000000000E+00  0.14277218607E+03  0.11011035115E+04  0.10918081544E+04 0.  0.
        1    1    3    3  502    0  0.34479711712E+03 -0.36745751832E+02  0.49661064218E+03  0.60568756979E+03  0.50400001928E-02 0.  1.
       -1    1    3    3    0  502 -0.34479711712E+03  0.36745751832E+02 -0.35383845610E+03  0.49541594170E+03  0.50400001928E-02 0. -1.
</event>
<event>
 5   0  0.5627232E-03  0.1095660E+04  0.7818609E-02  0.9209433E-01
       -2   -1    0    0    0  501  0.00000000000E+00  0.00000000000E+00  0.27100821610E+03  0.27100821611E+03  0.25500000920E-02 0.  1.
        2   -1    0    0  501    0  0.00000000000E+00  0.00000000000E+00 -0.11074112700E+04  0.11074112700E+04  0.25500000920E-02 0. -1.
    10030    2    1    2    0    0  0.00000000000E+00  0.00000000000E+00 -0.83640305393E+03  0.13784194861E+04  0.10956597150E+04 0.  0.
        2    1    3    3  502    0  0.37032959762E+03  0.36087821135E+03 -0.19056178305E+03  0.55108156153E+03  0.25500000920E-02 0.  1.
       -2    1    3    3    0  502 -0.37032959762E+03 -0.36087821135E+03 -0.64584127088E+03  0.82733792460E+03  0.25500000920E-02 0. -1.
</event>
<event>
 5   0  0.5946359E-03  0.1101660E+04  0.7818609E-02  0.9203576E-01
       -2   -1    0    0    0  501  0.00000000000E+00  0.00000000000E+00  0.21443266186E+03  0.21443266187E+03  0.25500000920E-02 0. -1.
        2   -1    0    0  501    0  0.00000000000E+00  0.00000000000E+00 -0.14149592100E+04  0.14149592100E+04  0.25500000920E-02 0.  1.
    10030    2    1    2    0    0  0.00000000000E+00  0.00000000000E+00 -0.12005265481E+04  0.16293918719E+04  0.11016596023E+04 0.  0.
        4    1    3    3  502    0 -0.11399952232E+03 -0.17803760218E+03  0.15203822833E+03  0.26040452119E+03  0.12699999809E+01 0. -1.
       -4    1    3    3    0  502  0.11399952232E+03  0.17803760218E+03 -0.13525647765E+04  0.13689873507E+04  0.12699999809E+01 0.  1.
</event>
<event>
 5   0  0.3241189E-03  0.8107023E+03  0.7818609E-02  0.9544654E-01
        1   -1    0    0  501    0  0.00000000000E+00  0.00000000000E+00  0.46907785813E+03  0.46907785816E+03  0.50400001928E-02 0. -1.
       -1   -1    0    0    0  501  0.00000000000E+00  0.00000000000E+00 -0.35028201620E+03  0.35028201623E+03  0.50400001928E-02 0.  1.
    10030    2    1    2    0    0  0.00000000000E+00  0.00000000000E+00  0.11879584193E+03  0.81935987439E+03  0.81070225835E+03 0.  0.
        5    1    3    3  502    0 -0.77239787204E+02 -0.25683516208E+03 -0.24775072166E+03  0.36514763492E+03  0.46999998093E+01 0.  1.
       -5    1    3    3    0  502  0.77239787204E+02  0.25683516208E+03  0.36654656359E+03  0.45421223947E+03  0.46999998093E+01 0. -1.
</event>
<event>
 5   0  0.2185750E-03  0.1106677E+04  0.7818609E-02  0.9198708E-01
       -3   -1    0    0    0  501  0.00000000000E+00  0.00000000000E+00  0.16964781378E+04  0.16964781408E+04  0.10100000352E+00 0.  1.
        3   -1    0    0  501    0  0.00000000000E+00  0.00000000000E+00 -0.18048188351E+03  0.18048191177E+03  0.10100000352E+00 0. -1.
    10030    2    1    2    0    0  0.00000000000E+00  0.00000000000E+00  0.15159962543E+04  0.18769600525E+04  0.11066771869E+04 0.  0.
        1    1    3    3  502    0 -0.22238279817E+03 -0.49725521253E+03  0.92301729026E+03  0.10717638609E+04  0.50400001928E-02 0. -1.
       -1    1    3    3    0  502  0.22238279817E+03  0.49725521253E+03  0.59297896401E+03  0.80519619168E+03  0.50400001928E-02 0.  1.
</event>
<event>
 5   0  0.5723194E-03  0.1129552E+04  0.7818609E-02  0.9176858E-01
       -2   -1    0    0    0  501  0.00000000000E+00  0.00000000000E+00  0.46642930212E+03  0.46642930213E+03  0.25500000920E-02 0.  1.
        2   -1    0    0  501    0  0.00000000000E+00  0.00000000000E+00 -0.68385936678E+03  0.68385936678E+03  0.25500000920E-02 0. -1.
    10030    2    1    2    0    0  0.00000000000E+00  0.00000000000E+00 -0.21743006466E+03  0.11502886689E+04  0.11295522072E+04 0.  0.
        1    1    3    3  502    0  0.53247248059E+03 -0.30408319426E+02  0.80492615319E+02  0.53937989360E+03  0.50400001928E-02 0. -1.
       -1    1    3    3    0  502 -0.53247248059E+03  0.30408319426E+02 -0.29792267998E+03  0.61090877531E+03  0.50400001928E-02 0.  1.
</event>
<event>
 5   0  0.3241189E-03  0.1092039E+04  0.7818609E-02  0.9212986E-01
       -1   -1    0    0    0  501  0.00000000000E+00  0.00000000000E+00  0.38846127787E+03  0.38846127790E+03  0.50400001928E-02 0.  1.
        1   -1    0    0  501    0  0.00000000000E+00  0.00000000000E+00 -0.76748289080E+03  0.76748289082E+03  0.50400001928E-02 0. -1.
    10030    2    1    2    0    0  0.00000000000E+00  0.00000000000E+00 -0.37902161293E+03  0.11559441687E+04  0.10920391651E+04 0.  0.
        5    1    3    3  502    0  0.48989434955E+03  0.23697366204E+03 -0.14262063475E+03  0.56259730330E+03  0.46999998093E+01 0.  1.
       -5    1    3    3    0  502 -0.48989434955E+03 -0.23697366204E+03 -0.23640097818E+03  0.59334686542E+03  0.46999998093E+01 0. -1.
</event>
<event>
 5   0  0.3316784E-03  0.1111170E+04  0.7818609E-02  0.9194373E-01
       -1   -1    0    0    0  501  0.00000000000E+00  0.00000000000E+00  0.15171916060E+03  0.15171916069E+03  0.50400001928E-02 0. -1.
        1   -1    0    0  501    0  0.00000000000E+00  0.00000000000E+00 -0.20345129350E+04  0.20345129350E+04  0.50400001928E-02 0.  1.
    10030    2    1    2    0    0  0.00000000000E+00  0.00000000000E+00 -0.18827937744E+04  0.21862320957E+04  0.11111698247E+04 0.  0.
        4    1    3    3  502    0 -0.44851083933E+03 -0.93841022686E+02 -0.15595344284E+04  0.16254591218E+04  0.12699999809E+01 0.  1.
       -4    1    3    3    0  502  0.44851083933E+03  0.93841022686E+02 -0.32325934602E+03  0.56077297387E+03  0.12699999809E+01 0. -1.
</event>
<event>
 5   0  0.3215352E-03  0.1090995E+04  0.7818609E-02  0.9214013E-01
        1   -1    0    0  501    0  0.00000000000E+00  0.00000000000E+00  0.70389583119E+03  0.70389583121E+03  0.50400001928E-02 0.  1.
       -1   -1    0    0    0  501  0.00000000000E+00  0.00000000000E+00 -0.42274396662E+03  0.42274396665E+03  0.50400001928E-02 0. -1.
    10030    2    1    2    0    0  0.00000000000E+00  0.00000000000E+00  0.28115186458E+03  0.11266397979E+04  0.10909953543E+04 0.  0.
        1    1    3    3  502    0  0.18272432448E+02 -0.25567152890E+03 -0.35668075394E+03  0.43922997704E+03  0.50400001928E-02 0. -1.
       -1    1    3    3    0  502 -0.18272432448E+02  0.25567152890E+03  0.63783261852E+03  0.68740982081E+03  0.50400001928E-02 0.  1.
</event>
<event>
 5   0  0.3215352E-03  0.1090813E+04  0.7818609E-02  0.9214193E-01
        1   -1    0    0  501    0  0.00000000000E+00  0.00000000000E+00  0.92310365620E+03  0.92310365621E+03  0.50400001928E-02 0. -1.
       -1   -1    0    0    0  501  0.00000000000E+00  0.00000000000E+00 -0.32224789850E+03  0.32224789853E+03  0.50400001928E-02 0.  1.
    10030    2    1    2    0    0  0.00000000000E+00  0.00000000000E+00  0.60085575770E+03  0.12453515547E+04  0.10908129323E+04 0.  0.
        1    1    3    3  502    0 -0.20330911552E+03  0.49887143474E+01 -0.27734064733E+03  0.34391469641E+03  0.50400001928E-02 0.  1.
       -1    1    3    3    0  502  0.20330911552E+03 -0.49887143474E+01  0.87819640503E+03  0.90143685833E+03  0.50400001928E-02 0. -1.
</event>
<event>
 5   0  0.3215352E-03  0.1138057E+04  0.7818609E-02  0.9168873E-01
        1   -1    0    0  501    0  0.00000000000E+00  0.00000000000E+00  0.87940989469E+03  0.87940989471E+03  0.50400001928E-02 0.  1.
       -1   -1    0    0    0  501  0.00000000000E+00  0.00000000000E+00 -0.36819381953E+03  0.36819381956E+03  0.50400001928E-02 0. -1.
    10030    2    1    2    0    0  0.00000000000E+00  0.00000000000E+00  0.51121607517E+03  0.12476037143E+04  0.11380567439E+04 0.  0.
        1    1    3    3  502    0 -0.11760709520E+03  0.33894832452E+03 -0.22858054425E+03  0.42540152888E+03  0.50400001928E-02 0. -1.
       -1    1    3    3    0  502  0.11760709520E+03 -0.33894832452E+03  0.73979661941E+03  0.82220218539E+03  0.50400001928E-02 0.  1.
</event>
<event>
 5   0  0.3320192E-03  0.1019728E+04  0.7818609E-02  0.9287169E-01
       -1   -1    0    0    0  501  0.00000000000E+00  0.00000000000E+00  0.21608070964E+03  0.21608070969E+03  0.50400001928E-02 0.  1.
        1   -1    0    0  501    0  0.00000000000E+00  0.00000000000E+00 -0.12030738516E+04  0.12030738516E+04  0.50400001928E-02 0. -1.
    10030    2    1    2    0    0  0.00000000000E+00  0.00000000000E+00 -0.98699314192E+03  0.14191545613E+04  0.10197275158E+04 0.  0.
        2    1    3    3  502    0 -0.27604134894E+03  0.38016132540E+03 -0.21781495832E+03  0.51784632443E+03  0.25500000920E-02 0.  1.
       -2    1    3    3    0  502  0.27604134894E+03 -0.38016132540E+03 -0.76917818361E+03  0.90130823684E+03  0.25500000920E-02 0. -1.
</event>
<event>
 5   0  0.3241189E-03  0.1113115E+04  0.7818609E-02  0.9192502E-01
        1   -1    0    0  501    0  0.00000000000E+00  0.00000000000E+00  0.95690847052E+03  0.95690847053E+03  0.50400001928E-02 0.  1.
       -1   -1    0    0    0  501  0.00000000000E+00  0.00000000000E+00 -0.32370530305E+03  0.32370530309E+03  0.50400001928E-02 0. -1.
    10030    2    1    2    0    0  0.00000000000E+00  0.00000000000E+00  0.63320316747E+03  0.12806137736E+04  0.11131151719E+04 0.  0.
        5    1    3    3  502    0 -0.25880281214E+03  0.26023331919E+03  0.79792750521E+03  0.87829987450E+03  0.46999998093E+01 0.  1.
       -5    1    3    3    0  502  0.25880281214E+03 -0.26023331919E+03 -0.16472433774E+03  0.40231389912E+03  0.46999998093E+01 0. -1.
</event>
<event>
 5   0  0.5500363E-03  0.1071716E+04  0.7818609E-02  0.9233206E-01
       -2   -1    0    0    0  501  0.00000000000E+00  0.00000000000E+00  0.66458888180E+03  0.66458888180E+03  0.25500000920E-02 0.  1.
        2   -1    0    0  501    0  0.00000000000E+00  0.00000000000E+00 -0.43206269169E+03  0.43206269170E+03  0.25500000920E-02 0. -1.
    10030    2    1    2    0    0  0.00000000000E+00  0.00000000000E+00  0.23252619011E+03  0.10966515735E+04  0.10717164945E+04 0.  0.
        3    1    3    3  502    0  0.30286999359E+03  0.23450868284E+03  0.49970754454E+03  0.62962861721E+03  0.10100000352E+00 0.  1.
       -3    1    3    3    0  502 -0.30286999359E+03 -0.23450868284E+03 -0.26718135443E+03  0.46702295629E+03  0.10100000352E+00 0. -1.
</event>
<event>
 5   0  0.3328741E-03  0.1097883E+04  0.7818609E-02  0.9207258E-01
       -1   -1    0    0    0  501  0.00000000000E+00  0.00000000000E+00  0.80806311398E+03  0.80806311400E+03  0.50400001928E-02 0. -1.
        1   -1    0    0  501    0  0.00000000000E+00  0.00000000000E+00 -0.37291210453E+03  0.37291210456E+03  0.50400001928E-02 0.  1.
    10030    2    1    2    0    0  0.00000000000E+00  0.00000000000E+00  0.43515100945E+03  0.11809752186E+04  0.10978825374E+04 0.  0.
        3    1    3    3  502    0 -0.97349731197E+02  0.53997599087E+03  0.23574996939E+03  0.59718430919E+03  0.10100000352E+00 0.  1.
       -3    1    3    3    0  502  0.97349731197E+02 -0.53997599087E+03  0.19940104007E+03  0.58379090937E+03  0.10100000352E+00 0. -1.
</event>
<event>
 5   0  0.3320192E-03  0.1094252E+04  0.7818609E-02  0.9210813E-01
        1   -1    0    0  501    0  0.00000000000E+00  0.00000000000E+00  0.56289080588E+03  0.56289080590E+03  0.50400001928E-02 0. -1.
       -1   -1    0    0    0  501  0.00000000000E+00  0.00000000000E+00 -0.53180233442E+03  0.53180233444E+03  0.50400001928E-02 0.  1.
    10030    2    1    2    0    0  0.00000000000E+00  0.00000000000E+00  0.31088471460E+02  0.10946931403E+04  0.10942516066E+04 0.  0.
        2    1    3    3  502    0 -0.38258226690E+03  0.13583603890E+03 -0.35138165515E+03  0.53692614762E+03  0.25500000920E-02 0.  1.
       -2    1    3    3    0  502  0.38258226690E+03 -0.13583603890E+03  0.38247012661E+03  0.55776699272E+03  0.25500000920E-02 0. -1.
</event>
<event>
 5   0  0.5941585E-03  0.1098643E+04  0.7818609E-02  0.9206515E-01
        2   -1    0    0  501    0  0.00000000000E+00  0.00000000000E+00  0.33042741203E+03  0.33042741204E+03  0.25500000920E-02 0.  1.
       -2   -1    0    0    0  501  0.00000000000E+00  0.00000000000E+00 -0.91322427427E+03  0.91322427427E+03  0.25500000920E-02 0. -1.
    10030    2    1    2    0    0  0.00000000000E+00  0.00000000000E+00 -0.58279686224E+03  0.12436516863E+04  0.10986434063E+04 0.  0.
        5    1    3    3  502    0 -0.48942668375E+03 -0.81123480206E+02 -0.24448890123E+02  0.49672863420E+03  0.46999998093E+01 0.  1.
       -5    1    3    3    0  502  0.48942668375E+03  0.81123480206E+02 -0.55834797211E+03  0.74692305211E+03  0.46999998093E+01 0. -1.
</event>
<event>
 5   0  0.5500363E-03  0.1092473E+04  0.7818609E-02  0.9212560E-01
        2   -1    0    0  501    0  0.00000000000E+00  0.00000000000E+00  0.36070384118E+03  0.36070384119E+03  0.25500000920E-02 0.  1.
       -2   -1    0    0    0  501  0.00000000000E+00  0.00000000000E+00 -0.82720002893E+03  0.82720002893E+03  0.25500000920E-02 0. -1.
    10030    2    1    2    0    0  0.00000000000E+00  0.00000000000E+00 -0.46649618774E+03  0.11879038701E+04  0.10924728424E+04 0.  0.
        3    1    3    3  502    0 -0.46260340841E+03 -0.22062380484E+03 -0.27806115135E+02  0.51327377390E+03  0.10100000352E+00 0.  1.
       -3    1    3    3    0  502  0.46260340841E+03  0.22062380484E+03 -0.43869007261E+03  0.67463009623E+03  0.10100000352E+00 0. -1.
</event>
<event>
 5   0  0.3215352E-03  0.9643223E+03  0.7818609E-02  0.9348565E-01
        1   -1    0    0  501    0  0.00000000000E+00  0.00000000000E+00  0.55364161372E+03  0.55364161374E+03  0.50400001928E-02 0.  1.
       -1   -1    0    0    0  501  0.00000000000E+00  0.00000000000E+00 -0.41990953929E+03  0.41990953932E+03  0.50400001928E-02 0. -1.
    10030    2    1    2    0    0  0.00000000000E+00  0.00000000000E+00  0.13373207443E+03  0.97355115306E+03  0.96432234232E+03 0.  0.
        1    1    3    3  502    0 -0.40501115226E+03  0.15265921940E+03 -0.14763028279E+03  0.45731124100E+03  0.50400001928E-02 0. -1.
       -1    1    3    3    0  502  0.40501115226E+03 -0.15265921940E+03  0.28136235722E+03  0.51623991206E+03  0.50400001928E-02 0.  1.
</event>
<event>
 5   0  0.5946359E-03  0.1095871E+04  0.7818609E-02  0.9209226E-01
        2   -1    0    0  501    0  0.00000000000E+00  0.00000000000E+00  0.17623739658E+04  0.17623739658E+04  0.25500000920E-02 0. -1.
       -2   -1    0    0    0  501  0.00000000000E+00  0.00000000000E+00 -0.17035735942E+03  0.17035735944E+03  0.25500000920E-02 0.  1.
    10030    2    1    2    0    0  0.00000000000E+00  0.00000000000E+00  0.15920166064E+04  0.19327313253E+04  0.10958711150E+04 0.  0.
        4    1    3    3  502    0 -0.72910004752E+02  0.27976194404E+03 -0.24892155969E+02  0.29017899037E+03  0.12699999809E+01 0.  1.
       -4    1    3    3    0  502  0.72910004752E+02 -0.27976194404E+03  0.16169087624E+04  0.16425523349E+04  0.12699999809E+01 0. -1.
</event>
<event>
 5   0  0.5723194E-03  0.1204759E+04  0.7818609E-02  0.9108701E-01
       -2   -1    0    0    0  501  0.00000000000E+00  0.00000000000E+00  0.26396284579E+03  0.26396284580E+03  0.25500000920E-02 0.  1.
        2   -1    0    0  501    0  0.00000000000E+00  0.00000000000E+00 -0.13746667745E+04  0.13746667745E+04  0.25500000920E-02 0. -1.
    10030    2    1    2    0    0  0.00000000000E+00  0.00000000000E+00 -0.11107039287E+04  0.16386296203E+04  0.12047588204E+04 0.  0.
        1    1    3    3  502    0 -0.17274372435E+03  0.57685907595E+03 -0.57703596465E+03  0.83401276509E+03  0.50400001928E-02 0. -1.
       -1    1    3    3    0  502  0.17274372435E+03 -0.57685907595E+03 -0.53366796403E+03  0.80461685519E+03  0.50400001928E-02 0.  1.
</event>
<event>
 5   0  0.5500363E-03  0.1114503E+04  0.7818609E-02  0.9191171E-01
       -2   -1    0    0    0  501  0.00000000000E+00  0.00000000000E+00  0.40259723895E+03  0.40259723896E+03  0.25500000920E-02 0.  1.
        2   -1    0    0  501    0  0.00000000000E+00  0.00000000000E+00 -0.77131477012E+03  0.77131477013E+03  0.25500000920E-02 0. -1.
    10030    2    1    2    0    0  0.00000000000E+00  0.00000000000E+00 -0.36871753117E+03  0.11739120091E+04  0.11145029328E+04 0.  0.
        3    1    3    3  502    0  0.22599395350E+03 -0.50768466888E+03 -0.22794317278E+03  0.60064556125E+03  0.10100000352E+00 0. -1.
       -3    1    3    3    0  502 -0.22599395350E+03  0.50768466888E+03 -0.14077435839E+03  0.57326644784E+03  0.10100000352E+00 0.  1.
</event>
<event>
 5   0  0.3241189E-03  0.8922272E+03  0.7818609E-02  0.9435350E-01
       -1   -1    0    0    0  501  0.00000000000E+00  0.00000000000E+00  0.24700668884E+03  0.24700668889E+03  0.50400001928E-02 0.  1.
        1   -1    0    0  501    0  0.00000000000E+00  0.00000000000E+00 -0.80571633030E+03  0.80571633032E+03  0.50400001928E-02 0. -1.
    10030    2    1    2    0    0  0.00000000000E+00  0.00000000000E+00 -0.55870964146E+03  0.10527230192E+04  0.89222715254E+03 0.  0.
        5    1    3    3  502    0 -0.16819065615E+03  0.31249572985E+03  0.39548734573E+02  0.35711044566E+03  0.46999998093E+01 0.  1.
       -5    1    3    3    0  502  0.16819065615E+03 -0.31249572985E+03 -0.59825837604E+03  0.69561257356E+03  0.46999998093E+01 0. -1.
</event>
<event>
 5   0  0.3320192E-03  0.1095210E+04  0.7818609E-02  0.9209873E-01
        1   -1    0    0  501    0  0.00000000000E+00  0.00000000000E+00  0.13027912052E+04  0.13027912053E+04  0.50400001928E-02 0. -1.
       -1   -1    0    0    0  501  0.00000000000E+00  0.00000000000E+00 -0.23017618435E+03  0.23017618440E+03  0.50400001928E-02 0.  1.
    10030    2    1    2    0    0  0.00000000000E+00  0.00000000000E+00  0.10726150209E+04  0.15329673897E+04  0.10952104979E+04 0.  0.
        2    1    3    3  502    0  0.77666134380E+02 -0.37419621323E+03 -0.12647845727E+02  0.38238044201E+03  0.25500000920E-02 0.  1.
       -2    1    3    3    0  502 -0.77666134380E+02  0.37419621323E+03  0.10852628666E+04  0.11505869477E+04  0.25500000920E-02 0. -1.
</event>
<event>
 5   0  0.3215352E-03  0.1092652E+04  0.7818609E-02  0.9212383E-01
        1   -1    0    0  501    0  0.00000000000E+00  0.00000000000E+00  0.12719303965E+04  0.12719303965E+04  0.50400001928E-02 0. -1.
       -1   -1    0    0    0  501  0.00000000000E+00  0.00000000000E+00 -0.23466079050E+03  0.23466079055E+03  0.50400001928E-02 0.  1.
    10030    2    1    2    0    0  0.00000000000E+00  0.00000000000E+00  0.10372696060E+04  0.15065911870E+04  0.10926521722E+04 0.  0.
        1    1    3    3  502    0 -0.19855384053E+03 -0.40495759254E+02 -0.18092535084E+03  0.27165698355E+03  0.50400001928E-02 0.  1.
       -1    1    3    3    0  502  0.19855384053E+03  0.40495759254E+02  0.12181949568E+04  0.12349342035E+04  0.50400001928E-02 0. -1.
</event>
<event>
 5   0  0.5627232E-03  0.1091960E+04  0.7818609E-02  0.9213064E-01
       -2   -1    0    0    0  501  0.00000000000E+00  0.00000000000E+00  0.29544419211E+03  0.29544419212E+03  0.25500000920E-02 0. -1.
        2   -1    0    0  501    0  0.00000000000E+00  0.00000000000E+00 -0.10089691935E+04  0.10089691935E+04  0.25500000920E-02 0.  1.
    10030    2    1    2    0    0  0.00000000000E+00  0.00000000000E+00 -0.71352500140E+03  0.13044133856E+04  0.10919598678E+04 0.  0.
        2    1    3    3  502    0  0.28782861544E+03  0.99452587473E+02  0.18457029568E+03  0.35609313821E+03  0.25500000920E-02 0. -1.
       -2    1    3    3    0  502 -0.28782861544E+03 -0.99452587473E+02 -0.89809529708E+03  0.94832024742E+03  0.25500000920E-02 0.  1.
</event>
<event>
 5   0  0.5946359E-03  0.1086021E+04  0.7818609E-02  0.9218925E-01
        2   -1    0    0  501    0  0.00000000000E+00  0.00000000000E+00  0.39460211000E+03  0.39460211001E+03  0.25500000920E-02 0. -1.
       -2   -1    0    0    0  501  0.00000000000E+00  0.00000000000E+00 -0.74723489016E+03  0.74723489016E+03  0.25500000920E-02 0.  1.
    10030    2    1    2    0    0  0.00000000000E+00  0.00000000000E+00 -0.35263278015E+03  0.11418370002E+04  0.10860211127E+04 0.  0.
        4    1    3    3  502    0 -0.97183050079E+02  0.26697730107E+03 -0.66284920087E+03  0.72117411247E+03  0.12699999809E+01 0.  1.
       -4    1    3    3    0  502  0.97183050079E+02 -0.26697730107E+03  0.31021642071E+03  0.42066288770E+03  0.12699999809E+01 0. -1.
</event>
<event>
 5   0  0.3320192E-03  0.9936490E+03  0.7818609E-02  0.9315538E-01
       -1   -1    0    0    0  501  0.00000000000E+00  0.00000000000E+00  0.65462706796E+03  0.65462706798E+03  0.50400001928E-02 0.  1.
        1   -1    0    0  501    0  0.00000000000E+00  0.00000000000E+00 -0.37706135585E+03  0.37706135589E+03  0.50400001928E-02 0. -1.
    10030    2    1    2    0    0  0.00000000000E+00  0.00000000000E+00  0.27756571211E+03  0.10316884239E+04  0.99364897192E+03 0.  0.
        2    1    3    3  502    0 -0.24077999036E+03 -0.42787675205E+03  0.21772682841E+03  0.53708331804E+03  0.25500000920E-02 0.  1.
       -2    1    3    3    0  502  0.24077999036E+03  0.42787675205E+03  0.59838883698E+02  0.49460510582E+03  0.25500000920E-02 0. -1.
</event>
<event>
 5   0  0.3241189E-03  0.1115521E+04  0.7818609E-02  0.9190195E-01
        1   -1    0    0  501    0  0.00000000000E+00  0.00000000000E+00  0.84059742549E+03  0.84059742550E+03  0.50400001928E-02 0.  1.
       -1   -1    0    0    0  501  0.00000000000E+00  0.00000000000E+00 -0.37009017373E+03  0.37009017376E+03  0.50400001928E-02 0. -1.
    10030    2    1    2    0    0  0.00000000000E+00  0.00000000000E+00  0.47050725176E+03  0.12106875993E+04  0.11155211289E+04 0.  0.
        5    1    3    3  502    0 -0.32683542373E+03 -0.33183800847E+03 -0.97738709962E+02  0.47593361249E+03  0.46999998093E+01 0. -1.
       -5    1    3    3    0  502  0.32683542373E+03  0.33183800847E+03  0.56824596172E+03  0.73475398678E+03  0.46999998093E+01 0.  1.
</event>
<event>
 5   0  0.3320192E-03  0.1231503E+04  0.7818609E-02  0.9085721E-01
       -1   -1    0    0    0  501  0.00000000000E+00  0.00000000000E+00  0.41282034069E+03  0.41282034073E+03  0.50400001928E-02 0. -1.
        1   -1    0    0  501    0  0.00000000000E+00  0.00000000000E+00 -0.91843752960E+03  0.91843752962E+03  0.50400001928E-02 0.  1.
    10030    2    1    2    0    0  0.00000000000E+00  0.00000000000E+00 -0.50561718891E+03  0.13312578703E+04  0.12315026495E+04 0.  0.
        2    1    3    3  502    0 -0.28522106824E+03  0.54009290137E+03 -0.16839137999E+03  0.63356693154E+03  0.25500000920E-02 0. -1.
       -2    1    3    3    0  502  0.28522106824E+03 -0.54009290137E+03 -0.33722580892E+03  0.69769093880E+03  0.25500000920E-02 0.  1.
</event>
<event>
 5   0  0.2185750E-03  0.1166647E+04  0.7818609E-02  0.9142562E-01
       -3   -1    0    0    0  501  0.00000000000E+00  0.00000000000E+00  0.43081363956E+03  0.43081365140E+03  0.10100000352E+00 0.  1.
        3   -1    0    0  501    0  0.00000000000E+00  0.00000000000E+00 -0.78982276209E+03  0.78982276855E+03  0.10100000352E+00 0. -1.
    10030    2    1    2    0    0  0.00000000000E+00  0.00000000000E+00 -0.35900912253E+03  0.12206364199E+04  0.11666472130E+04 0.  0.
        1    1    3    3  502    0 -0.51911402758E+03  0.11140165543E+03  0.73289372656E+02  0.53596738206E+03  0.50400001928E-02 0.  1.
       -1    1    3    3    0  502  0.51911402758E+03 -0.11140165543E+03 -0.43229849519E+03  0.68466903788E+03  0.50400001928E-02 0. -1.
</event>
<event>
 5   0  0.5627232E-03  0.1102288E+04  0.7818609E-02  0.9202965E-01
        2   -1    0    0  501    0  0.00000000000E+00  0.00000000000E+00  0.10751669660E+04  0.10751669661E+04  0.25500000920E-02 0. -1.
       -2   -1    0    0    0  501  0.00000000000E+00  0.00000000000E+00 -0.28252324621E+03  0.28252324622E+03  0.25500000920E-02 0.  1.
    10030    2    1    2    0    0  0.00000000000E+00  0.00000000000E+00  0.79264371984E+03  0.13576902123E+04  0.11022879142E+04 0.  0.
        2    1    3    3  502    0 -0.48224515465E+03 -0.52937596633E+02  0.71844638931E+03  0.86690714188E+03  0.25500000920E-02 0. -1.
       -2    1    3    3    0  502  0.48224515465E+03  0.52937596633E+02  0.74197330530E+02  0.49078307039E+03  0.25500000920E-02 0.  1.
</event>
<event>
 5   0  0.5500363E-03  0.1103434E+04  0.7818609E-02  0.9201851E-01
       -2   -1    0    0    0  501  0.00000000000E+00  0.00000000000E+00  0.16278469044E+03  0.16278469046E+03  0.25500000920E-02 0. -1.
        2   -1    0    0  501    0  0.00000000000E+00  0.00000000000E+00 -0.18699042746E+04  0.18699042746E+04  0.25500000920E-02 0.  1.
    10030    2    1    2    0    0  0.00000000000E+00  0.00000000000E+00 -0.17071195841E+04  0.20326889650E+04  0.11034342545E+04 0.  0.
        3    1    3    3  502    0 -0.38594202624E+03 -0.41117701860E+02 -0.13123613372E+03  0.40971312650E+03  0.10100000352E+00 0. -1.
       -3    1    3    3    0  502  0.38594202624E+03  0.41117701860E+02 -0.15758834504E+04  0.16229758385E+04  0.10100000352E+00 0.  1.
</event>
<event>
 5   0  0.5627232E-03  0.1095902E+04  0.7818609E-02  0.9209195E-01
        2   -1    0    0  501    0  0.00000000000E+00  0.00000000000E+00  0.11138775096E+04  0.11138775096E+04  0.25500000920E-02 0.  1.
       -2   -1    0    0    0  501  0.00000000000E+00  0.00000000000E+00 -0.26955419349E+03  0.26955419351E+03  0.25500000920E-02 0. -1.
    10030    2    1    2    0    0  0.00000000000E+00  0.00000000000E+00  0.84432331609E+03  0.13834317031E+04  0.10959021010E+04 0.  0.
        2    1    3    3  502    0  0.16748004417E+03  0.38705563519E+03 -0.19466409923E+02  0.42218546997E+03  0.25500000920E-02 0. -1.
       -2    1    3    3    0  502 -0.16748004417E+03 -0.38705563519E+03  0.86378972602E+03  0.96124623313E+03  0.25500000920E-02 0.  1.
</event>
<event>
 5   0  0.3328741E-03  0.1096322E+04  0.7818609E-02  0.9208784E-01
       -1   -1    0    0    0  501  0.00000000000E+00  0.00000000000E+00  0.26406279779E+03  0.26406279784E+03  0.50400001928E-02 0. -1.
        1   -1    0    0  501    0  0.00000000000E+00  0.00000000000E+00 -0.11379134371E+04  0.11379134372E+04  0.50400001928E-02 0.  1.
    10030    2    1    2    0    0  0.00000000000E+00  0.00000000000E+00 -0.87385063935E+03  0.14019762350E+04  0.10963222262E+04 0.  0.
        3    1    3    3  502    0  0.51494956695E+03 -0.94312766631E+02 -0.22909526619E+03  0.57144781533E+03  0.10100000352E+00 0. -1.
       -3    1    3    3    0  502 -0.51494956695E+03  0.94312766631E+02 -0.64475537316E+03  0.83052841966E+03  0.10100000352E+00 0.  1.
</event>
<event>
 5   0  0.3241189E-03  0.1098319E+04  0.7818609E-02  0.9206832E-01
        1   -1    0    0  501    0  0.00000000000E+00  0.00000000000E+00  0.76381345116E+03  0.76381345118E+03  0.50400001928E-02 0.  1.
       -1   -1    0    0    0  501  0.00000000000E+00  0.00000000000E+00 -0.39482954253E+03  0.39482954256E+03  0.50400001928E-02 0. -1.
    10030    2    1    2    0    0  0.00000000000E+00  0.00000000000E+00  0.36898390863E+03  0.11586429937E+04  0.10983189255E+04 0.  0.
        5    1    3    3  502    0 -0.46759408443E+03 -0.16331761555E+03 -0.65676670068E+02  0.49965226541E+03  0.46999998093E+01 0.  1.
       -5    1    3    3    0  502  0.46759408443E+03  0.16331761555E+03  0.43466057870E+03  0.65899072833E+03  0.46999998093E+01 0. -1.
</event>
<event>
 5   0  0.5941585E-03  0.1137542E+04  0.7818609E-02  0.9169354E-01
        2   -1    0    0  501    0  0.00000000000E+00  0.00000000000E+00  0.82489189879E+03  0.82489189879E+03  0.25500000920E-02 0. -1.
       -2   -1    0    0    0  501  0.00000000000E+00  0.00000000000E+00 -0.39217286908E+03  0.39217286909E+03  0.25500000920E-02 0.  1.
    10030    2    1    2    0    0  0.00000000000E+00  0.00000000000E+00  0.43271902971E+03  0.12170647679E+04  0.11375415995E+04 0.  0.
        5    1    3    3  502    0  0.88844365617E+02 -0.97994791839E+02  0.80818576369E+03  0.81895214705E+03  0.46999998093E+01 0. -1.
       -5    1    3    3    0  502 -0.88844365617E+02  0.97994791839E+02 -0.37546673399E+03  0.39811262082E+03  0.46999998093E+01 0.  1.
</event>
<event>
 5   0  0.3241189E-03  0.1083805E+04  0.7818609E-02  0.9221122E-01
        1   -1    0    0  501    0  0.00000000000E+00  0.00000000000E+00  0.34289177425E+03  0.34289177429E+03  0.50400001928E-02 0.  1.
       -1   -1    0    0    0  501  0.00000000000E+00  0.00000000000E+00 -0.85641713509E+03  0.85641713511E+03  0.50400001928E-02 0. -1.
    10030    2    1    2    0    0  0.00000000000E+00  0.00000000000E+00 -0.51352536084E+03  0.11993089094E+04  0.10838051319E+04 0.  0.
        5    1    3    3  502    0  0.25469211725E+03  0.49516035131E+02  0.26966395996E+03  0.37424678171E+03  0.46999998093E+01 0.  1.
       -5    1    3    3    0  502 -0.25469211725E+03 -0.49516035131E+02 -0.78318932080E+03  0.82506212768E+03  0.46999998093E+01 0. -1.
</event>
<event>
 5   0  0.3320192E-03  0.1096975E+04  0.7818609E-02  0.9208145E-01
        1   -1    0    0  501    0  0.00000000000E+00  0.00000000000E+00  0.65219883468E+03  0.65219883470E+03  0.50400001928E-02 0. -1.
       -1   -1    0    0    0  501  0.00000000000E+00  0.00000000000E+00 -0.46126826360E+03  0.46126826363E+03  0.50400001928E-02 0.  1.
    10030    2    1    2    0    0  0.00000000000E+00  0.00000000000E+00  0.19093057108E+03  0.11134670983E+04  0.10969751575E+04 0.  0.
        2    1    3    3  502    0 -0.47401359656E+03 -0.26402026588E+03  0.13990018855E+02  0.54276266558E+03  0.25500000920E-02 0. -1.
       -2    1    3    3    0  502  0.47401359656E+03  0.26402026588E+03  0.17694055223E+03  0.57070443274E+03  0.25500000920E-02 0.  1.
</event>
<event>
 5   0  0.5941585E-03  0.1086195E+04  0.7818609E-02  0.9218753E-01
        2   -1    0    0  501    0  0.00000000000E+00  0.00000000000E+00  0.16326479129E+04  0.16326479129E+04  0.25500000920E-02 0.  1.
       -2   -1    0    0    0  501  0.00000000000E+00  0.00000000000E+00 -0.18066042849E+03  0.18066042851E+03  0.25500000920E-02 0. -1.
    10030    2    1    2    0    0  0.00000000000E+00  0.00000000000E+00  0.14519874844E+04  0.18133083414E+04  0.10861949577E+04 0.  0.
        5    1    3    3  502    0  0.45535005464E+03  0.19346639028E+03  0.10998821987E+04  0.12060413996E+04  0.46999998093E+01 0.  1.
       -5    1    3    3    0  502 -0.45535005464E+03 -0.19346639028E+03  0.35210528567E+03  0.60726694181E+03  0.46999998093E+01 0. -1.
</event>
<event>
 5   0  0.3215352E-03  0.1150192E+04  0.7818609E-02  0.9157606E-01
        1   -1    0    0  501    0  0.00000000000E+00  0.00000000000E+00  0.81193593447E+03  0.81193593448E+03  0.50400001928E-02 0. -1.
       -1   -1    0    0    0  501  0.00000000000E+00  0.00000000000E+00 -0.40734182355E+03  0.40734182358E+03  0.50400001928E-02 0.  1.
    10030    2    1    2    0    0  0.00000000000E+00  0.00000000000E+00  0.40459411091E+03  0.12192777581E+04  0.11501920956E+04 0.  0.
        1    1    3    3  502    0  0.44038040224E+03  0.12091363197E+03  0.57283539340E+03  0.73259497202E+03  0.50400001928E-02 0. -1.
       -1    1    3    3    0  502 -0.44038040224E+03 -0.12091363197E+03 -0.16824128249E+03  0.48668278604E+03  0.50400001928E-02 0.  1.
</event>
<event>
 5   0  0.5500363E-03  0.1104501E+04  0.7818609E-02  0.9200816E-01
       -2   -1    0    0    0  501  0.00000000000E+00  0.00000000000E+00  0.27325361337E+03  0.27325361339E+03  0.25500000920E-02 0.  1.
        2   -1    0    0  501    0  0.00000000000E+00  0.00000000000E+00 -0.11161081264E+04  0.11161081264E+04  0.25500000920E-02 0. -1.
    10030    2    1    2    0    0  0.00000000000E+00  0.00000000000E+00 -0.84285451303E+03  0.13893617398E+04  0.11045009343E+04 0.  0.
        3    1    3    3  502    0 -0.19716207323E+03 -0.33795645964E+03  0.68823524313E+02  0.39727086406E+03  0.10100000352E+00 0.  1.
       -3    1    3    3    0  502  0.19716207323E+03  0.33795645964E+03 -0.91167803734E+03  0.99209087573E+03  0.10100000352E+00 0. -1.
</event>
<event>
 5   0  0.5723194E-03  0.1101895E+04  0.7818609E-02  0.9203346E-01
        2   -1    0    0  501    0  0.00000000000E+00  0.00000000000E+00  0.15253691960E+04  0.15253691960E+04  0.25500000920E-02 0.  1.
       -2   -1    0    0    0  501  0.00000000000E+00  0.00000000000E+00 -0.19899668258E+03  0.19899668259E+03  0.25500000920E-02 0. -1.
    10030    2    1    2    0    0  0.00000000000E+00  0.00000000000E+00  0.13263725134E+04  0.17243658786E+04  0.11018954755E+04 0.  0.
        1    1    3    3  502    0  0.94404252971E+02 -0.11519610907E+02  0.15124265618E+04  0.15154137947E+04  0.50400001928E-02 0.  1.
       -1    1    3    3    0  502 -0.94404252971E+02  0.11519610907E+02 -0.18605404837E+03  0.20895208387E+03  0.50400001928E-02 0. -1.
</event>
<event>
 5   0  0.5500363E-03  0.1104499E+04  0.7818609E-02  0.9200818E-01
       -2   -1    0    0    0  501  0.00000000000E+00  0.00000000000E+00  0.27791256341E+03  0.27791256342E+03  0.25500000920E-02 0. -1.
        2   -1    0    0  501    0  0.00000000000E+00  0.00000000000E+00 -0.10973932607E+04  0.10973932607E+04  0.25500000920E-02 0.  1.
    10030    2    1    2    0    0  0.00000000000E+00  0.00000000000E+00 -0.81948069730E+03  0.13753058241E+04  0.11044987536E+04 0.  0.
        3    1    3    3  502    0 -0.35779250059E+03  0.41520207696E+03 -0.32555323172E+03  0.63748972939E+03  0.10100000352E+00 0.  1.
       -3    1    3    3    0  502  0.35779250059E+03 -0.41520207696E+03 -0.49392746558E+03  0.73781609474E+03  0.10100000352E+00 0. -1.
</event>
<event>
 5   0  0.3320192E-03  0.1223592E+04  0.7818609E-02  0.9092454E-01
       -1   -1    0    0    0  501  0.00000000000E+00  0.00000000000E+00  0.50892036903E+03  0.50892036906E+03  0.50400001928E-02 0. -1.
        1   -1    0    0  501    0  0.00000000000E+00  0.00000000000E+00 -0.73546725205E+03  0.73546725207E+03  0.50400001928E-02 0.  1.
    10030    2    1    2    0    0  0.00000000000E+00  0.00000000000E+00 -0.22654688302E+03  0.12443876211E+04  0.12235918688E+04 0.  0.
        2    1    3    3  502    0  0.14852418025E+03 -0.52537436423E+03 -0.39403905427E+03  0.67330857042E+03  0.25500000920E-02 0.  1.
       -2    1    3    3    0  502 -0.14852418025E+03  0.52537436423E+03  0.16749217125E+03  0.57107905070E+03  0.25500000920E-02 0. -1.
</event>
<event>
 5   0  0.5946359E-03  0.1075460E+04  0.7818609E-02  0.9229446E-01
       -2   -1    0    0    0  501  0.00000000000E+00  0.00000000000E+00  0.20013698557E+03  0.20013698558E+03  0.25500000920E-02 0.  1.
        2   -1    0    0  501    0  0.00000000000E+00  0.00000000000E+00 -0.14447771481E+04  0.14447771481E+04  0.25500000920E-02 0. -1.
    10030    2    1    2    0    0  0.00000000000E+00  0.00000000000E+00 -0.12446401625E+04  0.16449141337E+04  0.10754596101E+04 0.  0.
        4    1    3    3  502    0 -0.14323219284E+03 -0.45433012918E+03 -0.24080163796E+03  0.53377745277E+03  0.12699999809E+01 0.  1.
       -4    1    3    3    0  502  0.14323219284E+03  0.45433012918E+03 -0.10038385246E+04  0.11111366809E+04  0.12699999809E+01 0. -1.
</event>
<event>
 5   0  0.3241189E-03  0.1085152E+04  0.7818609E-02  0.9219786E-01
        1   -1    0    0  501    0  0.00000000000E+00  0.00000000000E+00  0.52602994676E+03  0.52602994679E+03  0.50400001928E-02 0.  1.
       -1   -1    0    0    0  501  0.00000000000E+00  0.00000000000E+00 -0.55964241245E+03  0.55964241248E+03  0.50400001928E-02 0. -1.
    10030    2    1    2    0    0  0.00000000000E+00  0.00000000000E+00 -0.33612465693E+02  0.10856723593E+04  0.10851519128E+04 0.  0.
        5    1    3    3  502    0  0.30028842597E+03  0.71103726797E+02 -0.46326872982E+03  0.55665867887E+03  0.46999998093E+01 0. -1.
       -5    1    3    3    0  502 -0.30028842597E+03 -0.71103726797E+02  0.42965626413E+03  0.52901368039E+03  0.46999998093E+01 0.  1.
</event>
<event>
 5   0  0.2185750E-03  0.1125961E+04  0.7818609E-02  0.9180252E-01
       -4   -1    0    0    0  501  0.00000000000E+00  0.00000000000E+00  0.28669539498E+03  0.28669820788E+03  0.12699999809E+01 0. -1.
        4   -1    0    0  501    0  0.00000000000E+00  0.00000000000E+00 -0.11055094361E+04  0.11055101655E+04  0.12699999809E+01 0.  1.
    10030    2    1    2    0    0  0.00000000000E+00  0.00000000000E+00 -0.81881404108E+03  0.13922083734E+04  0.11259607991E+04 0.  0.
        5    1    3    3  502    0 -0.12545346474E+03 -0.54880091393E+03 -0.41182535376E+03  0.69752650627E+03  0.46999998093E+01 0.  1.
       -5    1    3    3    0  502  0.12545346474E+03  0.54880091393E+03 -0.40698868732E+03  0.69468186715E+03  0.46999998093E+01 0. -1.
</event>
<event>
 5   0  0.2185750E-03  0.1085094E+04  0.7818609E-02  0.9219843E-01
        3   -1    0    0  501    0  0.00000000000E+00  0.00000000000E+00  0.11794779459E+04  0.11794779502E+04  0.10100000352E+00 0.  1.
       -3   -1    0    0    0  501  0.00000000000E+00  0.00000000000E+00 -0.24956559957E+03  0.24956562001E+03  0.10100000352E+00 0. -1.
    10030    2    1    2    0    0  0.00000000000E+00  0.00000000000E+00  0.92991234630E+03  0.14290435702E+04  0.10850937995E+04 0.  0.
        4    1    3    3  502    0 -0.10693339989E+03  0.37832256000E+03  0.95735908468E+03  0.10349399699E+04  0.12699999809E+01 0.  1.
       -4    1    3    3    0  502  0.10693339989E+03 -0.37832256000E+03 -0.27446738374E+02  0.39410360029E+03  0.12699999809E+01 0. -1.
</event>
<event>
 5   0  0.3320192E-03  0.1097430E+04  0.7818609E-02  0.9207700E-01
        1   -1    0    0  501    0  0.00000000000E+00  0.00000000000E+00  0.12452312296E+04  0.12452312296E+04  0.50400001928E-02 0.  1.
       -1   -1    0    0    0  501  0.00000000000E+00  0.00000000000E+00 -0.24179292217E+03  0.24179292223E+03  0.50400001928E-02 0. -1.
    10030    2    1    2    0    0  0.00000000000E+00  0.00000000000E+00  0.10034383074E+04  0.14870241518E+04  0.10974299027E+04 0.  0.
        2    1    3    3  502    0  0.50036922305E+03  0.20537186002E+03  0.62694647493E+03  0.82801500150E+03  0.25500000920E-02 0. -1.
       -2    1    3    3    0  502 -0.50036922305E+03 -0.20537186002E+03  0.37649183246E+03  0.65900915030E+03  0.25500000920E-02 0.  1.
</event>
<event>
 5   0  0.3328741E-03  0.1088445E+04  0.7818609E-02  0.9216528E-01
       -1   -1    0    0    0  501  0.00000000000E+00  0.00000000000E+00  0.46821501155E+03  0.46821501158E+03  0.50400001928E-02 0.  1.
        1   -1    0    0  501    0  0.00000000000E+00  0.00000000000E+00 -0.63256865802E+03  0.63256865804E+03  0.50400001928E-02 0. -1.
    10030    2    1    2    0    0  0.00000000000E+00  0.00000000000E+00 -0.16435364647E+03  0.11007836696E+04  0.10884450221E+04 0.  0.
        3    1    3    3  502    0  0.33567351477E+03 -0.10657823450E+03  0.33742709696E+03  0.48774243669E+03  0.10100000352E+00 0.  1.
       -3    1    3    3    0  502 -0.33567351477E+03  0.10657823450E+03 -0.50178074342E+03  0.61304123292E+03  0.10100000352E+00 0. -1.
</event>
<event>
 5   0  0.3241189E-03  0.1096965E+04  0.7818609E-02  0.9208155E-01
       -1   -1    0    0    0  501  0.00000000000E+00  0.00000000000E+00  0.14004837146E+03  0.14004837155E+03  0.50400001928E-02 0.  1.
        1   -1    0    0  501    0  0.00000000000E+00  0.00000000000E+00 -0.21480648942E+04  0.21480648942E+04  0.50400001928E-02 0. -1.
    10030    2    1    2    0    0  0.00000000000E+00  0.00000000000E+00 -0.20080165228E+04  0.22881132658E+04  0.10969648861E+04 0.  0.
        5    1    3    3  502    0  0.41176922163E+03 -0.31897731421E+03 -0.13623298218E+04  0.14585146733E+04  0.46999998093E+01 0.  1.
       -5    1    3    3    0  502 -0.41176922163E+03  0.31897731421E+03 -0.64568670094E+03  0.82959859247E+03  0.46999998093E+01 0. -1.
</event>
<event>
 5   0  0.5941585E-03  0.1119969E+04  0.7818609E-02  0.9185944E-01
        2   -1    0    0  501    0  0.00000000000E+00  0.00000000000E+00  0.92291787764E+03  0.92291787765E+03  0.25500000920E-02 0. -1.
       -2   -1    0    0    0  501  0.00000000000E+00  0.00000000000E+00 -0.33977301325E+03  0.33977301326E+03  0.25500000920E-02 0.  1.
    10030    2    1    2    0    0  0.00000000000E+00  0.00000000000E+00  0.58314486440E+03  0.12626908909E+04  0.11199689072E+04 0.  0.
        5    1    3    3  502    0 -0.87042537599E+02  0.16994814796E+03  0.88505872629E+03  0.90543349581E+03  0.46999998093E+01 0. -1.
       -5    1    3    3    0  502  0.87042537599E+02 -0.16994814796E+03 -0.30191386190E+03  0.35725739509E+03  0.46999998093E+01 0.  1.
</event>
<event>
 5   0  0.3215352E-03  0.1093982E+04  0.7818609E-02  0.9211077E-01
        1   -1    0    0  501    0  0.00000000000E+00  0.00000000000E+00  0.99436541163E+03  0.99436541164E+03  0.50400001928E-02 0. -1.
       -1   -1    0    0    0  501  0.00000000000E+00  0.00000000000E+00 -0.30089448636E+03  0.30089448641E+03  0.50400001928E-02 0.  1.
    10030    2    1    2    0    0  0.00000000000E+00  0.00000000000E+00  0.69347092526E+03  0.12952598980E+04  0.10939818460E+04 0.  0.
        1    1    3    3  502    0 -0.38271249443E+02  0.24987154574E+03 -0.22758788092E+03  0.34014220772E+03  0.50400001928E-02 0.  1.
       -1    1    3    3    0  502  0.38271249443E+02 -0.24987154574E+03  0.92105880618E+03  0.95511769033E+03  0.50400001928E-02 0. -1.
</event>
<event>
 5   0  0.3241189E-03  0.1077170E+04  0.7818609E-02  0.9227734E-01
       -1   -1    0    0    0  501  0.00000000000E+00  0.00000000000E+00  0.41275996903E+03  0.41275996906E+03  0.50400001928E-02 0. -1.
        1   -1    0    0  501    0  0.00000000000E+00  0.00000000000E+00 -0.70276575629E+03  0.70276575631E+03  0.50400001928E-02 0.  1.
    10030    2    1    2    0    0  0.00000000000E+00  0.00000000000E+00 -0.29000578726E+03  0.11155257254E+04  0.10771695722E+04 0.  0.
        5    1    3    3  502    0 -0.11419673047E+03 -0.34617479115E+03  0.26556531420E+03  0.45102650186E+03  0.46999998093E+01 0. -1.
       -5    1    3    3    0  502  0.11419673047E+03  0.34617479115E+03 -0.55557110146E+03  0.66449922351E+03  0.46999998093E+01 0.  1.
</event>
<event>
 5   0  0.3316784E-03  0.1059566E+04  0.7818609E-02  0.9245523E-01
       -1   -1    0    0    0  501  0.00000000000E+00  0.00000000000E+00  0.11471596687E+04  0.11471596687E+04  0.50400001928E-02 0. -1.
        1   -1    0    0  501    0  0.00000000000E+00  0.00000000000E+00 -0.24466522029E+03  0.24466522034E+03  0.50400001928E-02 0.  1.
    10030    2    1    2    0    0  0.00000000000E+00  0.00000000000E+00  0.90249444842E+03  0.13918248891E+04  0.10595660868E+04 0.  0.
        4    1    3    3  502    0  0.26680191419E+03 -0.23291134079E+03  0.96880028040E+03  0.10315069318E+04  0.12699999809E+01 0. -1.
       -4    1    3    3    0  502 -0.26680191419E+03  0.23291134079E+03 -0.66305831986E+02  0.36031795728E+03  0.12699999809E+01 0.  1.
</event>
<event>
 5   0  0.3320192E-03  0.1025638E+04  0.7818609E-02  0.9280864E-01
        1   -1    0    0  501    0  0.00000000000E+00  0.00000000000E+00  0.19662144936E+04  0.19662144936E+04  0.50400001928E-02 0.  1.
       -1   -1    0    0    0  501  0.00000000000E+00  0.00000000000E+00 -0.13375118696E+03  0.13375118706E+03  0.50400001928E-02 0. -1.
    10030    2    1    2    0    0  0.00000000000E+00  0.00000000000E+00  0.18324633066E+04  0.20999656807E+04  0.10256383816E+04 0.  0.
        2    1    3    3  502    0  0.20307167208E+03  0.27088420568E+03  0.12757706847E+03  0.36179036097E+03  0.25500000920E-02 0. -1.
       -2    1    3    3    0  502 -0.20307167208E+03 -0.27088420568E+03  0.17048862382E+04  0.17381753197E+04  0.25500000920E-02 0.  1.
</event>
<event>
 5   0  0.5627232E-03  0.1107493E+04  0.7818609E-02  0.9197919E-01
        2   -1    0    0  501    0  0.00000000000E+00  0.00000000000E+00  0.95756886769E+03  0.95756886770E+03  0.25500000920E-02 0.  1.
       -2   -1    0    0    0  501  0.00000000000E+00  0.00000000000E+00 -0.32022254123E+03  0.32022254124E+03  0.25500000920E-02 0. -1.
    10030    2    1    2    0    0  0.00000000000E+00  0.00000000000E+00  0.63734632646E+03  0.12777914089E+04  0.11074929096E+04 0.  0.
        2    1    3    3  502    0 -0.49902451664E+03 -0.14928021692E+03  0.10182256916E+03  0.53073334827E+03  0.25500000920E-02 0. -1.
       -2    1    3    3    0  502  0.49902451664E+03  0.14928021692E+03  0.53552375731E+03  0.74705806067E+03  0.25500000920E-02 0.  1.
</event>
<event>
 5   0  0.5500363E-03  0.1085425E+04  0.7818609E-02  0.9219515E-01
        2   -1    0    0  501    0  0.00000000000E+00  0.00000000000E+00  0.60696113879E+03  0.60696113879E+03  0.25500000920E-02 0.  1.
       -2   -1    0    0    0  501  0.00000000000E+00  0.00000000000E+00 -0.48526464002E+03  0.48526464003E+03  0.25500000920E-02 0. -1.
    10030    2    1    2    0    0  0.00000000000E+00  0.00000000000E+00  0.12169649876E+03  0.10922257788E+04  0.10854248542E+04 0.  0.
        3    1    3    3  502    0 -0.45519715529E+03  0.92311265374E+02  0.34334010906E+03  0.57758831411E+03  0.10100000352E+00 0.  1.
       -3    1    3    3    0  502  0.45519715529E+03 -0.92311265374E+02 -0.22164361030E+03  0.51463746471E+03  0.10100000352E+00 0. -1.
</event>
<event>
 5   0  0.5946359E-03  0.1099968E+04  0.7818609E-02  0.9205223E-01
       -2   -1    0    0    0  501  0.00000000000E+00  0.00000000000E+00  0.40713976928E+03  0.40713976928E+03  0.25500000920E-02 0. -1.
        2   -1    0    0  501    0  0.00000000000E+00  0.00000000000E+00 -0.74294500144E+03  0.74294500145E+03  0.25500000920E-02 0.  1.
    10030    2    1    2    0    0  0.00000000000E+00  0.00000000000E+00 -0.33580523216E+03  0.11500847707E+04  0.10999681022E+04 0.  0.
        4    1    3    3  502    0 -0.34304367145E+02  0.37749715626E+03 -0.58455602874E+03  0.69669810982E+03  0.12699999809E+01 0.  1.
       -4    1    3    3    0  502  0.34304367145E+02 -0.37749715626E+03  0.24875079658E+03  0.45338666091E+03  0.12699999809E+01 0. -1.
</event>
<event>
 5   0  0.3241189E-03  0.1107415E+04  0.7818609E-02  0.9197994E-01
       -1   -1    0    0    0  501  0.00000000000E+00  0.00000000000E+00  0.32425839717E+03  0.32425839721E+03  0.50400001928E-02 0.  1.
        1   -1    0    0  501    0  0.00000000000E+00  0.00000000000E+00 -0.94551804766E+03  0.94551804768E+03  0.50400001928E-02 0. -1.
    10030    2    1    2    0    0  0.00000000000E+00  0.00000000000E+00 -0.62125965049E+03  0.12697764449E+04  0.11074153090E+04 0.  0.
        5    1    3    3  502    0 -0.35851229039E+03 -0.34444001726E+03 -0.31175850783E+02  0.49816062823E+03  0.46999998093E+01 0.  1.
       -5    1    3    3    0  502  0.35851229039E+03  0.34444001726E+03 -0.59008379971E+03  0.77161581666E+03  0.46999998093E+01 0. -1.
</event>
<event>
 5   0  0.5723194E-03  0.1103209E+04  0.7818609E-02  0.9202070E-01
        2   -1    0    0  501    0  0.00000000000E+00  0.00000000000E+00  0.54675516807E+03  0.54675516807E+03  0.25500000920E-02 0.  1.
       -2   -1    0    0    0  501  0.00000000000E+00  0.00000000000E+00 -0.55649635988E+03  0.55649635989E+03  0.25500000920E-02 0. -1.
    10030    2    1    2    0    0  0.00000000000E+00  0.00000000000E+00 -0.97411918167E+01  0.11032515280E+04  0.11032085221E+04 0.  0.
        1    1    3    3  502    0 -0.42090036250E+02  0.28098767238E+02 -0.55416985124E+03  0.55647581791E+03  0.50400001928E-02 0. -1.
       -1    1    3    3    0  502  0.42090036250E+02 -0.28098767238E+02  0.54442865942E+03  0.54677571005E+03  0.50400001928E-02 0.  1.
</event>
<event>
 5   0  0.5941585E-03  0.1136036E+04  0.7818609E-02  0.9170763E-01
        2   -1    0    0  501    0  0.00000000000E+00  0.00000000000E+00  0.34922462715E+03  0.34922462716E+03  0.25500000920E-02 0. -1.
       -2   -1    0    0    0  501  0.00000000000E+00  0.00000000000E+00 -0.92388820578E+03  0.92388820578E+03  0.25500000920E-02 0.  1.
    10030    2    1    2    0    0  0.00000000000E+00  0.00000000000E+00 -0.57466357863E+03  0.12731128329E+04  0.11360361160E+04 0.  0.
        5    1    3    3  502    0 -0.15527220574E+03  0.27197659866E+03 -0.81836692499E+03  0.87625752037E+03  0.46999998093E+01 0.  1.
       -5    1    3    3    0  502  0.15527220574E+03 -0.27197659866E+03  0.24370334636E+03  0.39685531257E+03  0.46999998093E+01 0. -1.
</event>
<event>
 5   0  0.3316784E-03  0.1113886E+04  0.7818609E-02  0.9191762E-01
        1   -1    0    0  501    0  0.00000000000E+00  0.00000000000E+00  0.90369843372E+03  0.90369843373E+03  0.50400001928E-02 0. -1.
       -1   -1    0    0    0  501  0.00000000000E+00  0.00000000000E+00 -0.34324007950E+03  0.34324007953E+03  0.50400001928E-02 0.  1.
    10030    2    1    2    0    0  0.00000000000E+00  0.00000000000E+00  0.56045835422E+03  0.12469385133E+04  0.11138860305E+04 0.  0.
        4    1    3    3  502    0  0.50121054398E+03  0.23937126024E+03  0.23443701461E+03  0.60288716717E+03  0.12699999809E+01 0. -1.
       -4    1    3    3    0  502 -0.50121054398E+03 -0.23937126024E+03  0.32602133961E+03  0.64405134609E+03  0.12699999809E+01 0.  1.
</event>
<event>
 5   0  0.3320192E-03  0.8459789E+03  0.7818609E-02  0.9495750E-01
       -1   -1    0    0    0  501  0.00000000000E+00  0.00000000000E+00  0.59538564348E+03  0.59538564350E+03  0.50400001928E-02 0.  1.
        1   -1    0    0  501    0  0.00000000000E+00  0.00000000000E+00 -0.30051120637E+03  0.30051120641E+03  0.50400001928E-02 0. -1.
    10030    2    1    2    0    0  0.00000000000E+00  0.00000000000E+00  0.29487443711E+03  0.89589684991E+03  0.84597886027E+03 0.  0.
        2    1    3    3  502    0 -0.17614217345E+03 -0.37635227749E+03  0.63695632176E+02  0.42038581755E+03  0.25500000920E-02 0. -1.
       -2    1    3    3    0  502  0.17614217345E+03  0.37635227749E+03  0.23117880494E+03  0.47551103236E+03  0.25500000920E-02 0.  1.
</event>
<event>
 5   0  0.3320192E-03  0.1104551E+04  0.7818609E-02  0.9200768E-01
        1   -1    0    0  501    0  0.00000000000E+00  0.00000000000E+00  0.23240521884E+04  0.23240521884E+04  0.50400001928E-02 0. -1.
       -1   -1    0    0    0  501  0.00000000000E+00  0.00000000000E+00 -0.13123979670E+03  0.13123979680E+03  0.50400001928E-02 0.  1.
    10030    2    1    2    0    0  0.00000000000E+00  0.00000000000E+00  0.21928123917E+04  0.24552919852E+04  0.11045508351E+04 0.  0.
        2    1    3    3  502    0  0.38507388337E+02 -0.52251681034E+03  0.14846263183E+04  0.15743639798E+04  0.25500000920E-02 0. -1.
       -2    1    3    3    0  502 -0.38507388337E+02  0.52251681034E+03  0.70818607341E+03  0.88092800536E+03  0.25500000920E-02 0.  1.
</event>
<event>
 5   0  0.3328741E-03  0.1090805E+04  0.7818609E-02  0.9214201E-01
       -1   -1    0    0    0  501  0.00000000000E+00  0.00000000000E+00  0.24111368963E+03  0.24111368968E+03  0.50400001928E-02 0.  1.
        1   -1    0    0  501    0  0.00000000000E+00  0.00000000000E+00 -0.12337071641E+04  0.12337071641E+04  0.50400001928E-02 0. -1.
    10030    2    1    2    0    0  0.00000000000E+00  0.00000000000E+00 -0.99259347445E+03  0.14748208538E+04  0.10908046320E+04 0.  0.
        3    1    3    3  502    0 -0.45122718439E+03 -0.53239555654E+02 -0.90421060918E+03  0.10119472606E+04  0.10100000352E+00 0. -1.
       -3    1    3    3    0  502  0.45122718439E+03  0.53239555654E+02 -0.88382865269E+02  0.46287359321E+03  0.10100000352E+00 0.  1.
</event>
<event>
 5   0  0.3320192E-03  0.1102715E+04  0.7818609E-02  0.9202550E-01
        1   -1    0    0  501    0  0.00000000000E+00  0.00000000000E+00  0.78891888629E+03  0.78891888631E+03  0.50400001928E-02 0. -1.
       -1   -1    0    0    0  501  0.00000000000E+00  0.00000000000E+00 -0.38533126364E+03  0.38533126368E+03  0.50400001928E-02 0.  1.
    10030    2    1    2    0    0  0.00000000000E+00  0.00000000000E+00  0.40358762265E+03  0.11742501500E+04  0.11027150337E+04 0.  0.
        2    1    3    3  502    0 -0.42668560191E+03 -0.12077318205E+03 -0.14710140067E+03  0.46721043060E+03  0.25500000920E-02 0.  1.
       -2    1    3    3    0  502  0.42668560191E+03  0.12077318205E+03  0.55068902331E+03  0.70703971938E+03  0.25500000920E-02 0. -1.
</event>
<event>
 5   0  0.5627232E-03  0.1101802E+04  0.7818609E-02  0.9203437E-01
       -2   -1    0    0    0  501  0.00000000000E+00  0.00000000000E+00  0.27573182224E+03  0.27573182225E+03  0.25500000920E-02 0.  1.
        2   -1    0    0  501    0  0.00000000000E+00  0.00000000000E+00 -0.11006781798E+04  0.11006781798E+04  0.25500000920E-02 0. -1.
    10030    2    1    2    0    0  0.00000000000E+00  0.00000000000E+00 -0.82494635757E+03  0.13764100021E+04  0.11018021605E+04 0.  0.
        2    1    3    3  502    0  0.30137479455E+03 -0.19596205649E+03  0.10901944669E+03  0.37565028170E+03  0.25500000920E-02 0.  1.
       -2    1    3    3    0  502 -0.30137479455E+03  0.19596205649E+03 -0.93396580426E+03  0.10007597204E+04  0.25500000920E-02 0. -1.
</event>
<event>
 5   0  0.5627232E-03  0.1086203E+04  0.7818609E-02  0.9218745E-01
       -2   -1    0    0    0  501  0.00000000000E+00  0.00000000000E+00  0.19467476695E+03  0.19467476697E+03  0.25500000920E-02 0.  1.
        2   -1    0    0  501    0  0.00000000000E+00  0.00000000000E+00 -0.15151389075E+04  0.15151389075E+04  0.25500000920E-02 0. -1.
    10030    2    1    2    0    0  0.00000000000E+00  0.00000000000E+00 -0.13204641406E+04  0.17098136745E+04  0.10862031371E+04 0.  0.
        2    1    3    3  502    0  0.34438758263E+02  0.11659477173E+03 -0.14934440032E+04  0.14983842496E+04  0.25500000920E-02 0. -1.
       -2    1    3    3    0  502 -0.34438758263E+02 -0.11659477173E+03  0.17297986256E+03  0.21142942493E+03  0.25500000920E-02 0.  1.
</event>
<event>
 5   0  0.5500363E-03  0.1106397E+04  0.7818609E-02  0.9198979E-01
        2   -1    0    0  501    0  0.00000000000E+00  0.00000000000E+00  0.22284032725E+04  0.22284032725E+04  0.25500000920E-02 0.  1.
       -2   -1    0    0    0  501  0.00000000000E+00  0.00000000000E+00 -0.13733095209E+03  0.13733095211E+03  0.25500000920E-02 0. -1.
    10030    2    1    2    0    0  0.00000000000E+00  0.00000000000E+00  0.20910723205E+04  0.23657342247E+04  0.11063972941E+04 0.  0.
        3    1    3    3  502    0  0.22713691069E+03 -0.40256340549E+03  0.16954330235E+04  0.17573109057E+04  0.10100000352E+00 0.  1.
       -3    1    3    3    0  502 -0.22713691069E+03  0.40256340549E+03  0.39563929690E+03  0.60842331899E+03  0.10100000352E+00 0. -1.
</event>
<event>
 5   0  0.3215352E-03  0.1127335E+04  0.7818609E-02  0.9178952E-01
       -1   -1    0    0    0  501  0.00000000000E+00  0.00000000000E+00  0.36249097322E+03  0.36249097325E+03  0.50400001928E-02 0.  1.
        1   -1    0    0  501    0  0.00000000000E+00  0.00000000000E+00 -0.87649346745E+03  0.87649346747E+03  0.50400001928E-02 0. -1.
    10030    2    1    2    0    0  0.00000000000E+00  0.00000000000E+00 -0.51400249424E+03  0.12389844407E+04  0.11273348572E+04 0.  0.
        1    1    3    3  502    0  0.13876088435E+03 -0.29015074585E+03 -0.76574917475E+03  0.83055032178E+03  0.50400001928E-02 0. -1.
       -1    1    3    3    0  502 -0.13876088435E+03  0.29015074585E+03  0.25174668051E+03  0.40843411894E+03  0.50400001928E-02 0.  1.
</event>
<event>
 5   0  0.3320192E-03  0.1095612E+04  0.7818609E-02  0.9209479E-01
        1   -1    0    0  501    0  0.00000000000E+00  0.00000000000E+00  0.90683747565E+03  0.90683747567E+03  0.50400001928E-02 0. -1.
       -1   -1    0    0    0  501  0.00000000000E+00  0.00000000000E+00 -0.33092076944E+03  0.33092076947E+03  0.50400001928E-02 0.  1.
    10030    2    1    2    0    0  0.00000000000E+00  0.00000000000E+00  0.57591670622E+03  0.12377582451E+04  0.10956118934E+04 0.  0.
        2    1    3    3  502    0 -0.53744294050E+03 -0.81314741685E+02  0.21104997039E+03  0.58309441047E+03  0.25500000920E-02 0. -1.
       -2    1    3    3    0  502  0.53744294050E+03  0.81314741685E+02  0.36486673583E+03  0.65466383467E+03  0.25500000920E-02 0.  1.
</event>
<event>
 5   0  0.3320192E-03  0.1092083E+04  0.7818609E-02  0.9212943E-01
       -1   -1    0    0    0  501  0.00000000000E+00  0.00000000000E+00  0.21403990371E+03  0.21403990377E+03  0.50400001928E-02 0.  1.
        1   -1    0    0  501    0  0.00000000000E+00  0.00000000000E+00 -0.13930176025E+04  0.13930176025E+04  0.50400001928E-02 0. -1.
    10030    2    1    2    0    0  0.00000000000E+00  0.00000000000E+00 -0.11789776988E+04  0.16070575063E+04  0.10920830620E+04 0.  0.
        2    1    3    3  502    0  0.71157262082E+02  0.54120730252E+03 -0.60991393952E+03  0.81851311161E+03  0.25500000920E-02 0. -1.
       -2    1    3    3    0  502 -0.71157262082E+02 -0.54120730252E+03 -0.56906375930E+03  0.78854439470E+03  0.25500000920E-02 0.  1.
</event>
<event>
 5   0  0.5500363E-03  0.1106356E+04  0.7818609E-02  0.9199019E-01
       -2   -1    0    0    0  501  0.00000000000E+00  0.00000000000E+00  0.12720376592E+03  0.12720376595E+03  0.25500000920E-02 0.  1.
        2   -1    0    0  501    0  0.00000000000E+00  0.00000000000E+00 -0.24056361131E+04  0.24056361131E+04  0.25500000920E-02 0. -1.
    10030    2    1    2    0    0  0.00000000000E+00  0.00000000000E+00 -0.22784323472E+04  0.25328398791E+04  0.11063561326E+04 0.  0.
        3    1    3    3  502    0  0.11344638820E+03  0.43275756744E+03 -0.39436054779E+03  0.59638028726E+03  0.10100000352E+00 0.  1.
       -3    1    3    3    0  502 -0.11344638820E+03 -0.43275756744E+03 -0.18840717994E+04  0.19364595918E+04  0.10100000352E+00 0. -1.
</event>
<event>
 5   0  0.5627232E-03  0.1083641E+04  0.7818609E-02  0.9221285E-01
        2   -1    0    0  501    0  0.00000000000E+00  0.00000000000E+00  0.90380830803E+03  0.90380830804E+03  0.25500000920E-02 0.  1.
       -2   -1    0    0    0  501  0.00000000000E+00  0.00000000000E+00 -0.32481364724E+03  0.32481364725E+03  0.25500000920E-02 0. -1.
    10030    2    1    2    0    0  0.00000000000E+00  0.00000000000E+00  0.57899466079E+03  0.12286219553E+04  0.10836406654E+04 0.  0.
        2    1    3    3  502    0 -0.11966206901E+02 -0.67869271808E+02  0.89881881652E+03  0.90145698350E+03  0.25500000920E-02 0.  1.
       -2    1    3    3    0  502  0.11966206901E+02  0.67869271808E+02 -0.31982415573E+03  0.32716497178E+03  0.25500000920E-02 0. -1.
</event>
<event>
 5   0  0.5627232E-03  0.1106525E+04  0.7818609E-02  0.9198856E-01
        2   -1    0    0  501    0  0.00000000000E+00  0.00000000000E+00  0.24275244218E+03  0.24275244220E+03  0.25500000920E-02 0.  1.
       -2   -1    0    0    0  501  0.00000000000E+00  0.00000000000E+00 -0.12609525911E+04  0.12609525911E+04  0.25500000920E-02 0. -1.
    10030    2    1    2    0    0  0.00000000000E+00  0.00000000000E+00 -0.10182001489E+04  0.15037050333E+04  0.11065248682E+04 0.  0.
        2    1    3    3  502    0  0.26673164900E+03  0.21513235763E+03 -0.10993755782E+04  0.11515443395E+04  0.25500000920E-02 0. -1.
       -2    1    3    3    0  502 -0.26673164900E+03 -0.21513235763E+03  0.81175429347E+02  0.35216069374E+03  0.25500000920E-02 0.  1.
</event>
<event>
 5   0  0.3316784E-03  0.1083641E+04  0.7818609E-02  0.9221284E-01
       -1   -1    0    0    0  501  0.00000000000E+00  0.00000000000E+00  0.15735085761E+03  0.15735085769E+03  0.50400001928E-02 0. -1.
        1   -1    0    0  501    0  0.00000000000E+00  0.00000000000E+00 -0.18657013534E+04  0.18657013534E+04  0.50400001928E-02 0.  1.
    10030    2    1    2    0    0  0.00000000000E+00  0.00000000000E+00 -0.17083504958E+04  0.20230522111E+04  0.10836414686E+04 0.  0.
        4    1    3    3  502    0  0.44532080901E+03 -0.15561818445E+03 -0.35658216346E+03  0.59133754698E+03  0.12699999809E+01 0. -1.
       -4    1    3    3    0  502 -0.44532080901E+03  0.15561818445E+03 -0.13517683324E+04  0.14317146642E+04  0.12699999809E+01 0.  1.
</event>
<event>
 5   0  0.2185750E-03  0.1096296E+04  0.7818609E-02  0.9208810E-01
        3   -1    0    0  501    0  0.00000000000E+00  0.00000000000E+00  0.39062539883E+03  0.39062541188E+03  0.10100000352E+00 0.  1.
       -3   -1    0    0    0  501  0.00000000000E+00  0.00000000000E+00 -0.76919210553E+03  0.76919211216E+03  0.10100000352E+00 0. -1.
    10030    2    1    2    0    0  0.00000000000E+00  0.00000000000E+00 -0.37856670670E+03  0.11598175240E+04  0.10962955521E+04 0.  0.
        2    1    3    3  502    0 -0.46506419223E+02  0.19293793795E+03 -0.72984748734E+03  0.75634995189E+03  0.25500000920E-02 0. -1.
       -2    1    3    3    0  502  0.46506419223E+02 -0.19293793795E+03  0.35128078064E+03  0.40346757216E+03  0.25500000920E-02 0.  1.
</event>
<event>
 5   0  0.5723194E-03  0.1096304E+04  0.7818609E-02  0.9208801E-01
        2   -1    0    0  501    0  0.00000000000E+00  0.00000000000E+00  0.32554317488E+04  0.32554317488E+04  0.25500000920E-02 0.  1.
       -2   -1    0    0    0  501  0.00000000000E+00  0.00000000000E+00 -0.92298294127E+02  0.92298294163E+02  0.25500000920E-02 0. -1.
    10030    2    1    2    0    0  0.00000000000E+00  0.00000000000E+00  0.31631334547E+04  0.33477300430E+04  0.10963043321E+04 0.  0.
        1    1    3    3  502    0  0.39358533453E+03 -0.11348047413E+02  0.27460954071E+04  0.27741806320E+04  0.50400001928E-02 0.  1.
       -1    1    3    3    0  502 -0.39358533453E+03  0.11348047413E+02  0.41703804760E+03  0.57354941104E+03  0.50400001928E-02 0. -1.
</event>
<event>
 5   0  0.5500363E-03  0.1095526E+04  0.7818609E-02  0.9209563E-01
        2   -1    0    0  501    0  0.00000000000E+00  0.00000000000E+00  0.10046842283E+04  0.10046842283E+04  0.25500000920E-02 0.  1.
       -2   -1    0    0    0  501  0.00000000000E+00  0.00000000000E+00 -0.29864541443E+03  0.29864541444E+03  0.25500000920E-02 0. -1.
    10030    2    1    2    0    0  0.00000000000E+00  0.00000000000E+00  0.70603881383E+03  0.13033296427E+04  0.10955260613E+04 0.  0.
        3    1    3    3  502    0  0.46958014808E+03  0.22634660106E+03  0.55317651951E+03  0.76009379106E+03  0.10100000352E+00 0.  1.
       -3    1    3    3    0  502 -0.46958014808E+03 -0.22634660106E+03  0.15286229433E+03  0.54323585164E+03  0.10100000352E+00 0. -1.
</event>
<event>
 5   0  0.3320192E-03  0.1276410E+04  0.7818609E-02  0.9048484E-01
        1   -1    0    0  501    0  0.00000000000E+00  0.00000000000E+00  0.27550619886E+03  0.27550619890E+03  0.50400001928E-02 0.  1.
       -1   -1    0    0    0  501  0.00000000000E+00  0.00000000000E+00 -0.14783895100E+04  0.14783895100E+04  0.50400001928E-02 0. -1.
    10030    2    1    2    0    0  0.00000000000E+00  0.00000000000E+00 -0.12028833111E+04  0.17538957089E+04  0.12764097686E+04 0.  0.
        2    1    3    3  502    0  0.19673832483E+03  0.59672650293E+03 -0.44770991651E+03  0.77151322549E+03  0.25500000920E-02 0.  1.
       -2    1    3    3    0  502 -0.19673832483E+03 -0.59672650293E+03 -0.75517339461E+03  0.98238248340E+03  0.25500000920E-02 0. -1.
</event>
<event>
 5   0  0.5500363E-03  0.1096174E+04  0.7818609E-02  0.9208929E-01
       -2   -1    0    0    0  501  0.00000000000E+00  0.00000000000E+00  0.39561785512E+03  0.39561785512E+03  0.25500000920E-02 0.  1.
        2   -1    0    0  501    0  0.00000000000E+00  0.00000000000E+00 -0.75931698498E+03  0.75931698499E+03  0.25500000920E-02 0. -1.
    10030    2    1    2    0    0  0.00000000000E+00  0.00000000000E+00 -0.36369912987E+03  0.11549348401E+04  0.10961739952E+04 0.  0.
        3    1    3    3  502    0 -0.50963760153E+03 -0.54851068315E+02 -0.38631477662E+03  0.64185531191E+03  0.10100000352E+00 0. -1.
       -3    1    3    3    0  502  0.50963760153E+03  0.54851068315E+02  0.22615646757E+02  0.51307952820E+03  0.10100000352E+00 0.  1.
</event>
<event>
 5   0  0.5627232E-03  0.1091985E+04  0.7818609E-02  0.9213039E-01
        2   -1    0    0  501    0  0.00000000000E+00  0.00000000000E+00  0.88070445480E+03  0.88070445481E+03  0.25500000920E-02 0. -1.
       -2   -1    0    0    0  501  0.00000000000E+00  0.00000000000E+00 -0.33848814171E+03  0.33848814172E+03  0.25500000920E-02 0.  1.
    10030    2    1    2    0    0  0.00000000000E+00  0.00000000000E+00  0.54221631310E+03  0.12191925965E+04  0.10919853741E+04 0.  0.
        2    1    3    3  502    0 -0.14861996433E+03 -0.45789553235E+03 -0.16487190984E+02  0.48169288953E+03  0.25500000920E-02 0.  1.
       -2    1    3    3    0  502  0.14861996433E+03  0.45789553235E+03  0.55870350408E+03  0.73749970700E+03  0.25500000920E-02 0. -1.
</event>
<event>
 5   0  0.5941585E-03  0.1094182E+04  0.7818609E-02  0.9210881E-01
       -2   -1    0    0    0  501  0.00000000000E+00  0.00000000000E+00  0.23001402299E+03  0.23001402300E+03  0.25500000920E-02 0.  1.
        2   -1    0    0  501    0  0.00000000000E+00  0.00000000000E+00 -0.13012632537E+04  0.13012632537E+04  0.25500000920E-02 0. -1.
    10030    2    1    2    0    0  0.00000000000E+00  0.00000000000E+00 -0.10712492307E+04  0.15312772767E+04  0.10941824271E+04 0.  0.
        5    1    3    3  502    0 -0.54773346611E+02 -0.73417905241E+02  0.21917778717E+03  0.23759482464E+03  0.46999998093E+01 0.  1.
       -5    1    3    3    0  502  0.54773346611E+02  0.73417905241E+02 -0.12904270179E+04  0.12936824521E+04  0.46999998093E+01 0. -1.
</event>
<event>
 5   0  0.3241189E-03  0.1099719E+04  0.7818609E-02  0.9205466E-01
       -1   -1    0    0    0  501  0.00000000000E+00  0.00000000000E+00  0.42888650874E+03  0.42888650877E+03  0.50400001928E-02 0. -1.
        1   -1    0    0  501    0  0.00000000000E+00  0.00000000000E+00 -0.70495462941E+03  0.70495462943E+03  0.50400001928E-02 0.  1.
    10030    2    1    2    0    0  0.00000000000E+00  0.00000000000E+00 -0.27606812068E+03  0.11338411382E+04  0.10997191093E+04 0.  0.
        5    1    3    3  502    0 -0.73749703582E+02 -0.51752741097E+03 -0.31376248329E+03  0.60970699997E+03  0.46999998093E+01 0.  1.
       -5    1    3    3    0  502  0.73749703582E+02  0.51752741097E+03  0.37694362616E+02  0.52413413823E+03  0.46999998093E+01 0. -1.
</event>
<event>
 5   0  0.3241189E-03  0.1091364E+04  0.7818609E-02  0.9213650E-01
        1   -1    0    0  501    0  0.00000000000E+00  0.00000000000E+00  0.12194591733E+04  0.12194591733E+04  0.50400001928E-02 0.  1.
       -1   -1    0    0    0  501  0.00000000000E+00  0.00000000000E+00 -0.24418105854E+03  0.24418105859E+03  0.50400001928E-02 0. -1.
    10030    2    1    2    0    0  0.00000000000E+00  0.00000000000E+00  0.97527811471E+03  0.14636402319E+04  0.10913639756E+04 0.  0.
        5    1    3    3  502    0  0.24807191338E+03 -0.93231155179E+02  0.11273293500E+04  0.11580696334E+04  0.46999998093E+01 0.  1.
       -5    1    3    3    0  502 -0.24807191338E+03  0.93231155179E+02 -0.15205123525E+03  0.30557059846E+03  0.46999998093E+01 0. -1.
</event>
<event>
 5   0  0.5723194E-03  0.1106145E+04  0.7818609E-02  0.9199223E-01
       -2   -1    0    0    0  501  0.00000000000E+00  0.00000000000E+00  0.39685236615E+03  0.39685236616E+03  0.25500000920E-02 0. -1.
        2   -1    0    0  501    0  0.00000000000E+00  0.00000000000E+00 -0.77078808761E+03  0.77078808761E+03  0.25500000920E-02 0.  1.
    10030    2    1    2    0    0  0.00000000000E+00  0.00000000000E+00 -0.37393572146E+03  0.11676404538E+04  0.11061447941E+04 0.  0.
        1    1    3    3  502    0 -0.43646900570E+03 -0.59591621328E+02  0.16603774441E+03  0.47077052464E+03  0.50400001928E-02 0. -1.
       -1    1    3    3    0  502  0.43646900570E+03  0.59591621328E+02 -0.53997346587E+03  0.69686992914E+03  0.50400001928E-02 0.  1.
</event>
<event>
 5   0  0.3320192E-03  0.1128235E+04  0.7818609E-02  0.9178101E-01
        1   -1    0    0  501    0  0.00000000000E+00  0.00000000000E+00  0.46284502692E+03  0.46284502695E+03  0.50400001928E-02 0.  1.
       -1   -1    0    0    0  501  0.00000000000E+00  0.00000000000E+00 -0.68754866511E+03  0.68754866512E+03  0.50400001928E-02 0. -1.
    10030    2    1    2    0    0  0.00000000000E+00  0.00000000000E+00 -0.22470363818E+03  0.11503936921E+04  0.11282348699E+04 0.  0.
        2    1    3    3  502    0  0.24619179884E+03  0.44055540220E+02 -0.62792814117E+03  0.67590313131E+03  0.25500000920E-02 0. -1.
       -2    1    3    3    0  502 -0.24619179884E+03 -0.44055540220E+02  0.40322450299E+03  0.47449056076E+03  0.25500000920E-02 0.  1.
</event>
<event>
 5   0  0.5627232E-03  0.1109321E+04  0.7818609E-02  0.9196154E-01
        2   -1    0    0  501    0  0.00000000000E+00  0.00000000000E+00  0.12775828613E+04  0.12775828613E+04  0.25500000920E-02 0. -1.
       -2   -1    0    0    0  501  0.00000000000E+00  0.00000000000E+00 -0.24080501469E+03  0.24080501470E+03  0.25500000920E-02 0.  1.
    10030    2    1    2    0    0  0.00000000000E+00  0.00000000000E+00  0.10367778466E+04  0.15183878760E+04  0.11093211612E+04 0.  0.
        2    1    3    3  502    0  0.40548786566E+03 -0.12472359443E+02  0.10361189422E+04  0.11127077026E+04  0.25500000920E-02 0. -1.
       -2    1    3    3    0  502 -0.40548786566E+03  0.12472359443E+02  0.65890438412E+00  0.40568017342E+03  0.25500000920E-02 0.  1.
</event>
<event>
 5   0  0.3215352E-03  0.1078049E+04  0.7818609E-02  0.9226855E-01
       -1   -1    0    0    0  501  0.00000000000E+00  0.00000000000E+00  0.22696923314E+03  0.22696923320E+03  0.50400001928E-02 0. -1.
        1   -1    0    0  501    0  0.00000000000E+00  0.00000000000E+00 -0.12801179419E+04  0.12801179419E+04  0.50400001928E-02 0.  1.
    10030    2    1    2    0    0  0.00000000000E+00  0.00000000000E+00 -0.10531487087E+04  0.15070871751E+04  0.10780489556E+04 0.  0.
        1    1    3    3  502    0 -0.10439226420E+03  0.49716418426E+03 -0.27463812239E+03  0.57749118541E+03  0.50400001928E-02 0. -1.
       -1    1    3    3    0  502  0.10439226420E+03 -0.49716418426E+03 -0.77851058635E+03  0.92959598968E+03  0.50400001928E-02 0.  1.
</event>
<event>
 5   0  0.5946359E-03  0.1104086E+04  0.7818609E-02  0.9201218E-01
       -2   -1    0    0    0  501  0.00000000000E+00  0.00000000000E+00  0.13981044610E+03  0.13981044613E+03  0.25500000920E-02 0. -1.
        2   -1    0    0  501    0  0.00000000000E+00  0.00000000000E+00 -0.21797489567E+04  0.21797489567E+04  0.25500000920E-02 0.  1.
    10030    2    1    2    0    0  0.00000000000E+00  0.00000000000E+00 -0.20399385106E+04  0.23195594028E+04  0.11040863627E+04 0.  0.
        4    1    3    3  502    0 -0.30982699076E+02 -0.49111989190E+03 -0.15455745546E+04  0.16220237336E+04  0.12699999809E+01 0.  1.
       -4    1    3    3    0  502  0.30982699076E+02  0.49111989190E+03 -0.49436395602E+03  0.69753566918E+03  0.12699999809E+01 0. -1.
</event>
<event>
 5   0  0.3316784E-03  0.1115778E+04  0.7818609E-02  0.9189949E-01
        1   -1    0    0  501    0  0.00000000000E+00  0.00000000000E+00  0.62464706179E+03  0.62464706181E+03  0.50400001928E-02 0.  1.
       -1   -1    0    0    0  501  0.00000000000E+00  0.00000000000E+00 -0.49826556485E+03  0.49826556487E+03  0.50400001928E-02 0. -1.
    10030    2    1    2    0    0  0.00000000000E+00  0.00000000000E+00  0.12638149694E+03  0.11229126267E+04  0.11157779727E+04 0.  0.
        4    1    3    3  502    0 -0.15983848522E+03 -0.53238905655E+03  0.11095006389E+03  0.56683152565E+03  0.12699999809E+01 0.  1.
       -4    1    3    3    0  502  0.15983848522E+03  0.53238905655E+03  0.15431433054E+02  0.55608110103E+03  0.12699999809E+01 0. -1.
</event>
<event>
 5   0  0.2185750E-03  0.1093306E+04  0.7818609E-02  0.9211740E-01
       -4   -1    0    0    0  501  0.00000000000E+00  0.00000000000E+00  0.69334228407E+03  0.69334344720E+03  0.12699999809E+01 0.  1.
        4   -1    0    0  501    0  0.00000000000E+00  0.00000000000E+00 -0.43099643412E+03  0.43099830525E+03  0.12699999809E+01 0. -1.
    10030    2    1    2    0    0  0.00000000000E+00  0.00000000000E+00  0.26234584995E+03  0.11243417524E+04  0.10933064672E+04 0.  0.
        4    1    3    3  502    0  0.47478869683E+03 -0.18328357851E+03 -0.74017830719E+02  0.51429313524E+03  0.12699999809E+01 0.  1.
       -4    1    3    3    0  502 -0.47478869683E+03  0.18328357851E+03  0.33636368067E+03  0.61004861721E+03  0.12699999809E+01 0. -1.
</event>
<event>
 5   0  0.3316784E-03  0.1094476E+04  0.7818609E-02  0.9210592E-01
       -1   -1    0    0    0  501  0.00000000000E+00  0.00000000000E+00  0.30436369525E+03  0.30436369529E+03  0.50400001928E-02 0. -1.
        1   -1    0    0  501    0  0.00000000000E+00  0.00000000000E+00 -0.98392010397E+03  0.98392010398E+03  0.50400001928E-02 0.  1.
    10030    2    1    2    0    0  0.00000000000E+00  0.00000000000E+00 -0.67955640871E+03  0.12882837993E+04  0.10944762377E+04 0.  0.
        4    1    3    3  502    0 -0.50496530498E+03 -0.11177229682E+03 -0.55029074863E+03  0.75518509420E+03  0.12699999809E+01 0.  1.
       -4    1    3    3    0  502  0.50496530498E+03  0.11177229682E+03 -0.12926566008E+03  0.53309870507E+03  0.12699999809E+01 0. -1.
</event>
<event>
 5   0  0.3241189E-03  0.1095867E+04  0.7818609E-02  0.9209230E-01
       -1   -1    0    0    0  501  0.00000000000E+00  0.00000000000E+00  0.32388305520E+03  0.32388305524E+03  0.50400001928E-02 0.  1.
        1   -1    0    0  501    0  0.00000000000E+00  0.00000000000E+00 -0.92697387467E+03  0.92697387469E+03  0.50400001928E-02 0. -1.
    10030    2    1    2    0    0  0.00000000000E+00  0.00000000000E+00 -0.60309081947E+03  0.12508569299E+04  0.10958670187E+04 0.  0.
        5    1    3    3  502    0 -0.18651360559E+03 -0.23619668468E+03  0.22106666918E+03  0.37345516618E+03  0.46999998093E+01 0.  1.
       -5    1    3    3    0  502  0.18651360559E+03  0.23619668468E+03 -0.82415748865E+03  0.87740176375E+03  0.46999998093E+01 0. -1.
</event>
<event>
 5   0  0.5723194E-03  0.1110136E+04  0.7818609E-02  0.9195369E-01
        2   -1    0    0  501    0  0.00000000000E+00  0.00000000000E+00  0.40971937116E+03  0.40971937117E+03  0.25500000920E-02 0.  1.
       -2   -1    0    0    0  501  0.00000000000E+00  0.00000000000E+00 -0.75197887492E+03  0.75197887492E+03  0.25500000920E-02 0. -1.
    10030    2    1    2    0    0  0.00000000000E+00  0.00000000000E+00 -0.34225950376E+03  0.11616982461E+04  0.11101356886E+04 0.  0.
        1    1    3    3  502    0  0.29095729310E+03 -0.54252929037E+02 -0.66251525426E+03  0.72562110559E+03  0.50400001928E-02 0. -1.
       -1    1    3    3    0  502 -0.29095729310E+03  0.54252929037E+02  0.32025575050E+03  0.43607714051E+03  0.50400001928E-02 0.  1.
</event>
<event>
 5   0  0.3328741E-03  0.1079584E+04  0.7818609E-02  0.9225322E-01
       -1   -1    0    0    0  501  0.00000000000E+00  0.00000000000E+00  0.85130121308E+03  0.85130121309E+03  0.50400001928E-02 0. -1.
        1   -1    0    0  501    0  0.00000000000E+00  0.00000000000E+00 -0.34227064453E+03  0.34227064456E+03  0.50400001928E-02 0.  1.
    10030    2    1    2    0    0  0.00000000000E+00  0.00000000000E+00  0.50903056855E+03  0.11935718577E+04  0.10795840216E+04 0.  0.
        3    1    3    3  502    0 -0.20651047422E+03  0.28242526890E+03  0.70896960482E+03  0.79060010070E+03  0.10100000352E+00 0. -1.
       -3    1    3    3    0  502  0.20651047422E+03 -0.28242526890E+03 -0.19993903627E+03  0.40297175695E+03  0.10100000352E+00 0.  1.
</event>
<event>
 5   0  0.5723194E-03  0.1133745E+04  0.7818609E-02  0.9172912E-01
       -2   -1    0    0    0  501  0.00000000000E+00  0.00000000000E+00  0.47327953879E+03  0.47327953880E+03  0.25500000920E-02 0. -1.
        2   -1    0    0  501    0  0.00000000000E+00  0.00000000000E+00 -0.67897386494E+03  0.67897386495E+03  0.25500000920E-02 0.  1.
    10030    2    1    2    0    0  0.00000000000E+00  0.00000000000E+00 -0.20569432615E+03  0.11522534038E+04  0.11337450113E+04 0.  0.
        1    1    3    3  502    0  0.19348418844E+03 -0.49027053721E+03 -0.31492355056E+03  0.61398548318E+03  0.50400001928E-02 0.  1.
       -1    1    3    3    0  502 -0.19348418844E+03  0.49027053721E+03  0.10922922440E+03  0.53826792057E+03  0.50400001928E-02 0. -1.
</event>
<event>
 5   0  0.3328741E-03  0.1096713E+04  0.7818609E-02  0.9208402E-01
        1   -1    0    0  501    0  0.00000000000E+00  0.00000000000E+00  0.15162561694E+04  0.15162561694E+04  0.50400001928E-02 0. -1.
       -1   -1    0    0    0  501  0.00000000000E+00  0.00000000000E+00 -0.19831389564E+03  0.19831389570E+03  0.50400001928E-02 0.  1.
    10030    2    1    2    0    0  0.00000000000E+00  0.00000000000E+00  0.13179422738E+04  0.17145700651E+04  0.10967126657E+04 0.  0.
        3    1    3    3  502    0  0.25766153351E+03  0.13505080933E+03  0.13856726542E+04  0.14158802568E+04  0.10100000352E+00 0. -1.
       -3    1    3    3    0  502 -0.25766153351E+03 -0.13505080933E+03 -0.67730380398E+02  0.29868980830E+03  0.10100000352E+00 0.  1.
</event>
<event>
 5   0  0.3241189E-03  0.1097967E+04  0.7818609E-02  0.9207176E-01
       -1   -1    0    0    0  501  0.00000000000E+00  0.00000000000E+00  0.62722024738E+03  0.62722024740E+03  0.50400001928E-02 0. -1.
        1   -1    0    0  501    0  0.00000000000E+00  0.00000000000E+00 -0.48050565426E+03  0.48050565429E+03  0.50400001928E-02 0.  1.
    10030    2    1    2    0    0  0.00000000000E+00  0.00000000000E+00  0.14671459312E+03  0.11077259017E+04  0.10979669856E+04 0.  0.
        5    1    3    3  502    0 -0.12514608276E+03 -0.39859174581E+03  0.43264596378E+03  0.60144953390E+03  0.46999998093E+01 0. -1.
       -5    1    3    3    0  502  0.12514608276E+03  0.39859174581E+03 -0.28593137065E+03  0.50627636779E+03  0.46999998093E+01 0.  1.
</event>
<event>
 5   0  0.5946359E-03  0.1113647E+04  0.7818609E-02  0.9191992E-01
       -2   -1    0    0    0  501  0.00000000000E+00  0.00000000000E+00  0.54064114585E+03  0.54064114585E+03  0.25500000920E-02 0. -1.
        2   -1    0    0  501    0  0.00000000000E+00  0.00000000000E+00 -0.57349029558E+03  0.57349029558E+03  0.25500000920E-02 0.  1.
    10030    2    1    2    0    0  0.00000000000E+00  0.00000000000E+00 -0.32849149733E+02  0.11141314414E+04  0.11136470725E+04 0.  0.
        4    1    3    3  502    0 -0.52838363449E+02  0.37432093714E+03  0.39258423502E+03  0.54500646887E+03  0.12699999809E+01 0. -1.
       -4    1    3    3    0  502  0.52838363449E+02 -0.37432093714E+03 -0.42543338475E+03  0.56912497256E+03  0.12699999809E+01 0.  1.
</event>
<event>
 5   0  0.5627232E-03  0.1109354E+04  0.7818609E-02  0.9196123E-01
        2   -1    0    0  501    0  0.00000000000E+00  0.00000000000E+00  0.36352137505E+03  0.36352137506E+03  0.25500000920E-02 0. -1.
       -2   -1    0    0    0  501  0.00000000000E+00  0.00000000000E+00 -0.84635017748E+03  0.84635017748E+03  0.25500000920E-02 0.  1.
    10030    2    1    2    0    0  0.00000000000E+00  0.00000000000E+00 -0.48282880243E+03  0.12098715525E+04  0.11093536502E+04 0.  0.
        2    1    3    3  502    0  0.50449845865E+03 -0.22887289586E+03 -0.21125194056E+03  0.59289870942E+03  0.25500000920E-02 0. -1.
       -2    1    3    3    0  502 -0.50449845865E+03  0.22887289586E+03 -0.27157686186E+03  0.61697284312E+03  0.25500000920E-02 0.  1.
</event>
<event>
 5   0  0.3316784E-03  0.1083866E+04  0.7818609E-02  0.9221061E-01
       -1   -1    0    0    0  501  0.00000000000E+00  0.00000000000E+00  0.27032867488E+03  0.27032867492E+03  0.50400001928E-02 0. -1.
        1   -1    0    0  501    0  0.00000000000E+00  0.00000000000E+00 -0.10864238076E+04  0.10864238076E+04  0.50400001928E-02 0.  1.
    10030    2    1    2    0    0  0.00000000000E+00  0.00000000000E+00 -0.81609513268E+03  0.13567524825E+04  0.10838662432E+04 0.  0.
        4    1    3    3  502    0 -0.30554017221E+02 -0.51749179596E+03 -0.60580596883E+03  0.79732916140E+03  0.12699999809E+01 0.  1.
       -4    1    3    3    0  502  0.30554017221E+02  0.51749179596E+03 -0.21028916385E+03  0.55942332110E+03  0.12699999809E+01 0. -1.
</event>
<event>
 5   0  0.2185750E-03  0.1104011E+04  0.7818609E-02  0.9201291E-01
        3   -1    0    0  501    0  0.00000000000E+00  0.00000000000E+00  0.75786675807E+03  0.75786676480E+03  0.10100000352E+00 0. -1.
       -3   -1    0    0    0  501  0.00000000000E+00  0.00000000000E+00 -0.40206281826E+03  0.40206283095E+03  0.10100000352E+00 0.  1.
    10030    2    1    2    0    0  0.00000000000E+00  0.00000000000E+00  0.35580393981E+03  0.11599295957E+04  0.11040109707E+04 0.  0.
        5    1    3    3  502    0  0.83969388769E+02  0.50853676021E+03  0.38546186677E+03  0.64363299750E+03  0.46999998093E+01 0. -1.
       -5    1    3    3    0  502 -0.83969388769E+02 -0.50853676021E+03 -0.29657926961E+02  0.51629659825E+03  0.46999998093E+01 0.  1.
</event>
<event>
 5   0  0.5941585E-03  0.1097660E+04  0.7818609E-02  0.9207476E-01
        2   -1    0    0  501    0  0.00000000000E+00  0.00000000000E+00  0.10292432117E+04  0.10292432117E+04  0.25500000920E-02 0. -1.
       -2   -1    0    0    0  501  0.00000000000E+00  0.00000000000E+00 -0.29265614220E+03  0.29265614221E+03  0.25500000920E-02 0.  1.
    10030    2    1    2    0    0  0.00000000000E+00  0.00000000000E+00  0.73658706953E+03  0.13218993539E+04  0.10976599615E+04 0.  0.
        5    1    3    3  502    0  0.54780938665E+03 -0.32569015161E+02  0.36102848090E+03  0.65690145294E+03  0.46999998093E+01 0. -1.
       -5    1    3    3    0  502 -0.54780938665E+03  0.32569015161E+02  0.37555858862E+03  0.66499790101E+03  0.46999998093E+01 0.  1.
</event>
<event>
 5   0  0.3215352E-03  0.1098069E+04  0.7818609E-02  0.9207076E-01
        1   -1    0    0  501    0  0.00000000000E+00  0.00000000000E+00  0.62422367824E+03  0.62422367826E+03  0.50400001928E-02 0.  1.
       -1   -1    0    0    0  501  0.00000000000E+00  0.00000000000E+00 -0.48290168096E+03  0.48290168099E+03  0.50400001928E-02 0. -1.
    10030    2    1    2    0    0  0.00000000000E+00  0.00000000000E+00  0.14132199728E+03  0.11071253592E+04  0.10980686018E+04 0.  0.
        1    1    3    3  502    0 -0.97584366618E+02 -0.32803005732E+03 -0.36219596585E+03  0.49830948698E+03  0.50400001928E-02 0. -1.
       -1    1    3    3    0  502  0.97584366618E+02  0.32803005732E+03  0.50351796312E+03  0.60881587227E+03  0.50400001928E-02 0.  1.
</event>
<event>
 5   0  0.5946359E-03  0.1096695E+04  0.7818609E-02  0.9208419E-01
        2   -1    0    0  501    0  0.00000000000E+00  0.00000000000E+00  0.54121767182E+03  0.54121767182E+03  0.25500000920E-02 0. -1.
       -2   -1    0    0    0  501  0.00000000000E+00  0.00000000000E+00 -0.55557111385E+03  0.55557111385E+03  0.25500000920E-02 0.  1.
    10030    2    1    2    0    0  0.00000000000E+00  0.00000000000E+00 -0.14353442030E+02  0.10967887857E+04  0.10966948614E+04 0.  0.
        4    1    3    3  502    0 -0.22731185744E+03 -0.45021509622E+03 -0.22241359657E+03  0.55121115214E+03  0.12699999809E+01 0. -1.
       -4    1    3    3    0  502  0.22731185744E+03  0.45021509622E+03  0.20806015454E+03  0.54557763353E+03  0.12699999809E+01 0.  1.
</event>
<event>
 5   0  0.3320192E-03  0.1097009E+04  0.7818609E-02  0.9208112E-01
        1   -1    0    0  501    0  0.00000000000E+00  0.00000000000E+00  0.56385068127E+03  0.56385068130E+03  0.50400001928E-02 0.  1.
       -1   -1    0    0    0  501  0.00000000000E+00  0.00000000000E+00 -0.53357604097E+03  0.53357604099E+03  0.50400001928E-02 0. -1.
    10030    2    1    2    0    0  0.00000000000E+00  0.00000000000E+00  0.30274640307E+02  0.10974267223E+04  0.10970090505E+04 0.  0.
        2    1    3    3  502    0  0.46754409931E+03 -0.11104854327E+03  0.27967693704E+03  0.55601119852E+03  0.25500000920E-02 0.  1.
       -2    1    3    3    0  502 -0.46754409931E+03  0.11104854327E+03 -0.24940229673E+03  0.54141552377E+03  0.25500000920E-02 0. -1.
</event>
<event>
 5   0  0.3320192E-03  0.1072429E+04  0.7818609E-02  0.9232489E-01
       -1   -1    0    0    0  501  0.00000000000E+00  0.00000000000E+00  0.19227024896E+03  0.19227024903E+03  0.50400001928E-02 0.  1.
        1   -1    0    0  501    0  0.00000000000E+00  0.00000000000E+00 -0.14954272228E+04  0.14954272228E+04  0.50400001928E-02 0. -1.
    10030    2    1    2    0    0  0.00000000000E+00  0.00000000000E+00 -0.13031569738E+04  0.16876974718E+04  0.10724293254E+04 0.  0.
        2    1    3    3  502    0 -0.30033666019E+03  0.28319351317E+03 -0.11299674400E+03  0.42798240562E+03  0.25500000920E-02 0.  1.
       -2    1    3    3    0  502  0.30033666019E+03 -0.28319351317E+03 -0.11901602298E+04  0.12597150662E+04  0.25500000920E-02 0. -1.
</event>
<event>
 5   0  0.5627232E-03  0.1119276E+04  0.7818609E-02  0.9186605E-01
       -2   -1    0    0    0  501  0.00000000000E+00  0.00000000000E+00  0.23665904031E+03  0.23665904033E+03  0.25500000920E-02 0.  1.
        2   -1    0    0  501    0  0.00000000000E+00  0.00000000000E+00 -0.13234000148E+04  0.13234000148E+04  0.25500000920E-02 0. -1.
    10030    2    1    2    0    0  0.00000000000E+00  0.00000000000E+00 -0.10867409745E+04  0.15600590551E+04  0.11192757971E+04 0.  0.
        2    1    3    3  502    0 -0.16963707784E+03  0.39648479704E+03 -0.46231753538E+02  0.43372146304E+03  0.25500000920E-02 0.  1.
       -2    1    3    3    0  502  0.16963707784E+03 -0.39648479704E+03 -0.10405092210E+04  0.11263375921E+04  0.25500000920E-02 0. -1.
</event>
<event>
 5   0  0.3241189E-03  0.1135958E+04  0.7818609E-02  0.9170836E-01
        1   -1    0    0  501    0  0.00000000000E+00  0.00000000000E+00  0.57329228390E+03  0.57329228393E+03  0.50400001928E-02 0.  1.
       -1   -1    0    0    0  501  0.00000000000E+00  0.00000000000E+00 -0.56271533914E+03  0.56271533917E+03  0.50400001928E-02 0. -1.
    10030    2    1    2    0    0  0.00000000000E+00  0.00000000000E+00  0.10576944762E+02  0.11360076231E+04  0.11359583830E+04 0.  0.
        5    1    3    3  502    0  0.13832306901E+03  0.39183153394E+03 -0.38191437671E+03  0.56439870973E+03  0.46999998093E+01 0. -1.
       -5    1    3    3    0  502 -0.13832306901E+03 -0.39183153394E+03  0.39249132147E+03  0.57160891336E+03  0.46999998093E+01 0.  1.
</event>
<event>
 5   0  0.3316784E-03  0.1136020E+04  0.7818609E-02  0.9170779E-01
       -1   -1    0    0    0  501  0.00000000000E+00  0.00000000000E+00  0.52914965672E+03  0.52914965675E+03  0.50400001928E-02 0.  1.
        1   -1    0    0  501    0  0.00000000000E+00  0.00000000000E+00 -0.60972407666E+03  0.60972407668E+03  0.50400001928E-02 0. -1.
    10030    2    1    2    0    0  0.00000000000E+00  0.00000000000E+00 -0.80574419937E+02  0.11388737334E+04  0.11360198693E+04 0.  0.
        4    1    3    3  502    0  0.28278326199E+03  0.68242558068E+02  0.44880132487E+03  0.53483423796E+03  0.12699999809E+01 0.  1.
       -4    1    3    3    0  502 -0.28278326199E+03 -0.68242558068E+02 -0.52937574480E+03  0.60403949546E+03  0.12699999809E+01 0. -1.
</event>
<event>
 5   0  0.3241189E-03  0.1106950E+04  0.7818609E-02  0.9198444E-01
        1   -1    0    0  501    0  0.00000000000E+00  0.00000000000E+00  0.64674935971E+03  0.64674935973E+03  0.50400001928E-02 0. -1.
       -1   -1    0    0    0  501  0.00000000000E+00  0.00000000000E+00 -0.47365291676E+03  0.47365291679E+03  0.50400001928E-02 0.  1.
    10030    2    1    2    0    0  0.00000000000E+00  0.00000000000E+00  0.17309644295E+03  0.11204022765E+04  0.11069502621E+04 0.  0.
        5    1    3    3  502    0 -0.77192149518E+02 -0.51907607394E+03 -0.91412313470E+02  0.53270714237E+03  0.46999998093E+01 0.  1.
       -5    1    3    3    0  502  0.77192149518E+02  0.51907607394E+03  0.26450875642E+03  0.58769513415E+03  0.46999998093E+01 0. -1.
</event>
<event>
 5   0  0.5627232E-03  0.1105937E+04  0.7818609E-02  0.9199425E-01
        2   -1    0    0  501    0  0.00000000000E+00  0.00000000000E+00  0.89046286731E+03  0.89046286731E+03  0.25500000920E-02 0. -1.
       -2   -1    0    0    0  501  0.00000000000E+00  0.00000000000E+00 -0.34338789697E+03  0.34338789698E+03  0.25500000920E-02 0.  1.
    10030    2    1    2    0    0  0.00000000000E+00  0.00000000000E+00  0.54707497034E+03  0.12338507643E+04  0.11059370169E+04 0.  0.
        2    1    3    3  502    0  0.51023545145E+03 -0.20532106475E+03  0.20966927301E+03  0.58860696530E+03  0.25500000920E-02 0.  1.
       -2    1    3    3    0  502 -0.51023545145E+03  0.20532106475E+03  0.33740569733E+03  0.64524379900E+03  0.25500000920E-02 0. -1.
</event>
<event>
 5   0  0.5627232E-03  0.1091920E+04  0.7818609E-02  0.9213103E-01
       -2   -1    0    0    0  501  0.00000000000E+00  0.00000000000E+00  0.38700896282E+03  0.38700896283E+03  0.25500000920E-02 0.  1.
        2   -1    0    0  501    0  0.00000000000E+00  0.00000000000E+00 -0.77019442280E+03  0.77019442281E+03  0.25500000920E-02 0. -1.
    10030    2    1    2    0    0  0.00000000000E+00  0.00000000000E+00 -0.38318545998E+03  0.11572033856E+04  0.10919196761E+04 0.  0.
        2    1    3    3  502    0 -0.27435525916E+03 -0.28479362664E+03 -0.59052082367E+03  0.71069899479E+03  0.25500000920E-02 0. -1.
       -2    1    3    3    0  502  0.27435525916E+03  0.28479362664E+03  0.20733536369E+03  0.44650439085E+03  0.25500000920E-02 0.  1.
</event>
<event>
 5   0  0.3215352E-03  0.1129444E+04  0.7818609E-02  0.9176959E-01
        1   -1    0    0  501    0  0.00000000000E+00  0.00000000000E+00  0.30034494895E+04  0.30034494895E+04  0.50400001928E-02 0. -1.
       -1   -1    0    0    0  501  0.00000000000E+00  0.00000000000E+00 -0.10618158748E+03  0.10618158760E+03  0.50400001928E-02 0.  1.
    10030    2    1    2    0    0  0.00000000000E+00  0.00000000000E+00  0.28972679021E+04  0.31096310771E+04  0.11294441728E+04 0.  0.
        1    1    3    3  502    0 -0.12878693841E+03  0.36751986432E+02 -0.61824452960E+02  0.14750948112E+03  0.50400001928E-02 0.  1.
       -1    1    3    3    0  502  0.12878693841E+03 -0.36751986432E+02  0.29590923550E+04  0.29621215960E+04  0.50400001928E-02 0. -1.
</event>
<event>
 5   0  0.5500363E-03  0.1100857E+04  0.7818609E-02  0.9204357E-01
        2   -1    0    0  501    0  0.00000000000E+00  0.00000000000E+00  0.10992888798E+04  0.10992888798E+04  0.25500000920E-02 0.  1.
       -2   -1    0    0    0  501  0.00000000000E+00  0.00000000000E+00 -0.27560681503E+03  0.27560681504E+03  0.25500000920E-02 0. -1.
    10030    2    1    2    0    0  0.00000000000E+00  0.00000000000E+00  0.82368206473E+03  0.13748956948E+04  0.11008569516E+04 0.  0.
        3    1    3    3  502    0  0.24063675085E+03 -0.45922896845E+03  0.64272196906E+03  0.82576560297E+03  0.10100000352E+00 0.  1.
       -3    1    3    3    0  502 -0.24063675085E+03  0.45922896845E+03  0.18096009567E+03  0.54913009183E+03  0.10100000352E+00 0. -1.
</event>
<event>
 5   0  0.5500363E-03  0.1096453E+04  0.7818609E-02  0.9208656E-01
       -2   -1    0    0    0  501  0.00000000000E+00  0.00000000000E+00  0.13508634386E+03  0.13508634389E+03  0.25500000920E-02 0.  1.
        2   -1    0    0  501    0  0.00000000000E+00  0.00000000000E+00 -0.22248915170E+04  0.22248915170E+04  0.25500000920E-02 0. -1.
    10030    2    1    2    0    0  0.00000000000E+00  0.00000000000E+00 -0.20898051731E+04  0.23599778609E+04  0.10964533014E+04 0.  0.
        3    1    3    3  502    0  0.35092042725E+03 -0.31430901741E+03 -0.44140376660E+03  0.64557927480E+03  0.10100000352E+00 0.  1.
       -3    1    3    3    0  502 -0.35092042725E+03  0.31430901741E+03 -0.16484014065E+04  0.17143985861E+04  0.10100000352E+00 0. -1.
</event>
<event>
 5   0  0.5946359E-03  0.1090439E+04  0.7818609E-02  0.9214561E-01
        2   -1    0    0  501    0  0.00000000000E+00  0.00000000000E+00  0.49948425583E+03  0.49948425583E+03  0.25500000920E-02 0.  1.
       -2   -1    0    0    0  501  0.00000000000E+00  0.00000000000E+00 -0.59514203652E+03  0.59514203653E+03  0.25500000920E-02 0. -1.
    10030    2    1    2    0    0  0.00000000000E+00  0.00000000000E+00 -0.95657780698E+02  0.10946262924E+04  0.10904385856E+04 0.  0.
        4    1    3    3  502    0  0.12332397634E+03  0.22283729189E+03 -0.53175617901E+03  0.58960283973E+03  0.12699999809E+01 0. -1.
       -4    1    3    3    0  502 -0.12332397634E+03 -0.22283729189E+03  0.43609839832E+03  0.50502345263E+03  0.12699999809E+01 0.  1.
</event>
<event>
 5   0  0.3316784E-03  0.1028270E+04  0.7818609E-02  0.9278071E-01
        1   -1    0    0  501    0  0.00000000000E+00  0.00000000000E+00  0.33954463871E+03  0.33954463875E+03  0.50400001928E-02 0.  1.
       -1   -1    0    0    0  501  0.00000000000E+00  0.00000000000E+00 -0.77849823597E+03  0.77849823599E+03  0.50400001928E-02 0. -1.
    10030    2    1    2    0    0  0.00000000000E+00  0.00000000000E+00 -0.43895359727E+03  0.11180428747E+04  0.10282702024E+04 0.  0.
        4    1    3    3  502    0  0.30026710324E+02  0.34895964106E+03 -0.62871208231E+03  0.71969085708E+03  0.12699999809E+01 0. -1.
       -4    1    3    3    0  502 -0.30026710324E+02 -0.34895964106E+03  0.18975848504E+03  0.39835201766E+03  0.12699999809E+01 0.  1.
</event>
<event>
 5   0  0.3316784E-03  0.1107572E+04  0.7818609E-02  0.9197843E-01
       -1   -1    0    0    0  501  0.00000000000E+00  0.00000000000E+00  0.51285471606E+03  0.51285471609E+03  0.50400001928E-02 0.  1.
        1   -1    0    0  501    0  0.00000000000E+00  0.00000000000E+00 -0.59798385602E+03  0.59798385605E+03  0.50400001928E-02 0. -1.
    10030    2    1    2    0    0  0.00000000000E+00  0.00000000000E+00 -0.85129139960E+02  0.11108385721E+04  0.11075718319E+04 0.  0.
        4    1    3    3  502    0 -0.45896060236E+03 -0.25270223552E+03  0.13733552766E+03  0.54163263788E+03  0.12699999809E+01 0.  1.
       -4    1    3    3    0  502  0.45896060236E+03  0.25270223552E+03 -0.22246466762E+03  0.56920593426E+03  0.12699999809E+01 0. -1.
</event>
<event>
 5   0  0.5941585E-03  0.1098561E+04  0.7818609E-02  0.9206596E-01
       -2   -1    0    0    0  501  0.00000000000E+00  0.00000000000E+00  0.19002369073E+03  0.19002369074E+03  0.25500000920E-02 0. -1.
        2   -1    0    0  501    0  0.00000000000E+00  0.00000000000E+00 -0.15877443847E+04  0.15877443847E+04  0.25500000920E-02 0.  1.
    10030    2    1    2    0    0  0.00000000000E+00  0.00000000000E+00 -0.13977206940E+04  0.17777680754E+04  0.10985609640E+04 0.  0.
        5    1    3    3  502    0  0.21424437077E+03  0.60483113413E+02 -0.15114318100E+04  0.15277457458E+04  0.46999998093E+01 0.  1.
       -5    1    3    3    0  502 -0.21424437077E+03 -0.60483113413E+02  0.11371111606E+03  0.25002232966E+03  0.46999998093E+01 0. -1.
</event>
<event>
 5   0  0.3316784E-03  0.1104489E+04  0.7818609E-02  0.9200827E-01
       -1   -1    0    0    0  501  0.00000000000E+00  0.00000000000E+00  0.57692984542E+03  0.57692984544E+03  0.50400001928E-02 0.  1.
        1   -1    0    0  501    0  0.00000000000E+00  0.00000000000E+00 -0.52861585075E+03  0.52861585077E+03  0.50400001928E-02 0. -1.
    10030    2    1    2    0    0  0.00000000000E+00  0.00000000000E+00  0.48313994668E+02  0.11055456962E+04  0.11044894949E+04 0.  0.
        4    1    3    3  502    0  0.22703611988E+03  0.36294595606E+03  0.37334225831E+03  0.56803276445E+03  0.12699999809E+01 0.  1.
       -4    1    3    3    0  502 -0.22703611988E+03 -0.36294595606E+03 -0.32502826364E+03  0.53751293176E+03  0.12699999809E+01 0. -1.
</event>
<event>
 5   0  0.5500363E-03  0.1097283E+04  0.7818609E-02  0.9207844E-01
        2   -1    0    0  501    0  0.00000000000E+00  0.00000000000E+00  0.48891892270E+03  0.48891892271E+03  0.25500000920E-02 0. -1.
       -2   -1    0    0    0  501  0.00000000000E+00  0.00000000000E+00 -0.61565969575E+03  0.61565969575E+03  0.25500000920E-02 0.  1.
    10030    2    1    2    0    0  0.00000000000E+00  0.00000000000E+00 -0.12674077305E+03  0.11045786185E+04  0.10972833275E+04 0.  0.
        3    1    3    3  502    0 -0.42619982803E+03  0.33604693419E+03  0.17374053927E+02  0.54302458816E+03  0.10100000352E+00 0. -1.
       -3    1    3    3    0  502  0.42619982803E+03 -0.33604693419E+03 -0.14411482697E+03  0.56155403030E+03  0.10100000352E+00 0.  1.
</event>
<event>
 5   0  0.5941585E-03  0.1209937E+04  0.7818609E-02  0.9104203E-01
       -2   -1    0    0    0  501  0.00000000000E+00  0.00000000000E+00  0.73302133402E+03  0.73302133403E+03  0.25500000920E-02 0.  1.
        2   -1    0    0  501    0  0.00000000000E+00  0.00000000000E+00 -0.49928570333E+03  0.49928570333E+03  0.25500000920E-02 0. -1.
    10030    2    1    2    0    0  0.00000000000E+00  0.00000000000E+00  0.23373563070E+03  0.12323070374E+04  0.12099373080E+04 0.  0.
        5    1    3    3  502    0  0.20519247990E+03  0.54309845861E+03  0.29002608771E+03  0.64899700393E+03  0.46999998093E+01 0.  1.
       -5    1    3    3    0  502 -0.20519247990E+03 -0.54309845861E+03 -0.56290457013E+02  0.58331003343E+03  0.46999998093E+01 0. -1.
</event>
<event>
 5   0  0.3316784E-03  0.1151946E+04  0.7818609E-02  0.9155991E-01
        1   -1    0    0  501    0  0.00000000000E+00  0.00000000000E+00  0.29357222823E+03  0.29357222827E+03  0.50400001928E-02 0. -1.
       -1   -1    0    0    0  501  0.00000000000E+00  0.00000000000E+00 -0.11300272643E+04  0.11300272643E+04  0.50400001928E-02 0.  1.
    10030    2    1    2    0    0  0.00000000000E+00  0.00000000000E+00 -0.83645503603E+03  0.14235994925E+04  0.11519455230E+04 0.  0.
        4    1    3    3  502    0  0.51905852351E+03 -0.23574258504E+03 -0.31671927281E+03  0.65215721103E+03  0.12699999809E+01 0. -1.
       -4    1    3    3    0  502 -0.51905852351E+03  0.23574258504E+03 -0.51973576323E+03  0.77144228151E+03  0.12699999809E+01 0.  1.
</event>
<event>
 5   0  0.3328741E-03  0.1154749E+04  0.7818609E-02  0.9153414E-01
        1   -1    0    0  501    0  0.00000000000E+00  0.00000000000E+00  0.56246635591E+03  0.56246635594E+03  0.50400001928E-02 0.  1.
       -1   -1    0    0    0  501  0.00000000000E+00  0.00000000000E+00 -0.59267757693E+03  0.59267757696E+03  0.50400001928E-02 0. -1.
    10030    2    1    2    0    0  0.00000000000E+00  0.00000000000E+00 -0.30211221022E+02  0.11551439329E+04  0.11547487986E+04 0.  0.
        3    1    3    3  502    0  0.24435469112E+03  0.45721748412E+02  0.50618832974E+03  0.56393823129E+03  0.10100000352E+00 0.  1.
       -3    1    3    3    0  502 -0.24435469112E+03 -0.45721748412E+02 -0.53639955076E+03  0.59120570160E+03  0.10100000352E+00 0. -1.
</event>
<event>
 5   0  0.3316784E-03  0.1036502E+04  0.7818609E-02  0.9269392E-01
        1   -1    0    0  501    0  0.00000000000E+00  0.00000000000E+00  0.65902484860E+03  0.65902484862E+03  0.50400001928E-02 0. -1.
       -1   -1    0    0    0  501  0.00000000000E+00  0.00000000000E+00 -0.40754748098E+03  0.40754748101E+03  0.50400001928E-02 0.  1.
    10030    2    1    2    0    0  0.00000000000E+00  0.00000000000E+00  0.25147736762E+03  0.10665723296E+04  0.10365016488E+04 0.  0.
        4    1    3    3  502    0  0.27560508608E+03  0.37080588587E+03 -0.11586470904E+03  0.47632070307E+03  0.12699999809E+01 0.  1.
       -4    1    3    3    0  502 -0.27560508608E+03 -0.37080588587E+03  0.36734207666E+03  0.59025162656E+03  0.12699999809E+01 0. -1.
</event>
<event>
 5   0  0.5941585E-03  0.1088767E+04  0.7818609E-02  0.9216210E-01
        2   -1    0    0  501    0  0.00000000000E+00  0.00000000000E+00  0.24180939806E+03  0.24180939808E+03  0.25500000920E-02 0. -1.
       -2   -1    0    0    0  501  0.00000000000E+00  0.00000000000E+00 -0.12255660050E+04  0.12255660050E+04  0.25500000920E-02 0.  1.
    10030    2    1    2    0    0  0.00000000000E+00  0.00000000000E+00 -0.98375660692E+03  0.14673754031E+04  0.10887669686E+04 0.  0.
        5    1    3    3  502    0 -0.10612574261E+03  0.50009240150E+03 -0.23982485752E+03  0.56470623829E+03  0.46999998093E+01 0. -1.
       -5    1    3    3    0  502  0.10612574261E+03 -0.50009240150E+03 -0.74393174940E+03  0.90266916478E+03  0.46999998093E+01 0.  1.
</event>
<event>
 5   0  0.3316784E-03  0.1152404E+04  0.7818609E-02  0.9155568E-01
        1   -1    0    0  501    0  0.00000000000E+00  0.00000000000E+00  0.14963261207E+04  0.14963261207E+04  0.50400001928E-02 0. -1.
       -1   -1    0    0    0  501  0.00000000000E+00  0.00000000000E+00 -0.22188270201E+03  0.22188270207E+03  0.50400001928E-02 0.  1.
    10030    2    1    2    0    0  0.00000000000E+00  0.00000000000E+00  0.12744434186E+04  0.17182088227E+04  0.11524042395E+04 0.  0.
        4    1    3    3  502    0  0.47109996054E+03  0.32401197967E+03  0.53086646558E+03  0.78021775997E+03  0.12699999809E+01 0.  1.
       -4    1    3    3    0  502 -0.47109996054E+03 -0.32401197967E+03  0.74357695306E+03  0.93799106276E+03  0.12699999809E+01 0. -1.
</event>
<event>
 5   0  0.2185750E-03  0.1101328E+04  0.7818609E-02  0.9203898E-01
        3   -1    0    0  501    0  0.00000000000E+00  0.00000000000E+00  0.35883180894E+03  0.35883182315E+03  0.10100000352E+00 0. -1.
       -3   -1    0    0    0  501  0.00000000000E+00  0.00000000000E+00 -0.84505060655E+03  0.84505061259E+03  0.10100000352E+00 0.  1.
    10030    2    1    2    0    0  0.00000000000E+00  0.00000000000E+00 -0.48621879761E+03  0.12038824357E+04  0.11013283797E+04 0.  0.
        3    1    3    3  502    0 -0.21643177446E+02  0.51137093237E+03 -0.21062661384E+02  0.51226194814E+03  0.10100000352E+00 0. -1.
       -3    1    3    3    0  502  0.21643177446E+02 -0.51137093237E+03 -0.46515613623E+03  0.69162048761E+03  0.10100000352E+00 0.  1.
</event>
<event>
 5   0  0.3320192E-03  0.1095970E+04  0.7818609E-02  0.9209129E-01
        1   -1    0    0  501    0  0.00000000000E+00  0.00000000000E+00  0.14262800342E+04  0.14262800342E+04  0.50400001928E-02 0.  1.
       -1   -1    0    0    0  501  0.00000000000E+00  0.00000000000E+00 -0.21053896925E+03  0.21053896931E+03  0.50400001928E-02 0. -1.
    10030    2    1    2    0    0  0.00000000000E+00  0.00000000000E+00  0.12157410650E+04  0.16368190035E+04  0.10959699418E+04 0.  0.
        2    1    3    3  502    0  0.24766291936E+03 -0.48032514635E+03  0.74342767665E+03  0.91909405300E+03  0.25500000920E-02 0.  1.
       -2    1    3    3    0  502 -0.24766291936E+03  0.48032514635E+03  0.47231338833E+03  0.71772495055E+03  0.25500000920E-02 0. -1.
</event>
<event>
 5   0  0.3241189E-03  0.1131573E+04  0.7818609E-02  0.9174953E-01
        1   -1    0    0  501    0  0.00000000000E+00  0.00000000000E+00  0.24306109826E+04  0.24306109826E+04  0.50400001928E-02 0.  1.
       -1   -1    0    0    0  501  0.00000000000E+00  0.00000000000E+00 -0.13170122604E+03  0.13170122614E+03  0.50400001928E-02 0. -1.
    10030    2    1    2    0    0  0.00000000000E+00  0.00000000000E+00  0.22989097565E+04  0.25623122087E+04  0.11315731467E+04 0.  0.
        5    1    3    3  502    0 -0.45427703148E+03  0.14780769002E+03  0.46309121056E+03  0.66534975303E+03  0.46999998093E+01 0. -1.
       -5    1    3    3    0  502  0.45427703148E+03 -0.14780769002E+03  0.18358185460E+04  0.18969624557E+04  0.46999998093E+01 0.  1.
</event>
<event>
 5   0  0.5627232E-03  0.1004480E+04  0.7818609E-02  0.9303645E-01
        2   -1    0    0  501    0  0.00000000000E+00  0.00000000000E+00  0.44283502318E+03  0.44283502319E+03  0.25500000920E-02 0. -1.
       -2   -1    0    0    0  501  0.00000000000E+00  0.00000000000E+00 -0.56961427793E+03  0.56961427793E+03  0.25500000920E-02 0.  1.
    10030    2    1    2    0    0  0.00000000000E+00  0.00000000000E+00 -0.12677925475E+03  0.10124493011E+04  0.10044802676E+04 0.  0.
        2    1    3    3  502    0 -0.33204443102E+03 -0.24846749304E+03 -0.34893124808E+03  0.54198027193E+03  0.25500000920E-02 0.  1.
       -2    1    3    3    0  502  0.33204443102E+03  0.24846749304E+03  0.22215199334E+03  0.47046902918E+03  0.25500000920E-02 0. -1.
</event>
<event>
 5   0  0.5946359E-03  0.1076933E+04  0.7818609E-02  0.9227971E-01
       -2   -1    0    0    0  501  0.00000000000E+00  0.00000000000E+00  0.31013451703E+03  0.31013451704E+03  0.25500000920E-02 0. -1.
        2   -1    0    0  501    0  0.00000000000E+00  0.00000000000E+00 -0.93490447517E+03  0.93490447517E+03  0.25500000920E-02 0.  1.
    10030    2    1    2    0    0  0.00000000000E+00  0.00000000000E+00 -0.62476995814E+03  0.12450389922E+04  0.10769329559E+04 0.  0.
        4    1    3    3  502    0 -0.24572995281E+02 -0.53788112823E+03 -0.30665153154E+03  0.61964240889E+03  0.12699999809E+01 0. -1.
       -4    1    3    3    0  502  0.24572995281E+02  0.53788112823E+03 -0.31811842660E+03  0.62539658333E+03  0.12699999809E+01 0.  1.
</event>
<event>
 5   0  0.5500363E-03  0.1082174E+04  0.7818609E-02  0.9222742E-01
       -2   -1    0    0    0  501  0.00000000000E+00  0.00000000000E+00  0.15890826752E+03  0.15890826754E+03  0.25500000920E-02 0.  1.
        2   -1    0    0  501    0  0.00000000000E+00  0.00000000000E+00 -0.18424168898E+04  0.18424168898E+04  0.25500000920E-02 0. -1.
    10030    2    1    2    0    0  0.00000000000E+00  0.00000000000E+00 -0.16835086223E+04  0.20013251574E+04  0.10821742485E+04 0.  0.
        3    1    3    3  502    0  0.35736282065E+03 -0.20446622525E+03 -0.19247334163E+03  0.45448940613E+03  0.10100000352E+00 0.  1.
       -3    1    3    3    0  502 -0.35736282065E+03  0.20446622525E+03 -0.14910352807E+04  0.15468357512E+04  0.10100000352E+00 0. -1.
</event>
<event>
 5   0  0.3215352E-03  0.1091460E+04  0.7818609E-02  0.9213556E-01
        1   -1    0    0  501    0  0.00000000000E+00  0.00000000000E+00  0.29309441718E+03  0.29309441722E+03  0.50400001928E-02 0.  1.
       -1   -1    0    0    0  501  0.00000000000E+00  0.00000000000E+00 -0.10161270931E+04  0.10161270931E+04  0.50400001928E-02 0. -1.
    10030    2    1    2    0    0  0.00000000000E+00  0.00000000000E+00 -0.72303267591E+03  0.13092215103E+04  0.10914598997E+04 0.  0.
        1    1    3    3  502    0  0.52244946229E+03 -0.13774737809E+03 -0.45360119289E+03  0.70546567814E+03  0.50400001928E-02 0.  1.
       -1    1    3    3    0  502 -0.52244946229E+03  0.13774737809E+03 -0.26943148302E+03  0.60375583218E+03  0.50400001928E-02 0. -1.
</event>
<event>
 5   0  0.3328741E-03  0.1104585E+04  0.7818609E-02  0.9200734E-01
       -1   -1    0    0    0  501  0.00000000000E+00  0.00000000000E+00  0.73883043825E+03  0.73883043827E+03  0.50400001928E-02 0. -1.
        1   -1    0    0  501    0  0.00000000000E+00  0.00000000000E+00 -0.41285125051E+03  0.41285125054E+03  0.50400001928E-02 0.  1.
    10030    2    1    2    0    0  0.00000000000E+00  0.00000000000E+00  0.32597918774E+03  0.11516816888E+04  0.11045851174E+04 0.  0.
        3    1    3    3  502    0  0.18046937034E+03 -0.47890182775E+03  0.37947411481E+03  0.63711597709E+03  0.10100000352E+00 0. -1.
       -3    1    3    3    0  502 -0.18046937034E+03  0.47890182775E+03 -0.53494927071E+02  0.51456571172E+03  0.10100000352E+00 0.  1.
</event>
<event>
 5   0  0.3241189E-03  0.1085356E+04  0.7818609E-02  0.9219584E-01
        1   -1    0    0  501    0  0.00000000000E+00  0.00000000000E+00  0.52970187602E+03  0.52970187605E+03  0.50400001928E-02 0.  1.
       -1   -1    0    0    0  501  0.00000000000E+00  0.00000000000E+00 -0.55597174710E+03  0.55597174712E+03  0.50400001928E-02 0. -1.
    10030    2    1    2    0    0  0.00000000000E+00  0.00000000000E+00 -0.26269871080E+02  0.10856736232E+04  0.10853557527E+04 0.  0.
        5    1    3    3  502    0 -0.65957311930E+02  0.50751843354E+03 -0.19360911642E+03  0.54720371648E+03  0.46999998093E+01 0. -1.
       -5    1    3    3    0  502  0.65957311930E+02 -0.50751843354E+03  0.16733924534E+03  0.53846990668E+03  0.46999998093E+01 0.  1.
</event>
<event>
 5   0  0.3241189E-03  0.1087079E+04  0.7818609E-02  0.9217877E-01
        1   -1    0    0  501    0  0.00000000000E+00  0.00000000000E+00  0.19612935208E+04  0.19612935208E+04  0.50400001928E-02 0. -1.
       -1   -1    0    0    0  501  0.00000000000E+00  0.00000000000E+00 -0.15063293638E+03  0.15063293647E+03  0.50400001928E-02 0.  1.
    10030    2    1    2    0    0  0.00000000000E+00  0.00000000000E+00  0.18106605844E+04  0.21119264572E+04  0.10870793940E+04 0.  0.
        5    1    3    3  502    0 -0.18931119523E+03 -0.41191864008E+03  0.14878245097E+04  0.15553647663E+04  0.46999998093E+01 0.  1.
       -5    1    3    3    0  502  0.18931119523E+03  0.41191864008E+03  0.32283607471E+03  0.55656169093E+03  0.46999998093E+01 0. -1.
</event>
<event>
 5   0  0.5627232E-03  0.1064892E+04  0.7818609E-02  0.9240103E-01
        2   -1    0    0  501    0  0.00000000000E+00  0.00000000000E+00  0.55803030095E+03  0.55803030095E+03  0.25500000920E-02 0. -1.
       -2   -1    0    0    0  501  0.00000000000E+00  0.00000000000E+00 -0.50803463529E+03  0.50803463530E+03  0.25500000920E-02 0.  1.
    10030    2    1    2    0    0  0.00000000000E+00  0.00000000000E+00  0.49995665657E+02  0.10660649363E+04  0.10648919578E+04 0.  0.
        2    1    3    3  502    0  0.38082767905E+03  0.29379214299E+03  0.25362446544E+03  0.54375446103E+03  0.25500000920E-02 0. -1.
       -2    1    3    3    0  502 -0.38082767905E+03 -0.29379214299E+03 -0.20362879978E+03  0.52231047522E+03  0.25500000920E-02 0.  1.
</event>
<event>
 5   0  0.5627232E-03  0.1034083E+04  0.7818609E-02  0.9271933E-01
       -2   -1    0    0    0  501  0.00000000000E+00  0.00000000000E+00  0.47846987680E+03  0.47846987680E+03  0.25500000920E-02 0. -1.
        2   -1    0    0  501    0  0.00000000000E+00  0.00000000000E+00 -0.55872287520E+03  0.55872287520E+03  0.25500000920E-02 0.  1.
    10030    2    1    2    0    0  0.00000000000E+00  0.00000000000E+00 -0.80252998399E+02  0.10371927520E+04  0.10340832950E+04 0.  0.
        2    1    3    3  502    0 -0.35720180975E+03  0.13131674620E+03 -0.39117155137E+03  0.54575855773E+03  0.25500000920E-02 0.  1.
       -2    1    3    3    0  502  0.35720180975E+03 -0.13131674620E+03  0.31091855297E+03  0.49143419428E+03  0.25500000920E-02 0. -1.
</event>
<event>
 5   0  0.3328741E-03  0.1091837E+04  0.7818609E-02  0.9213184E-01
       -1   -1    0    0    0  501  0.00000000000E+00  0.00000000000E+00  0.24188366200E+03  0.24188366205E+03  0.50400001928E-02 0.  1.
        1   -1    0    0  501    0  0.00000000000E+00  0.00000000000E+00 -0.12321098482E+04  0.12321098482E+04  0.50400001928E-02 0. -1.
    10030    2    1    2    0    0  0.00000000000E+00  0.00000000000E+00 -0.99022618616E+03  0.14739935102E+04  0.10918374277E+04 0.  0.
        3    1    3    3  502    0  0.74303410585E+02 -0.74396185122E+02  0.22808443714E+03  0.25115395647E+03  0.10100000352E+00 0.  1.
       -3    1    3    3    0  502 -0.74303410585E+02  0.74396185122E+02 -0.12183106233E+04  0.12228395538E+04  0.10100000352E+00 0. -1.
</event>
<event>
 5   0  0.3215352E-03  0.1084194E+04  0.7818609E-02  0.9220736E-01
       -1   -1    0    0    0  501  0.00000000000E+00  0.00000000000E+00  0.19139838993E+03  0.19139839000E+03  0.50400001928E-02 0.  1.
        1   -1    0    0  501    0  0.00000000000E+00  0.00000000000E+00 -0.15353785090E+04  0.15353785090E+04  0.50400001928E-02 0. -1.
    10030    2    1    2    0    0  0.00000000000E+00  0.00000000000E+00 -0.13439801191E+04  0.17267768990E+04  0.10841936628E+04 0.  0.
        1    1    3    3  502    0  0.14867249255E+03  0.39642341305E+03 -0.13279228543E+03  0.44372156084E+03  0.50400001928E-02 0.  1.
       -1    1    3    3    0  502 -0.14867249255E+03 -0.39642341305E+03 -0.12111878337E+04  0.12830553382E+04  0.50400001928E-02 0. -1.
</event>
<event>
 5   0  0.5500363E-03  0.1096447E+04  0.7818609E-02  0.9208662E-01
        2   -1    0    0  501    0  0.00000000000E+00  0.00000000000E+00  0.15629437041E+04  0.15629437041E+04  0.25500000920E-02 0.  1.
       -2   -1    0    0    0  501  0.00000000000E+00  0.00000000000E+00 -0.19229672495E+03  0.19229672497E+03  0.25500000920E-02 0. -1.
    10030    2    1    2    0    0  0.00000000000E+00  0.00000000000E+00  0.13706469791E+04  0.17552404290E+04  0.10964469081E+04 0.  0.
        3    1    3    3  502    0  0.10119691736E+03 -0.29126197673E+03  0.14109749403E+04  0.14442730516E+04  0.10100000352E+00 0.  1.
       -3    1    3    3    0  502 -0.10119691736E+03  0.29126197673E+03 -0.40327961198E+02  0.31096737744E+03  0.10100000352E+00 0. -1.
</event>
<event>
 5   0  0.5941585E-03  0.1087429E+04  0.7818609E-02  0.9217532E-01
        2   -1    0    0  501    0  0.00000000000E+00  0.00000000000E+00  0.78496219992E+03  0.78496219993E+03  0.25500000920E-02 0. -1.
       -2   -1    0    0    0  501  0.00000000000E+00  0.00000000000E+00 -0.37661117493E+03  0.37661117494E+03  0.25500000920E-02 0.  1.
    10030    2    1    2    0    0  0.00000000000E+00  0.00000000000E+00  0.40835102499E+03  0.11615733749E+04  0.10874291451E+04 0.  0.
        5    1    3    3  502    0 -0.66002553248E+02 -0.12142504446E+03 -0.35751314917E+03  0.38332508434E+03  0.46999998093E+01 0.  1.
       -5    1    3    3    0  502  0.66002553248E+02  0.12142504446E+03  0.76586417416E+03  0.77824829053E+03  0.46999998093E+01 0. -1.
</event>
<event>
 5   0  0.3320192E-03  0.1091616E+04  0.7818609E-02  0.9213403E-01
        1   -1    0    0  501    0  0.00000000000E+00  0.00000000000E+00  0.76297751055E+03  0.76297751056E+03  0.50400001928E-02 0.  1.
       -1   -1    0    0    0  501  0.00000000000E+00  0.00000000000E+00 -0.39045212512E+03  0.39045212515E+03  0.50400001928E-02 0. -1.
    10030    2    1    2    0    0  0.00000000000E+00  0.00000000000E+00  0.37252538543E+03  0.11534296357E+04  0.10916156658E+04 0.  0.
        2    1    3    3  502    0 -0.25919178607E+03 -0.33214828748E+03 -0.18037793166E+03  0.45830019101E+03  0.25500000920E-02 0. -1.
       -2    1    3    3    0  502  0.25919178607E+03  0.33214828748E+03  0.55290331709E+03  0.69512944471E+03  0.25500000920E-02 0.  1.
</event>
<event>
 5   0  0.3320192E-03  0.1093985E+04  0.7818609E-02  0.9211075E-01
        1   -1    0    0  501    0  0.00000000000E+00  0.00000000000E+00  0.50713221851E+03  0.50713221853E+03  0.50400001928E-02 0.  1.
       -1   -1    0    0    0  501  0.00000000000E+00  0.00000000000E+00 -0.58998546611E+03  0.58998546613E+03  0.50400001928E-02 0. -1.
    10030    2    1    2    0    0  0.00000000000E+00  0.00000000000E+00 -0.82853247603E+02  0.10971176847E+04  0.10939847135E+04 0.  0.
        2    1    3    3  502    0 -0.17449760506E+03 -0.43887367986E+03 -0.31815365554E+03  0.56945699537E+03  0.25500000920E-02 0. -1.
       -2    1    3    3    0  502  0.17449760506E+03  0.43887367986E+03  0.23530040793E+03  0.52766068929E+03  0.25500000920E-02 0.  1.
</event>
<event>
 5   0  0.3328741E-03  0.1110761E+04  0.7818609E-02  0.9194766E-01
        1   -1    0    0  501    0  0.00000000000E+00  0.00000000000E+00  0.12035558823E+04  0.12035558823E+04  0.50400001928E-02 0.  1.
       -1   -1    0    0    0  501  0.00000000000E+00  0.00000000000E+00 -0.25628024096E+03  0.25628024101E+03  0.50400001928E-02 0. -1.
    10030    2    1    2    0    0  0.00000000000E+00  0.00000000000E+00  0.94727564134E+03  0.14598361233E+04  0.11107611653E+04 0.  0.
        3    1    3    3  502    0 -0.12042320675E+03 -0.15316845540E+03 -0.20988846075E+03  0.28638348523E+03  0.10100000352E+00 0. -1.
       -3    1    3    3    0  502  0.12042320675E+03  0.15316845540E+03  0.11571641021E+04  0.11734526381E+04  0.10100000352E+00 0.  1.
</event>
<event>
 5   0  0.5500363E-03  0.1103061E+04  0.7818609E-02  0.9202213E-01
        2   -1    0    0  501    0  0.00000000000E+00  0.00000000000E+00  0.10511832424E+04  0.10511832424E+04  0.25500000920E-02 0. -1.
       -2   -1    0    0    0  501  0.00000000000E+00  0.00000000000E+00 -0.28937490933E+03  0.28937490934E+03  0.25500000920E-02 0.  1.
    10030    2    1    2    0    0  0.00000000000E+00  0.00000000000E+00  0.76180833306E+03  0.13405581517E+04  0.11030612956E+04 0.  0.
        3    1    3    3  502    0 -0.24717726312E+03 -0.20831974050E+03  0.92398778817E+03  0.97890099427E+03  0.10100000352E+00 0. -1.
       -3    1    3    3    0  502  0.24717726312E+03  0.20831974050E+03 -0.16217945511E+03  0.36165715747E+03  0.10100000352E+00 0.  1.
</event>
<event>
 5   0  0.3241189E-03  0.1097917E+04  0.7818609E-02  0.9207225E-01
       -1   -1    0    0    0  501  0.00000000000E+00  0.00000000000E+00  0.45834773552E+03  0.45834773554E+03  0.50400001928E-02 0. -1.
        1   -1    0    0  501    0  0.00000000000E+00  0.00000000000E+00 -0.65748179604E+03  0.65748179606E+03  0.50400001928E-02 0.  1.
    10030    2    1    2    0    0  0.00000000000E+00  0.00000000000E+00 -0.19913406052E+03  0.11158295316E+04  0.10979167407E+04 0.  0.
        5    1    3    3  502    0 -0.10542579044E+03  0.53845356142E+03 -0.82368547111E+02  0.55484547637E+03  0.46999998093E+01 0. -1.
       -5    1    3    3    0  502  0.10542579044E+03 -0.53845356142E+03 -0.11676551341E+03  0.56098405523E+03  0.46999998093E+01 0.  1.
</event>
<event>
 5   0  0.3320192E-03  0.1092897E+04  0.7818609E-02  0.9212142E-01
       -1   -1    0    0    0  501  0.00000000000E+00  0.00000000000E+00  0.38100537470E+03  0.38100537474E+03  0.50400001928E-02 0. -1.
        1   -1    0    0  501    0  0.00000000000E+00  0.00000000000E+00 -0.78373195987E+03  0.78373195989E+03  0.50400001928E-02 0.  1.
    10030    2    1    2    0    0  0.00000000000E+00  0.00000000000E+00 -0.40272658517E+03  0.11647373346E+04  0.10928972304E+04 0.  0.
        2    1    3    3  502    0  0.25486368481E+02 -0.50207529117E+03 -0.42963173423E+03  0.66129613643E+03  0.25500000920E-02 0.  1.
       -2    1    3    3    0  502 -0.25486368481E+02  0.50207529117E+03  0.26905149067E+02  0.50344119819E+03  0.25500000920E-02 0. -1.
</event>
<event>
 5   0  0.5500363E-03  0.1088897E+04  0.7818609E-02  0.9216082E-01
       -2   -1    0    0    0  501  0.00000000000E+00  0.00000000000E+00  0.56296349392E+03  0.56296349393E+03  0.25500000920E-02 0.  1.
        2   -1    0    0  501    0  0.00000000000E+00  0.00000000000E+00 -0.52654252119E+03  0.52654252119E+03  0.25500000920E-02 0. -1.
    10030    2    1    2    0    0  0.00000000000E+00  0.00000000000E+00  0.36420972735E+02  0.10895060151E+04  0.10888970887E+04 0.  0.
        3    1    3    3  502    0  0.49147793974E+03  0.40606437009E+02  0.24904441790E+03  0.55246952882E+03  0.10100000352E+00 0.  1.
       -3    1    3    3    0  502 -0.49147793974E+03 -0.40606437009E+02 -0.21262344517E+03  0.53703648630E+03  0.10100000352E+00 0. -1.
</event>
<event>
 5   0  0.5941585E-03  0.1088126E+04  0.7818609E-02  0.9216843E-01
       -2   -1    0    0    0  501  0.00000000000E+00  0.00000000000E+00  0.22340449976E+03  0.22340449977E+03  0.25500000920E-02 0.  1.
        2   -1    0    0  501    0  0.00000000000E+00  0.00000000000E+00 -0.13249702672E+04  0.13249702672E+04  0.25500000920E-02 0. -1.
    10030    2    1    2    0    0  0.00000000000E+00  0.00000000000E+00 -0.11015657675E+04  0.15483747670E+04  0.10881255805E+04 0.  0.
        5    1    3    3  502    0 -0.25209041630E+03  0.34856414493E+03 -0.10247330794E+04  0.11113714568E+04  0.46999998093E+01 0. -1.
       -5    1    3    3    0  502  0.25209041630E+03 -0.34856414493E+03 -0.76832688072E+02  0.43700331014E+03  0.46999998093E+01 0.  1.
</event>
<event>
 5   0  0.5941585E-03  0.1107166E+04  0.7818609E-02  0.9198236E-01
       -2   -1    0    0    0  501  0.00000000000E+00  0.00000000000E+00  0.30559044623E+03  0.30559044624E+03  0.25500000920E-02 0. -1.
        2   -1    0    0  501    0  0.00000000000E+00  0.00000000000E+00 -0.10028259008E+04  0.10028259008E+04  0.25500000920E-02 0.  1.
    10030    2    1    2    0    0  0.00000000000E+00  0.00000000000E+00 -0.69723545459E+03  0.13084163471E+04  0.11071657772E+04 0.  0.
        5    1    3    3  502    0  0.71346516487E+02  0.48543578838E+03 -0.45720602045E+02  0.49279883675E+03  0.46999998093E+01 0. -1.
       -5    1    3    3    0  502 -0.71346516487E+02 -0.48543578838E+03 -0.65151485255E+03  0.81561751032E+03  0.46999998093E+01 0.  1.
</event>
<event>
 5   0  0.5941585E-03  0.1072807E+04  0.7818609E-02  0.9232109E-01
        2   -1    0    0  501    0  0.00000000000E+00  0.00000000000E+00  0.99843136637E+03  0.99843136637E+03  0.25500000920E-02 0. -1.
       -2   -1    0    0    0  501  0.00000000000E+00  0.00000000000E+00 -0.28818071373E+03  0.28818071374E+03  0.25500000920E-02 0.  1.
    10030    2    1    2    0    0  0.00000000000E+00  0.00000000000E+00  0.71025065264E+03  0.12866120801E+04  0.10728069049E+04 0.  0.
        5    1    3    3  502    0  0.77268371853E+02 -0.42792910931E+03  0.73173616933E+03  0.85120716362E+03  0.46999998093E+01 0. -1.
       -5    1    3    3    0  502 -0.77268371853E+02  0.42792910931E+03 -0.21485516695E+02  0.43540491650E+03  0.46999998093E+01 0.  1.
</event>
<event>
 5   0  0.5627232E-03  0.1092753E+04  0.7818609E-02  0.9212284E-01
       -2   -1    0    0    0  501  0.00000000000E+00  0.00000000000E+00  0.20690013614E+03  0.20690013615E+03  0.25500000920E-02 0.  1.
        2   -1    0    0  501    0  0.00000000000E+00  0.00000000000E+00 -0.14428565688E+04  0.14428565688E+04  0.25500000920E-02 0. -1.
    10030    2    1    2    0    0  0.00000000000E+00  0.00000000000E+00 -0.12359564327E+04  0.16497567050E+04  0.10927528916E+04 0.  0.
        2    1    3    3  502    0  0.73439973638E+02  0.59628587502E+02 -0.14303987408E+04  0.14335234759E+04  0.25500000920E-02 0. -1.
       -2    1    3    3    0  502 -0.73439973638E+02 -0.59628587502E+02  0.19444230812E+03  0.21623322911E+03  0.25500000920E-02 0.  1.
</event>
<event>
 5   0  0.5946359E-03  0.9466475E+03  0.7818609E-02  0.9369078E-01
       -2   -1    0    0    0  501  0.00000000000E+00  0.00000000000E+00  0.41755322836E+03  0.41755322836E+03  0.25500000920E-02 0.  1.
        2   -1    0    0  501    0  0.00000000000E+00  0.00000000000E+00 -0.53654330384E+03  0.53654330384E+03  0.25500000920E-02 0. -1.
    10030    2    1    2    0    0  0.00000000000E+00  0.00000000000E+00 -0.11899007548E+03  0.95409653221E+03  0.94664753457E+03 0.  0.
        4    1    3    3  502    0  0.94532570477E+01  0.33006463479E+03  0.28229250600E+03  0.43442225893E+03  0.12699999809E+01 0.  1.
       -4    1    3    3    0  502 -0.94532570477E+01 -0.33006463479E+03 -0.40128258148E+03  0.51967427328E+03  0.12699999809E+01 0. -1.
</event>
<event>
 5   0  0.5500363E-03  0.1067164E+04  0.7818609E-02  0.9237800E-01
        2   -1    0    0  501    0  0.00000000000E+00  0.00000000000E+00  0.22482860623E+04  0.22482860623E+04  0.25500000920E-02 0. -1.
       -2   -1    0    0    0  501  0.00000000000E+00  0.00000000000E+00 -0.12663420381E+03  0.12663420384E+03  0.25500000920E-02 0.  1.
    10030    2    1    2    0    0  0.00000000000E+00  0.00000000000E+00  0.21216518585E+04  0.23749202662E+04  0.10671643088E+04 0.  0.
        3    1    3    3  502    0 -0.45186505717E+03  0.17058463874E+03  0.15655113430E+04  0.16383244258E+04  0.10100000352E+00 0. -1.
       -3    1    3    3    0  502  0.45186505717E+03 -0.17058463874E+03  0.55614051550E+03  0.73659584037E+03  0.10100000352E+00 0.  1.
</event>
<event>
 5   0  0.5941585E-03  0.1100546E+04  0.7818609E-02  0.9204660E-01
        2   -1    0    0  501    0  0.00000000000E+00  0.00000000000E+00  0.92042208774E+03  0.92042208775E+03  0.25500000920E-02 0. -1.
       -2   -1    0    0    0  501  0.00000000000E+00  0.00000000000E+00 -0.32897992791E+03  0.32897992792E+03  0.25500000920E-02 0.  1.
    10030    2    1    2    0    0  0.00000000000E+00  0.00000000000E+00  0.59144215983E+03  0.12494020157E+04  0.11005460319E+04 0.  0.
        5    1    3    3  502    0 -0.22232512725E+03 -0.42412171485E+03 -0.11995442285E+02  0.47903410301E+03  0.46999998093E+01 0.  1.
       -5    1    3    3    0  502  0.22232512725E+03  0.42412171485E+03  0.60343760211E+03  0.77036791266E+03  0.46999998093E+01 0. -1.
</event>
<event>
 5   0  0.5723194E-03  0.1144411E+04  0.7818609E-02  0.9162955E-01
       -2   -1    0    0    0  501  0.00000000000E+00  0.00000000000E+00  0.23467132382E+03  0.23467132384E+03  0.25500000920E-02 0.  1.
        2   -1    0    0  501    0  0.00000000000E+00  0.00000000000E+00 -0.13952246042E+04  0.13952246042E+04  0.25500000920E-02 0. -1.
    10030    2    1    2    0    0  0.00000000000E+00  0.00000000000E+00 -0.11605532804E+04  0.16298959281E+04  0.11444111235E+04 0.  0.
        1    1    3    3  502    0 -0.84628258016E+02 -0.13301578314E+03  0.20312860859E+03  0.25713104105E+03  0.50400001928E-02 0.  1.
       -1    1    3    3    0  502  0.84628258016E+02  0.13301578314E+03 -0.13636818890E+04  0.13727648870E+04  0.50400001928E-02 0. -1.
</event>
<event>
 5   0  0.2185750E-03  0.1135587E+04  0.7818609E-02  0.9171184E-01
       -3   -1    0    0    0  501  0.00000000000E+00  0.00000000000E+00  0.56381974606E+03  0.56381975510E+03  0.10100000352E+00 0.  1.
        3   -1    0    0  501    0  0.00000000000E+00  0.00000000000E+00 -0.57179538639E+03  0.57179539531E+03  0.10100000352E+00 0. -1.
    10030    2    1    2    0    0  0.00000000000E+00  0.00000000000E+00 -0.79756403359E+01  0.11356151504E+04  0.11355871429E+04 0.  0.
        4    1    3    3  502    0 -0.47222550894E+02 -0.56573037478E+03 -0.14337017328E+02  0.56788025958E+03  0.12699999809E+01 0. -1.
       -4    1    3    3    0  502  0.47222550894E+02  0.56573037478E+03  0.63613769924E+01  0.56773489084E+03  0.12699999809E+01 0.  1.
</event>
<event>
 5   0  0.5723194E-03  0.9909171E+03  0.7818609E-02  0.9318563E-01
       -2   -1    0    0    0  501  0.00000000000E+00  0.00000000000E+00  0.27848952890E+03  0.27848952891E+03  0.25500000920E-02 0.  1.
        2   -1    0    0  501    0  0.00000000000E+00  0.00000000000E+00 -0.88146635779E+03  0.88146635779E+03  0.25500000920E-02 0. -1.
    10030    2    1    2    0    0  0.00000000000E+00  0.00000000000E+00 -0.60297682889E+03  0.11599558867E+04  0.99091705148E+03 0.  0.
        1    1    3    3  502    0  0.39843880067E+02 -0.95724590379E+02  0.26564731430E+03  0.28516526367E+03  0.50400001928E-02 0.  1.
       -1    1    3    3    0  502 -0.39843880067E+02  0.95724590379E+02 -0.86862414320E+03  0.87479062304E+03  0.50400001928E-02 0. -1.
</event>
<event>
 5   0  0.3320192E-03  0.1086325E+04  0.7818609E-02  0.9218624E-01
       -1   -1    0    0    0  501  0.00000000000E+00  0.00000000000E+00  0.72666242865E+03  0.72666242866E+03  0.50400001928E-02 0.  1.
        1   -1    0    0  501    0  0.00000000000E+00  0.00000000000E+00 -0.40600068274E+03  0.40600068277E+03  0.50400001928E-02 0. -1.
    10030    2    1    2    0    0  0.00000000000E+00  0.00000000000E+00  0.32066174591E+03  0.11326631114E+04  0.10863248910E+04 0.  0.
        2    1    3    3  502    0  0.20149905573E+02 -0.37113877817E+03 -0.25263911568E+03  0.44941799490E+03  0.25500000920E-02 0. -1.
       -2    1    3    3    0  502 -0.20149905573E+02  0.37113877817E+03  0.57330086159E+03  0.68324511653E+03  0.25500000920E-02 0.  1.
</event>
<event>
 5   0  0.5500363E-03  0.1120726E+04  0.7818609E-02  0.9185223E-01
       -2   -1    0    0    0  501  0.00000000000E+00  0.00000000000E+00  0.13552233490E+03  0.13552233492E+03  0.25500000920E-02 0.  1.
        2   -1    0    0  501    0  0.00000000000E+00  0.00000000000E+00 -0.23170090046E+04  0.23170090046E+04  0.25500000920E-02 0. -1.
    10030    2    1    2    0    0  0.00000000000E+00  0.00000000000E+00 -0.21814866697E+04  0.24525313395E+04  0.11207256048E+04 0.  0.
        3    1    3    3  502    0 -0.25760482331E+03 -0.79066193163E+02 -0.15568270089E+02  0.26991496648E+03  0.10100000352E+00 0.  1.
       -3    1    3    3    0  502  0.25760482331E+03  0.79066193163E+02 -0.21659183996E+04  0.21826163731E+04  0.10100000352E+00 0. -1.
</event>
<event>
 5   0  0.3316784E-03  0.1092172E+04  0.7818609E-02  0.9212856E-01
        1   -1    0    0  501    0  0.00000000000E+00  0.00000000000E+00  0.74661696182E+03  0.74661696184E+03  0.50400001928E-02 0.  1.
       -1   -1    0    0    0  501  0.00000000000E+00  0.00000000000E+00 -0.39941452602E+03  0.39941452605E+03  0.50400001928E-02 0. -1.
    10030    2    1    2    0    0  0.00000000000E+00  0.00000000000E+00  0.34720243580E+03  0.11460314879E+04  0.10921715249E+04 0.  0.
        4    1    3    3  502    0 -0.10615303026E+03 -0.19074804486E+03  0.69884030009E+03  0.73214251371E+03  0.12699999809E+01 0.  1.
       -4    1    3    3    0  502  0.10615303026E+03  0.19074804486E+03 -0.35163786429E+03  0.41388897418E+03  0.12699999809E+01 0. -1.
</event>
<event>
 5   0  0.3215352E-03  0.1106048E+04  0.7818609E-02  0.9199317E-01
        1   -1    0    0  501    0  0.00000000000E+00  0.00000000000E+00  0.18505085418E+04  0.18505085418E+04  0.50400001928E-02 0.  1.
       -1   -1    0    0    0  501  0.00000000000E+00  0.00000000000E+00 -0.16527112332E+03  0.16527112340E+03  0.50400001928E-02 0. -1.
    10030    2    1    2    0    0  0.00000000000E+00  0.00000000000E+00  0.16852374184E+04  0.20157796652E+04  0.11060481463E+04 0.  0.
        1    1    3    3  502    0 -0.22232670568E+03  0.31354881953E+03  0.15672651626E+04  0.16137106668E+04  0.50400001928E-02 0.  1.
       -1    1    3    3    0  502  0.22232670568E+03 -0.31354881953E+03  0.11797225589E+03  0.40206899840E+03  0.50400001928E-02 0. -1.
</event>
<event>
 5   0  0.3241189E-03  0.1099908E+04  0.7818609E-02  0.9205282E-01
        1   -1    0    0  501    0  0.00000000000E+00  0.00000000000E+00  0.12280572161E+04  0.12280572161E+04  0.50400001928E-02 0. -1.
       -1   -1    0    0    0  501  0.00000000000E+00  0.00000000000E+00 -0.24628283805E+03  0.24628283810E+03  0.50400001928E-02 0.  1.
    10030    2    1    2    0    0  0.00000000000E+00  0.00000000000E+00  0.98177437806E+03  0.14743400542E+04  0.10999080262E+04 0.  0.
        5    1    3    3  502    0  0.15568282879E+03  0.43063143318E+03  0.82670601208E+02  0.46533546257E+03  0.46999998093E+01 0.  1.
       -5    1    3    3    0  502 -0.15568282879E+03 -0.43063143318E+03  0.89910377685E+03  0.10090045916E+04  0.46999998093E+01 0. -1.
</event>
<event>
 5   0  0.5946359E-03  0.1095137E+04  0.7818609E-02  0.9209944E-01
        2   -1    0    0  501    0  0.00000000000E+00  0.00000000000E+00  0.12346178120E+04  0.12346178120E+04  0.25500000920E-02 0.  1.
       -2   -1    0    0    0  501  0.00000000000E+00  0.00000000000E+00 -0.24285365825E+03  0.24285365826E+03  0.25500000920E-02 0. -1.
    10030    2    1    2    0    0  0.00000000000E+00  0.00000000000E+00  0.99176415376E+03  0.14774714703E+04  0.10951373470E+04 0.  0.
        4    1    3    3  502    0 -0.32738802929E+03 -0.12380751899E+03 -0.72221704396E+02  0.35739167725E+03  0.12699999809E+01 0. -1.
       -4    1    3    3    0  502  0.32738802929E+03  0.12380751899E+03  0.10639858582E+04  0.11200797930E+04  0.12699999809E+01 0.  1.
</event>
<event>
 5   0  0.3320192E-03  0.1088238E+04  0.7818609E-02  0.9216732E-01
        1   -1    0    0  501    0  0.00000000000E+00  0.00000000000E+00  0.12256146051E+04  0.12256146051E+04  0.50400001928E-02 0. -1.
       -1   -1    0    0    0  501  0.00000000000E+00  0.00000000000E+00 -0.24156490846E+03  0.24156490852E+03  0.50400001928E-02 0.  1.
    10030    2    1    2    0    0  0.00000000000E+00  0.00000000000E+00  0.98404969660E+03  0.14671795136E+04  0.10882379885E+04 0.  0.
        2    1    3    3  502    0  0.12631821017E+03 -0.46955961398E+03  0.16282006762E+03  0.51278932880E+03  0.25500000920E-02 0. -1.
       -2    1    3    3    0  502 -0.12631821017E+03  0.46955961398E+03  0.82122962899E+03  0.95439018479E+03  0.25500000920E-02 0.  1.
</event>
<event>
 5   0  0.5627232E-03  0.1084004E+04  0.7818609E-02  0.9220924E-01
        2   -1    0    0  501    0  0.00000000000E+00  0.00000000000E+00  0.10141006159E+04  0.10141006159E+04  0.25500000920E-02 0.  1.
       -2   -1    0    0    0  501  0.00000000000E+00  0.00000000000E+00 -0.28968144533E+03  0.28968144534E+03  0.25500000920E-02 0. -1.
    10030    2    1    2    0    0  0.00000000000E+00  0.00000000000E+00  0.72441917053E+03  0.13037820612E+04  0.10840039338E+04 0.  0.
        2    1    3    3  502    0 -0.17140726344E+03 -0.23640982097E+03  0.91140017707E+03  0.95703727001E+03  0.25500000920E-02 0.  1.
       -2    1    3    3    0  502  0.17140726344E+03  0.23640982097E+03 -0.18698100654E+03  0.34674479120E+03  0.25500000920E-02 0. -1.
</event>
<event>
 5   0  0.5723194E-03  0.1102189E+04  0.7818609E-02  0.9203061E-01
        2   -1    0    0  501    0  0.00000000000E+00  0.00000000000E+00  0.58979586288E+03  0.58979586289E+03  0.25500000920E-02 0.  1.
       -2   -1    0    0    0  501  0.00000000000E+00  0.00000000000E+00 -0.51493257485E+03  0.51493257486E+03  0.25500000920E-02 0. -1.
    10030    2    1    2    0    0  0.00000000000E+00  0.00000000000E+00  0.74863288034E+02  0.11047284377E+04  0.11021889172E+04 0.  0.
        1    1    3    3  502    0  0.53743097576E+02  0.47381804220E+03  0.31431665967E+03  0.57112767419E+03  0.50400001928E-02 0.  1.
       -1    1    3    3    0  502 -0.53743097576E+02 -0.47381804220E+03 -0.23945337163E+03  0.53360076355E+03  0.50400001928E-02 0. -1.
</event>
<event>
 5   0  0.5941585E-03  0.1105898E+04  0.7818609E-02  0.9199462E-01
        2   -1    0    0  501    0  0.00000000000E+00  0.00000000000E+00  0.16380755239E+04  0.16380755239E+04  0.25500000920E-02 0.  1.
       -2   -1    0    0    0  501  0.00000000000E+00  0.00000000000E+00 -0.18665364777E+03  0.18665364779E+03  0.25500000920E-02 0. -1.
    10030    2    1    2    0    0  0.00000000000E+00  0.00000000000E+00  0.14514218762E+04  0.18247291717E+04  0.11058983170E+04 0.  0.
        5    1    3    3  502    0 -0.34922471211E+03  0.39456953568E+03  0.44918171886E+03  0.69240835104E+03  0.46999998093E+01 0.  1.
       -5    1    3    3    0  502  0.34922471211E+03 -0.39456953568E+03  0.10022401573E+04  0.11323208207E+04  0.46999998093E+01 0. -1.
</event>
<event>
 5   0  0.3320192E-03  0.1094826E+04  0.7818609E-02  0.9210250E-01
       -1   -1    0    0    0  501  0.00000000000E+00  0.00000000000E+00  0.14116921459E+04  0.14116921459E+04  0.50400001928E-02 0.  1.
        1   -1    0    0  501    0  0.00000000000E+00  0.00000000000E+00 -0.21227071012E+03  0.21227071018E+03  0.50400001928E-02 0. -1.
    10030    2    1    2    0    0  0.00000000000E+00  0.00000000000E+00  0.11994214358E+04  0.16239628561E+04  0.10948258205E+04 0.  0.
        2    1    3    3  502    0  0.31271579102E+03 -0.78666590433E+02 -0.56443187813E+02  0.32736131699E+03  0.25500000920E-02 0. -1.
       -2    1    3    3    0  502 -0.31271579102E+03  0.78666590433E+02  0.12558646236E+04  0.12966015391E+04  0.25500000920E-02 0.  1.
</event>
<event>
 5   0  0.3316784E-03  0.1089847E+04  0.7818609E-02  0.9215145E-01
        1   -1    0    0  501    0  0.00000000000E+00  0.00000000000E+00  0.10198114953E+04  0.10198114953E+04  0.50400001928E-02 0. -1.
       -1   -1    0    0    0  501  0.00000000000E+00  0.00000000000E+00 -0.29117279611E+03  0.29117279615E+03  0.50400001928E-02 0.  1.
    10030    2    1    2    0    0  0.00000000000E+00  0.00000000000E+00  0.72863869921E+03  0.13109842915E+04  0.10898465298E+04 0.  0.
        4    1    3    3  502    0  0.19683452089E+03  0.10966196136E+03 -0.23250957354E+03  0.32377753021E+03  0.12699999809E+01 0.  1.
       -4    1    3    3    0  502 -0.19683452089E+03 -0.10966196136E+03  0.96114827275E+03  0.98720676127E+03  0.12699999809E+01 0. -1.
</event>
<event>
 5   0  0.5946359E-03  0.1113132E+04  0.7818609E-02  0.9192487E-01
       -2   -1    0    0    0  501  0.00000000000E+00  0.00000000000E+00  0.95610044006E+03  0.95610044007E+03  0.25500000920E-02 0. -1.
        2   -1    0    0  501    0  0.00000000000E+00  0.00000000000E+00 -0.32398841346E+03  0.32398841347E+03  0.25500000920E-02 0.  1.
    10030    2    1    2    0    0  0.00000000000E+00  0.00000000000E+00  0.63211202660E+03  0.12800888535E+04  0.11131315550E+04 0.  0.
        4    1    3    3  502    0 -0.22249434650E+03  0.14005293050E+03 -0.24807802991E+03  0.36147320701E+03  0.12699999809E+01 0.  1.
       -4    1    3    3    0  502  0.22249434650E+03 -0.14005293050E+03  0.88019005651E+03  0.91861564653E+03  0.12699999809E+01 0. -1.
</event>
<event>
 5   0  0.5500363E-03  0.1106772E+04  0.7818609E-02  0.9198616E-01
        2   -1    0    0  501    0  0.00000000000E+00  0.00000000000E+00  0.38389282793E+03  0.38389282793E+03  0.25500000920E-02 0.  1.
       -2   -1    0    0    0  501  0.00000000000E+00  0.00000000000E+00 -0.79771264695E+03  0.79771264695E+03  0.25500000920E-02 0. -1.
    10030    2    1    2    0    0  0.00000000000E+00  0.00000000000E+00 -0.41381981902E+03  0.11816054749E+04  0.11067721788E+04 0.  0.
        3    1    3    3  502    0 -0.13883476123E+03  0.15863625122E+03 -0.75316492140E+03  0.78211121981E+03  0.10100000352E+00 0. -1.
       -3    1    3    3    0  502  0.13883476123E+03 -0.15863625122E+03  0.33934510238E+03  0.39949425507E+03  0.10100000352E+00 0.  1.
</event>
<event>
 5   0  0.3215352E-03  0.1064338E+04  0.7818609E-02  0.9240665E-01
       -1   -1    0    0    0  501  0.00000000000E+00  0.00000000000E+00  0.92425279603E+03  0.92425279604E+03  0.50400001928E-02 0. -1.
        1   -1    0    0  501    0  0.00000000000E+00  0.00000000000E+00 -0.30641362016E+03  0.30641362020E+03  0.50400001928E-02 0.  1.
    10030    2    1    2    0    0  0.00000000000E+00  0.00000000000E+00  0.61783917587E+03  0.12306664162E+04  0.10643376254E+04 0.  0.
        1    1    3    3  502    0 -0.15419824349E+02 -0.43472548081E+03 -0.45549037192E+02  0.43737710212E+03  0.50400001928E-02 0.  1.
       -1    1    3    3    0  502  0.15419824349E+02  0.43472548081E+03  0.66338821306E+03  0.79328931412E+03  0.50400001928E-02 0. -1.
</event>
<event>
 5   0  0.3328741E-03  0.1103099E+04  0.7818609E-02  0.9202177E-01
        1   -1    0    0  501    0  0.00000000000E+00  0.00000000000E+00  0.18412801736E+04  0.18412801736E+04  0.50400001928E-02 0. -1.
       -1   -1    0    0    0  501  0.00000000000E+00  0.00000000000E+00 -0.16521481158E+03  0.16521481165E+03  0.50400001928E-02 0.  1.
    10030    2    1    2    0    0  0.00000000000E+00  0.00000000000E+00  0.16760653620E+04  0.20064949852E+04  0.11030988297E+04 0.  0.
        3    1    3    3  502    0 -0.30070962197E+03  0.32615919564E+03  0.14341436427E+04  0.15011908925E+04  0.10100000352E+00 0. -1.
       -3    1    3    3    0  502  0.30070962197E+03 -0.32615919564E+03  0.24192171927E+03  0.50530409270E+03  0.10100000352E+00 0.  1.
</event>
<event>
 5   0  0.3320192E-03  0.1102770E+04  0.7818609E-02  0.9202496E-01
        1   -1    0    0  501    0  0.00000000000E+00  0.00000000000E+00  0.28281903046E+03  0.28281903051E+03  0.50400001928E-02 0. -1.
       -1   -1    0    0    0  501  0.00000000000E+00  0.00000000000E+00 -0.10749821064E+04  0.10749821064E+04  0.50400001928E-02 0.  1.
    10030    2    1    2    0    0  0.00000000000E+00  0.00000000000E+00 -0.79216307589E+03  0.13578011369E+04  0.11027699617E+04 0.  0.
        2    1    3    3  502    0 -0.39566072656E+03  0.85189286220E+02 -0.85714150737E+03  0.94789038854E+03  0.25500000920E-02 0.  1.
       -2    1    3    3    0  502  0.39566072656E+03 -0.85189286220E+02  0.64978431481E+02  0.40991074832E+03  0.25500000920E-02 0. -1.
</event>
<event>
 5   0  0.3320192E-03  0.1082226E+04  0.7818609E-02  0.9222691E-01
       -1   -1    0    0    0  501  0.00000000000E+00  0.00000000000E+00  0.25713269243E+03  0.25713269248E+03  0.50400001928E-02 0.  1.
        1   -1    0    0  501    0  0.00000000000E+00  0.00000000000E+00 -0.11387239252E+04  0.11387239252E+04  0.50400001928E-02 0. -1.
    10030    2    1    2    0    0  0.00000000000E+00  0.00000000000E+00 -0.88159123279E+03  0.13958566177E+04  0.10822257599E+04 0.  0.
        2    1    3    3  502    0  0.40770510516E+03 -0.16715413649E+03 -0.35709188204E+02  0.44208495139E+03  0.25500000920E-02 0.  1.
       -2    1    3    3    0  502 -0.40770510516E+03  0.16715413649E+03 -0.84588204458E+03  0.95377166632E+03  0.25500000920E-02 0. -1.
</event>
<event>
 5   0  0.5941585E-03  0.1098161E+04  0.7818609E-02  0.9206986E-01
       -2   -1    0    0    0  501  0.00000000000E+00  0.00000000000E+00  0.47131907573E+03  0.47131907574E+03  0.25500000920E-02 0. -1.
        2   -1    0    0  501    0  0.00000000000E+00  0.00000000000E+00 -0.63967168929E+03  0.63967168929E+03  0.25500000920E-02 0.  1.
    10030    2    1    2    0    0  0.00000000000E+00  0.00000000000E+00 -0.16835261356E+03  0.11109907650E+04  0.10981611346E+04 0.  0.
        5    1    3    3  502    0  0.11080104792E+03 -0.22438622001E+03 -0.57859982577E+03  0.63041723988E+03  0.46999998093E+01 0.  1.
       -5    1    3    3    0  502 -0.11080104792E+03  0.22438622001E+03  0.41024721221E+03  0.48057352516E+03  0.46999998093E+01 0. -1.
</event>
<event>
 5   0  0.3241189E-03  0.1139961E+04  0.7818609E-02  0.9167095E-01
        1   -1    0    0  501    0  0.00000000000E+00  0.00000000000E+00  0.57947643541E+03  0.57947643544E+03  0.50400001928E-02 0. -1.
       -1   -1    0    0    0  501  0.00000000000E+00  0.00000000000E+00 -0.56064041186E+03  0.56064041188E+03  0.50400001928E-02 0.  1.
    10030    2    1    2    0    0  0.00000000000E+00  0.00000000000E+00  0.18836023555E+02  0.11401168473E+04  0.11399612405E+04 0.  0.
        5    1    3    3  502    0 -0.15970413539E+03 -0.31989117536E+03 -0.43451197526E+03  0.56272419672E+03  0.46999998093E+01 0.  1.
       -5    1    3    3    0  502  0.15970413539E+03  0.31989117536E+03  0.45334799882E+03  0.57739265059E+03  0.46999998093E+01 0. -1.
</event>
<event>
 5   0  0.3328741E-03  0.1072577E+04  0.7818609E-02  0.9232340E-01
        1   -1    0    0  501    0  0.00000000000E+00  0.00000000000E+00  0.23901251081E+04  0.23901251081E+04  0.50400001928E-02 0. -1.
       -1   -1    0    0    0  501  0.00000000000E+00  0.00000000000E+00 -0.12033077716E+03  0.12033077726E+03  0.50400001928E-02 0.  1.
    10030    2    1    2    0    0  0.00000000000E+00  0.00000000000E+00  0.22697943309E+04  0.25104558853E+04  0.10725774786E+04 0.  0.
        3    1    3    3  502    0  0.37495770151E+02  0.34116595818E+03  0.20993916382E+04  0.21272624203E+04  0.10100000352E+00 0. -1.
       -3    1    3    3    0  502 -0.37495770151E+02 -0.34116595818E+03  0.17040269267E+03  0.38319346506E+03  0.10100000352E+00 0.  1.
</event>
<event>
 5   0  0.3241189E-03  0.1124786E+04  0.7818609E-02  0.9181365E-01
        1   -1    0    0  501    0  0.00000000000E+00  0.00000000000E+00  0.14902034924E+04  0.14902034924E+04  0.50400001928E-02 0. -1.
       -1   -1    0    0    0  501  0.00000000000E+00  0.00000000000E+00 -0.21224334322E+03  0.21224334328E+03  0.50400001928E-02 0.  1.
    10030    2    1    2    0    0  0.00000000000E+00  0.00000000000E+00  0.12779601492E+04  0.17024468357E+04  0.11247857954E+04 0.  0.
        5    1    3    3  502    0  0.12831075922E+03  0.40704291621E+03  0.11932791894E+04  0.12673140496E+04  0.46999998093E+01 0. -1.
       -5    1    3    3    0  502 -0.12831075922E+03 -0.40704291621E+03  0.84680959816E+02  0.43513278608E+03  0.46999998093E+01 0.  1.
</event>
<event>
 5   0  0.3215352E-03  0.1117678E+04  0.7818609E-02  0.9188131E-01
       -1   -1    0    0    0  501  0.00000000000E+00  0.00000000000E+00  0.37018530458E+03  0.37018530462E+03  0.50400001928E-02 0.  1.
        1   -1    0    0  501    0  0.00000000000E+00  0.00000000000E+00 -0.84363466843E+03  0.84363466844E+03  0.50400001928E-02 0. -1.
    10030    2    1    2    0    0  0.00000000000E+00  0.00000000000E+00 -0.47344936385E+03  0.12138199731E+04  0.11176782305E+04 0.  0.
        1    1    3    3  502    0 -0.15495697174E+03 -0.21741054842E+03  0.29644563468E+03  0.39894739503E+03  0.50400001928E-02 0.  1.
       -1    1    3    3    0  502  0.15495697174E+03  0.21741054842E+03 -0.76989499853E+03  0.81487257804E+03  0.50400001928E-02 0. -1.
</event>
<event>
 5   0  0.5627232E-03  0.1098554E+04  0.7818609E-02  0.9206603E-01
       -2   -1    0    0    0  501  0.00000000000E+00  0.00000000000E+00  0.11963142143E+03  0.11963142146E+03  0.25500000920E-02 0. -1.
        2   -1    0    0  501    0  0.00000000000E+00  0.00000000000E+00 -0.25219542710E+04  0.25219542710E+04  0.25500000920E-02 0.  1.
    10030    2    1    2    0    0  0.00000000000E+00  0.00000000000E+00 -0.24023228495E+04  0.26415856924E+04  0.10985535476E+04 0.  0.
        2    1    3    3  502    0 -0.54719609906E+03 -0.23516510724E+02 -0.13011298222E+04  0.14117065599E+04  0.25500000920E-02 0. -1.
       -2    1    3    3    0  502  0.54719609906E+03  0.23516510724E+02 -0.11011930273E+04  0.12298791325E+04  0.25500000920E-02 0.  1.
</event>
<event>
 5   0  0.5723194E-03  0.1125138E+04  0.7818609E-02  0.9181031E-01
        2   -1    0    0  501    0  0.00000000000E+00  0.00000000000E+00  0.11006395895E+04  0.11006395895E+04  0.25500000920E-02 0.  1.
       -2   -1    0    0    0  501  0.00000000000E+00  0.00000000000E+00 -0.28754540044E+03  0.28754540045E+03  0.25500000920E-02 0. -1.
    10030    2    1    2    0    0  0.00000000000E+00  0.00000000000E+00  0.81309418903E+03  0.13881849899E+04  0.11251379498E+04 0.  0.
        1    1    3    3  502    0  0.52382114508E+03  0.68418290390E+02  0.64519618590E+03  0.83387515422E+03  0.50400001928E-02 0.  1.
       -1    1    3    3    0  502 -0.52382114508E+03 -0.68418290390E+02  0.16789800313E+03  0.55430983571E+03  0.50400001928E-02 0. -1.
</event>
<event>
 5   0  0.3241189E-03  0.1038517E+04  0.7818609E-02  0.9267280E-01
        1   -1    0    0  501    0  0.00000000000E+00  0.00000000000E+00  0.13884294251E+03  0.13884294260E+03  0.50400001928E-02 0.  1.
       -1   -1    0    0    0  501  0.00000000000E+00  0.00000000000E+00 -0.19419742297E+04  0.19419742297E+04  0.50400001928E-02 0. -1.
    10030    2    1    2    0    0  0.00000000000E+00  0.00000000000E+00 -0.18031312872E+04  0.20808171723E+04  0.10385170513E+04 0.  0.
        5    1    3    3  502    0  0.11245551088E+03 -0.20501107286E+03 -0.18304686566E+04  0.18453491200E+04  0.46999998093E+01 0. -1.
       -5    1    3    3    0  502 -0.11245551088E+03  0.20501107286E+03  0.27337369346E+02  0.23546805237E+03  0.46999998093E+01 0.  1.
</event>
<event>
 5   0  0.3320192E-03  0.9804975E+03  0.7818609E-02  0.9330197E-01
        1   -1    0    0  501    0  0.00000000000E+00  0.00000000000E+00  0.80420932359E+03  0.80420932361E+03  0.50400001928E-02 0.  1.
       -1   -1    0    0    0  501  0.00000000000E+00  0.00000000000E+00 -0.29885732690E+03  0.29885732694E+03  0.50400001928E-02 0. -1.
    10030    2    1    2    0    0  0.00000000000E+00  0.00000000000E+00  0.50535199669E+03  0.11030666505E+04  0.98049752421E+03 0.  0.
        2    1    3    3  502    0  0.13829813919E+03 -0.46723160121E+03  0.19196621071E+03  0.52372012615E+03  0.25500000920E-02 0. -1.
       -2    1    3    3    0  502 -0.13829813919E+03  0.46723160121E+03  0.31338578598E+03  0.57934652440E+03  0.25500000920E-02 0.  1.
</event>
<event>
 5   0  0.3328741E-03  0.1063165E+04  0.7818609E-02  0.9241856E-01
       -1   -1    0    0    0  501  0.00000000000E+00  0.00000000000E+00  0.38997693630E+03  0.38997693633E+03  0.50400001928E-02 0.  1.
        1   -1    0    0  501    0  0.00000000000E+00  0.00000000000E+00 -0.72460698240E+03  0.72460698242E+03  0.50400001928E-02 0. -1.
    10030    2    1    2    0    0  0.00000000000E+00  0.00000000000E+00 -0.33463004610E+03  0.11145839187E+04  0.10631651067E+04 0.  0.
        3    1    3    3  502    0  0.33781308748E+03 -0.40678350786E+03 -0.10999437612E+03  0.54008265786E+03  0.10100000352E+00 0. -1.
       -3    1    3    3    0  502 -0.33781308748E+03  0.40678350786E+03 -0.22463566998E+03  0.57450126089E+03  0.10100000352E+00 0.  1.
</event>
<event>
 5   0  0.5627232E-03  0.1112064E+04  0.7818609E-02  0.9193513E-01
        2   -1    0    0  501    0  0.00000000000E+00  0.00000000000E+00  0.78896965360E+03  0.78896965360E+03  0.25500000920E-02 0.  1.
       -2   -1    0    0    0  501  0.00000000000E+00  0.00000000000E+00 -0.39186729545E+03  0.39186729546E+03  0.25500000920E-02 0. -1.
    10030    2    1    2    0    0  0.00000000000E+00  0.00000000000E+00  0.39710235814E+03  0.11808369491E+04  0.11120636751E+04 0.  0.
        2    1    3    3  502    0  0.18984058427E+03 -0.38520637818E+03  0.57359073887E+03  0.71654011538E+03  0.25500000920E-02 0.  1.
       -2    1    3    3    0  502 -0.18984058427E+03  0.38520637818E+03 -0.17648838073E+03  0.46429683368E+03  0.25500000920E-02 0. -1.
</event>
<event>
 5   0  0.5500363E-03  0.1115202E+04  0.7818609E-02  0.9190500E-01
        2   -1    0    0  501    0  0.00000000000E+00  0.00000000000E+00  0.46589509091E+03  0.46589509091E+03  0.25500000920E-02 0. -1.
       -2   -1    0    0    0  501  0.00000000000E+00  0.00000000000E+00 -0.66735797050E+03  0.66735797050E+03  0.25500000920E-02 0.  1.
    10030    2    1    2    0    0  0.00000000000E+00  0.00000000000E+00 -0.20146287959E+03  0.11332530614E+04  0.11152018693E+04 0.  0.
        3    1    3    3  502    0 -0.75619408058E+02  0.35998621701E+03  0.32511062018E+03  0.49092290318E+03  0.10100000352E+00 0. -1.
       -3    1    3    3    0  502  0.75619408058E+02 -0.35998621701E+03 -0.52657349977E+03  0.64233015824E+03  0.10100000352E+00 0.  1.
</event>
<event>
 5   0  0.3215352E-03  0.1169849E+04  0.7818609E-02  0.9139665E-01
        1   -1    0    0  501    0  0.00000000000E+00  0.00000000000E+00  0.42719239756E+03  0.42719239759E+03  0.50400001928E-02 0. -1.
       -1   -1    0    0    0  501  0.00000000000E+00  0.00000000000E+00 -0.80089607227E+03  0.80089607228E+03  0.50400001928E-02 0.  1.
    10030    2    1    2    0    0  0.00000000000E+00  0.00000000000E+00 -0.37370367471E+03  0.12280884699E+04  0.11698490729E+04 0.  0.
        1    1    3    3  502    0 -0.37514534330E+03 -0.40589069541E+03  0.14135624903E+02  0.55288434698E+03  0.50400001928E-02 0. -1.
       -1    1    3    3    0  502  0.37514534330E+03  0.40589069541E+03 -0.38783929961E+03  0.67520412289E+03  0.50400001928E-02 0.  1.
</event>
<event>
 5   0  0.5627232E-03  0.1083730E+04  0.7818609E-02  0.9221196E-01
       -2   -1    0    0    0  501  0.00000000000E+00  0.00000000000E+00  0.21321201465E+03  0.21321201467E+03  0.25500000920E-02 0.  1.
        2   -1    0    0  501    0  0.00000000000E+00  0.00000000000E+00 -0.13771166138E+04  0.13771166138E+04  0.25500000920E-02 0. -1.
    10030    2    1    2    0    0  0.00000000000E+00  0.00000000000E+00 -0.11639045991E+04  0.15903286284E+04  0.10837302388E+04 0.  0.
        2    1    3    3  502    0 -0.80213658021E+01  0.44701080980E+03 -0.13267330213E+03  0.46635309744E+03  0.25500000920E-02 0.  1.
       -2    1    3    3    0  502  0.80213658021E+01 -0.44701080980E+03 -0.10312312970E+04  0.11239755310E+04  0.25500000920E-02 0. -1.
</event>
<event>
 5   0  0.3316784E-03  0.1102001E+04  0.7818609E-02  0.9203244E-01
        1   -1    0    0  501    0  0.00000000000E+00  0.00000000000E+00  0.43779826697E+03  0.43779826700E+03  0.50400001928E-02 0.  1.
       -1   -1    0    0    0  501  0.00000000000E+00  0.00000000000E+00 -0.69347347498E+03  0.69347347500E+03  0.50400001928E-02 0. -1.
    10030    2    1    2    0    0  0.00000000000E+00  0.00000000000E+00 -0.25567520801E+03  0.11312717420E+04  0.11020008812E+04 0.  0.
        4    1    3    3  502    0  0.19347254568E+03  0.16646357896E+03  0.37345472435E+03  0.45234035095E+03  0.12699999809E+01 0.  1.
       -4    1    3    3    0  502 -0.19347254568E+03 -0.16646357896E+03 -0.62912993237E+03  0.67893139105E+03  0.12699999809E+01 0. -1.
</event>
<event>
 5   0  0.2185750E-03  0.1105114E+04  0.7818609E-02  0.9200221E-01
       -3   -1    0    0    0  501  0.00000000000E+00  0.00000000000E+00  0.72754465892E+03  0.72754466593E+03  0.10100000352E+00 0.  1.
        3   -1    0    0  501    0  0.00000000000E+00  0.00000000000E+00 -0.41965735058E+03  0.41965736273E+03  0.10100000352E+00 0. -1.
    10030    2    1    2    0    0  0.00000000000E+00  0.00000000000E+00  0.30788730835E+03  0.11472020287E+04  0.11051144284E+04 0.  0.
        3    1    3    3  502    0  0.28231105409E+03  0.35015274597E+03  0.48712344367E+03  0.66302016285E+03  0.10100000352E+00 0.  1.
       -3    1    3    3    0  502 -0.28231105409E+03 -0.35015274597E+03 -0.17923613533E+03  0.48418186581E+03  0.10100000352E+00 0. -1.
</event>
<event>
 5   0  0.3328741E-03  0.1106679E+04  0.7818609E-02  0.9198706E-01
       -1   -1    0    0    0  501  0.00000000000E+00  0.00000000000E+00  0.21623642448E+03  0.21623642454E+03  0.50400001928E-02 0.  1.
        1   -1    0    0  501    0  0.00000000000E+00  0.00000000000E+00 -0.14159727044E+04  0.14159727044E+04  0.50400001928E-02 0. -1.
    10030    2    1    2    0    0  0.00000000000E+00  0.00000000000E+00 -0.11997362799E+04  0.16322091290E+04  0.11066794926E+04 0.  0.
        3    1    3    3  502    0  0.31983158471E+03  0.59447711615E+02  0.60305113834E+02  0.33085191544E+03  0.10100000352E+00 0.  1.
       -3    1    3    3    0  502 -0.31983158471E+03 -0.59447711615E+02 -0.12600413938E+04  0.13013572135E+04  0.10100000352E+00 0. -1.
</event>
<event>
 5   0  0.5941585E-03  0.1075628E+04  0.7818609E-02  0.9229278E-01
       -2   -1    0    0    0  501  0.00000000000E+00  0.00000000000E+00  0.56335441016E+03  0.56335441017E+03  0.25500000920E-02 0.  1.
        2   -1    0    0  501    0  0.00000000000E+00  0.00000000000E+00 -0.51343134078E+03  0.51343134079E+03  0.25500000920E-02 0. -1.
    10030    2    1    2    0    0  0.00000000000E+00  0.00000000000E+00  0.49923069381E+02  0.10767857510E+04  0.10756278355E+04 0.  0.
        5    1    3    3  502    0  0.17268926183E+03  0.35914346728E+03 -0.33655893005E+03  0.52163168484E+03  0.46999998093E+01 0. -1.
       -5    1    3    3    0  502 -0.17268926183E+03 -0.35914346728E+03  0.38648199943E+03  0.55515406611E+03  0.46999998093E+01 0.  1.
</event>
<event>
 5   0  0.5627232E-03  0.1108069E+04  0.7818609E-02  0.9197363E-01
       -2   -1    0    0    0  501  0.00000000000E+00  0.00000000000E+00  0.11314846557E+04  0.11314846557E+04  0.25500000920E-02 0.  1.
        2   -1    0    0  501    0  0.00000000000E+00  0.00000000000E+00 -0.27128459909E+03  0.27128459910E+03  0.25500000920E-02 0. -1.
    10030    2    1    2    0    0  0.00000000000E+00  0.00000000000E+00  0.86020005664E+03  0.14027692548E+04  0.11080692419E+04 0.  0.
        2    1    3    3  502    0  0.43825126195E+03  0.33382422406E+03  0.50447525697E+03  0.74699268140E+03  0.25500000920E-02 0.  1.
       -2    1    3    3    0  502 -0.43825126195E+03 -0.33382422406E+03  0.35572479968E+03  0.65577657344E+03  0.25500000920E-02 0. -1.
</event>
<event>
 5   0  0.2185750E-03  0.1103077E+04  0.7818609E-02  0.9202198E-01
       -3   -1    0    0    0  501  0.00000000000E+00  0.00000000000E+00  0.16951852573E+03  0.16951855582E+03  0.10100000352E+00 0. -1.
        3   -1    0    0  501    0  0.00000000000E+00  0.00000000000E+00 -0.17944613538E+04  0.17944613566E+04  0.10100000352E+00 0.  1.
    10030    2    1    2    0    0  0.00000000000E+00  0.00000000000E+00 -0.16249428281E+04  0.19639799125E+04  0.11030765622E+04 0.  0.
        2    1    3    3  502    0 -0.38368559555E+03  0.11439126872E+03 -0.14878595804E+04  0.15407875030E+04  0.25500000920E-02 0.  1.
       -2    1    3    3    0  502  0.38368559555E+03 -0.11439126872E+03 -0.13708324769E+03  0.42319240942E+03  0.25500000920E-02 0. -1.
</event>
<event>
 5   0  0.3241189E-03  0.1093294E+04  0.7818609E-02  0.9211753E-01
       -1   -1    0    0    0  501  0.00000000000E+00  0.00000000000E+00  0.18398180792E+03  0.18398180799E+03  0.50400001928E-02 0. -1.
        1   -1    0    0  501    0  0.00000000000E+00  0.00000000000E+00 -0.16241988033E+04  0.16241988033E+04  0.50400001928E-02 0.  1.
    10030    2    1    2    0    0  0.00000000000E+00  0.00000000000E+00 -0.14402169954E+04  0.18081806113E+04  0.10932941641E+04 0.  0.
        5    1    3    3  502    0 -0.25011964891E+02  0.18148320543E+03  0.13166402242E+03  0.22565295708E+03  0.46999998093E+01 0. -1.
       -5    1    3    3    0  502  0.25011964891E+02 -0.18148320543E+03 -0.15718810178E+04  0.15825276543E+04  0.46999998093E+01 0.  1.
</event>
<event>
 5   0  0.3320192E-03  0.1109094E+04  0.7818609E-02  0.9196373E-01
       -1   -1    0    0    0  501  0.00000000000E+00  0.00000000000E+00  0.58844386723E+03  0.58844386725E+03  0.50400001928E-02 0.  1.
        1   -1    0    0  501    0  0.00000000000E+00  0.00000000000E+00 -0.52260259516E+03  0.52260259519E+03  0.50400001928E-02 0. -1.
    10030    2    1    2    0    0  0.00000000000E+00  0.00000000000E+00  0.65841272062E+02  0.11110464624E+04  0.11090938502E+04 0.  0.
        2    1    3    3  502    0 -0.12223027952E+03  0.70944199328E+02  0.57010063371E+03  0.58735683635E+03  0.25500000920E-02 0.  1.
       -2    1    3    3    0  502  0.12223027952E+03 -0.70944199328E+02 -0.50425936165E+03  0.52368962608E+03  0.25500000920E-02 0. -1.
</event>
<event>
 5   0  0.3215352E-03  0.1073663E+04  0.7818609E-02  0.9231248E-01
        1   -1    0    0  501    0  0.00000000000E+00  0.00000000000E+00  0.80617795567E+03  0.80617795569E+03  0.50400001928E-02 0.  1.
       -1   -1    0    0    0  501  0.00000000000E+00  0.00000000000E+00 -0.35747471339E+03  0.35747471342E+03  0.50400001928E-02 0. -1.
    10030    2    1    2    0    0  0.00000000000E+00  0.00000000000E+00  0.44870324228E+03  0.11636526691E+04  0.10736633246E+04 0.  0.
        1    1    3    3  502    0  0.16368825852E+03 -0.40684202366E+03 -0.11123572324E+03  0.45242420839E+03  0.50400001928E-02 0. -1.
       -1    1    3    3    0  502 -0.16368825852E+03  0.40684202366E+03  0.55993896552E+03  0.71122846071E+03  0.50400001928E-02 0.  1.
</event>
<event>
 5   0  0.5627232E-03  0.1147253E+04  0.7818609E-02  0.9160322E-01
       -2   -1    0    0    0  501  0.00000000000E+00  0.00000000000E+00  0.54159793578E+03  0.54159793578E+03  0.25500000920E-02 0.  1.
        2   -1    0    0  501    0  0.00000000000E+00  0.00000000000E+00 -0.60754900216E+03  0.60754900217E+03  0.25500000920E-02 0. -1.
    10030    2    1    2    0    0  0.00000000000E+00  0.00000000000E+00 -0.65951066384E+02  0.11491469379E+04  0.11472528674E+04 0.  0.
        2    1    3    3  502    0 -0.47994167640E+03  0.18963899643E+03  0.21791818631E+03  0.56017434576E+03  0.25500000920E-02 0.  1.
       -2    1    3    3    0  502  0.47994167640E+03 -0.18963899643E+03 -0.28386925270E+03  0.58897259219E+03  0.25500000920E-02 0. -1.
</event>
<event>
 5   0  0.3215352E-03  0.1033893E+04  0.7818609E-02  0.9272133E-01
        1   -1    0    0  501    0  0.00000000000E+00  0.00000000000E+00  0.41397907686E+03  0.41397907689E+03  0.50400001928E-02 0.  1.
       -1   -1    0    0    0  501  0.00000000000E+00  0.00000000000E+00 -0.64552493526E+03  0.64552493528E+03  0.50400001928E-02 0. -1.
    10030    2    1    2    0    0  0.00000000000E+00  0.00000000000E+00 -0.23154585840E+03  0.10595040122E+04  0.10338932572E+04 0.  0.
        1    1    3    3  502    0  0.26207997457E+02 -0.51601609910E+03 -0.98799329896E+02  0.52604256603E+03  0.50400001928E-02 0. -1.
       -1    1    3    3    0  502 -0.26207997457E+02  0.51601609910E+03 -0.13274652850E+03  0.53346144614E+03  0.50400001928E-02 0.  1.
</event>
<event>
 5   0  0.2185750E-03  0.1099829E+04  0.7818609E-02  0.9205358E-01
       -4   -1    0    0    0  501  0.00000000000E+00  0.00000000000E+00  0.71068413751E+03  0.71068527226E+03  0.12699999809E+01 0. -1.
        4   -1    0    0  501    0  0.00000000000E+00  0.00000000000E+00 -0.42551154617E+03  0.42551344142E+03  0.12699999809E+01 0.  1.
    10030    2    1    2    0    0  0.00000000000E+00  0.00000000000E+00  0.28517259133E+03  0.11361987137E+04  0.10998291277E+04 0.  0.
        2    1    3    3  502    0  0.45534881154E+02 -0.34659043944E+03 -0.29596026666E+03  0.45802929771E+03  0.25500000920E-02 0.  1.
       -2    1    3    3    0  502 -0.45534881154E+02  0.34659043944E+03  0.58113285799E+03  0.67816941597E+03  0.25500000920E-02 0. -1.
</event>
<event>
 5   0  0.3328741E-03  0.1081825E+04  0.7818609E-02  0.9223090E-01
        1   -1    0    0  501    0  0.00000000000E+00  0.00000000000E+00  0.13641594995E+04  0.13641594995E+04  0.50400001928E-02 0. -1.
       -1   -1    0    0    0  501  0.00000000000E+00  0.00000000000E+00 -0.21448109117E+03  0.21448109123E+03  0.50400001928E-02 0.  1.
    10030    2    1    2    0    0  0.00000000000E+00  0.00000000000E+00  0.11496784083E+04  0.15786405907E+04  0.10818251578E+04 0.  0.
        3    1    3    3  502    0  0.16043482321E+02  0.33678586933E+03  0.11920543425E+04  0.12388202778E+04  0.10100000352E+00 0. -1.
       -3    1    3    3    0  502 -0.16043482321E+02 -0.33678586933E+03 -0.42375934115E+02  0.33982031295E+03  0.10100000352E+00 0.  1.
</event>
<event>
 5   0  0.2185750E-03  0.1032902E+04  0.7818609E-02  0.9273177E-01
       -3   -1    0    0    0  501  0.00000000000E+00  0.00000000000E+00  0.24412969318E+03  0.24412971408E+03  0.10100000352E+00 0.  1.
        3   -1    0    0  501    0  0.00000000000E+00  0.00000000000E+00 -0.10925400572E+04  0.10925400618E+04  0.10100000352E+00 0. -1.
    10030    2    1    2    0    0  0.00000000000E+00  0.00000000000E+00 -0.84841036399E+03  0.13366697759E+04  0.10329017108E+04 0.  0.
        2    1    3    3  502    0  0.33556959741E+03  0.38835028784E+03 -0.34988119683E+03  0.62116000569E+03  0.25500000920E-02 0.  1.
       -2    1    3    3    0  502 -0.33556959741E+03 -0.38835028784E+03 -0.49852916715E+03  0.71550977022E+03  0.25500000920E-02 0. -1.
</event>
<event>
 5   0  0.3241189E-03  0.1103481E+04  0.7818609E-02  0.9201806E-01
       -1   -1    0    0    0  501  0.00000000000E+00  0.00000000000E+00  0.34772164669E+03  0.34772164672E+03  0.50400001928E-02 0.  1.
        1   -1    0    0  501    0  0.00000000000E+00  0.00000000000E+00 -0.87546263688E+03  0.87546263690E+03  0.50400001928E-02 0. -1.
    10030    2    1    2    0    0  0.00000000000E+00  0.00000000000E+00 -0.52774099020E+03  0.12231842836E+04  0.11034805114E+04 0.  0.
        5    1    3    3  502    0  0.51377854643E+03 -0.19551845399E+03 -0.31585516604E+03  0.63402084866E+03  0.46999998093E+01 0. -1.
       -5    1    3    3    0  502 -0.51377854643E+03  0.19551845399E+03 -0.21188582416E+03  0.58916343497E+03  0.46999998093E+01 0.  1.
</event>
<event>
 5   0  0.5627232E-03  0.1106168E+04  0.7818609E-02  0.9199200E-01
       -2   -1    0    0    0  501  0.00000000000E+00  0.00000000000E+00  0.50644016971E+03  0.50644016971E+03  0.25500000920E-02 0. -1.
        2   -1    0    0  501    0  0.00000000000E+00  0.00000000000E+00 -0.60402430715E+03  0.60402430715E+03  0.25500000920E-02 0.  1.
    10030    2    1    2    0    0  0.00000000000E+00  0.00000000000E+00 -0.97584137437E+02  0.11104644769E+04  0.11061684729E+04 0.  0.
        2    1    3    3  502    0  0.15112751786E+03  0.36833941912E+03 -0.43419544501E+03  0.58910027908E+03  0.25500000920E-02 0. -1.
       -2    1    3    3    0  502 -0.15112751786E+03 -0.36833941912E+03  0.33661130758E+03  0.52136419778E+03  0.25500000920E-02 0.  1.
</event>
<event>
 5   0  0.2185750E-03  0.1093004E+04  0.7818609E-02  0.9212038E-01
        3   -1    0    0  501    0  0.00000000000E+00  0.00000000000E+00  0.29933868675E+03  0.29933870379E+03  0.10100000352E+00 0. -1.
       -3   -1    0    0    0  501  0.00000000000E+00  0.00000000000E+00 -0.99774707423E+03  0.99774707934E+03  0.10100000352E+00 0.  1.
    10030    2    1    2    0    0  0.00000000000E+00  0.00000000000E+00 -0.69840838748E+03  0.12970857831E+04  0.10930037754E+04 0.  0.
        2    1    3    3  502    0  0.10158824165E+02 -0.83220977949E+02 -0.99007006208E+03  0.99361343626E+03  0.25500000920E-02 0.  1.
       -2    1    3    3    0  502 -0.10158824165E+02  0.83220977949E+02  0.29166167460E+03  0.30347234687E+03  0.25500000920E-02 0. -1.
</event>
<event>
 5   0  0.3215352E-03  0.1092855E+04  0.7818609E-02  0.9212184E-01
        1   -1    0    0  501    0  0.00000000000E+00  0.00000000000E+00  0.43565273734E+03  0.43565273737E+03  0.50400001928E-02 0.  1.
       -1   -1    0    0    0  501  0.00000000000E+00  0.00000000000E+00 -0.68536889027E+03  0.68536889029E+03  0.50400001928E-02 0. -1.
    10030    2    1    2    0    0  0.00000000000E+00  0.00000000000E+00 -0.24971615293E+03  0.11210216277E+04  0.10928546713E+04 0.  0.
        1    1    3    3  502    0  0.26263451179E+03 -0.99101195522E+02 -0.60575334446E+03  0.66763391772E+03  0.50400001928E-02 0. -1.
       -1    1    3    3    0  502 -0.26263451179E+03  0.99101195522E+02  0.35603719154E+03  0.45338770993E+03  0.50400001928E-02 0.  1.
</event>
<event>
 5   0  0.5627232E-03  0.1120919E+04  0.7818609E-02  0.9185039E-01
        2   -1    0    0  501    0  0.00000000000E+00  0.00000000000E+00  0.75359720613E+03  0.75359720614E+03  0.25500000920E-02 0.  1.
       -2   -1    0    0    0  501  0.00000000000E+00  0.00000000000E+00 -0.41682089530E+03  0.41682089531E+03  0.25500000920E-02 0. -1.
    10030    2    1    2    0    0  0.00000000000E+00  0.00000000000E+00  0.33677631083E+03  0.11704181014E+04  0.11209193765E+04 0.  0.
        2    1    3    3  502    0  0.43344956538E+03 -0.14790090511E+03  0.50570463255E+03  0.68226855332E+03  0.25500000920E-02 0.  1.
       -2    1    3    3    0  502 -0.43344956538E+03  0.14790090511E+03 -0.16892832172E+03  0.48814954813E+03  0.25500000920E-02 0. -1.
</event>
<event>
 5   0  0.3320192E-03  0.1107349E+04  0.7818609E-02  0.9198058E-01
        1   -1    0    0  501    0  0.00000000000E+00  0.00000000000E+00  0.31650289143E+03  0.31650289147E+03  0.50400001928E-02 0.  1.
       -1   -1    0    0    0  501  0.00000000000E+00  0.00000000000E+00 -0.96857144442E+03  0.96857144444E+03  0.50400001928E-02 0. -1.
    10030    2    1    2    0    0  0.00000000000E+00  0.00000000000E+00 -0.65206855299E+03  0.12850743359E+04  0.11073493807E+04 0.  0.
        2    1    3    3  502    0 -0.32797383909E+02  0.48670812223E+03 -0.22092469817E+02  0.48831193091E+03  0.25500000920E-02 0.  1.
       -2    1    3    3    0  502  0.32797383909E+02 -0.48670812223E+03 -0.62997608318E+03  0.79676240500E+03  0.25500000920E-02 0. -1.
</event>
<event>
 5   0  0.3320192E-03  0.1161680E+04  0.7818609E-02  0.9147075E-01
        1   -1    0    0  501    0  0.00000000000E+00  0.00000000000E+00  0.73779638788E+03  0.73779638790E+03  0.50400001928E-02 0.  1.
       -1   -1    0    0    0  501  0.00000000000E+00  0.00000000000E+00 -0.45727402679E+03  0.45727402682E+03  0.50400001928E-02 0. -1.
    10030    2    1    2    0    0  0.00000000000E+00  0.00000000000E+00  0.28052236109E+03  0.11950704147E+04  0.11616800339E+04 0.  0.
        2    1    3    3  502    0  0.32717818103E+03 -0.47967494491E+03  0.12427389103E+03  0.59378246430E+03  0.25500000920E-02 0.  1.
       -2    1    3    3    0  502 -0.32717818103E+03  0.47967494491E+03  0.15624847006E+03  0.60128795042E+03  0.25500000920E-02 0. -1.
</event>
<event>
 5   0  0.3316784E-03  0.1121589E+04  0.7818609E-02  0.9184401E-01
       -1   -1    0    0    0  501  0.00000000000E+00  0.00000000000E+00  0.45822097646E+03  0.45822097649E+03  0.50400001928E-02 0.  1.
        1   -1    0    0  501    0  0.00000000000E+00  0.00000000000E+00 -0.68632960730E+03  0.68632960732E+03  0.50400001928E-02 0. -1.
    10030    2    1    2    0    0  0.00000000000E+00  0.00000000000E+00 -0.22810863084E+03  0.11445505838E+04  0.11215892704E+04 0.  0.
        4    1    3    3  502    0 -0.26207325151E+03 -0.35177658294E+03 -0.47057733222E+03  0.64333023554E+03  0.12699999809E+01 0. -1.
       -4    1    3    3    0  502  0.26207325151E+03  0.35177658294E+03  0.24246870138E+03  0.50122034826E+03  0.12699999809E+01 0.  1.
</event>
<event>
 5   0  0.3316784E-03  0.1061228E+04  0.7818609E-02  0.9243828E-01
        1   -1    0    0  501    0  0.00000000000E+00  0.00000000000E+00  0.16636689003E+04  0.16636689003E+04  0.50400001928E-02 0.  1.
       -1   -1    0    0    0  501  0.00000000000E+00  0.00000000000E+00 -0.16923525237E+03  0.16923525244E+03  0.50400001928E-02 0. -1.
    10030    2    1    2    0    0  0.00000000000E+00  0.00000000000E+00  0.14944336479E+04  0.18329041527E+04  0.10612283944E+04 0.  0.
        4    1    3    3  502    0  0.24399757100E+03 -0.44324987308E+03  0.10232619040E+04  0.11415217044E+04  0.12699999809E+01 0.  1.
       -4    1    3    3    0  502 -0.24399757100E+03  0.44324987308E+03  0.47117174393E+03  0.69138244830E+03  0.12699999809E+01 0. -1.
</event>
<event>
 5   0  0.3241189E-03  0.1112255E+04  0.7818609E-02  0.9193329E-01
        1   -1    0    0  501    0  0.00000000000E+00  0.00000000000E+00  0.41960310912E+03  0.41960310915E+03  0.50400001928E-02 0.  1.
       -1   -1    0    0    0  501  0.00000000000E+00  0.00000000000E+00 -0.73707234340E+03  0.73707234342E+03  0.50400001928E-02 0. -1.
    10030    2    1    2    0    0  0.00000000000E+00  0.00000000000E+00 -0.31746923428E+03  0.11566754526E+04  0.11122550912E+04 0.  0.
        5    1    3    3  502    0 -0.26671326140E+03 -0.19577807724E+03  0.30609607021E+03  0.45075704490E+03  0.46999998093E+01 0.  1.
       -5    1    3    3    0  502  0.26671326140E+03  0.19577807724E+03 -0.62356530449E+03  0.70591840767E+03  0.46999998093E+01 0. -1.
</event>
<event>
 5   0  0.3328741E-03  0.1117709E+04  0.7818609E-02  0.9188101E-01
        1   -1    0    0  501    0  0.00000000000E+00  0.00000000000E+00  0.45211422413E+03  0.45211422416E+03  0.50400001928E-02 0.  1.
       -1   -1    0    0    0  501  0.00000000000E+00  0.00000000000E+00 -0.69079565513E+03  0.69079565515E+03  0.50400001928E-02 0. -1.
    10030    2    1    2    0    0  0.00000000000E+00  0.00000000000E+00 -0.23868143100E+03  0.11429098793E+04  0.11177093391E+04 0.  0.
        3    1    3    3  502    0  0.29293342085E+03 -0.71856493047E+02  0.36174022172E+03  0.47098762495E+03  0.10100000352E+00 0.  1.
       -3    1    3    3    0  502 -0.29293342085E+03  0.71856493047E+02 -0.60042165272E+03  0.67192225436E+03  0.10100000352E+00 0. -1.
</event>
<event>
 5   0  0.5941585E-03  0.1103059E+04  0.7818609E-02  0.9202216E-01
        2   -1    0    0  501    0  0.00000000000E+00  0.00000000000E+00  0.19100048048E+04  0.19100048048E+04  0.25500000920E-02 0.  1.
       -2   -1    0    0    0  501  0.00000000000E+00  0.00000000000E+00 -0.15925857999E+03  0.15925858001E+03  0.25500000920E-02 0. -1.
    10030    2    1    2    0    0  0.00000000000E+00  0.00000000000E+00  0.17507462248E+04  0.20692633848E+04  0.11030587527E+04 0.  0.
        5    1    3    3  502    0  0.29748863497E+02 -0.11586546435E+03  0.18853370102E+04  0.18891340695E+04  0.46999998093E+01 0.  1.
       -5    1    3    3    0  502 -0.29748863497E+02  0.11586546435E+03 -0.13459078539E+03  0.18012931526E+03  0.46999998093E+01 0. -1.
</event>
<event>
 5   0  0.3241189E-03  0.1247769E+04  0.7818609E-02  0.9072042E-01
       -1   -1    0    0    0  501  0.00000000000E+00  0.00000000000E+00  0.32521369649E+03  0.32521369653E+03  0.50400001928E-02 0.  1.
        1   -1    0    0  501    0  0.00000000000E+00  0.00000000000E+00 -0.11968497761E+04  0.11968497761E+04  0.50400001928E-02 0. -1.
    10030    2    1    2    0    0  0.00000000000E+00  0.00000000000E+00 -0.87163607958E+03  0.15220634726E+04  0.12477691130E+04 0.  0.
        5    1    3    3  502    0 -0.23250777992E+03  0.47686193842E+03 -0.83623508865E+03  0.99033751293E+03  0.46999998093E+01 0.  1.
       -5    1    3    3    0  502  0.23250777992E+03 -0.47686193842E+03 -0.35400990928E+02  0.53172595968E+03  0.46999998093E+01 0. -1.
</event>
<event>
 5   0  0.5723194E-03  0.1115933E+04  0.7818609E-02  0.9189800E-01
        2   -1    0    0  501    0  0.00000000000E+00  0.00000000000E+00  0.13413446332E+04  0.13413446332E+04  0.25500000920E-02 0. -1.
       -2   -1    0    0    0  501  0.00000000000E+00  0.00000000000E+00 -0.23210029150E+03  0.23210029151E+03  0.25500000920E-02 0.  1.
    10030    2    1    2    0    0  0.00000000000E+00  0.00000000000E+00  0.11092443417E+04  0.15734449247E+04  0.11159327585E+04 0.  0.
        1    1    3    3  502    0  0.23256832860E+03 -0.23887075628E+03  0.11854676714E+04  0.12314547762E+04  0.50400001928E-02 0. -1.
       -1    1    3    3    0  502 -0.23256832860E+03  0.23887075628E+03 -0.76223329755E+02  0.34199014854E+03  0.50400001928E-02 0.  1.
</event>
<event>
 5   0  0.3328741E-03  0.1097377E+04  0.7818609E-02  0.9207752E-01
       -1   -1    0    0    0  501  0.00000000000E+00  0.00000000000E+00  0.68294483676E+03  0.68294483678E+03  0.50400001928E-02 0.  1.
        1   -1    0    0  501    0  0.00000000000E+00  0.00000000000E+00 -0.44082522922E+03  0.44082522925E+03  0.50400001928E-02 0. -1.
    10030    2    1    2    0    0  0.00000000000E+00  0.00000000000E+00  0.24211960754E+03  0.11237700660E+04  0.10973774451E+04 0.  0.
        3    1    3    3  502    0 -0.32962333532E+03 -0.10054465326E+03 -0.31617328150E+03  0.46768186262E+03  0.10100000352E+00 0. -1.
       -3    1    3    3    0  502  0.32962333532E+03  0.10054465326E+03  0.55829288904E+03  0.65608820340E+03  0.10100000352E+00 0.  1.
</event>
<event>
 5   0  0.3320192E-03  0.1082522E+04  0.7818609E-02  0.9222396E-01
        1   -1    0    0  501    0  0.00000000000E+00  0.00000000000E+00  0.15212084928E+04  0.15212084928E+04  0.50400001928E-02 0. -1.
       -1   -1    0    0    0  501  0.00000000000E+00  0.00000000000E+00 -0.19258610821E+03  0.19258610827E+03  0.50400001928E-02 0.  1.
    10030    2    1    2    0    0  0.00000000000E+00  0.00000000000E+00  0.13286223845E+04  0.17137946010E+04  0.10825222833E+04 0.  0.
        2    1    3    3  502    0  0.35151262677E+03 -0.39512859596E+03  0.48189905285E+03  0.71548195734E+03  0.25500000920E-02 0.  1.
       -2    1    3    3    0  502 -0.35151262677E+03  0.39512859596E+03  0.84672333169E+03  0.99831264370E+03  0.25500000920E-02 0. -1.
</event>
<event>
 5   0  0.2185750E-03  0.1092905E+04  0.7818609E-02  0.9212134E-01
        3   -1    0    0  501    0  0.00000000000E+00  0.00000000000E+00  0.11706894210E+04  0.11706894254E+04  0.10100000352E+00 0.  1.
       -3   -1    0    0    0  501  0.00000000000E+00  0.00000000000E+00 -0.25507235832E+03  0.25507237832E+03  0.10100000352E+00 0. -1.
    10030    2    1    2    0    0  0.00000000000E+00  0.00000000000E+00  0.91561706267E+03  0.14257618037E+04  0.10929053552E+04 0.  0.
        5    1    3    3  502    0 -0.25066928780E+03 -0.41858020938E+02 -0.17325562471E+03  0.30761467334E+03  0.46999998093E+01 0. -1.
       -5    1    3    3    0  502  0.25066928780E+03  0.41858020938E+02  0.10888726874E+04  0.11181471303E+04  0.46999998093E+01 0.  1.
</event>
<event>
 5   0  0.5723194E-03  0.1114820E+04  0.7818609E-02  0.9190866E-01
        2   -1    0    0  501    0  0.00000000000E+00  0.00000000000E+00  0.42255161365E+03  0.42255161366E+03  0.25500000920E-02 0.  1.
       -2   -1    0    0    0  501  0.00000000000E+00  0.00000000000E+00 -0.73530921393E+03  0.73530921393E+03  0.25500000920E-02 0. -1.
    10030    2    1    2    0    0  0.00000000000E+00  0.00000000000E+00 -0.31275760028E+03  0.11578608276E+04  0.11148203351E+04 0.  0.
        1    1    3    3  502    0 -0.17073245103E+03  0.53014813973E+03 -0.17959057447E+03  0.58520030277E+03  0.50400001928E-02 0.  1.
       -1    1    3    3    0  502  0.17073245103E+03 -0.53014813973E+03 -0.13316702581E+03  0.57266052482E+03  0.50400001928E-02 0. -1.
</event>
<event>
 5   0  0.5500363E-03  0.1106925E+04  0.7818609E-02  0.9198469E-01
       -2   -1    0    0    0  501  0.00000000000E+00  0.00000000000E+00  0.30403768185E+03  0.30403768186E+03  0.25500000920E-02 0.  1.
        2   -1    0    0  501    0  0.00000000000E+00  0.00000000000E+00 -0.10075084476E+04  0.10075084476E+04  0.25500000920E-02 0. -1.
    10030    2    1    2    0    0  0.00000000000E+00  0.00000000000E+00 -0.70347076576E+03  0.13115461295E+04  0.11069246277E+04 0.  0.
        3    1    3    3  502    0 -0.54755560922E+03 -0.75927317532E+02 -0.31953824837E+03  0.63850356703E+03  0.10100000352E+00 0.  1.
       -3    1    3    3    0  502  0.54755560922E+03  0.75927317532E+02 -0.38393251739E+03  0.67304256243E+03  0.10100000352E+00 0. -1.
</event>
<event>
 5   0  0.5723194E-03  0.9719880E+03  0.7818609E-02  0.9339813E-01
       -2   -1    0    0    0  501  0.00000000000E+00  0.00000000000E+00  0.41623539194E+03  0.41623539195E+03  0.25500000920E-02 0. -1.
        2   -1    0    0  501    0  0.00000000000E+00  0.00000000000E+00 -0.56744378474E+03  0.56744378475E+03  0.25500000920E-02 0.  1.
    10030    2    1    2    0    0  0.00000000000E+00  0.00000000000E+00 -0.15120839280E+03  0.98367917670E+03  0.97198803728E+03 0.  0.
        1    1    3    3  502    0 -0.18695352563E+03  0.42371463502E+03  0.73492213204E+02  0.46892090815E+03  0.50400001928E-02 0.  1.
       -1    1    3    3    0  502  0.18695352563E+03 -0.42371463502E+03 -0.22470060600E+03  0.51475826855E+03  0.50400001928E-02 0. -1.
</event>
<event>
 5   0  0.5500363E-03  0.1075466E+04  0.7818609E-02  0.9229440E-01
        2   -1    0    0  501    0  0.00000000000E+00  0.00000000000E+00  0.23390453800E+04  0.23390453800E+04  0.25500000920E-02 0.  1.
       -2   -1    0    0    0  501  0.00000000000E+00  0.00000000000E+00 -0.12362159963E+03  0.12362159965E+03  0.25500000920E-02 0. -1.
    10030    2    1    2    0    0  0.00000000000E+00  0.00000000000E+00  0.22154237803E+04  0.24626669796E+04  0.10754655392E+04 0.  0.
        3    1    3    3  502    0 -0.23630926041E+03  0.66230663541E+02  0.12095295494E+02  0.24571299054E+03  0.10100000352E+00 0. -1.
       -3    1    3    3    0  502  0.23630926041E+03 -0.66230663541E+02  0.22033284849E+04  0.22169539891E+04  0.10100000352E+00 0.  1.
</event>
<event>
 5   0  0.5627232E-03  0.1087911E+04  0.7818609E-02  0.9217056E-01
       -2   -1    0    0    0  501  0.00000000000E+00  0.00000000000E+00  0.44430670350E+03  0.44430670351E+03  0.25500000920E-02 0.  1.
        2   -1    0    0  501    0  0.00000000000E+00  0.00000000000E+00 -0.66595314063E+03  0.66595314064E+03  0.25500000920E-02 0. -1.
    10030    2    1    2    0    0  0.00000000000E+00  0.00000000000E+00 -0.22164643713E+03  0.11102598441E+04  0.10879107401E+04 0.  0.
        2    1    3    3  502    0  0.23540515700E+03 -0.48102027653E+03 -0.13515887152E+02  0.53570399811E+03  0.25500000920E-02 0.  1.
       -2    1    3    3    0  502 -0.23540515700E+03  0.48102027653E+03 -0.20813054998E+03  0.57455584604E+03  0.25500000920E-02 0. -1.
</event>
<event>
 5   0  0.5723194E-03  0.1122618E+04  0.7818609E-02  0.9183423E-01
        2   -1    0    0  501    0  0.00000000000E+00  0.00000000000E+00  0.12063119387E+04  0.12063119387E+04  0.25500000920E-02 0.  1.
       -2   -1    0    0    0  501  0.00000000000E+00  0.00000000000E+00 -0.26118282165E+03  0.26118282166E+03  0.25500000920E-02 0. -1.
    10030    2    1    2    0    0  0.00000000000E+00  0.00000000000E+00  0.94512911705E+03  0.14674947604E+04  0.11226182894E+04 0.  0.
        1    1    3    3  502    0  0.34242282551E+01 -0.19024793223E+03  0.11628664759E+04  0.11783312106E+04  0.50400001928E-02 0.  1.
       -1    1    3    3    0  502 -0.34242282551E+01  0.19024793223E+03 -0.21773735885E+03  0.28916354977E+03  0.50400001928E-02 0. -1.
</event>
<event>
 5   0  0.3241189E-03  0.1068360E+04  0.7818609E-02  0.9236591E-01
       -1   -1    0    0    0  501  0.00000000000E+00  0.00000000000E+00  0.70083909789E+03  0.70083909791E+03  0.50400001928E-02 0.  1.
        1   -1    0    0  501    0  0.00000000000E+00  0.00000000000E+00 -0.40715241412E+03  0.40715241415E+03  0.50400001928E-02 0. -1.
    10030    2    1    2    0    0  0.00000000000E+00  0.00000000000E+00  0.29368668378E+03  0.11079915121E+04  0.10683601090E+04 0.  0.
        5    1    3    3  502    0  0.15554157834E+03 -0.44890019152E+03  0.40007666848E+03  0.62111834235E+03  0.46999998093E+01 0. -1.
       -5    1    3    3    0  502 -0.15554157834E+03  0.44890019152E+03 -0.10638998471E+03  0.48687316971E+03  0.46999998093E+01 0.  1.
</event>
<event>
 5   0  0.3241189E-03  0.1085528E+04  0.7818609E-02  0.9219413E-01
       -1   -1    0    0    0  501  0.00000000000E+00  0.00000000000E+00  0.22597170625E+03  0.22597170630E+03  0.50400001928E-02 0.  1.
        1   -1    0    0  501    0  0.00000000000E+00  0.00000000000E+00 -0.13036703653E+04  0.13036703654E+04  0.50400001928E-02 0. -1.
    10030    2    1    2    0    0  0.00000000000E+00  0.00000000000E+00 -0.10776986591E+04  0.15296420717E+04  0.10855277369E+04 0.  0.
        5    1    3    3  502    0 -0.53253463397E+03  0.98471913910E+02 -0.58927689120E+03  0.80034942288E+03  0.46999998093E+01 0. -1.
       -5    1    3    3    0  502  0.53253463397E+03 -0.98471913910E+02 -0.48842176790E+03  0.72929264878E+03  0.46999998093E+01 0.  1.
</event>
<event>
 5   0  0.5627232E-03  0.9621028E+03  0.7818609E-02  0.9351115E-01
       -2   -1    0    0    0  501  0.00000000000E+00  0.00000000000E+00  0.23363731440E+03  0.23363731441E+03  0.25500000920E-02 0.  1.
        2   -1    0    0  501    0  0.00000000000E+00  0.00000000000E+00 -0.99046863303E+03  0.99046863303E+03  0.25500000920E-02 0. -1.
    10030    2    1    2    0    0  0.00000000000E+00  0.00000000000E+00 -0.75683131863E+03  0.12241059474E+04  0.96210276256E+03 0.  0.
        2    1    3    3  502    0 -0.23688944135E+03  0.32068000963E+03 -0.72090036603E+03  0.82380192628E+03  0.25500000920E-02 0. -1.
       -2    1    3    3    0  502  0.23688944135E+03 -0.32068000963E+03 -0.35930952599E+02  0.40030402116E+03  0.25500000920E-02 0.  1.
</event>
<event>
 5   0  0.3328741E-03  0.1029093E+04  0.7818609E-02  0.9277199E-01
        1   -1    0    0  501    0  0.00000000000E+00  0.00000000000E+00  0.88179402635E+03  0.88179402636E+03  0.50400001928E-02 0. -1.
       -1   -1    0    0    0  501  0.00000000000E+00  0.00000000000E+00 -0.30024958479E+03  0.30024958484E+03  0.50400001928E-02 0.  1.
    10030    2    1    2    0    0  0.00000000000E+00  0.00000000000E+00  0.58154444155E+03  0.11820436112E+04  0.10290933686E+04 0.  0.
        3    1    3    3  502    0 -0.10914697006E+03  0.42808416006E+03  0.59377705098E+03  0.74009479504E+03  0.10100000352E+00 0. -1.
       -3    1    3    3    0  502  0.10914697006E+03 -0.42808416006E+03 -0.12232609431E+02  0.44194881616E+03  0.10100000352E+00 0.  1.
</event>
<event>
 5   0  0.3241189E-03  0.1113905E+04  0.7818609E-02  0.9191744E-01
       -1   -1    0    0    0  501  0.00000000000E+00  0.00000000000E+00  0.24510915095E+03  0.24510915100E+03  0.50400001928E-02 0.  1.
        1   -1    0    0  501    0  0.00000000000E+00  0.00000000000E+00 -0.12655431578E+04  0.12655431578E+04  0.50400001928E-02 0. -1.
    10030    2    1    2    0    0  0.00000000000E+00  0.00000000000E+00 -0.10204340069E+04  0.15106523088E+04  0.11139052185E+04 0.  0.
        5    1    3    3  502    0 -0.36118035759E+03 -0.84543558744E+02  0.53168336709E+02  0.37476369362E+03  0.46999998093E+01 0.  1.
       -5    1    3    3    0  502  0.36118035759E+03  0.84543558744E+02 -0.10736023436E+04  0.11358886152E+04  0.46999998093E+01 0. -1.
</event>
<event>
 5   0  0.2185750E-03  0.1091765E+04  0.7818609E-02  0.9213255E-01
        4   -1    0    0  501    0  0.00000000000E+00  0.00000000000E+00  0.61188171714E+03  0.61188303513E+03  0.12699999809E+01 0. -1.
       -4   -1    0    0    0  501  0.00000000000E+00  0.00000000000E+00 -0.48699977116E+03  0.48700142711E+03  0.12699999809E+01 0.  1.
    10030    2    1    2    0    0  0.00000000000E+00  0.00000000000E+00  0.12488194599E+03  0.10988844622E+04  0.10917653415E+04 0.  0.
        4    1    3    3  502    0  0.22723604346E+03  0.36353994590E+03 -0.27768078759E+03  0.51078933466E+03  0.12699999809E+01 0.  1.
       -4    1    3    3    0  502 -0.22723604346E+03 -0.36353994590E+03  0.40256273357E+03  0.58809512757E+03  0.12699999809E+01 0. -1.
</event>
<event>
 5   0  0.5500363E-03  0.1086741E+04  0.7818609E-02  0.9218212E-01
        2   -1    0    0  501    0  0.00000000000E+00  0.00000000000E+00  0.53382344851E+03  0.53382344852E+03  0.25500000920E-02 0.  1.
       -2   -1    0    0    0  501  0.00000000000E+00  0.00000000000E+00 -0.55308868155E+03  0.55308868156E+03  0.25500000920E-02 0. -1.
    10030    2    1    2    0    0  0.00000000000E+00  0.00000000000E+00 -0.19265233042E+02  0.10869121301E+04  0.10867413811E+04 0.  0.
        3    1    3    3  502    0 -0.16078656640E+02 -0.39293323460E+03 -0.38465372484E+03  0.55010321603E+03  0.10100000352E+00 0. -1.
       -3    1    3    3    0  502  0.16078656640E+02  0.39293323460E+03  0.36538849180E+03  0.53680891404E+03  0.10100000352E+00 0.  1.
</event>
<event>
 5   0  0.3241189E-03  0.1151631E+04  0.7818609E-02  0.9156280E-01
        1   -1    0    0  501    0  0.00000000000E+00  0.00000000000E+00  0.67127444524E+03  0.67127444526E+03  0.50400001928E-02 0. -1.
       -1   -1    0    0    0  501  0.00000000000E+00  0.00000000000E+00 -0.49393114489E+03  0.49393114492E+03  0.50400001928E-02 0.  1.
    10030    2    1    2    0    0  0.00000000000E+00  0.00000000000E+00  0.17734330035E+03  0.11652055902E+04  0.11516307660E+04 0.  0.
        5    1    3    3  502    0  0.54704648769E+03 -0.15567690938E+03  0.17942907448E+03  0.59641599792E+03  0.46999998093E+01 0. -1.
       -5    1    3    3    0  502 -0.54704648769E+03  0.15567690938E+03 -0.20857741310E+01  0.56878959226E+03  0.46999998093E+01 0.  1.
</event>
<event>
 5   0  0.5627232E-03  0.1095775E+04  0.7818609E-02  0.9209319E-01
        2   -1    0    0  501    0  0.00000000000E+00  0.00000000000E+00  0.15321934755E+04  0.15321934755E+04  0.25500000920E-02 0.  1.
       -2   -1    0    0    0  501  0.00000000000E+00  0.00000000000E+00 -0.19591584608E+03  0.19591584610E+03  0.25500000920E-02 0. -1.
    10030    2    1    2    0    0  0.00000000000E+00  0.00000000000E+00  0.13362776294E+04  0.17281093216E+04  0.10957754900E+04 0.  0.
        2    1    3    3  502    0  0.21251220882E+03 -0.23265156020E+03 -0.38718587051E+02  0.31747018183E+03  0.25500000920E-02 0. -1.
       -2    1    3    3    0  502 -0.21251220882E+03  0.23265156020E+03  0.13749962165E+04  0.14106391398E+04  0.25500000920E-02 0.  1.
</event>
<event>
 5   0  0.3215352E-03  0.1094917E+04  0.7818609E-02  0.9210161E-01
        1   -1    0    0  501    0  0.00000000000E+00  0.00000000000E+00  0.10950376683E+04  0.10950376683E+04  0.50400001928E-02 0. -1.
       -1   -1    0    0    0  501  0.00000000000E+00  0.00000000000E+00 -0.27369895228E+03  0.27369895232E+03  0.50400001928E-02 0.  1.
    10030    2    1    2    0    0  0.00000000000E+00  0.00000000000E+00  0.82133871599E+03  0.13687366206E+04  0.10949167321E+04 0.  0.
        1    1    3    3  502    0 -0.26627749012E+03 -0.37506345602E+03  0.78178685778E+03  0.90706504112E+03  0.50400001928E-02 0. -1.
       -1    1    3    3    0  502  0.26627749012E+03  0.37506345602E+03  0.39551858206E+02  0.46167157948E+03  0.50400001928E-02 0.  1.
</event>
<event>
 5   0  0.2185750E-03  0.1093431E+04  0.7818609E-02  0.9211618E-01
       -3   -1    0    0    0  501  0.00000000000E+00  0.00000000000E+00  0.12616856173E+04  0.12616856214E+04  0.10100000352E+00 0.  1.
        3   -1    0    0  501    0  0.00000000000E+00  0.00000000000E+00 -0.23690348693E+03  0.23690350846E+03  0.10100000352E+00 0. -1.
    10030    2    1    2    0    0  0.00000000000E+00  0.00000000000E+00  0.10247821304E+04  0.14985891298E+04  0.10934308233E+04 0.  0.
        1    1    3    3  502    0 -0.27692447046E+03 -0.46993221409E+03  0.56319893073E+03  0.78403857289E+03  0.50400001928E-02 0. -1.
       -1    1    3    3    0  502  0.27692447046E+03  0.46993221409E+03  0.46158319967E+03  0.71455055694E+03  0.50400001928E-02 0.  1.
</event>
<event>
 5   0  0.5500363E-03  0.1067048E+04  0.7818609E-02  0.9237918E-01
       -2   -1    0    0    0  501  0.00000000000E+00  0.00000000000E+00  0.38684352603E+03  0.38684352603E+03  0.25500000920E-02 0.  1.
        2   -1    0    0  501    0  0.00000000000E+00  0.00000000000E+00 -0.73582197115E+03  0.73582197116E+03  0.25500000920E-02 0. -1.
    10030    2    1    2    0    0  0.00000000000E+00  0.00000000000E+00 -0.34897844513E+03  0.11226654972E+04  0.10670482011E+04 0.  0.
        3    1    3    3  502    0  0.40969532332E+03 -0.33463873716E+03 -0.24749328753E+03  0.58402592403E+03  0.10100000352E+00 0.  1.
       -3    1    3    3    0  502 -0.40969532332E+03  0.33463873716E+03 -0.10148515759E+03  0.53863957316E+03  0.10100000352E+00 0. -1.
</event>
<event>
 5   0  0.3320192E-03  0.1093804E+04  0.7818609E-02  0.9211252E-01
       -1   -1    0    0    0  501  0.00000000000E+00  0.00000000000E+00  0.52914435503E+03  0.52914435506E+03  0.50400001928E-02 0.  1.
        1   -1    0    0  501    0  0.00000000000E+00  0.00000000000E+00 -0.56525587984E+03  0.56525587987E+03  0.50400001928E-02 0. -1.
    10030    2    1    2    0    0  0.00000000000E+00  0.00000000000E+00 -0.36111524812E+02  0.10944002349E+04  0.10938042933E+04 0.  0.
        2    1    3    3  502    0  0.19732988786E+03 -0.45544846321E+03  0.21169855002E+03  0.53961899834E+03  0.25500000920E-02 0.  1.
       -2    1    3    3    0  502 -0.19732988786E+03  0.45544846321E+03 -0.24781007483E+03  0.55478123659E+03  0.25500000920E-02 0. -1.
</event>
<event>
 5   0  0.3328741E-03  0.1098333E+04  0.7818609E-02  0.9206818E-01
        1   -1    0    0  501    0  0.00000000000E+00  0.00000000000E+00  0.34945532907E+03  0.34945532911E+03  0.50400001928E-02 0. -1.
       -1   -1    0    0    0  501  0.00000000000E+00  0.00000000000E+00 -0.86301091595E+03  0.86301091596E+03  0.50400001928E-02 0.  1.
    10030    2    1    2    0    0  0.00000000000E+00  0.00000000000E+00 -0.51355558687E+03  0.12124662451E+04  0.10983328524E+04 0.  0.
        3    1    3    3  502    0  0.16373821709E+03  0.32195779847E+03  0.19987057833E+03  0.41281386364E+03  0.10100000352E+00 0. -1.
       -3    1    3    3    0  502 -0.16373821709E+03 -0.32195779847E+03 -0.71342616520E+03  0.79965238143E+03  0.10100000352E+00 0.  1.
</event>
<event>
 5   0  0.3241189E-03  0.1108393E+04  0.7818609E-02  0.9197050E-01
        1   -1    0    0  501    0  0.00000000000E+00  0.00000000000E+00  0.15489174266E+04  0.15489174267E+04  0.50400001928E-02 0.  1.
       -1   -1    0    0    0  501  0.00000000000E+00  0.00000000000E+00 -0.19828943313E+03  0.19828943319E+03  0.50400001928E-02 0. -1.
    10030    2    1    2    0    0  0.00000000000E+00  0.00000000000E+00  0.13506279935E+04  0.17472068598E+04  0.11083933572E+04 0.  0.
        5    1    3    3  502    0 -0.23318981252E+03  0.10849678308E+03 -0.98480145237E+02  0.27544413155E+03  0.46999998093E+01 0. -1.
       -5    1    3    3    0  502  0.23318981252E+03 -0.10849678308E+03  0.14491081388E+04  0.14717627283E+04  0.46999998093E+01 0.  1.
</event>
<event>
 5   0  0.3320192E-03  0.8700174E+03  0.7818609E-02  0.9463857E-01
        1   -1    0    0  501    0  0.00000000000E+00  0.00000000000E+00  0.16028172341E+03  0.16028172349E+03  0.50400001928E-02 0. -1.
       -1   -1    0    0    0  501  0.00000000000E+00  0.00000000000E+00 -0.11806248650E+04  0.11806248650E+04  0.50400001928E-02 0.  1.
    10030    2    1    2    0    0  0.00000000000E+00  0.00000000000E+00 -0.10203431416E+04  0.13409065885E+04  0.87001744380E+03 0.  0.
        2    1    3    3  502    0 -0.86952398812E+02 -0.30808515765E+03 -0.96413287276E+03  0.10158884685E+04  0.25500000920E-02 0.  1.
       -2    1    3    3    0  502  0.86952398812E+02  0.30808515765E+03 -0.56210268833E+02  0.32501812004E+03  0.25500000920E-02 0. -1.
</event>
<event>
 5   0  0.5946359E-03  0.1106237E+04  0.7818609E-02  0.9199134E-01
       -2   -1    0    0    0  501  0.00000000000E+00  0.00000000000E+00  0.31446169959E+03  0.31446169960E+03  0.25500000920E-02 0. -1.
        2   -1    0    0  501    0  0.00000000000E+00  0.00000000000E+00 -0.97290051023E+03  0.97290051023E+03  0.25500000920E-02 0.  1.
    10030    2    1    2    0    0  0.00000000000E+00  0.00000000000E+00 -0.65843881064E+03  0.12873622098E+04  0.11062367703E+04 0.  0.
        4    1    3    3  502    0 -0.78107895079E+02 -0.15106420142E+03  0.28328039973E+03  0.33040979706E+03  0.12699999809E+01 0. -1.
       -4    1    3    3    0  502  0.78107895079E+02  0.15106420142E+03 -0.94171921037E+03  0.95695241277E+03  0.12699999809E+01 0.  1.
</event>
<event>
 5   0  0.3316784E-03  0.1103714E+04  0.7818609E-02  0.9201579E-01
        1   -1    0    0  501    0  0.00000000000E+00  0.00000000000E+00  0.57389611955E+03  0.57389611957E+03  0.50400001928E-02 0. -1.
       -1   -1    0    0    0  501  0.00000000000E+00  0.00000000000E+00 -0.53066431650E+03  0.53066431652E+03  0.50400001928E-02 0.  1.
    10030    2    1    2    0    0  0.00000000000E+00  0.00000000000E+00  0.43231803050E+02  0.11045604361E+04  0.11037140790E+04 0.  0.
        4    1    3    3  502    0  0.29961512530E+03 -0.10564980407E+03  0.47319741891E+03  0.56995483555E+03  0.12699999809E+01 0. -1.
       -4    1    3    3    0  502 -0.29961512530E+03  0.10564980407E+03 -0.42996561586E+03  0.53460560054E+03  0.12699999809E+01 0.  1.
</event>
<event>
 5   0  0.3241189E-03  0.1055264E+04  0.7818609E-02  0.9249926E-01
        1   -1    0    0  501    0  0.00000000000E+00  0.00000000000E+00  0.38418452160E+03  0.38418452163E+03  0.50400001928E-02 0.  1.
       -1   -1    0    0    0  501  0.00000000000E+00  0.00000000000E+00 -0.72464030801E+03  0.72464030803E+03  0.50400001928E-02 0. -1.
    10030    2    1    2    0    0  0.00000000000E+00  0.00000000000E+00 -0.34045578642E+03  0.11088248297E+04  0.10552641188E+04 0.  0.
        5    1    3    3  502    0 -0.45358918072E+03 -0.20847386193E+03 -0.34968578930E+03  0.60951352504E+03  0.46999998093E+01 0. -1.
       -5    1    3    3    0  502  0.45358918072E+03  0.20847386193E+03  0.92300028804E+01  0.49931130462E+03  0.46999998093E+01 0.  1.
</event>
<event>
 5   0  0.2185750E-03  0.1096221E+04  0.7818609E-02  0.9208883E-01
        4   -1    0    0  501    0  0.00000000000E+00  0.00000000000E+00  0.26548726174E+03  0.26549029934E+03  0.12699999809E+01 0. -1.
       -4   -1    0    0    0  501  0.00000000000E+00  0.00000000000E+00 -0.11315881790E+04  0.11315888917E+04  0.12699999809E+01 0.  1.
    10030    2    1    2    0    0  0.00000000000E+00  0.00000000000E+00 -0.86610091729E+03  0.13970791910E+04  0.10962205376E+04 0.  0.
        5    1    3    3  502    0  0.25173476567E+03  0.35043188902E+03 -0.86378821529E+03  0.96556981724E+03  0.46999998093E+01 0.  1.
       -5    1    3    3    0  502 -0.25173476567E+03 -0.35043188902E+03 -0.23127020039E+01  0.43150937380E+03  0.46999998093E+01 0. -1.
</event>
<event>
 5   0  0.5723194E-03  0.1103777E+04  0.7818609E-02  0.9201518E-01
       -2   -1    0    0    0  501  0.00000000000E+00  0.00000000000E+00  0.85175124759E+03  0.85175124759E+03  0.25500000920E-02 0. -1.
        2   -1    0    0  501    0  0.00000000000E+00  0.00000000000E+00 -0.35759401860E+03  0.35759401861E+03  0.25500000920E-02 0.  1.
    10030    2    1    2    0    0  0.00000000000E+00  0.00000000000E+00  0.49415722898E+03  0.12093452662E+04  0.11037774259E+04 0.  0.
        1    1    3    3  502    0  0.24067962144E+03  0.46937106184E+03  0.42491482304E+03  0.67733926561E+03  0.50400001928E-02 0. -1.
       -1    1    3    3    0  502 -0.24067962144E+03 -0.46937106184E+03  0.69242405941E+02  0.53200600060E+03  0.50400001928E-02 0.  1.
</event>
<event>
 5   0  0.5500363E-03  0.1112731E+04  0.7818609E-02  0.9192872E-01
        2   -1    0    0  501    0  0.00000000000E+00  0.00000000000E+00  0.22971420697E+03  0.22971420698E+03  0.25500000920E-02 0.  1.
       -2   -1    0    0    0  501  0.00000000000E+00  0.00000000000E+00 -0.13475110767E+04  0.13475110767E+04  0.25500000920E-02 0. -1.
    10030    2    1    2    0    0  0.00000000000E+00  0.00000000000E+00 -0.11177968697E+04  0.15772252837E+04  0.11127307642E+04 0.  0.
        3    1    3    3  502    0  0.18570170743E+03 -0.29251506568E+03 -0.11759185896E+04  0.12259015977E+04  0.10100000352E+00 0. -1.
       -3    1    3    3    0  502 -0.18570170743E+03  0.29251506568E+03  0.58121719857E+02  0.35132368595E+03  0.10100000352E+00 0.  1.
</event>
<event>
 5   0  0.5500363E-03  0.1117644E+04  0.7818609E-02  0.9188163E-01
       -2   -1    0    0    0  501  0.00000000000E+00  0.00000000000E+00  0.29155654996E+03  0.29155654997E+03  0.25500000920E-02 0. -1.
        2   -1    0    0  501    0  0.00000000000E+00  0.00000000000E+00 -0.10710859268E+04  0.10710859268E+04  0.25500000920E-02 0.  1.
    10030    2    1    2    0    0  0.00000000000E+00  0.00000000000E+00 -0.77952937686E+03  0.13626424768E+04  0.11176441608E+04 0.  0.
        3    1    3    3  502    0  0.49353964452E+03  0.19047307786E+03 -0.60929262017E+03  0.80690698429E+03  0.10100000352E+00 0.  1.
       -3    1    3    3    0  502 -0.49353964452E+03 -0.19047307786E+03 -0.17023675670E+03  0.55573549251E+03  0.10100000352E+00 0. -1.
</event>
<event>
 5   0  0.3316784E-03  0.1103743E+04  0.7818609E-02  0.9201551E-01
       -1   -1    0    0    0  501  0.00000000000E+00  0.00000000000E+00  0.60666203737E+03  0.60666203740E+03  0.50400001928E-02 0. -1.
        1   -1    0    0  501    0  0.00000000000E+00  0.00000000000E+00 -0.50202962799E+03  0.50202962801E+03  0.50400001928E-02 0.  1.
    10030    2    1    2    0    0  0.00000000000E+00  0.00000000000E+00  0.10463240939E+03  0.11086916654E+04  0.11037432980E+04 0.  0.
        4    1    3    3  502    0 -0.33653526984E+03 -0.43188938922E+03 -0.17104211791E+02  0.54779430385E+03  0.12699999809E+01 0. -1.
       -4    1    3    3    0  502  0.33653526984E+03  0.43188938922E+03  0.12173662118E+03  0.56089736156E+03  0.12699999809E+01 0.  1.
</event>
<event>
 5   0  0.5723194E-03  0.1131893E+04  0.7818609E-02  0.9174652E-01
        2   -1    0    0  501    0  0.00000000000E+00  0.00000000000E+00  0.64413289652E+03  0.64413289653E+03  0.25500000920E-02 0.  1.
       -2   -1    0    0    0  501  0.00000000000E+00  0.00000000000E+00 -0.49725052770E+03  0.49725052771E+03  0.25500000920E-02 0. -1.
    10030    2    1    2    0    0  0.00000000000E+00  0.00000000000E+00  0.14688236882E+03  0.11413834242E+04  0.11318929679E+04 0.  0.
        1    1    3    3  502    0 -0.30972929037E+03  0.10674412130E+03  0.53879606688E+03  0.63057730887E+03  0.50400001928E-02 0.  1.
       -1    1    3    3    0  502  0.30972929037E+03 -0.10674412130E+03 -0.39191369806E+03  0.51080611537E+03  0.50400001928E-02 0. -1.
</event>
<event>
 5   0  0.3320192E-03  0.1095664E+04  0.7818609E-02  0.9209429E-01
        1   -1    0    0  501    0  0.00000000000E+00  0.00000000000E+00  0.86528565638E+03  0.86528565639E+03  0.50400001928E-02 0.  1.
       -1   -1    0    0    0  501  0.00000000000E+00  0.00000000000E+00 -0.34684464237E+03  0.34684464241E+03  0.50400001928E-02 0. -1.
    10030    2    1    2    0    0  0.00000000000E+00  0.00000000000E+00  0.51844101400E+03  0.12121302988E+04  0.10956636237E+04 0.  0.
        2    1    3    3  502    0  0.25701917538E+03 -0.41989220218E+03 -0.66396350491E+01  0.49235394050E+03  0.25500000920E-02 0. -1.
       -2    1    3    3    0  502 -0.25701917538E+03  0.41989220218E+03  0.52508064905E+03  0.71977635831E+03  0.25500000920E-02 0.  1.
</event>
<event>
 5   0  0.3215352E-03  0.1100227E+04  0.7818609E-02  0.9204971E-01
        1   -1    0    0  501    0  0.00000000000E+00  0.00000000000E+00  0.71310878139E+03  0.71310878141E+03  0.50400001928E-02 0.  1.
       -1   -1    0    0    0  501  0.00000000000E+00  0.00000000000E+00 -0.42437407969E+03  0.42437407972E+03  0.50400001928E-02 0. -1.
    10030    2    1    2    0    0  0.00000000000E+00  0.00000000000E+00  0.28873470170E+03  0.11374828611E+04  0.11002270363E+04 0.  0.
        1    1    3    3  502    0 -0.22513316339E+03 -0.27356054524E+03 -0.29072097679E+03  0.45830011950E+03  0.50400001928E-02 0. -1.
       -1    1    3    3    0  502  0.22513316339E+03  0.27356054524E+03  0.57945567849E+03  0.67918274163E+03  0.50400001928E-02 0.  1.
</event>
<event>
 5   0  0.3241189E-03  0.1113043E+04  0.7818609E-02  0.9192572E-01
        1   -1    0    0  501    0  0.00000000000E+00  0.00000000000E+00  0.10228705922E+04  0.10228705922E+04  0.50400001928E-02 0.  1.
       -1   -1    0    0    0  501  0.00000000000E+00  0.00000000000E+00 -0.30279098583E+03  0.30279098587E+03  0.50400001928E-02 0. -1.
    10030    2    1    2    0    0  0.00000000000E+00  0.00000000000E+00  0.72007960636E+03  0.13256615781E+04  0.11130426677E+04 0.  0.
        5    1    3    3  502    0 -0.29956768082E+03 -0.46892770599E+03  0.35082060935E+03  0.65782306038E+03  0.46999998093E+01 0.  1.
       -5    1    3    3    0  502  0.29956768082E+03  0.46892770599E+03  0.36925899702E+03  0.66783851769E+03  0.46999998093E+01 0. -1.
</event>
<event>
 5   0  0.5627232E-03  0.1100111E+04  0.7818609E-02  0.9205084E-01
        2   -1    0    0  501    0  0.00000000000E+00  0.00000000000E+00  0.75863410256E+03  0.75863410256E+03  0.25500000920E-02 0.  1.
       -2   -1    0    0    0  501  0.00000000000E+00  0.00000000000E+00 -0.39882339217E+03  0.39882339217E+03  0.25500000920E-02 0. -1.
    10030    2    1    2    0    0  0.00000000000E+00  0.00000000000E+00  0.35981071040E+03  0.11574574947E+04  0.11001109511E+04 0.  0.
        2    1    3    3  502    0 -0.27058807194E+03 -0.20722979384E+03 -0.27433977044E+03  0.43752074440E+03  0.25500000920E-02 0. -1.
       -2    1    3    3    0  502  0.27058807194E+03  0.20722979384E+03  0.63415048083E+03  0.71993675033E+03  0.25500000920E-02 0.  1.
</event>
<event>
 5   0  0.5723194E-03  0.1102335E+04  0.7818609E-02  0.9202919E-01
        2   -1    0    0  501    0  0.00000000000E+00  0.00000000000E+00  0.16847233434E+04  0.16847233434E+04  0.25500000920E-02 0.  1.
       -2   -1    0    0    0  501  0.00000000000E+00  0.00000000000E+00 -0.18031768936E+03  0.18031768937E+03  0.25500000920E-02 0. -1.
    10030    2    1    2    0    0  0.00000000000E+00  0.00000000000E+00  0.15044056540E+04  0.18650410328E+04  0.11023346506E+04 0.  0.
        1    1    3    3  502    0 -0.35360420013E+03 -0.32748965383E+03  0.29979719401E+03  0.56759471569E+03  0.50400001928E-02 0. -1.
       -1    1    3    3    0  502  0.35360420013E+03  0.32748965383E+03  0.12046084600E+04  0.12974463171E+04  0.50400001928E-02 0.  1.
</event>
<event>
 5   0  0.5941585E-03  0.1069414E+04  0.7818609E-02  0.9235527E-01
        2   -1    0    0  501    0  0.00000000000E+00  0.00000000000E+00  0.10112579300E+04  0.10112579300E+04  0.25500000920E-02 0. -1.
       -2   -1    0    0    0  501  0.00000000000E+00  0.00000000000E+00 -0.28272842477E+03  0.28272842479E+03  0.25500000920E-02 0.  1.
    10030    2    1    2    0    0  0.00000000000E+00  0.00000000000E+00  0.72852950518E+03  0.12939863547E+04  0.10694135993E+04 0.  0.
        5    1    3    3  502    0  0.38281384892E+03  0.95114219298E+02 -0.72502154853E+02  0.40108828217E+03  0.46999998093E+01 0.  1.
       -5    1    3    3    0  502 -0.38281384892E+03 -0.95114219298E+02  0.80103166004E+03  0.89289807258E+03  0.46999998093E+01 0. -1.
</event>
<event>
 5   0  0.2185750E-03  0.1096510E+04  0.7818609E-02  0.9208601E-01
       -3   -1    0    0    0  501  0.00000000000E+00  0.00000000000E+00  0.52576438014E+03  0.52576438984E+03  0.10100000352E+00 0.  1.
        3   -1    0    0  501    0  0.00000000000E+00  0.00000000000E+00 -0.57170726980E+03  0.57170727873E+03  0.10100000352E+00 0. -1.
    10030    2    1    2    0    0  0.00000000000E+00  0.00000000000E+00 -0.45942889668E+02  0.10974716686E+04  0.10965096052E+04 0.  0.
        4    1    3    3  502    0 -0.10555123042E+03  0.17289617770E+02 -0.56116223215E+03  0.57126583726E+03  0.12699999809E+01 0. -1.
       -4    1    3    3    0  502  0.10555123042E+03 -0.17289617770E+02  0.51521934249E+03  0.52620583130E+03  0.12699999809E+01 0.  1.
</event>
<event>
 5   0  0.2185750E-03  0.1075600E+04  0.7818609E-02  0.9229305E-01
        4   -1    0    0  501    0  0.00000000000E+00  0.00000000000E+00  0.70275559646E+03  0.70275674402E+03  0.12699999809E+01 0.  1.
       -4   -1    0    0    0  501  0.00000000000E+00  0.00000000000E+00 -0.41156171210E+03  0.41156367158E+03  0.12699999809E+01 0. -1.
    10030    2    1    2    0    0  0.00000000000E+00  0.00000000000E+00  0.29119388437E+03  0.11143204156E+04  0.10756003488E+04 0.  0.
        3    1    3    3  502    0 -0.44754115218E+03  0.99020489975E+02 -0.14583163944E+03  0.48100417627E+03  0.10100000352E+00 0. -1.
       -3    1    3    3    0  502  0.44754115218E+03 -0.99020489975E+02  0.43702552381E+03  0.63331623932E+03  0.10100000352E+00 0.  1.
</event>
<event>
 5   0  0.5946359E-03  0.1119844E+04  0.7818609E-02  0.9186063E-01
        2   -1    0    0  501    0  0.00000000000E+00  0.00000000000E+00  0.77377199234E+03  0.77377199235E+03  0.25500000920E-02 0.  1.
       -2   -1    0    0    0  501  0.00000000000E+00  0.00000000000E+00 -0.40517458622E+03  0.40517458623E+03  0.25500000920E-02 0. -1.
    10030    2    1    2    0    0  0.00000000000E+00  0.00000000000E+00  0.36859740612E+03  0.11789465786E+04  0.11198441799E+04 0.  0.
        4    1    3    3  502    0  0.48529309565E+03 -0.22385522340E+03  0.36011751247E+03  0.64444300401E+03  0.12699999809E+01 0.  1.
       -4    1    3    3    0  502 -0.48529309565E+03  0.22385522340E+03  0.84798936522E+01  0.53450357457E+03  0.12699999809E+01 0. -1.
</event>
<event>
 5   0  0.5723194E-03  0.1093110E+04  0.7818609E-02  0.9211933E-01
        2   -1    0    0  501    0  0.00000000000E+00  0.00000000000E+00  0.98720342258E+03  0.98720342258E+03  0.25500000920E-02 0.  1.
       -2   -1    0    0    0  501  0.00000000000E+00  0.00000000000E+00 -0.30259452968E+03  0.30259452969E+03  0.25500000920E-02 0. -1.
    10030    2    1    2    0    0  0.00000000000E+00  0.00000000000E+00  0.68460889290E+03  0.12897979523E+04  0.10931099768E+04 0.  0.
        1    1    3    3  502    0  0.12838988635E+03  0.22253413441E+03  0.91151354636E+03  0.94702816702E+03  0.50400001928E-02 0.  1.
       -1    1    3    3    0  502 -0.12838988635E+03 -0.22253413441E+03 -0.22690465347E+03  0.34276978526E+03  0.50400001928E-02 0. -1.
</event>
<event>
 5   0  0.3215352E-03  0.1109160E+04  0.7818609E-02  0.9196310E-01
        1   -1    0    0  501    0  0.00000000000E+00  0.00000000000E+00  0.11547190646E+04  0.11547190646E+04  0.50400001928E-02 0.  1.
       -1   -1    0    0    0  501  0.00000000000E+00  0.00000000000E+00 -0.26634945920E+03  0.26634945925E+03  0.50400001928E-02 0. -1.
    10030    2    1    2    0    0  0.00000000000E+00  0.00000000000E+00  0.88836960542E+03  0.14210685239E+04  0.11091596791E+04 0.  0.
        1    1    3    3  502    0  0.39407234962E+03  0.21033363152E+03  0.23085831943E+02  0.44728761323E+03  0.50400001928E-02 0. -1.
       -1    1    3    3    0  502 -0.39407234962E+03 -0.21033363152E+03  0.86528377348E+03  0.97378091065E+03  0.50400001928E-02 0.  1.
</event>
<event>
 5   0  0.3241189E-03  0.1107006E+04  0.7818609E-02  0.9198390E-01
       -1   -1    0    0    0  501  0.00000000000E+00  0.00000000000E+00  0.16435594901E+04  0.16435594901E+04  0.50400001928E-02 0. -1.
        1   -1    0    0  501    0  0.00000000000E+00  0.00000000000E+00 -0.18640374102E+03  0.18640374108E+03  0.50400001928E-02 0.  1.
    10030    2    1    2    0    0  0.00000000000E+00  0.00000000000E+00  0.14571557491E+04  0.18299632312E+04  0.11070061203E+04 0.  0.
        5    1    3    3  502    0  0.14377194521E+03  0.37740832545E+03  0.13542094119E+04  0.14131569756E+04  0.46999998093E+01 0. -1.
       -5    1    3    3    0  502 -0.14377194521E+03 -0.37740832545E+03  0.10294633714E+03  0.41680625557E+03  0.46999998093E+01 0.  1.
</event>
<event>
 5   0  0.5941585E-03  0.1099465E+04  0.7818609E-02  0.9205713E-01
        2   -1    0    0  501    0  0.00000000000E+00  0.00000000000E+00  0.59763892545E+03  0.59763892545E+03  0.25500000920E-02 0.  1.
       -2   -1    0    0    0  501  0.00000000000E+00  0.00000000000E+00 -0.50566659482E+03  0.50566659483E+03  0.25500000920E-02 0. -1.
    10030    2    1    2    0    0  0.00000000000E+00  0.00000000000E+00  0.91972330624E+02  0.11033055203E+04  0.10994653980E+04 0.  0.
        5    1    3    3  502    0 -0.10211958740E+03 -0.50918548827E+03 -0.13488119404E+03  0.53657552880E+03  0.46999998093E+01 0. -1.
       -5    1    3    3    0  502  0.10211958740E+03  0.50918548827E+03  0.22685352466E+03  0.56672999149E+03  0.46999998093E+01 0.  1.
</event>
<event>
 5   0  0.5941585E-03  0.1100047E+04  0.7818609E-02  0.9205146E-01
        2   -1    0    0  501    0  0.00000000000E+00  0.00000000000E+00  0.46257301414E+03  0.46257301414E+03  0.25500000920E-02 0.  1.
       -2   -1    0    0    0  501  0.00000000000E+00  0.00000000000E+00 -0.65400720410E+03  0.65400720410E+03  0.25500000920E-02 0. -1.
    10030    2    1    2    0    0  0.00000000000E+00  0.00000000000E+00 -0.19143418996E+03  0.11165802182E+04  0.11000474238E+04 0.  0.
        5    1    3    3  502    0  0.45577562138E+02  0.26199632206E+03  0.39295868663E+03  0.47450817310E+03  0.46999998093E+01 0.  1.
       -5    1    3    3    0  502 -0.45577562138E+02 -0.26199632206E+03 -0.58439287659E+03  0.64207204514E+03  0.46999998093E+01 0. -1.
</event>
<event>
 5   0  0.5941585E-03  0.1124733E+04  0.7818609E-02  0.9181415E-01
        2   -1    0    0  501    0  0.00000000000E+00  0.00000000000E+00  0.10125031875E+04  0.10125031875E+04  0.25500000920E-02 0.  1.
       -2   -1    0    0    0  501  0.00000000000E+00  0.00000000000E+00 -0.31235069423E+03  0.31235069424E+03  0.25500000920E-02 0. -1.
    10030    2    1    2    0    0  0.00000000000E+00  0.00000000000E+00  0.70015249331E+03  0.13248538818E+04  0.11247329879E+04 0.  0.
        5    1    3    3  502    0 -0.30932367567E+03  0.45957776958E+03  0.46392231752E+03  0.72259177224E+03  0.46999998093E+01 0.  1.
       -5    1    3    3    0  502  0.30932367567E+03 -0.45957776958E+03  0.23623017580E+03  0.60226210953E+03  0.46999998093E+01 0. -1.
</event>
<event>
 5   0  0.5946359E-03  0.1109211E+04  0.7818609E-02  0.9196261E-01
        2   -1    0    0  501    0  0.00000000000E+00  0.00000000000E+00  0.25754981282E+03  0.25754981283E+03  0.25500000920E-02 0.  1.
       -2   -1    0    0    0  501  0.00000000000E+00  0.00000000000E+00 -0.11942824411E+04  0.11942824411E+04  0.25500000920E-02 0. -1.
    10030    2    1    2    0    0  0.00000000000E+00  0.00000000000E+00 -0.93673262833E+03  0.14518322540E+04  0.11092109253E+04 0.  0.
        4    1    3    3  502    0  0.29803935782E+03  0.44520090858E+03 -0.28071412674E+03  0.60484158394E+03  0.12699999809E+01 0.  1.
       -4    1    3    3    0  502 -0.29803935782E+03 -0.44520090858E+03 -0.65601850159E+03  0.84699067004E+03  0.12699999809E+01 0. -1.
</event>
<event>
 5   0  0.5946359E-03  0.1018785E+04  0.7818609E-02  0.9288178E-01
        2   -1    0    0  501    0  0.00000000000E+00  0.00000000000E+00  0.35439826397E+03  0.35439826398E+03  0.25500000920E-02 0.  1.
       -2   -1    0    0    0  501  0.00000000000E+00  0.00000000000E+00 -0.73217311172E+03  0.73217311172E+03  0.25500000920E-02 0. -1.
    10030    2    1    2    0    0  0.00000000000E+00  0.00000000000E+00 -0.37777484775E+03  0.10865713757E+04  0.10187853154E+04 0.  0.
        4    1    3    3  502    0 -0.94209526892E+02 -0.11618645811E+03  0.33044509467E+03  0.36272620735E+03  0.12699999809E+01 0.  1.
       -4    1    3    3    0  502  0.94209526892E+02  0.11618645811E+03 -0.70821994242E+03  0.72384516835E+03  0.12699999809E+01 0. -1.
</event>
<event>
 5   0  0.3241189E-03  0.1089097E+04  0.7818609E-02  0.9215884E-01
       -1   -1    0    0    0  501  0.00000000000E+00  0.00000000000E+00  0.42117794973E+03  0.42117794976E+03  0.50400001928E-02 0.  1.
        1   -1    0    0  501    0  0.00000000000E+00  0.00000000000E+00 -0.70405703835E+03  0.70405703837E+03  0.50400001928E-02 0. -1.
    10030    2    1    2    0    0  0.00000000000E+00  0.00000000000E+00 -0.28287908862E+03  0.11252349881E+04  0.10890974244E+04 0.  0.
        5    1    3    3  502    0  0.54102257922E+03  0.27015018450E+02 -0.19874122592E+03  0.57702288284E+03  0.46999998093E+01 0.  1.
       -5    1    3    3    0  502 -0.54102257922E+03 -0.27015018450E+02 -0.84137862696E+02  0.54821210529E+03  0.46999998093E+01 0. -1.
</event>
<event>
 5   0  0.5500363E-03  0.1142838E+04  0.7818609E-02  0.9164417E-01
       -2   -1    0    0    0  501  0.00000000000E+00  0.00000000000E+00  0.41623731215E+03  0.41623731216E+03  0.25500000920E-02 0.  1.
        2   -1    0    0  501    0  0.00000000000E+00  0.00000000000E+00 -0.78445494642E+03  0.78445494642E+03  0.25500000920E-02 0. -1.
    10030    2    1    2    0    0  0.00000000000E+00  0.00000000000E+00 -0.36821763426E+03  0.12006922586E+04  0.11428375535E+04 0.  0.
        3    1    3    3  502    0  0.28394277616E+03  0.33188090279E+03 -0.57120481889E+03  0.71905729194E+03  0.10100000352E+00 0. -1.
       -3    1    3    3    0  502 -0.28394277616E+03 -0.33188090279E+03  0.20298718463E+03  0.48163496664E+03  0.10100000352E+00 0.  1.
</event>
<event>
 5   0  0.5627232E-03  0.1109848E+04  0.7818609E-02  0.9195646E-01
        2   -1    0    0  501    0  0.00000000000E+00  0.00000000000E+00  0.84109545657E+03  0.84109545658E+03  0.25500000920E-02 0. -1.
       -2   -1    0    0    0  501  0.00000000000E+00  0.00000000000E+00 -0.36611835673E+03  0.36611835674E+03  0.25500000920E-02 0.  1.
    10030    2    1    2    0    0  0.00000000000E+00  0.00000000000E+00  0.47497709984E+03  0.12072138133E+04  0.11098477128E+04 0.  0.
        2    1    3    3  502    0  0.50441235778E+03  0.23035064033E+03  0.26049195945E+03  0.61265757575E+03  0.25500000920E-02 0. -1.
       -2    1    3    3    0  502 -0.50441235778E+03 -0.23035064033E+03  0.21448514039E+03  0.59455623757E+03  0.25500000920E-02 0.  1.
</event>
<event>
 5   0  0.3328741E-03  0.1118664E+04  0.7818609E-02  0.9187189E-01
        1   -1    0    0  501    0  0.00000000000E+00  0.00000000000E+00  0.84907301122E+03  0.84907301124E+03  0.50400001928E-02 0.  1.
       -1   -1    0    0    0  501  0.00000000000E+00  0.00000000000E+00 -0.36846332496E+03  0.36846332499E+03  0.50400001928E-02 0. -1.
    10030    2    1    2    0    0  0.00000000000E+00  0.00000000000E+00  0.48060968627E+03  0.12175363362E+04  0.11186639618E+04 0.  0.
        3    1    3    3  502    0 -0.66557863612E+02 -0.22365890173E+03 -0.31295315260E+03  0.39037538275E+03  0.10100000352E+00 0. -1.
       -3    1    3    3    0  502  0.66557863612E+02  0.22365890173E+03  0.79356283887E+03  0.82716095348E+03  0.10100000352E+00 0.  1.
</event>
<event>
 5   0  0.5941585E-03  0.1098949E+04  0.7818609E-02  0.9206217E-01
        2   -1    0    0  501    0  0.00000000000E+00  0.00000000000E+00  0.10098250762E+04  0.10098250762E+04  0.25500000920E-02 0.  1.
       -2   -1    0    0    0  501  0.00000000000E+00  0.00000000000E+00 -0.29898482386E+03  0.29898482387E+03  0.25500000920E-02 0. -1.
    10030    2    1    2    0    0  0.00000000000E+00  0.00000000000E+00  0.71084025237E+03  0.13088099001E+04  0.10989492664E+04 0.  0.
        5    1    3    3  502    0  0.18256031475E+03 -0.51398573465E+03  0.27650418287E+03  0.61154415792E+03  0.46999998093E+01 0. -1.
       -5    1    3    3    0  502 -0.18256031475E+03  0.51398573465E+03  0.43433606950E+03  0.69726574217E+03  0.46999998093E+01 0.  1.
</event>
<event>
 5   0  0.5627232E-03  0.1090871E+04  0.7818609E-02  0.9214135E-01
        2   -1    0    0  501    0  0.00000000000E+00  0.00000000000E+00  0.11788114498E+04  0.11788114498E+04  0.25500000920E-02 0.  1.
       -2   -1    0    0    0  501  0.00000000000E+00  0.00000000000E+00 -0.25237296226E+03  0.25237296228E+03  0.25500000920E-02 0. -1.
    10030    2    1    2    0    0  0.00000000000E+00  0.00000000000E+00  0.92643848753E+03  0.14311844121E+04  0.10908714636E+04 0.  0.
        2    1    3    3  502    0  0.31092849039E+03 -0.43336405723E+03  0.31352184490E+03  0.61868964713E+03  0.25500000920E-02 0. -1.
       -2    1    3    3    0  502 -0.31092849039E+03  0.43336405723E+03  0.61291664262E+03  0.81249476493E+03  0.25500000920E-02 0.  1.
</event>
<event>
 5   0  0.3215352E-03  0.1032476E+04  0.7818609E-02  0.9273625E-01
        1   -1    0    0  501    0  0.00000000000E+00  0.00000000000E+00  0.21373289739E+03  0.21373289745E+03  0.50400001928E-02 0. -1.
       -1   -1    0    0    0  501  0.00000000000E+00  0.00000000000E+00 -0.12468923508E+04  0.12468923508E+04  0.50400001928E-02 0.  1.
    10030    2    1    2    0    0  0.00000000000E+00  0.00000000000E+00 -0.10331594534E+04  0.14606252483E+04  0.10324764693E+04 0.  0.
        1    1    3    3  502    0  0.35683045152E+03  0.53381630433E+02  0.57507315382E+01  0.36084711518E+03  0.50400001928E-02 0. -1.
       -1    1    3    3    0  502 -0.35683045152E+03 -0.53381630433E+02 -0.10389101849E+04  0.10997781331E+04  0.50400001928E-02 0.  1.
</event>
<event>
 5   0  0.5941585E-03  0.1089374E+04  0.7818609E-02  0.9215611E-01
        2   -1    0    0  501    0  0.00000000000E+00  0.00000000000E+00  0.73145052447E+03  0.73145052447E+03  0.25500000920E-02 0.  1.
       -2   -1    0    0    0  501  0.00000000000E+00  0.00000000000E+00 -0.40561014711E+03  0.40561014712E+03  0.25500000920E-02 0. -1.
    10030    2    1    2    0    0  0.00000000000E+00  0.00000000000E+00  0.32584037735E+03  0.11370606716E+04  0.10893736822E+04 0.  0.
        5    1    3    3  502    0  0.22830340172E+03  0.48708656410E+03  0.73826204018E+02  0.54299922888E+03  0.46999998093E+01 0. -1.
       -5    1    3    3    0  502 -0.22830340172E+03 -0.48708656410E+03  0.25201417334E+03  0.59406144272E+03  0.46999998093E+01 0.  1.
</event>
<event>
 5   0  0.2185750E-03  0.1083076E+04  0.7818609E-02  0.9221846E-01
       -4   -1    0    0    0  501  0.00000000000E+00  0.00000000000E+00  0.52172659363E+03  0.52172813937E+03  0.12699999809E+01 0. -1.
        4   -1    0    0  501    0  0.00000000000E+00  0.00000000000E+00 -0.56209857216E+03  0.56210000687E+03  0.12699999809E+01 0.  1.
    10030    2    1    2    0    0  0.00000000000E+00  0.00000000000E+00 -0.40371978525E+02  0.10838281462E+04  0.10830759687E+04 0.  0.
        4    1    3    3  502    0 -0.31712673420E+03  0.75710312966E+02  0.41250342614E+03  0.52579663988E+03  0.12699999809E+01 0. -1.
       -4    1    3    3    0  502  0.31712673420E+03 -0.75710312966E+02 -0.45287540467E+03  0.55803150635E+03  0.12699999809E+01 0.  1.
</event>
<event>
 5   0  0.5500363E-03  0.1098689E+04  0.7818609E-02  0.9206470E-01
       -2   -1    0    0    0  501  0.00000000000E+00  0.00000000000E+00  0.67791850416E+03  0.67791850417E+03  0.25500000920E-02 0.  1.
        2   -1    0    0  501    0  0.00000000000E+00  0.00000000000E+00 -0.44515620992E+03  0.44515620993E+03  0.25500000920E-02 0. -1.
    10030    2    1    2    0    0  0.00000000000E+00  0.00000000000E+00  0.23276229424E+03  0.11230747141E+04  0.10986894592E+04 0.  0.
        3    1    3    3  502    0  0.39771333014E+03  0.37729343923E+03  0.15257015821E+03  0.56903769264E+03  0.10100000352E+00 0.  1.
       -3    1    3    3    0  502 -0.39771333014E+03 -0.37729343923E+03  0.80192136031E+02  0.55403702146E+03  0.10100000352E+00 0. -1.
</event>
<event>
 5   0  0.3320192E-03  0.1102788E+04  0.7818609E-02  0.9202479E-01
       -1   -1    0    0    0  501  0.00000000000E+00  0.00000000000E+00  0.23692802586E+03  0.23692802591E+03  0.50400001928E-02 0. -1.
        1   -1    0    0  501    0  0.00000000000E+00  0.00000000000E+00 -0.12832394881E+04  0.12832394881E+04  0.50400001928E-02 0.  1.
    10030    2    1    2    0    0  0.00000000000E+00  0.00000000000E+00 -0.10463114622E+04  0.15201675140E+04  0.11027881005E+04 0.  0.
        2    1    3    3  502    0 -0.41703165080E+03 -0.17721057397E+03 -0.90049870882E+02  0.46198264529E+03  0.25500000920E-02 0. -1.
       -2    1    3    3    0  502  0.41703165080E+03  0.17721057397E+03 -0.95626159137E+03  0.10581848687E+04  0.25500000920E-02 0.  1.
</event>
<event>
 5   0  0.3241189E-03  0.1080036E+04  0.7818609E-02  0.9224872E-01
       -1   -1    0    0    0  501  0.00000000000E+00  0.00000000000E+00  0.50158701640E+03  0.50158701643E+03  0.50400001928E-02 0. -1.
        1   -1    0    0  501    0  0.00000000000E+00  0.00000000000E+00 -0.58139312053E+03  0.58139312055E+03  0.50400001928E-02 0.  1.
    10030    2    1    2    0    0  0.00000000000E+00  0.00000000000E+00 -0.79806104125E+02  0.10829801370E+04  0.10800356304E+04 0.  0.
        5    1    3    3  502    0  0.19658452861E+03 -0.44096602161E+03  0.20262541559E+03  0.52361785507E+03  0.46999998093E+01 0. -1.
       -5    1    3    3    0  502 -0.19658452861E+03  0.44096602161E+03 -0.28243151972E+03  0.55936228191E+03  0.46999998093E+01 0.  1.
</event>
<event>
 5   0  0.5627232E-03  0.1099450E+04  0.7818609E-02  0.9205728E-01
        2   -1    0    0  501    0  0.00000000000E+00  0.00000000000E+00  0.13156925336E+04  0.13156925336E+04  0.25500000920E-02 0. -1.
       -2   -1    0    0    0  501  0.00000000000E+00  0.00000000000E+00 -0.22968695988E+03  0.22968695989E+03  0.25500000920E-02 0.  1.
    10030    2    1    2    0    0  0.00000000000E+00  0.00000000000E+00  0.10860055738E+04  0.15453794935E+04  0.10994497136E+04 0.  0.
        2    1    3    3  502    0 -0.11727132900E+03  0.52070826985E+02 -0.20834384137E+03  0.24468570018E+03  0.25500000920E-02 0.  1.
       -2    1    3    3    0  502  0.11727132900E+03 -0.52070826985E+02  0.12943494151E+04  0.13006937934E+04  0.25500000920E-02 0. -1.
</event>
<event>
 5   0  0.5723194E-03  0.1107112E+04  0.7818609E-02  0.9198287E-01
        2   -1    0    0  501    0  0.00000000000E+00  0.00000000000E+00  0.36697111228E+03  0.36697111229E+03  0.25500000920E-02 0.  1.
       -2   -1    0    0    0  501  0.00000000000E+00  0.00000000000E+00 -0.83500977730E+03  0.83500977730E+03  0.25500000920E-02 0. -1.
    10030    2    1    2    0    0  0.00000000000E+00  0.00000000000E+00 -0.46803866501E+03  0.12019808896E+04  0.11071124003E+04 0.  0.
        1    1    3    3  502    0 -0.29503546307E+03  0.26660952528E+03 -0.65211277217E+03  0.76379161497E+03  0.50400001928E-02 0. -1.
       -1    1    3    3    0  502  0.29503546307E+03 -0.26660952528E+03  0.18407410716E+03  0.43818927462E+03  0.50400001928E-02 0.  1.
</event>
<event>
 5   0  0.3320192E-03  0.1087217E+04  0.7818609E-02  0.9217742E-01
        1   -1    0    0  501    0  0.00000000000E+00  0.00000000000E+00  0.16521693477E+04  0.16521693478E+04  0.50400001928E-02 0.  1.
       -1   -1    0    0    0  501  0.00000000000E+00  0.00000000000E+00 -0.17886180574E+03  0.17886180581E+03  0.50400001928E-02 0. -1.
    10030    2    1    2    0    0  0.00000000000E+00  0.00000000000E+00  0.14733075420E+04  0.18310311536E+04  0.10872166169E+04 0.  0.
        2    1    3    3  502    0  0.51619243241E+03 -0.10023397500E+03  0.50445829273E+03  0.72868350203E+03  0.25500000920E-02 0. -1.
       -2    1    3    3    0  502 -0.51619243241E+03  0.10023397500E+03  0.96884924928E+03  0.11023476515E+04  0.25500000920E-02 0.  1.
</event>
<event>
 5   0  0.3328741E-03  0.1071791E+04  0.7818609E-02  0.9233130E-01
       -1   -1    0    0    0  501  0.00000000000E+00  0.00000000000E+00  0.43101392180E+03  0.43101392183E+03  0.50400001928E-02 0.  1.
        1   -1    0    0  501    0  0.00000000000E+00  0.00000000000E+00 -0.66629916120E+03  0.66629916122E+03  0.50400001928E-02 0. -1.
    10030    2    1    2    0    0  0.00000000000E+00  0.00000000000E+00 -0.23528523940E+03  0.10973130830E+04  0.10717914248E+04 0.  0.
        3    1    3    3  502    0  0.44770603120E+03  0.18721146863E+03  0.11513763838E+03  0.49874393263E+03  0.10100000352E+00 0.  1.
       -3    1    3    3    0  502 -0.44770603120E+03 -0.18721146863E+03 -0.35042287778E+03  0.59856915042E+03  0.10100000352E+00 0. -1.
</event>
<event>
 5   0  0.5627232E-03  0.1096964E+04  0.7818609E-02  0.9208156E-01
       -2   -1    0    0    0  501  0.00000000000E+00  0.00000000000E+00  0.17837604781E+03  0.17837604783E+03  0.25500000920E-02 0. -1.
        2   -1    0    0  501    0  0.00000000000E+00  0.00000000000E+00 -0.16865078564E+04  0.16865078564E+04  0.25500000920E-02 0.  1.
    10030    2    1    2    0    0  0.00000000000E+00  0.00000000000E+00 -0.15081318086E+04  0.18648839043E+04  0.10969641855E+04 0.  0.
        2    1    3    3  502    0 -0.19506116424E+03  0.39169747580E+03 -0.13162548730E+04  0.13870842300E+04  0.25500000920E-02 0.  1.
       -2    1    3    3    0  502  0.19506116424E+03 -0.39169747580E+03 -0.19187693565E+03  0.47779967432E+03  0.25500000920E-02 0. -1.
</event>
<event>
 5   0  0.3215352E-03  0.1135230E+04  0.7818609E-02  0.9171519E-01
        1   -1    0    0  501    0  0.00000000000E+00  0.00000000000E+00  0.77867474627E+03  0.77867474629E+03  0.50400001928E-02 0.  1.
       -1   -1    0    0    0  501  0.00000000000E+00  0.00000000000E+00 -0.41376292954E+03  0.41376292957E+03  0.50400001928E-02 0. -1.
    10030    2    1    2    0    0  0.00000000000E+00  0.00000000000E+00  0.36491181674E+03  0.11924376759E+04  0.11352299224E+04 0.  0.
        1    1    3    3  502    0 -0.53198879890E+03  0.19163619208E+03  0.23445017475E+03  0.61213021224E+03  0.50400001928E-02 0.  1.
       -1    1    3    3    0  502  0.53198879890E+03 -0.19163619208E+03  0.13046164199E+03  0.58030746362E+03  0.50400001928E-02 0. -1.
</event>
<event>
 5   0  0.3215352E-03  0.1101160E+04  0.7818609E-02  0.9204062E-01
        1   -1    0    0  501    0  0.00000000000E+00  0.00000000000E+00  0.13754061577E+04  0.13754061577E+04  0.50400001928E-02 0.  1.
       -1   -1    0    0    0  501  0.00000000000E+00  0.00000000000E+00 -0.22039908348E+03  0.22039908354E+03  0.50400001928E-02 0. -1.
    10030    2    1    2    0    0  0.00000000000E+00  0.00000000000E+00  0.11550070742E+04  0.15958052413E+04  0.11011598551E+04 0.  0.
        1    1    3    3  502    0  0.22999412805E+03  0.27011484661E+03  0.11876836863E+04  0.12395369571E+04  0.50400001928E-02 0.  1.
       -1    1    3    3    0  502 -0.22999412805E+03 -0.27011484661E+03 -0.32676612072E+02  0.35626828416E+03  0.50400001928E-02 0. -1.
</event>
<event>
 5   0  0.3320192E-03  0.1105016E+04  0.7818609E-02  0.9200317E-01
       -1   -1    0    0    0  501  0.00000000000E+00  0.00000000000E+00  0.19824208312E+03  0.19824208318E+03  0.50400001928E-02 0. -1.
        1   -1    0    0  501    0  0.00000000000E+00  0.00000000000E+00 -0.15398593268E+04  0.15398593268E+04  0.50400001928E-02 0.  1.
    10030    2    1    2    0    0  0.00000000000E+00  0.00000000000E+00 -0.13416172437E+04  0.17381014100E+04  0.11050156935E+04 0.  0.
        2    1    3    3  502    0  0.16958480359E+03  0.48495381546E+03 -0.99056324928E+03  0.11158650275E+04  0.25500000920E-02 0.  1.
       -2    1    3    3    0  502 -0.16958480359E+03 -0.48495381546E+03 -0.35105399443E+03  0.62223638254E+03  0.25500000920E-02 0. -1.
</event>
<event>
 5   0  0.5946359E-03  0.1096135E+04  0.7818609E-02  0.9208967E-01
        2   -1    0    0  501    0  0.00000000000E+00  0.00000000000E+00  0.12617144376E+04  0.12617144376E+04  0.25500000920E-02 0. -1.
       -2   -1    0    0    0  501  0.00000000000E+00  0.00000000000E+00 -0.23807121487E+03  0.23807121488E+03  0.25500000920E-02 0.  1.
    10030    2    1    2    0    0  0.00000000000E+00  0.00000000000E+00  0.10236432227E+04  0.14997856525E+04  0.10961348256E+04 0.  0.
        4    1    3    3  502    0 -0.54120538339E+03  0.59017195622E+02  0.42539438775E+03  0.69090396903E+03  0.12699999809E+01 0. -1.
       -4    1    3    3    0  502  0.54120538339E+03 -0.59017195622E+02  0.59824883500E+03  0.80888168348E+03  0.12699999809E+01 0.  1.
</event>
<event>
 5   0  0.2185750E-03  0.1099305E+04  0.7818609E-02  0.9205870E-01
        4   -1    0    0  501    0  0.00000000000E+00  0.00000000000E+00  0.35050849704E+03  0.35051079783E+03  0.12699999809E+01 0.  1.
       -4   -1    0    0    0  501  0.00000000000E+00  0.00000000000E+00 -0.86193545776E+03  0.86193639339E+03  0.12699999809E+01 0. -1.
    10030    2    1    2    0    0  0.00000000000E+00  0.00000000000E+00 -0.51142696073E+03  0.12124471912E+04  0.10993046235E+04 0.  0.
        1    1    3    3  502    0  0.49694352708E+03  0.15902550307E+03 -0.44634894900E+03  0.68663626763E+03  0.50400001928E-02 0. -1.
       -1    1    3    3    0  502 -0.49694352708E+03 -0.15902550307E+03 -0.65078011725E+02  0.52581092359E+03  0.50400001928E-02 0.  1.
</event>
<event>
 5   0  0.5946359E-03  0.1118540E+04  0.7818609E-02  0.9187307E-01
       -2   -1    0    0    0  501  0.00000000000E+00  0.00000000000E+00  0.10901929206E+04  0.10901929206E+04  0.25500000920E-02 0.  1.
        2   -1    0    0  501    0  0.00000000000E+00  0.00000000000E+00 -0.28690609636E+03  0.28690609637E+03  0.25500000920E-02 0. -1.
    10030    2    1    2    0    0  0.00000000000E+00  0.00000000000E+00  0.80328682422E+03  0.13770990170E+04  0.11185401113E+04 0.  0.
        4    1    3    3  502    0 -0.24054400156E+03  0.41233059512E+02 -0.21788672368E+03  0.32716634781E+03  0.12699999809E+01 0. -1.
       -4    1    3    3    0  502  0.24054400156E+03 -0.41233059512E+02  0.10211735479E+04  0.10499326691E+04  0.12699999809E+01 0.  1.
</event>
<event>
 5   0  0.5723194E-03  0.1113969E+04  0.7818609E-02  0.9191683E-01
       -2   -1    0    0    0  501  0.00000000000E+00  0.00000000000E+00  0.44735315032E+03  0.44735315033E+03  0.25500000920E-02 0. -1.
        2   -1    0    0  501    0  0.00000000000E+00  0.00000000000E+00 -0.69348267861E+03  0.69348267862E+03  0.25500000920E-02 0.  1.
    10030    2    1    2    0    0  0.00000000000E+00  0.00000000000E+00 -0.24612952829E+03  0.11408358289E+04  0.11139688703E+04 0.  0.
        1    1    3    3  502    0  0.34550785135E+03  0.11485287373E+03  0.30860417178E+03  0.47728753683E+03  0.50400001928E-02 0. -1.
       -1    1    3    3    0  502 -0.34550785135E+03 -0.11485287373E+03 -0.55473370007E+03  0.66354829212E+03  0.50400001928E-02 0.  1.
</event>
<event>
 5   0  0.2185750E-03  0.1094351E+04  0.7818609E-02  0.9210715E-01
        4   -1    0    0  501    0  0.00000000000E+00  0.00000000000E+00  0.40003127990E+03  0.40003329586E+03  0.12699999809E+01 0.  1.
       -4   -1    0    0    0  501  0.00000000000E+00  0.00000000000E+00 -0.74843968859E+03  0.74844076609E+03  0.12699999809E+01 0. -1.
    10030    2    1    2    0    0  0.00000000000E+00  0.00000000000E+00 -0.34840840869E+03  0.11484740620E+04  0.10943510642E+04 0.  0.
        2    1    3    3  502    0  0.16085865573E+03 -0.24230124485E+03 -0.66060860810E+03  0.72179576992E+03  0.25500000920E-02 0. -1.
       -2    1    3    3    0  502 -0.16085865573E+03  0.24230124485E+03  0.31220019941E+03  0.42667829204E+03  0.25500000920E-02 0.  1.
</event>
<event>
 5   0  0.5500363E-03  0.1126563E+04  0.7818609E-02  0.9179681E-01
        2   -1    0    0  501    0  0.00000000000E+00  0.00000000000E+00  0.92390114607E+03  0.92390114607E+03  0.25500000920E-02 0. -1.
       -2   -1    0    0    0  501  0.00000000000E+00  0.00000000000E+00 -0.34342020538E+03  0.34342020539E+03  0.25500000920E-02 0.  1.
    10030    2    1    2    0    0  0.00000000000E+00  0.00000000000E+00  0.58048094069E+03  0.12673213515E+04  0.11265634848E+04 0.  0.
        3    1    3    3  502    0  0.38534023569E+03 -0.26738158065E+03 -0.60674236912E+02  0.47292851483E+03  0.10100000352E+00 0.  1.
       -3    1    3    3    0  502 -0.38534023569E+03  0.26738158065E+03  0.64115517760E+03  0.79439283663E+03  0.10100000352E+00 0. -1.
</event>
<event>
 5   0  0.5946359E-03  0.1104822E+04  0.7818609E-02  0.9200505E-01
        2   -1    0    0  501    0  0.00000000000E+00  0.00000000000E+00  0.12400850604E+04  0.12400850604E+04  0.25500000920E-02 0. -1.
       -2   -1    0    0    0  501  0.00000000000E+00  0.00000000000E+00 -0.24607817705E+03  0.24607817706E+03  0.25500000920E-02 0.  1.
    10030    2    1    2    0    0  0.00000000000E+00  0.00000000000E+00  0.99400688336E+03  0.14861632375E+04  0.11048219242E+04 0.  0.
        4    1    3    3  502    0 -0.25245184161E+03 -0.41490842309E+03  0.14295432085E+03  0.50627905609E+03  0.12699999809E+01 0.  1.
       -4    1    3    3    0  502  0.25245184161E+03  0.41490842309E+03  0.85105256251E+03  0.97988418139E+03  0.12699999809E+01 0. -1.
</event>
<event>
 5   0  0.3328741E-03  0.1098511E+04  0.7818609E-02  0.9206645E-01
       -1   -1    0    0    0  501  0.00000000000E+00  0.00000000000E+00  0.40893716146E+03  0.40893716149E+03  0.50400001928E-02 0.  1.
        1   -1    0    0  501    0  0.00000000000E+00  0.00000000000E+00 -0.73772072496E+03  0.73772072497E+03  0.50400001928E-02 0. -1.
    10030    2    1    2    0    0  0.00000000000E+00  0.00000000000E+00 -0.32878356350E+03  0.11466578865E+04  0.10985106631E+04 0.  0.
        3    1    3    3  502    0 -0.21959301874E+03 -0.55875251805E+02 -0.68665953293E+03  0.72307984484E+03  0.10100000352E+00 0. -1.
       -3    1    3    3    0  502  0.21959301874E+03  0.55875251805E+02  0.35787596944E+03  0.42357804162E+03  0.10100000352E+00 0.  1.
</event>
<event>
 5   0  0.3320192E-03  0.1112588E+04  0.7818609E-02  0.9193009E-01
       -1   -1    0    0    0  501  0.00000000000E+00  0.00000000000E+00  0.35152281666E+03  0.35152281669E+03  0.50400001928E-02 0.  1.
        1   -1    0    0  501    0  0.00000000000E+00  0.00000000000E+00 -0.88034982638E+03  0.88034982639E+03  0.50400001928E-02 0. -1.
    10030    2    1    2    0    0  0.00000000000E+00  0.00000000000E+00 -0.52882700972E+03  0.12318726431E+04  0.11125880651E+04 0.  0.
        2    1    3    3  502    0 -0.19895586129E+03  0.49582745030E+03 -0.92760556493E+02  0.54224792859E+03  0.25500000920E-02 0.  1.
       -2    1    3    3    0  502  0.19895586129E+03 -0.49582745030E+03 -0.43606645323E+03  0.68962471450E+03  0.25500000920E-02 0. -1.
</event>
<event>
 5   0  0.3241189E-03  0.1122463E+04  0.7818609E-02  0.9183570E-01
       -1   -1    0    0    0  501  0.00000000000E+00  0.00000000000E+00  0.86249914044E+03  0.86249914046E+03  0.50400001928E-02 0.  1.
        1   -1    0    0  501    0  0.00000000000E+00  0.00000000000E+00 -0.36519563852E+03  0.36519563855E+03  0.50400001928E-02 0. -1.
    10030    2    1    2    0    0  0.00000000000E+00  0.00000000000E+00  0.49730350193E+03  0.12276947790E+04  0.11224632276E+04 0.  0.
        5    1    3    3  502    0 -0.30823824237E+03 -0.37650285595E+03  0.55449855432E+03  0.73773704755E+03  0.46999998093E+01 0. -1.
       -5    1    3    3    0  502  0.30823824237E+03  0.37650285595E+03 -0.57195052391E+02  0.48995773145E+03  0.46999998093E+01 0.  1.
</event>
<event>
 5   0  0.5946359E-03  0.1091678E+04  0.7818609E-02  0.9213341E-01
       -2   -1    0    0    0  501  0.00000000000E+00  0.00000000000E+00  0.19513719348E+03  0.19513719350E+03  0.25500000920E-02 0. -1.
        2   -1    0    0  501    0  0.00000000000E+00  0.00000000000E+00 -0.15268246307E+04  0.15268246307E+04  0.25500000920E-02 0.  1.
    10030    2    1    2    0    0  0.00000000000E+00  0.00000000000E+00 -0.13316874372E+04  0.17219618242E+04  0.10916781089E+04 0.  0.
        4    1    3    3  502    0 -0.32511489525E+03 -0.99037919926E+01  0.25571294389E+02  0.32627179499E+03  0.12699999809E+01 0. -1.
       -4    1    3    3    0  502  0.32511489525E+03  0.99037919926E+01 -0.13572587316E+04  0.13956900292E+04  0.12699999809E+01 0.  1.
</event>
<event>
 5   0  0.3215352E-03  0.1105270E+04  0.7818609E-02  0.9200070E-01
       -1   -1    0    0    0  501  0.00000000000E+00  0.00000000000E+00  0.35258201287E+03  0.35258201291E+03  0.50400001928E-02 0. -1.
        1   -1    0    0  501    0  0.00000000000E+00  0.00000000000E+00 -0.86619720729E+03  0.86619720730E+03  0.50400001928E-02 0.  1.
    10030    2    1    2    0    0  0.00000000000E+00  0.00000000000E+00 -0.51361519442E+03  0.12187792202E+04  0.11052702021E+04 0.  0.
        1    1    3    3  502    0  0.14618316382E+03 -0.17007627440E+03 -0.81376297855E+03  0.84410049271E+03  0.50400001928E-02 0.  1.
       -1    1    3    3    0  502 -0.14618316382E+03  0.17007627440E+03  0.30014778413E+03  0.37467872750E+03  0.50400001928E-02 0. -1.
</event>
<event>
 5   0  0.3241189E-03  0.1120440E+04  0.7818609E-02  0.9185495E-01
       -1   -1    0    0    0  501  0.00000000000E+00  0.00000000000E+00  0.58918268645E+03  0.58918268647E+03  0.50400001928E-02 0. -1.
        1   -1    0    0  501    0  0.00000000000E+00  0.00000000000E+00 -0.53268130809E+03  0.53268130811E+03  0.50400001928E-02 0.  1.
    10030    2    1    2    0    0  0.00000000000E+00  0.00000000000E+00  0.56501378364E+02  0.11218639946E+04  0.11204402780E+04 0.  0.
        5    1    3    3  502    0 -0.55813884801E+02  0.38242847876E+03 -0.37779856115E+03  0.54048179794E+03  0.46999998093E+01 0.  1.
       -5    1    3    3    0  502  0.55813884801E+02 -0.38242847876E+03  0.43429993952E+03  0.58138219664E+03  0.46999998093E+01 0. -1.
</event>
<event>
 5   0  0.3215352E-03  0.1092421E+04  0.7818609E-02  0.9212610E-01
       -1   -1    0    0    0  501  0.00000000000E+00  0.00000000000E+00  0.22024935034E+03  0.22024935040E+03  0.50400001928E-02 0. -1.
        1   -1    0    0  501    0  0.00000000000E+00  0.00000000000E+00 -0.13545826969E+04  0.13545826969E+04  0.50400001928E-02 0.  1.
    10030    2    1    2    0    0  0.00000000000E+00  0.00000000000E+00 -0.11343333466E+04  0.15748320473E+04  0.10924210892E+04 0.  0.
        1    1    3    3  502    0  0.70920885810E+02 -0.44821392002E+03 -0.10054230582E+04  0.11030870393E+04  0.50400001928E-02 0. -1.
       -1    1    3    3    0  502 -0.70920885810E+02  0.44821392002E+03 -0.12891028832E+03  0.47174500803E+03  0.50400001928E-02 0.  1.
</event>
<event>
 5   0  0.3320192E-03  0.1123621E+04  0.7818609E-02  0.9182471E-01
       -1   -1    0    0    0  501  0.00000000000E+00  0.00000000000E+00  0.72417527960E+03  0.72417527961E+03  0.50400001928E-02 0.  1.
        1   -1    0    0  501    0  0.00000000000E+00  0.00000000000E+00 -0.43584871820E+03  0.43584871823E+03  0.50400001928E-02 0. -1.
    10030    2    1    2    0    0  0.00000000000E+00  0.00000000000E+00  0.28832656140E+03  0.11600239978E+04  0.11236206965E+04 0.  0.
        2    1    3    3  502    0 -0.36933730359E+03 -0.34736864233E+03  0.39398626273E+03  0.64210606034E+03  0.25500000920E-02 0.  1.
       -2    1    3    3    0  502  0.36933730359E+03  0.34736864233E+03 -0.10565970133E+03  0.51791793750E+03  0.25500000920E-02 0. -1.
</event>
<event>
 5   0  0.5941585E-03  0.1106624E+04  0.7818609E-02  0.9198760E-01
        2   -1    0    0  501    0  0.00000000000E+00  0.00000000000E+00  0.17284614220E+04  0.17284614220E+04  0.25500000920E-02 0.  1.
       -2   -1    0    0    0  501  0.00000000000E+00  0.00000000000E+00 -0.17712521207E+03  0.17712521209E+03  0.25500000920E-02 0. -1.
    10030    2    1    2    0    0  0.00000000000E+00  0.00000000000E+00  0.15513362099E+04  0.19055866341E+04  0.11066238673E+04 0.  0.
        5    1    3    3  502    0 -0.25494746385E+03  0.38733212403E+02  0.16186193614E+04  0.16390391082E+04  0.46999998093E+01 0.  1.
       -5    1    3    3    0  502  0.25494746385E+03 -0.38733212403E+02 -0.67283151511E+02  0.26654752586E+03  0.46999998093E+01 0. -1.
</event>
<event>
 5   0  0.5946359E-03  0.1114477E+04  0.7818609E-02  0.9191195E-01
       -2   -1    0    0    0  501  0.00000000000E+00  0.00000000000E+00  0.18555857752E+03  0.18555857753E+03  0.25500000920E-02 0. -1.
        2   -1    0    0  501    0  0.00000000000E+00  0.00000000000E+00 -0.16734053150E+04  0.16734053150E+04  0.25500000920E-02 0.  1.
    10030    2    1    2    0    0  0.00000000000E+00  0.00000000000E+00 -0.14878467375E+04  0.18589638925E+04  0.11144769354E+04 0.  0.
        4    1    3    3  502    0 -0.15739221414E+03 -0.51499201650E+03 -0.98288654774E+03  0.11207393385E+04  0.12699999809E+01 0.  1.
       -4    1    3    3    0  502  0.15739221414E+03  0.51499201650E+03 -0.50496018975E+03  0.73822455409E+03  0.12699999809E+01 0. -1.
</event>
<event>
 5   0  0.3328741E-03  0.1106986E+04  0.7818609E-02  0.9198409E-01
       -1   -1    0    0    0  501  0.00000000000E+00  0.00000000000E+00  0.27152005353E+03  0.27152005358E+03  0.50400001928E-02 0.  1.
        1   -1    0    0  501    0  0.00000000000E+00  0.00000000000E+00 -0.11282946336E+04  0.11282946336E+04  0.50400001928E-02 0. -1.
    10030    2    1    2    0    0  0.00000000000E+00  0.00000000000E+00 -0.85677458009E+03  0.13998146872E+04  0.11069862138E+04 0.  0.
        3    1    3    3  502    0  0.17301944157E+03 -0.26293447090E+03  0.14733306758E+03  0.34753029530E+03  0.10100000352E+00 0.  1.
       -3    1    3    3    0  502 -0.17301944157E+03  0.26293447090E+03 -0.10041076477E+04  0.10522843919E+04  0.10100000352E+00 0. -1.
</event>
<event>
 5   0  0.3320192E-03  0.1091357E+04  0.7818609E-02  0.9213657E-01
        1   -1    0    0  501    0  0.00000000000E+00  0.00000000000E+00  0.51001684078E+03  0.51001684081E+03  0.50400001928E-02 0.  1.
       -1   -1    0    0    0  501  0.00000000000E+00  0.00000000000E+00 -0.58383408457E+03  0.58383408459E+03  0.50400001928E-02 0. -1.
    10030    2    1    2    0    0  0.00000000000E+00  0.00000000000E+00 -0.73817243788E+02  0.10938509254E+04  0.10913573482E+04 0.  0.
        2    1    3    3  502    0 -0.28060735192E+03  0.44002052480E+03 -0.19666750323E+03  0.55770660300E+03  0.25500000920E-02 0. -1.
       -2    1    3    3    0  502  0.28060735192E+03 -0.44002052480E+03  0.12285025945E+03  0.53614432240E+03  0.25500000920E-02 0.  1.
</event>
<event>
 5   0  0.5946359E-03  0.1112213E+04  0.7818609E-02  0.9193369E-01
        2   -1    0    0  501    0  0.00000000000E+00  0.00000000000E+00  0.79963051287E+03  0.79963051288E+03  0.25500000920E-02 0. -1.
       -2   -1    0    0    0  501  0.00000000000E+00  0.00000000000E+00 -0.38674659169E+03  0.38674659169E+03  0.25500000920E-02 0.  1.
    10030    2    1    2    0    0  0.00000000000E+00  0.00000000000E+00  0.41288392119E+03  0.11863771046E+04  0.11122128851E+04 0.  0.
        4    1    3    3  502    0 -0.32625261830E+03  0.25097577868E+03  0.60530553408E+03  0.73200137631E+03  0.12699999809E+01 0. -1.
       -4    1    3    3    0  502  0.32625261830E+03 -0.25097577868E+03 -0.19242161289E+03  0.45437572826E+03  0.12699999809E+01 0.  1.
</event>
<event>
 5   0  0.3215352E-03  0.1086117E+04  0.7818609E-02  0.9218830E-01
        1   -1    0    0  501    0  0.00000000000E+00  0.00000000000E+00  0.91120071378E+03  0.91120071380E+03  0.50400001928E-02 0. -1.
       -1   -1    0    0    0  501  0.00000000000E+00  0.00000000000E+00 -0.32365276755E+03  0.32365276759E+03  0.50400001928E-02 0.  1.
    10030    2    1    2    0    0  0.00000000000E+00  0.00000000000E+00  0.58754794624E+03  0.12348534814E+04  0.10861171812E+04 0.  0.
        1    1    3    3  502    0  0.39810746758E+03  0.12180510645E+03 -0.10266979141E+03  0.42879730152E+03  0.50400001928E-02 0.  1.
       -1    1    3    3    0  502 -0.39810746758E+03 -0.12180510645E+03  0.69021773765E+03  0.80605617986E+03  0.50400001928E-02 0. -1.
</event>
<event>
 5   0  0.5723194E-03  0.1083269E+04  0.7818609E-02  0.9221654E-01
        2   -1    0    0  501    0  0.00000000000E+00  0.00000000000E+00  0.13958580230E+04  0.13958580230E+04  0.25500000920E-02 0.  1.
       -2   -1    0    0    0  501  0.00000000000E+00  0.00000000000E+00 -0.21017030608E+03  0.21017030610E+03  0.25500000920E-02 0. -1.
    10030    2    1    2    0    0  0.00000000000E+00  0.00000000000E+00  0.11856877169E+04  0.16060283291E+04  0.10832689564E+04 0.  0.
        1    1    3    3  502    0 -0.75105065620E+02 -0.53446274526E+03  0.66040623738E+03  0.85289366005E+03  0.50400001928E-02 0.  1.
       -1    1    3    3    0  502  0.75105065620E+02  0.53446274526E+03  0.52528147949E+03  0.75313466901E+03  0.50400001928E-02 0. -1.
</event>
<event>
 5   0  0.3215352E-03  0.1105776E+04  0.7818609E-02  0.9199580E-01
        1   -1    0    0  501    0  0.00000000000E+00  0.00000000000E+00  0.10121495010E+04  0.10121495010E+04  0.50400001928E-02 0.  1.
       -1   -1    0    0    0  501  0.00000000000E+00  0.00000000000E+00 -0.30201580062E+03  0.30201580066E+03  0.50400001928E-02 0. -1.
    10030    2    1    2    0    0  0.00000000000E+00  0.00000000000E+00  0.71013370041E+03  0.13141653017E+04  0.11057760025E+04 0.  0.
        1    1    3    3  502    0 -0.48566795099E+03  0.12563821813E+03  0.78826227563E+02  0.50781088473E+03  0.50400001928E-02 0. -1.
       -1    1    3    3    0  502  0.48566795099E+03 -0.12563821813E+03  0.63130747285E+03  0.80635441697E+03  0.50400001928E-02 0.  1.
</event>
<event>
 5   0  0.3215352E-03  0.1091255E+04  0.7818609E-02  0.9213758E-01
        1   -1    0    0  501    0  0.00000000000E+00  0.00000000000E+00  0.77169919616E+03  0.77169919618E+03  0.50400001928E-02 0.  1.
       -1   -1    0    0    0  501  0.00000000000E+00  0.00000000000E+00 -0.38578407707E+03  0.38578407711E+03  0.50400001928E-02 0. -1.
    10030    2    1    2    0    0  0.00000000000E+00  0.00000000000E+00  0.38591511909E+03  0.11574832733E+04  0.10912548047E+04 0.  0.
        1    1    3    3  502    0 -0.52493611870E+03 -0.84141553850E+02  0.32317443198E+03  0.62215708894E+03  0.50400001928E-02 0.  1.
       -1    1    3    3    0  502  0.52493611870E+03  0.84141553850E+02  0.62740687115E+02  0.53532618435E+03  0.50400001928E-02 0. -1.
</event>
<event>
 5   0  0.5500363E-03  0.1101688E+04  0.7818609E-02  0.9203548E-01
       -2   -1    0    0    0  501  0.00000000000E+00  0.00000000000E+00  0.16360113386E+03  0.16360113388E+03  0.25500000920E-02 0. -1.
        2   -1    0    0  501    0  0.00000000000E+00  0.00000000000E+00 -0.18546891631E+04  0.18546891631E+04  0.25500000920E-02 0.  1.
    10030    2    1    2    0    0  0.00000000000E+00  0.00000000000E+00 -0.16910880292E+04  0.20182902970E+04  0.11016882500E+04 0.  0.
        3    1    3    3  502    0  0.19529295115E+03  0.28780610021E+03 -0.63005293250E+02  0.35347045883E+03  0.10100000352E+00 0. -1.
       -3    1    3    3    0  502 -0.19529295115E+03 -0.28780610021E+03 -0.16280827360E+04  0.16648198382E+04  0.10100000352E+00 0.  1.
</event>
<event>
 5   0  0.3241189E-03  0.1099401E+04  0.7818609E-02  0.9205776E-01
       -1   -1    0    0    0  501  0.00000000000E+00  0.00000000000E+00  0.68973073175E+03  0.68973073177E+03  0.50400001928E-02 0. -1.
        1   -1    0    0  501    0  0.00000000000E+00  0.00000000000E+00 -0.43809913477E+03  0.43809913480E+03  0.50400001928E-02 0.  1.
    10030    2    1    2    0    0  0.00000000000E+00  0.00000000000E+00  0.25163159698E+03  0.11278298666E+04  0.10994006309E+04 0.  0.
        5    1    3    3  502    0  0.28983218854E+03  0.21926757991E+02  0.60442580767E+03  0.67069823856E+03  0.46999998093E+01 0. -1.
       -5    1    3    3    0  502 -0.28983218854E+03 -0.21926757991E+02 -0.35279421069E+03  0.45713162800E+03  0.46999998093E+01 0.  1.
</event>
<event>
 5   0  0.5500363E-03  0.1112644E+04  0.7818609E-02  0.9192955E-01
        2   -1    0    0  501    0  0.00000000000E+00  0.00000000000E+00  0.58939886440E+03  0.58939886440E+03  0.25500000920E-02 0. -1.
       -2   -1    0    0    0  501  0.00000000000E+00  0.00000000000E+00 -0.52510153131E+03  0.52510153131E+03  0.25500000920E-02 0.  1.
    10030    2    1    2    0    0  0.00000000000E+00  0.00000000000E+00  0.64297333093E+02  0.11145003957E+04  0.11126441412E+04 0.  0.
        3    1    3    3  502    0  0.53918451741E+03 -0.52019417113E+02  0.15912083464E+03  0.56457542790E+03  0.10100000352E+00 0. -1.
       -3    1    3    3    0  502 -0.53918451741E+03  0.52019417113E+02 -0.94823501545E+02  0.54992496781E+03  0.10100000352E+00 0.  1.
</event>
<event>
 5   0  0.5946359E-03  0.1112414E+04  0.7818609E-02  0.9193177E-01
       -2   -1    0    0    0  501  0.00000000000E+00  0.00000000000E+00  0.14999185023E+03  0.14999185025E+03  0.25500000920E-02 0. -1.
        2   -1    0    0  501    0  0.00000000000E+00  0.00000000000E+00 -0.20625520422E+04  0.20625520422E+04  0.25500000920E-02 0.  1.
    10030    2    1    2    0    0  0.00000000000E+00  0.00000000000E+00 -0.19125601920E+04  0.22125438925E+04  0.11124135868E+04 0.  0.
        4    1    3    3  502    0 -0.15456791730E+03  0.12732084858E+03  0.75800429156E+02  0.21412416375E+03  0.12699999809E+01 0. -1.
       -4    1    3    3    0  502  0.15456791730E+03 -0.12732084858E+03 -0.19883606211E+04  0.19984197287E+04  0.12699999809E+01 0.  1.
</event>
<event>
 5   0  0.5500363E-03  0.1090855E+04  0.7818609E-02  0.9214152E-01
       -2   -1    0    0    0  501  0.00000000000E+00  0.00000000000E+00  0.29160317611E+03  0.29160317612E+03  0.25500000920E-02 0.  1.
        2   -1    0    0  501    0  0.00000000000E+00  0.00000000000E+00 -0.10201909771E+04  0.10201909771E+04  0.25500000920E-02 0. -1.
    10030    2    1    2    0    0  0.00000000000E+00  0.00000000000E+00 -0.72858780096E+03  0.13117941532E+04  0.10908545809E+04 0.  0.
        3    1    3    3  502    0  0.14497928886E+03 -0.51752879641E+03 -0.47604501688E+03  0.71796512284E+03  0.10100000352E+00 0. -1.
       -3    1    3    3    0  502 -0.14497928886E+03  0.51752879641E+03 -0.25254278408E+03  0.59382903036E+03  0.10100000352E+00 0.  1.
</event>
<event>
 5   0  0.5723194E-03  0.1119915E+04  0.7818609E-02  0.9185996E-01
        2   -1    0    0  501    0  0.00000000000E+00  0.00000000000E+00  0.16867057248E+04  0.16867057248E+04  0.25500000920E-02 0. -1.
       -2   -1    0    0    0  501  0.00000000000E+00  0.00000000000E+00 -0.18589618513E+03  0.18589618515E+03  0.25500000920E-02 0.  1.
    10030    2    1    2    0    0  0.00000000000E+00  0.00000000000E+00  0.15008095397E+04  0.18726019100E+04  0.11199145676E+04 0.  0.
        1    1    3    3  502    0 -0.81099515431E+02  0.44541104397E+03  0.19941498595E+03  0.49470644441E+03  0.50400001928E-02 0.  1.
       -1    1    3    3    0  502  0.81099515431E+02 -0.44541104397E+03  0.13013945538E+04  0.13778954656E+04  0.50400001928E-02 0. -1.
</event>
<event>
 5   0  0.3320192E-03  0.1114844E+04  0.7818609E-02  0.9190844E-01
       -1   -1    0    0    0  501  0.00000000000E+00  0.00000000000E+00  0.58304953495E+03  0.58304953497E+03  0.50400001928E-02 0.  1.
        1   -1    0    0  501    0  0.00000000000E+00  0.00000000000E+00 -0.53292066509E+03  0.53292066512E+03  0.50400001928E-02 0. -1.
    10030    2    1    2    0    0  0.00000000000E+00  0.00000000000E+00  0.50128869854E+02  0.11159702001E+04  0.11148437486E+04 0.  0.
        2    1    3    3  502    0  0.35215967779E+02 -0.27489600595E+03  0.50919675111E+03  0.57973210177E+03  0.25500000920E-02 0.  1.
       -2    1    3    3    0  502 -0.35215967779E+02  0.27489600595E+03 -0.45906788126E+03  0.53623809831E+03  0.25500000920E-02 0. -1.
</event>
<event>
 5   0  0.3316784E-03  0.1101435E+04  0.7818609E-02  0.9203794E-01
        1   -1    0    0  501    0  0.00000000000E+00  0.00000000000E+00  0.51792132707E+03  0.51792132710E+03  0.50400001928E-02 0.  1.
       -1   -1    0    0    0  501  0.00000000000E+00  0.00000000000E+00 -0.58559084432E+03  0.58559084434E+03  0.50400001928E-02 0. -1.
    10030    2    1    2    0    0  0.00000000000E+00  0.00000000000E+00 -0.67669517246E+02  0.11035121714E+04  0.11014354039E+04 0.  0.
        4    1    3    3  502    0  0.37892261516E+03 -0.31218154582E+03  0.21613258113E+03  0.53642760122E+03  0.12699999809E+01 0.  1.
       -4    1    3    3    0  502 -0.37892261516E+03  0.31218154582E+03 -0.28380209837E+03  0.56708457021E+03  0.12699999809E+01 0. -1.
</event>
<event>
 5   0  0.5941585E-03  0.1084773E+04  0.7818609E-02  0.9220162E-01
       -2   -1    0    0    0  501  0.00000000000E+00  0.00000000000E+00  0.23810050026E+03  0.23810050028E+03  0.25500000920E-02 0.  1.
        2   -1    0    0  501    0  0.00000000000E+00  0.00000000000E+00 -0.12355414425E+04  0.12355414425E+04  0.25500000920E-02 0. -1.
    10030    2    1    2    0    0  0.00000000000E+00  0.00000000000E+00 -0.99744094227E+03  0.14736419428E+04  0.10847728529E+04 0.  0.
        5    1    3    3  502    0  0.19880749918E+03  0.23726670362E+03  0.10628521109E+03  0.32732025062E+03  0.46999998093E+01 0.  1.
       -5    1    3    3    0  502 -0.19880749918E+03 -0.23726670362E+03 -0.11037261534E+04  0.11463216922E+04  0.46999998093E+01 0. -1.
</event>
<event>
 5   0  0.3215352E-03  0.1106111E+04  0.7818609E-02  0.9199256E-01
        1   -1    0    0  501    0  0.00000000000E+00  0.00000000000E+00  0.96781749442E+03  0.96781749443E+03  0.50400001928E-02 0.  1.
       -1   -1    0    0    0  501  0.00000000000E+00  0.00000000000E+00 -0.31604122694E+03  0.31604122698E+03  0.50400001928E-02 0. -1.
    10030    2    1    2    0    0  0.00000000000E+00  0.00000000000E+00  0.65177626748E+03  0.12838587214E+04  0.11061107149E+04 0.  0.
        1    1    3    3  502    0 -0.46917311765E+03 -0.25279721868E+03  0.49742154896E+03  0.72901169092E+03  0.50400001928E-02 0.  1.
       -1    1    3    3    0  502  0.46917311765E+03  0.25279721868E+03  0.15435471852E+03  0.55484703050E+03  0.50400001928E-02 0. -1.
</event>
<event>
 5   0  0.3316784E-03  0.1191201E+04  0.7818609E-02  0.9120593E-01
        1   -1    0    0  501    0  0.00000000000E+00  0.00000000000E+00  0.12668134237E+04  0.12668134237E+04  0.50400001928E-02 0. -1.
       -1   -1    0    0    0  501  0.00000000000E+00  0.00000000000E+00 -0.28002549520E+03  0.28002549525E+03  0.50400001928E-02 0.  1.
    10030    2    1    2    0    0  0.00000000000E+00  0.00000000000E+00  0.98678792847E+03  0.15468389189E+04  0.11912011691E+04 0.  0.
        4    1    3    3  502    0  0.57226673280E+03  0.11807672774E+03  0.64319056429E+03  0.86898046123E+03  0.12699999809E+01 0. -1.
       -4    1    3    3    0  502 -0.57226673280E+03 -0.11807672774E+03  0.34359736419E+03  0.67785845771E+03  0.12699999809E+01 0.  1.
</event>
<event>
 5   0  0.3241189E-03  0.1099130E+04  0.7818609E-02  0.9206040E-01
        1   -1    0    0  501    0  0.00000000000E+00  0.00000000000E+00  0.49302854454E+03  0.49302854457E+03  0.50400001928E-02 0.  1.
       -1   -1    0    0    0  501  0.00000000000E+00  0.00000000000E+00 -0.61258464062E+03  0.61258464065E+03  0.50400001928E-02 0. -1.
    10030    2    1    2    0    0  0.00000000000E+00  0.00000000000E+00 -0.11955609609E+03  0.11056131852E+04  0.10991300447E+04 0.  0.
        5    1    3    3  502    0  0.19297258378E+03  0.27230645284E+03  0.37938665557E+03  0.50531727337E+03  0.46999998093E+01 0.  1.
       -5    1    3    3    0  502 -0.19297258378E+03 -0.27230645284E+03 -0.49894275165E+03  0.60029591184E+03  0.46999998093E+01 0. -1.
</event>
<event>
 5   0  0.5946359E-03  0.1107209E+04  0.7818609E-02  0.9198194E-01
       -2   -1    0    0    0  501  0.00000000000E+00  0.00000000000E+00  0.21483155366E+03  0.21483155368E+03  0.25500000920E-02 0. -1.
        2   -1    0    0  501    0  0.00000000000E+00  0.00000000000E+00 -0.14265955727E+04  0.14265955727E+04  0.25500000920E-02 0.  1.
    10030    2    1    2    0    0  0.00000000000E+00  0.00000000000E+00 -0.12117640191E+04  0.16414271264E+04  0.11072086404E+04 0.  0.
        4    1    3    3  502    0 -0.33831951423E+03  0.19870549273E+02  0.43071993368E+02  0.34163100261E+03  0.12699999809E+01 0. -1.
       -4    1    3    3    0  502  0.33831951423E+03 -0.19870549273E+02 -0.12548360124E+04  0.12997961238E+04  0.12699999809E+01 0.  1.
</event>
<event>
 5   0  0.3215352E-03  0.1090105E+04  0.7818609E-02  0.9214890E-01
        1   -1    0    0  501    0  0.00000000000E+00  0.00000000000E+00  0.83666392984E+03  0.83666392986E+03  0.50400001928E-02 0.  1.
       -1   -1    0    0    0  501  0.00000000000E+00  0.00000000000E+00 -0.35507954665E+03  0.35507954669E+03  0.50400001928E-02 0. -1.
    10030    2    1    2    0    0  0.00000000000E+00  0.00000000000E+00  0.48158438319E+03  0.11917434765E+04  0.10901050389E+04 0.  0.
        1    1    3    3  502    0  0.41333731204E+03  0.33888236453E+03  0.35748347328E+03  0.64302676788E+03  0.50400001928E-02 0. -1.
       -1    1    3    3    0  502 -0.41333731204E+03 -0.33888236453E+03  0.12410090991E+03  0.54871670867E+03  0.50400001928E-02 0.  1.
</event>
<event>
 5   0  0.5627232E-03  0.1104572E+04  0.7818609E-02  0.9200747E-01
       -2   -1    0    0    0  501  0.00000000000E+00  0.00000000000E+00  0.25027642729E+03  0.25027642730E+03  0.25500000920E-02 0. -1.
        2   -1    0    0  501    0  0.00000000000E+00  0.00000000000E+00 -0.12187308831E+04  0.12187308831E+04  0.25500000920E-02 0.  1.
    10030    2    1    2    0    0  0.00000000000E+00  0.00000000000E+00 -0.96845445577E+03  0.14690073104E+04  0.11045716115E+04 0.  0.
        2    1    3    3  502    0 -0.40367693998E+03 -0.37063470618E+03 -0.57534909726E+03  0.79457645386E+03  0.25500000920E-02 0. -1.
       -2    1    3    3    0  502  0.40367693998E+03  0.37063470618E+03 -0.39310535851E+03  0.67443085650E+03  0.25500000920E-02 0.  1.
</event>
<event>
 5   0  0.5941585E-03  0.1095990E+04  0.7818609E-02  0.9209109E-01
       -2   -1    0    0    0  501  0.00000000000E+00  0.00000000000E+00  0.18772660337E+03  0.18772660338E+03  0.25500000920E-02 0.  1.
        2   -1    0    0  501    0  0.00000000000E+00  0.00000000000E+00 -0.15996596225E+04  0.15996596226E+04  0.25500000920E-02 0. -1.
    10030    2    1    2    0    0  0.00000000000E+00  0.00000000000E+00 -0.14119330192E+04  0.17873862259E+04  0.10959902691E+04 0.  0.
        5    1    3    3  502    0 -0.46521727993E+03 -0.28835582921E+03 -0.66280692549E+03  0.85959950690E+03  0.46999998093E+01 0.  1.
       -5    1    3    3    0  502  0.46521727993E+03  0.28835582921E+03 -0.74912609369E+03  0.92778671904E+03  0.46999998093E+01 0. -1.
</event>
<event>
 5   0  0.3328741E-03  0.1080770E+04  0.7818609E-02  0.9224140E-01
       -1   -1    0    0    0  501  0.00000000000E+00  0.00000000000E+00  0.82619706502E+03  0.82619706504E+03  0.50400001928E-02 0. -1.
        1   -1    0    0  501    0  0.00000000000E+00  0.00000000000E+00 -0.35344563282E+03  0.35344563285E+03  0.50400001928E-02 0.  1.
    10030    2    1    2    0    0  0.00000000000E+00  0.00000000000E+00  0.47275143220E+03  0.11796426979E+04  0.10807696230E+04 0.  0.
        3    1    3    3  502    0 -0.20361414320E+03 -0.48174703299E+03  0.38474051244E+03  0.64927975112E+03  0.10100000352E+00 0.  1.
       -3    1    3    3    0  502  0.20361414320E+03  0.48174703299E+03  0.88010919758E+02  0.53036294677E+03  0.10100000352E+00 0. -1.
</event>
<event>
 5   0  0.2185750E-03  0.1008609E+04  0.7818609E-02  0.9299153E-01
       -3   -1    0    0    0  501  0.00000000000E+00  0.00000000000E+00  0.39512999062E+03  0.39513000352E+03  0.10100000352E+00 0. -1.
        3   -1    0    0  501    0  0.00000000000E+00  0.00000000000E+00 -0.64364331640E+03  0.64364332432E+03  0.10100000352E+00 0.  1.
    10030    2    1    2    0    0  0.00000000000E+00  0.00000000000E+00 -0.24851332578E+03  0.10387733278E+04  0.10086085234E+04 0.  0.
        5    1    3    3  502    0 -0.39555832957E+03  0.27973143985E+03  0.19873812051E+02  0.48490527832E+03  0.46999998093E+01 0. -1.
       -5    1    3    3    0  502  0.39555832957E+03 -0.27973143985E+03 -0.26838713783E+03  0.55386804953E+03  0.46999998093E+01 0.  1.
</event>
<event>
 5   0  0.3241189E-03  0.1041591E+04  0.7818609E-02  0.9264070E-01
       -1   -1    0    0    0  501  0.00000000000E+00  0.00000000000E+00  0.39081151982E+03  0.39081151985E+03  0.50400001928E-02 0. -1.
        1   -1    0    0  501    0  0.00000000000E+00  0.00000000000E+00 -0.69401163988E+03  0.69401163990E+03  0.50400001928E-02 0.  1.
    10030    2    1    2    0    0  0.00000000000E+00  0.00000000000E+00 -0.30320012006E+03  0.10848231597E+04  0.10415905986E+04 0.  0.
        5    1    3    3  502    0 -0.35208816785E+03 -0.34364013313E+03 -0.32942344972E+03  0.59211191363E+03  0.46999998093E+01 0.  1.
       -5    1    3    3    0  502  0.35208816785E+03  0.34364013313E+03  0.26223329654E+02  0.49271124612E+03  0.46999998093E+01 0. -1.
</event>
<event>
 5   0  0.5627232E-03  0.1093392E+04  0.7818609E-02  0.9211657E-01
       -2   -1    0    0    0  501  0.00000000000E+00  0.00000000000E+00  0.45317046380E+03  0.45317046381E+03  0.25500000920E-02 0.  1.
        2   -1    0    0  501    0  0.00000000000E+00  0.00000000000E+00 -0.65952315578E+03  0.65952315579E+03  0.25500000920E-02 0. -1.
    10030    2    1    2    0    0  0.00000000000E+00  0.00000000000E+00 -0.20635269198E+03  0.11126936196E+04  0.10933918134E+04 0.  0.
        2    1    3    3  502    0 -0.13484333207E+03 -0.15921209231E+03 -0.61741371005E+03  0.65171382056E+03  0.25500000920E-02 0. -1.
       -2    1    3    3    0  502  0.13484333207E+03  0.15921209231E+03  0.41106101807E+03  0.46097979904E+03  0.25500000920E-02 0.  1.
</event>
<event>
 5   0  0.3316784E-03  0.9777662E+03  0.7818609E-02  0.9333272E-01
       -1   -1    0    0    0  501  0.00000000000E+00  0.00000000000E+00  0.12608029863E+03  0.12608029873E+03  0.50400001928E-02 0.  1.
        1   -1    0    0  501    0  0.00000000000E+00  0.00000000000E+00 -0.18956704628E+04  0.18956704628E+04  0.50400001928E-02 0. -1.
    10030    2    1    2    0    0  0.00000000000E+00  0.00000000000E+00 -0.17695901641E+04  0.20217507615E+04  0.97776622598E+03 0.  0.
        4    1    3    3  502    0 -0.25050815084E+03  0.40175616184E+03 -0.63288265329E+03  0.79038244726E+03  0.12699999809E+01 0.  1.
       -4    1    3    3    0  502  0.25050815084E+03 -0.40175616184E+03 -0.11367075108E+04  0.12313683142E+04  0.12699999809E+01 0. -1.
</event>
<event>
 5   0  0.5500363E-03  0.1107722E+04  0.7818609E-02  0.9197698E-01
        2   -1    0    0  501    0  0.00000000000E+00  0.00000000000E+00  0.13205487998E+04  0.13205487998E+04  0.25500000920E-02 0.  1.
       -2   -1    0    0    0  501  0.00000000000E+00  0.00000000000E+00 -0.23229877747E+03  0.23229877748E+03  0.25500000920E-02 0. -1.
    10030    2    1    2    0    0  0.00000000000E+00  0.00000000000E+00  0.10882500223E+04  0.15528475773E+04  0.11077217553E+04 0.  0.
        3    1    3    3  502    0 -0.27378271642E+03  0.42885988787E+03  0.23736854352E+03  0.56144600354E+03  0.10100000352E+00 0.  1.
       -3    1    3    3    0  502  0.27378271642E+03 -0.42885988787E+03  0.85088147878E+03  0.99140157372E+03  0.10100000352E+00 0. -1.
</event>
<event>
 5   0  0.5941585E-03  0.1016167E+04  0.7818609E-02  0.9290989E-01
        2   -1    0    0  501    0  0.00000000000E+00  0.00000000000E+00  0.72096441023E+03  0.72096441023E+03  0.25500000920E-02 0. -1.
       -2   -1    0    0    0  501  0.00000000000E+00  0.00000000000E+00 -0.35806015192E+03  0.35806015193E+03  0.25500000920E-02 0.  1.
    10030    2    1    2    0    0  0.00000000000E+00  0.00000000000E+00  0.36290425831E+03  0.10790245622E+04  0.10161665735E+04 0.  0.
        5    1    3    3  502    0  0.70988371029E+02 -0.45619481756E+03 -0.43735564577E+02  0.46377575400E+03  0.46999998093E+01 0.  1.
       -5    1    3    3    0  502 -0.70988371029E+02  0.45619481756E+03  0.40663982288E+03  0.61524880816E+03  0.46999998093E+01 0. -1.
</event>
<event>
 5   0  0.5723194E-03  0.1122942E+04  0.7818609E-02  0.9183115E-01
        2   -1    0    0  501    0  0.00000000000E+00  0.00000000000E+00  0.19399640209E+04  0.19399640210E+04  0.25500000920E-02 0. -1.
       -2   -1    0    0    0  501  0.00000000000E+00  0.00000000000E+00 -0.16250297934E+03  0.16250297936E+03  0.25500000920E-02 0.  1.
    10030    2    1    2    0    0  0.00000000000E+00  0.00000000000E+00  0.17774610416E+04  0.21024670003E+04  0.11229424442E+04 0.  0.
        1    1    3    3  502    0  0.27726038474E+03 -0.25662505776E+03  0.11106712566E+03  0.39378375747E+03  0.50400001928E-02 0.  1.
       -1    1    3    3    0  502 -0.27726038474E+03  0.25662505776E+03  0.16663939160E+04  0.17086832428E+04  0.50400001928E-02 0. -1.
</event>
<event>
 5   0  0.3316784E-03  0.1109120E+04  0.7818609E-02  0.9196348E-01
       -1   -1    0    0    0  501  0.00000000000E+00  0.00000000000E+00  0.26228812213E+03  0.26228812218E+03  0.50400001928E-02 0. -1.
        1   -1    0    0  501    0  0.00000000000E+00  0.00000000000E+00 -0.11725149557E+04  0.11725149558E+04  0.50400001928E-02 0.  1.
    10030    2    1    2    0    0  0.00000000000E+00  0.00000000000E+00 -0.91022683361E+03  0.14348030779E+04  0.11091199141E+04 0.  0.
        4    1    3    3  502    0  0.24622955118E+03  0.10976593353E+03 -0.10820391381E+04  0.11151178688E+04  0.12699999809E+01 0.  1.
       -4    1    3    3    0  502 -0.24622955118E+03 -0.10976593353E+03  0.17181230451E+03  0.31968520910E+03  0.12699999809E+01 0. -1.
</event>
<event>
 5   0  0.5723194E-03  0.1108560E+04  0.7818609E-02  0.9196889E-01
        2   -1    0    0  501    0  0.00000000000E+00  0.00000000000E+00  0.12759777642E+04  0.12759777642E+04  0.25500000920E-02 0.  1.
       -2   -1    0    0    0  501  0.00000000000E+00  0.00000000000E+00 -0.24077704572E+03  0.24077704573E+03  0.25500000920E-02 0. -1.
    10030    2    1    2    0    0  0.00000000000E+00  0.00000000000E+00  0.10352007184E+04  0.15167548099E+04  0.11085597079E+04 0.  0.
        1    1    3    3  502    0 -0.47214704876E+03  0.53298260455E+02  0.12708738420E+03  0.49184829315E+03  0.50400001928E-02 0. -1.
       -1    1    3    3    0  502  0.47214704876E+03 -0.53298260455E+02  0.90811333423E+03  0.10249065167E+04  0.50400001928E-02 0.  1.
</event>
<event>
 5   0  0.3316784E-03  0.1091718E+04  0.7818609E-02  0.9213302E-01
        1   -1    0    0  501    0  0.00000000000E+00  0.00000000000E+00  0.22053197399E+03  0.22053197405E+03  0.50400001928E-02 0.  1.
       -1   -1    0    0    0  501  0.00000000000E+00  0.00000000000E+00 -0.13511048183E+04  0.13511048183E+04  0.50400001928E-02 0. -1.
    10030    2    1    2    0    0  0.00000000000E+00  0.00000000000E+00 -0.11305728443E+04  0.15716367923E+04  0.10917175691E+04 0.  0.
        4    1    3    3  502    0 -0.38698785894E+03  0.12782444512E+03 -0.42528158447E+02  0.40976694462E+03  0.12699999809E+01 0.  1.
       -4    1    3    3    0  502  0.38698785894E+03 -0.12782444512E+03 -0.10880446858E+04  0.11618698477E+04  0.12699999809E+01 0. -1.
</event>
<event>
 5   0  0.5946359E-03  0.1001403E+04  0.7818609E-02  0.9307008E-01
       -2   -1    0    0    0  501  0.00000000000E+00  0.00000000000E+00  0.54225755458E+03  0.54225755458E+03  0.25500000920E-02 0.  1.
        2   -1    0    0  501    0  0.00000000000E+00  0.00000000000E+00 -0.46232971074E+03  0.46232971075E+03  0.25500000920E-02 0. -1.
    10030    2    1    2    0    0  0.00000000000E+00  0.00000000000E+00  0.79927843835E+02  0.10045872653E+04  0.10014025731E+04 0.  0.
        4    1    3    3  502    0  0.46357369064E+02  0.48228472653E+03 -0.86741364613E+02  0.49221259670E+03  0.12699999809E+01 0. -1.
       -4    1    3    3    0  502 -0.46357369064E+02 -0.48228472653E+03  0.16666920845E+03  0.51237466863E+03  0.12699999809E+01 0.  1.
</event>
<event>
 5   0  0.3215352E-03  0.1102592E+04  0.7818609E-02  0.9202669E-01
       -1   -1    0    0    0  501  0.00000000000E+00  0.00000000000E+00  0.19589074625E+03  0.19589074632E+03  0.50400001928E-02 0. -1.
        1   -1    0    0  501    0  0.00000000000E+00  0.00000000000E+00 -0.15515141794E+04  0.15515141794E+04  0.50400001928E-02 0.  1.
    10030    2    1    2    0    0  0.00000000000E+00  0.00000000000E+00 -0.13556234332E+04  0.17474049257E+04  0.11025919834E+04 0.  0.
        1    1    3    3  502    0  0.38427896559E+03 -0.33517283913E+03 -0.10099283919E+04  0.11313560502E+04  0.50400001928E-02 0. -1.
       -1    1    3    3    0  502 -0.38427896559E+03  0.33517283913E+03 -0.34569504122E+03  0.61604887553E+03  0.50400001928E-02 0.  1.
</event>
<event>
 5   0  0.5941585E-03  0.1073079E+04  0.7818609E-02  0.9231836E-01
        2   -1    0    0  501    0  0.00000000000E+00  0.00000000000E+00  0.92279830369E+03  0.92279830369E+03  0.25500000920E-02 0.  1.
       -2   -1    0    0    0  501  0.00000000000E+00  0.00000000000E+00 -0.31195827214E+03  0.31195827215E+03  0.25500000920E-02 0. -1.
    10030    2    1    2    0    0  0.00000000000E+00  0.00000000000E+00  0.61084003155E+03  0.12347565758E+04  0.10730788682E+04 0.  0.
        5    1    3    3  502    0  0.36591553682E+02  0.26088678145E+03 -0.23238808542E+03  0.35132202718E+03  0.46999998093E+01 0. -1.
       -5    1    3    3    0  502 -0.36591553682E+02 -0.26088678145E+03  0.84322811697E+03  0.88343454867E+03  0.46999998093E+01 0.  1.
</event>
<event>
 5   0  0.5941585E-03  0.1099332E+04  0.7818609E-02  0.9205843E-01
        2   -1    0    0  501    0  0.00000000000E+00  0.00000000000E+00  0.13439747054E+04  0.13439747055E+04  0.25500000920E-02 0. -1.
       -2   -1    0    0    0  501  0.00000000000E+00  0.00000000000E+00 -0.22480534807E+03  0.22480534808E+03  0.25500000920E-02 0.  1.
    10030    2    1    2    0    0  0.00000000000E+00  0.00000000000E+00  0.11191693574E+04  0.15687800535E+04  0.10993319816E+04 0.  0.
        5    1    3    3  502    0 -0.92934673597E+02 -0.54133517339E+03  0.58917579455E+03  0.80550036027E+03  0.46999998093E+01 0.  1.
       -5    1    3    3    0  502  0.92934673597E+02  0.54133517339E+03  0.52999356283E+03  0.76327969327E+03  0.46999998093E+01 0. -1.
</event>
<event>
 5   0  0.5627232E-03  0.1016241E+04  0.7818609E-02  0.9290909E-01
        2   -1    0    0  501    0  0.00000000000E+00  0.00000000000E+00  0.15592944110E+04  0.15592944110E+04  0.25500000920E-02 0. -1.
       -2   -1    0    0    0  501  0.00000000000E+00  0.00000000000E+00 -0.16557904563E+03  0.16557904565E+03  0.25500000920E-02 0.  1.
    10030    2    1    2    0    0  0.00000000000E+00  0.00000000000E+00  0.13937153654E+04  0.17248734567E+04  0.10162410747E+04 0.  0.
        2    1    3    3  502    0  0.12184189970E+03 -0.11497802742E+03  0.15110719372E+04  0.15203301598E+04  0.25500000920E-02 0. -1.
       -2    1    3    3    0  502 -0.12184189970E+03  0.11497802742E+03 -0.11735657187E+03  0.20454329684E+03  0.25500000920E-02 0.  1.
</event>
<event>
 5   0  0.5627232E-03  0.1046992E+04  0.7818609E-02  0.9258455E-01
        2   -1    0    0  501    0  0.00000000000E+00  0.00000000000E+00  0.86787680581E+03  0.86787680581E+03  0.25500000920E-02 0.  1.
       -2   -1    0    0    0  501  0.00000000000E+00  0.00000000000E+00 -0.31576857043E+03  0.31576857044E+03  0.25500000920E-02 0. -1.
    10030    2    1    2    0    0  0.00000000000E+00  0.00000000000E+00  0.55210823537E+03  0.11836453763E+04  0.10469922985E+04 0.  0.
        2    1    3    3  502    0 -0.91874519603E+02 -0.51497378817E+03  0.29892552326E+03  0.60249099438E+03  0.25500000920E-02 0.  1.
       -2    1    3    3    0  502  0.91874519603E+02  0.51497378817E+03  0.25318271211E+03  0.58115438187E+03  0.25500000920E-02 0. -1.
</event>
<event>
 5   0  0.5723194E-03  0.1081069E+04  0.7818609E-02  0.9223842E-01
       -2   -1    0    0    0  501  0.00000000000E+00  0.00000000000E+00  0.36212851315E+03  0.36212851316E+03  0.25500000920E-02 0. -1.
        2   -1    0    0  501    0  0.00000000000E+00  0.00000000000E+00 -0.80683391062E+03  0.80683391062E+03  0.25500000920E-02 0.  1.
    10030    2    1    2    0    0  0.00000000000E+00  0.00000000000E+00 -0.44470539746E+03  0.11689624238E+04  0.10810690347E+04 0.  0.
        1    1    3    3  502    0  0.16981841823E+03 -0.49128493455E+03 -0.38265692965E+03  0.64546534216E+03  0.50400001928E-02 0.  1.
       -1    1    3    3    0  502 -0.16981841823E+03  0.49128493455E+03 -0.62048467812E+02  0.52349708163E+03  0.50400001928E-02 0. -1.
</event>
<event>
 5   0  0.3241189E-03  0.1107338E+04  0.7818609E-02  0.9198069E-01
       -1   -1    0    0    0  501  0.00000000000E+00  0.00000000000E+00  0.23383431618E+03  0.23383431623E+03  0.50400001928E-02 0.  1.
        1   -1    0    0  501    0  0.00000000000E+00  0.00000000000E+00 -0.13109682976E+04  0.13109682977E+04  0.50400001928E-02 0. -1.
    10030    2    1    2    0    0  0.00000000000E+00  0.00000000000E+00 -0.10771339815E+04  0.15448026139E+04  0.11073380251E+04 0.  0.
        5    1    3    3  502    0 -0.22655780291E+03 -0.25496430199E+03 -0.11469666530E+04  0.11966159896E+04  0.46999998093E+01 0. -1.
       -5    1    3    3    0  502  0.22655780291E+03  0.25496430199E+03  0.69832671544E+02  0.34818662432E+03  0.46999998093E+01 0.  1.
</event>
<event>
 5   0  0.3328741E-03  0.1093011E+04  0.7818609E-02  0.9212031E-01
        1   -1    0    0  501    0  0.00000000000E+00  0.00000000000E+00  0.54540447487E+03  0.54540447490E+03  0.50400001928E-02 0. -1.
       -1   -1    0    0    0  501  0.00000000000E+00  0.00000000000E+00 -0.54760860249E+03  0.54760860252E+03  0.50400001928E-02 0.  1.
    10030    2    1    2    0    0  0.00000000000E+00  0.00000000000E+00 -0.22041276174E+01  0.10930130774E+04  0.10930108550E+04 0.  0.
        3    1    3    3  502    0 -0.51467991917E+03 -0.52759477491E+02 -0.17713989060E+03  0.54686152973E+03  0.10100000352E+00 0.  1.
       -3    1    3    3    0  502  0.51467991917E+03  0.52759477491E+02  0.17493576299E+03  0.54615154768E+03  0.10100000352E+00 0. -1.
</event>
<event>
 5   0  0.2185750E-03  0.9809559E+03  0.7818609E-02  0.9329682E-01
       -3   -1    0    0    0  501  0.00000000000E+00  0.00000000000E+00  0.44519659155E+03  0.44519660301E+03  0.10100000352E+00 0.  1.
        3   -1    0    0  501    0  0.00000000000E+00  0.00000000000E+00 -0.54036491649E+03  0.54036492592E+03  0.10100000352E+00 0. -1.
    10030    2    1    2    0    0  0.00000000000E+00  0.00000000000E+00 -0.95168324934E+02  0.98556152893E+03  0.98095592013E+03 0.  0.
        1    1    3    3  502    0  0.10369221807E+02 -0.61634640966E+02 -0.53634766886E+03  0.53997701029E+03  0.50400001928E-02 0. -1.
       -1    1    3    3    0  502 -0.10369221807E+02  0.61634640966E+02  0.44117934392E+03  0.44558451864E+03  0.50400001928E-02 0.  1.
</event>
<event>
 5   0  0.5500363E-03  0.1095800E+04  0.7818609E-02  0.9209295E-01
        2   -1    0    0  501    0  0.00000000000E+00  0.00000000000E+00  0.77911351006E+03  0.77911351006E+03  0.25500000920E-02 0. -1.
       -2   -1    0    0    0  501  0.00000000000E+00  0.00000000000E+00 -0.38530243867E+03  0.38530243867E+03  0.25500000920E-02 0.  1.
    10030    2    1    2    0    0  0.00000000000E+00  0.00000000000E+00  0.39381107139E+03  0.11644159487E+04  0.10957998639E+04 0.  0.
        3    1    3    3  502    0  0.96850233209E+02 -0.15082109191E+02  0.76972123162E+03  0.77593699635E+03  0.10100000352E+00 0. -1.
       -3    1    3    3    0  502 -0.96850233209E+02  0.15082109191E+02 -0.37591016023E+03  0.38847895239E+03  0.10100000352E+00 0.  1.
</event>
<event>
 5   0  0.3215352E-03  0.1121944E+04  0.7818609E-02  0.9184064E-01
       -1   -1    0    0    0  501  0.00000000000E+00  0.00000000000E+00  0.50835925859E+03  0.50835925862E+03  0.50400001928E-02 0.  1.
        1   -1    0    0  501    0  0.00000000000E+00  0.00000000000E+00 -0.61903014890E+03  0.61903014892E+03  0.50400001928E-02 0. -1.
    10030    2    1    2    0    0  0.00000000000E+00  0.00000000000E+00 -0.11067089031E+03  0.11273894075E+04  0.11219442189E+04 0.  0.
        1    1    3    3  502    0 -0.23444926774E+03  0.36539244157E+03 -0.41232239641E+03  0.59873855238E+03  0.50400001928E-02 0. -1.
       -1    1    3    3    0  502  0.23444926774E+03 -0.36539244157E+03  0.30165150610E+03  0.52865085516E+03  0.50400001928E-02 0.  1.
</event>
<event>
 5   0  0.5627232E-03  0.1102920E+04  0.7818609E-02  0.9202351E-01
       -2   -1    0    0    0  501  0.00000000000E+00  0.00000000000E+00  0.35650393634E+03  0.35650393634E+03  0.25500000920E-02 0.  1.
        2   -1    0    0  501    0  0.00000000000E+00  0.00000000000E+00 -0.85302846368E+03  0.85302846369E+03  0.25500000920E-02 0. -1.
    10030    2    1    2    0    0  0.00000000000E+00  0.00000000000E+00 -0.49652452735E+03  0.12095324000E+04  0.11029197706E+04 0.  0.
        2    1    3    3  502    0 -0.38773562866E+03 -0.11875197873E+02 -0.67810428290E+03  0.78122042764E+03  0.25500000920E-02 0. -1.
       -2    1    3    3    0  502  0.38773562866E+03  0.11875197873E+02  0.18157975556E+03  0.42831197239E+03  0.25500000920E-02 0.  1.
</event>
<event>
 5   0  0.3316784E-03  0.1138889E+04  0.7818609E-02  0.9168095E-01
        1   -1    0    0  501    0  0.00000000000E+00  0.00000000000E+00  0.49289751919E+03  0.49289751921E+03  0.50400001928E-02 0.  1.
       -1   -1    0    0    0  501  0.00000000000E+00  0.00000000000E+00 -0.65787980288E+03  0.65787980290E+03  0.50400001928E-02 0. -1.
    10030    2    1    2    0    0  0.00000000000E+00  0.00000000000E+00 -0.16498228370E+03  0.11507773221E+04  0.11388894991E+04 0.  0.
        4    1    3    3  502    0 -0.26288696204E+02  0.36522338504E+03 -0.52314699354E+03  0.63856370573E+03  0.12699999809E+01 0. -1.
       -4    1    3    3    0  502  0.26288696204E+02 -0.36522338504E+03  0.35816470985E+03  0.51221361638E+03  0.12699999809E+01 0.  1.
</event>
<event>
 5   0  0.3215352E-03  0.1013995E+04  0.7818609E-02  0.9293327E-01
        1   -1    0    0  501    0  0.00000000000E+00  0.00000000000E+00  0.65308741612E+03  0.65308741614E+03  0.50400001928E-02 0. -1.
       -1   -1    0    0    0  501  0.00000000000E+00  0.00000000000E+00 -0.39358638150E+03  0.39358638153E+03  0.50400001928E-02 0.  1.
    10030    2    1    2    0    0  0.00000000000E+00  0.00000000000E+00  0.25950103462E+03  0.10466737977E+04  0.10139947001E+04 0.  0.
        1    1    3    3  502    0 -0.18856016512E+03  0.40778443670E+03  0.37227629889E+03  0.58346613048E+03  0.50400001928E-02 0. -1.
       -1    1    3    3    0  502  0.18856016512E+03 -0.40778443670E+03 -0.11277526427E+03  0.46320766718E+03  0.50400001928E-02 0.  1.
</event>
<event>
 5   0  0.3320192E-03  0.1126475E+04  0.7818609E-02  0.9179764E-01
       -1   -1    0    0    0  501  0.00000000000E+00  0.00000000000E+00  0.36350093558E+03  0.36350093561E+03  0.50400001928E-02 0.  1.
        1   -1    0    0  501    0  0.00000000000E+00  0.00000000000E+00 -0.87272610390E+03  0.87272610392E+03  0.50400001928E-02 0. -1.
    10030    2    1    2    0    0  0.00000000000E+00  0.00000000000E+00 -0.50922516833E+03  0.12362270395E+04  0.11264754863E+04 0.  0.
        2    1    3    3  502    0  0.11792022893E+03  0.17336760080E+03 -0.82830174340E+03  0.85442687430E+03  0.25500000920E-02 0. -1.
       -2    1    3    3    0  502 -0.11792022893E+03 -0.17336760080E+03  0.31907657508E+03  0.38180016523E+03  0.25500000920E-02 0.  1.
</event>
<event>
 5   0  0.3328741E-03  0.1097734E+04  0.7818609E-02  0.9207403E-01
        1   -1    0    0  501    0  0.00000000000E+00  0.00000000000E+00  0.10005049897E+04  0.10005049898E+04  0.50400001928E-02 0. -1.
       -1   -1    0    0    0  501  0.00000000000E+00  0.00000000000E+00 -0.30110300379E+03  0.30110300383E+03  0.50400001928E-02 0.  1.
    10030    2    1    2    0    0  0.00000000000E+00  0.00000000000E+00  0.69940198595E+03  0.13016079936E+04  0.10977341349E+04 0.  0.
        3    1    3    3  502    0 -0.30556976026E+03 -0.11920564467E+03  0.87151611699E+03  0.93119451055E+03  0.10100000352E+00 0. -1.
       -3    1    3    3    0  502  0.30556976026E+03  0.11920564467E+03 -0.17211413104E+03  0.37041348303E+03  0.10100000352E+00 0.  1.
</event>
<event>
 5   0  0.5946359E-03  0.1102235E+04  0.7818609E-02  0.9203016E-01
        2   -1    0    0  501    0  0.00000000000E+00  0.00000000000E+00  0.14976119602E+04  0.14976119602E+04  0.25500000920E-02 0. -1.
       -2   -1    0    0    0  501  0.00000000000E+00  0.00000000000E+00 -0.20280980816E+03  0.20280980817E+03  0.25500000920E-02 0.  1.
    10030    2    1    2    0    0  0.00000000000E+00  0.00000000000E+00  0.12948021521E+04  0.17004217684E+04  0.11022348105E+04 0.  0.
        4    1    3    3  502    0 -0.14841523262E+03  0.27379429856E+03  0.13488452140E+04  0.13843321218E+04  0.12699999809E+01 0. -1.
       -4    1    3    3    0  502  0.14841523262E+03 -0.27379429856E+03 -0.54043061998E+02  0.31608964654E+03  0.12699999809E+01 0.  1.
</event>
<event>
 5   0  0.5946359E-03  0.1017782E+04  0.7818609E-02  0.9289254E-01
       -2   -1    0    0    0  501  0.00000000000E+00  0.00000000000E+00  0.23720447311E+03  0.23720447312E+03  0.25500000920E-02 0. -1.
        2   -1    0    0  501    0  0.00000000000E+00  0.00000000000E+00 -0.10917589802E+04  0.10917589802E+04  0.25500000920E-02 0.  1.
    10030    2    1    2    0    0  0.00000000000E+00  0.00000000000E+00 -0.85455450711E+03  0.13289634533E+04  0.10177821254E+04 0.  0.
        4    1    3    3  502    0  0.26651496752E+03 -0.43341605996E+03 -0.41497329861E+03  0.65656999657E+03  0.12699999809E+01 0.  1.
       -4    1    3    3    0  502 -0.26651496752E+03  0.43341605996E+03 -0.43958120850E+03  0.67239345677E+03  0.12699999809E+01 0. -1.
</event>
<event>
 5   0  0.3320192E-03  0.1101353E+04  0.7818609E-02  0.9203874E-01
       -1   -1    0    0    0  501  0.00000000000E+00  0.00000000000E+00  0.69244151436E+03  0.69244151438E+03  0.50400001928E-02 0. -1.
        1   -1    0    0  501    0  0.00000000000E+00  0.00000000000E+00 -0.43793535870E+03  0.43793535872E+03  0.50400001928E-02 0.  1.
    10030    2    1    2    0    0  0.00000000000E+00  0.00000000000E+00  0.25450615567E+03  0.11303768731E+04  0.11013530279E+04 0.  0.
        2    1    3    3  502    0 -0.31570659314E+03  0.86616020293E+02 -0.32721574840E+03  0.46286405556E+03  0.25500000920E-02 0.  1.
       -2    1    3    3    0  502  0.31570659314E+03 -0.86616020293E+02  0.58172190406E+03  0.66751281755E+03  0.25500000920E-02 0. -1.
</event>
<event>
 5   0  0.5946359E-03  0.1096893E+04  0.7818609E-02  0.9208226E-01
        2   -1    0    0  501    0  0.00000000000E+00  0.00000000000E+00  0.14887688940E+04  0.14887688940E+04  0.25500000920E-02 0.  1.
       -2   -1    0    0    0  501  0.00000000000E+00  0.00000000000E+00 -0.20204173235E+03  0.20204173237E+03  0.25500000920E-02 0. -1.
    10030    2    1    2    0    0  0.00000000000E+00  0.00000000000E+00  0.12867271616E+04  0.16908106264E+04  0.10968927868E+04 0.  0.
        4    1    3    3  502    0 -0.67031911694E+02  0.42670833491E+03  0.12240989448E+03  0.44895331098E+03  0.12699999809E+01 0. -1.
       -4    1    3    3    0  502  0.67031911694E+02 -0.42670833491E+03  0.11643172672E+04  0.12418573154E+04  0.12699999809E+01 0.  1.
</event>
<event>
 5   0  0.5723194E-03  0.1063253E+04  0.7818609E-02  0.9241767E-01
        2   -1    0    0  501    0  0.00000000000E+00  0.00000000000E+00  0.12545184075E+04  0.12545184076E+04  0.25500000920E-02 0. -1.
       -2   -1    0    0    0  501  0.00000000000E+00  0.00000000000E+00 -0.22528710446E+03  0.22528710448E+03  0.25500000920E-02 0.  1.
    10030    2    1    2    0    0  0.00000000000E+00  0.00000000000E+00  0.10292313031E+04  0.14798055120E+04  0.10632531581E+04 0.  0.
        1    1    3    3  502    0 -0.28974464807E+03 -0.35896697075E+01  0.11349492888E+04  0.11713559386E+04  0.50400001928E-02 0. -1.
       -1    1    3    3    0  502  0.28974464807E+03  0.35896697075E+01 -0.10571798569E+03  0.30844957341E+03  0.50400001928E-02 0.  1.
</event>
<event>
 5   0  0.5946359E-03  0.1098064E+04  0.7818609E-02  0.9207081E-01
       -2   -1    0    0    0  501  0.00000000000E+00  0.00000000000E+00  0.22364018304E+03  0.22364018305E+03  0.25500000920E-02 0.  1.
        2   -1    0    0  501    0  0.00000000000E+00  0.00000000000E+00 -0.13478624074E+04  0.13478624074E+04  0.25500000920E-02 0. -1.
    10030    2    1    2    0    0  0.00000000000E+00  0.00000000000E+00 -0.11242222244E+04  0.15715025904E+04  0.10980641065E+04 0.  0.
        4    1    3    3  502    0 -0.25548571309E+03 -0.47208740210E+03 -0.39709228335E+03  0.66770005182E+03  0.12699999809E+01 0.  1.
       -4    1    3    3    0  502  0.25548571309E+03  0.47208740210E+03 -0.72712994101E+03  0.90380253862E+03  0.12699999809E+01 0. -1.
</event>
<event>
 5   0  0.3328741E-03  0.1089546E+04  0.7818609E-02  0.9215441E-01
        1   -1    0    0  501    0  0.00000000000E+00  0.00000000000E+00  0.12803436912E+04  0.12803436913E+04  0.50400001928E-02 0.  1.
       -1   -1    0    0    0  501  0.00000000000E+00  0.00000000000E+00 -0.23179543097E+03  0.23179543102E+03  0.50400001928E-02 0. -1.
    10030    2    1    2    0    0  0.00000000000E+00  0.00000000000E+00  0.10485482603E+04  0.15121391223E+04  0.10895463602E+04 0.  0.
        3    1    3    3  502    0  0.49281659836E+03 -0.17767989212E+02  0.84556896399E+03  0.97886198421E+03  0.10100000352E+00 0.  1.
       -3    1    3    3    0  502 -0.49281659836E+03  0.17767989212E+02  0.20297929628E+03  0.53327713807E+03  0.10100000352E+00 0. -1.
</event>
<event>
 5   0  0.5941585E-03  0.1095954E+04  0.7818609E-02  0.9209144E-01
        2   -1    0    0  501    0  0.00000000000E+00  0.00000000000E+00  0.12566564963E+04  0.12566564963E+04  0.25500000920E-02 0. -1.
       -2   -1    0    0    0  501  0.00000000000E+00  0.00000000000E+00 -0.23895052222E+03  0.23895052223E+03  0.25500000920E-02 0.  1.
    10030    2    1    2    0    0  0.00000000000E+00  0.00000000000E+00  0.10177059740E+04  0.14956070185E+04  0.10959538787E+04 0.  0.
        5    1    3    3  502    0  0.27972123020E+03 -0.34567852402E+02  0.11501248576E+04  0.11841656054E+04  0.46999998093E+01 0. -1.
       -5    1    3    3    0  502 -0.27972123020E+03  0.34567852402E+02 -0.13241888355E+03  0.31144141306E+03  0.46999998093E+01 0.  1.
</event>
<event>
 5   0  0.3241189E-03  0.1126668E+04  0.7818609E-02  0.9179582E-01
       -1   -1    0    0    0  501  0.00000000000E+00  0.00000000000E+00  0.75593417221E+03  0.75593417223E+03  0.50400001928E-02 0. -1.
        1   -1    0    0  501    0  0.00000000000E+00  0.00000000000E+00 -0.41980560029E+03  0.41980560032E+03  0.50400001928E-02 0.  1.
    10030    2    1    2    0    0  0.00000000000E+00  0.00000000000E+00  0.33612857192E+03  0.11757397726E+04  0.11266683611E+04 0.  0.
        5    1    3    3  502    0  0.21970131424E+03  0.39008155733E+03 -0.18871997295E+03  0.48586994868E+03  0.46999998093E+01 0.  1.
       -5    1    3    3    0  502 -0.21970131424E+03 -0.39008155733E+03  0.52484854487E+03  0.68986982387E+03  0.46999998093E+01 0. -1.
</event>
<event>
 5   0  0.3328741E-03  0.1100467E+04  0.7818609E-02  0.9204737E-01
       -1   -1    0    0    0  501  0.00000000000E+00  0.00000000000E+00  0.34068553356E+03  0.34068553360E+03  0.50400001928E-02 0. -1.
        1   -1    0    0  501    0  0.00000000000E+00  0.00000000000E+00 -0.88867011847E+03  0.88867011848E+03  0.50400001928E-02 0.  1.
    10030    2    1    2    0    0  0.00000000000E+00  0.00000000000E+00 -0.54798458490E+03  0.12293556521E+04  0.11004672708E+04 0.  0.
        3    1    3    3  502    0  0.39968266575E+03 -0.19813838297E+03 -0.63382333890E+03  0.77507231098E+03  0.10100000352E+00 0.  1.
       -3    1    3    3    0  502 -0.39968266575E+03  0.19813838297E+03  0.85838754001E+02  0.45428334110E+03  0.10100000352E+00 0. -1.
</event>
<event>
 5   0  0.5500363E-03  0.1095652E+04  0.7818609E-02  0.9209440E-01
       -2   -1    0    0    0  501  0.00000000000E+00  0.00000000000E+00  0.16425209540E+03  0.16425209542E+03  0.25500000920E-02 0. -1.
        2   -1    0    0  501    0  0.00000000000E+00  0.00000000000E+00 -0.18271505764E+04  0.18271505764E+04  0.25500000920E-02 0.  1.
    10030    2    1    2    0    0  0.00000000000E+00  0.00000000000E+00 -0.16628984810E+04  0.19914026719E+04  0.10956519718E+04 0.  0.
        3    1    3    3  502    0  0.21157089358E+03  0.15505120289E+03 -0.17055949617E+04  0.17256469227E+04  0.10100000352E+00 0.  1.
       -3    1    3    3    0  502 -0.21157089358E+03 -0.15505120289E+03  0.42696480619E+02  0.26575574911E+03  0.10100000352E+00 0. -1.
</event>
<event>
 5   0  0.3215352E-03  0.1083928E+04  0.7818609E-02  0.9221000E-01
        1   -1    0    0  501    0  0.00000000000E+00  0.00000000000E+00  0.61969217807E+03  0.61969217809E+03  0.50400001928E-02 0.  1.
       -1   -1    0    0    0  501  0.00000000000E+00  0.00000000000E+00 -0.47398490340E+03  0.47398490342E+03  0.50400001928E-02 0. -1.
    10030    2    1    2    0    0  0.00000000000E+00  0.00000000000E+00  0.14570727467E+03  0.10936770815E+04  0.10839275570E+04 0.  0.
        1    1    3    3  502    0 -0.11382419806E+03 -0.47238766117E+03 -0.16934435079E+03  0.51457123866E+03  0.50400001928E-02 0. -1.
       -1    1    3    3    0  502  0.11382419806E+03  0.47238766117E+03  0.31505162546E+03  0.57910584285E+03  0.50400001928E-02 0.  1.
</event>
<event>
 5   0  0.3316784E-03  0.1116766E+04  0.7818609E-02  0.9189003E-01
        1   -1    0    0  501    0  0.00000000000E+00  0.00000000000E+00  0.53091126966E+03  0.53091126968E+03  0.50400001928E-02 0.  1.
       -1   -1    0    0    0  501  0.00000000000E+00  0.00000000000E+00 -0.58727644209E+03  0.58727644211E+03  0.50400001928E-02 0. -1.
    10030    2    1    2    0    0  0.00000000000E+00  0.00000000000E+00 -0.56365172431E+02  0.11181877118E+04  0.11167661913E+04 0.  0.
        4    1    3    3  502    0 -0.72770774903E+02 -0.45339518226E+03  0.28991235850E+03  0.54305944931E+03  0.12699999809E+01 0.  1.
       -4    1    3    3    0  502  0.72770774903E+02  0.45339518226E+03 -0.34627753093E+03  0.57512826248E+03  0.12699999809E+01 0. -1.
</event>
<event>
 5   0  0.3241189E-03  0.1117008E+04  0.7818609E-02  0.9188772E-01
        1   -1    0    0  501    0  0.00000000000E+00  0.00000000000E+00  0.74462113716E+03  0.74462113718E+03  0.50400001928E-02 0. -1.
       -1   -1    0    0    0  501  0.00000000000E+00  0.00000000000E+00 -0.41890624259E+03  0.41890624262E+03  0.50400001928E-02 0.  1.
    10030    2    1    2    0    0  0.00000000000E+00  0.00000000000E+00  0.32571489457E+03  0.11635273798E+04  0.11170075071E+04 0.  0.
        5    1    3    3  502    0  0.45252875161E+03  0.24762737017E+03  0.38578634790E+03  0.64416983919E+03  0.46999998093E+01 0. -1.
       -5    1    3    3    0  502 -0.45252875161E+03 -0.24762737017E+03 -0.60071453336E+02  0.51935754061E+03  0.46999998093E+01 0.  1.
</event>
<event>
 5   0  0.3316784E-03  0.1095810E+04  0.7818609E-02  0.9209286E-01
       -1   -1    0    0    0  501  0.00000000000E+00  0.00000000000E+00  0.78236154852E+03  0.78236154853E+03  0.50400001928E-02 0. -1.
        1   -1    0    0  501    0  0.00000000000E+00  0.00000000000E+00 -0.38370975273E+03  0.38370975276E+03  0.50400001928E-02 0.  1.
    10030    2    1    2    0    0  0.00000000000E+00  0.00000000000E+00  0.39865179579E+03  0.11660713013E+04  0.10958097579E+04 0.  0.
        4    1    3    3  502    0 -0.24996113590E+03 -0.45060766118E+03  0.11874284290E+01  0.51529686265E+03  0.12699999809E+01 0.  1.
       -4    1    3    3    0  502  0.24996113590E+03  0.45060766118E+03  0.39746436736E+03  0.65077443864E+03  0.12699999809E+01 0. -1.
</event>
<event>
 5   0  0.3215352E-03  0.1082748E+04  0.7818609E-02  0.9222172E-01
       -1   -1    0    0    0  501  0.00000000000E+00  0.00000000000E+00  0.56123786600E+03  0.56123786602E+03  0.50400001928E-02 0. -1.
        1   -1    0    0  501    0  0.00000000000E+00  0.00000000000E+00 -0.52221315907E+03  0.52221315909E+03  0.50400001928E-02 0.  1.
    10030    2    1    2    0    0  0.00000000000E+00  0.00000000000E+00  0.39024706932E+02  0.10834510251E+04  0.10827479836E+04 0.  0.
        1    1    3    3  502    0  0.20393228220E+03  0.32121874096E+03 -0.36585579904E+03  0.52784497817E+03  0.50400001928E-02 0.  1.
       -1    1    3    3    0  502 -0.20393228220E+03 -0.32121874096E+03  0.40488050597E+03  0.55560604695E+03  0.50400001928E-02 0. -1.
</event>
<event>
 5   0  0.5946359E-03  0.1112723E+04  0.7818609E-02  0.9192879E-01
        2   -1    0    0  501    0  0.00000000000E+00  0.00000000000E+00  0.16747727034E+04  0.16747727034E+04  0.25500000920E-02 0. -1.
       -2   -1    0    0    0  501  0.00000000000E+00  0.00000000000E+00 -0.18482406385E+03  0.18482406387E+03  0.25500000920E-02 0.  1.
    10030    2    1    2    0    0  0.00000000000E+00  0.00000000000E+00  0.14899486396E+04  0.18595967673E+04  0.11127233207E+04 0.  0.
        4    1    3    3  502    0  0.39642225989E+02  0.46565745409E+03  0.24047770204E+03  0.52558492055E+03  0.12699999809E+01 0.  1.
       -4    1    3    3    0  502 -0.39642225989E+02 -0.46565745409E+03  0.12494709375E+04  0.13340118468E+04  0.12699999809E+01 0. -1.
</event>
<event>
 5   0  0.3316784E-03  0.1114560E+04  0.7818609E-02  0.9191116E-01
        1   -1    0    0  501    0  0.00000000000E+00  0.00000000000E+00  0.11529781285E+04  0.11529781285E+04  0.50400001928E-02 0. -1.
       -1   -1    0    0    0  501  0.00000000000E+00  0.00000000000E+00 -0.26935527977E+03  0.26935527982E+03  0.50400001928E-02 0.  1.
    10030    2    1    2    0    0  0.00000000000E+00  0.00000000000E+00  0.88362284876E+03  0.14223334084E+04  0.11145595479E+04 0.  0.
        4    1    3    3  502    0  0.35151235537E+01  0.19189899723E+03 -0.22584438401E+03  0.29638636933E+03  0.12699999809E+01 0.  1.
       -4    1    3    3    0  502 -0.35151235537E+01 -0.19189899723E+03  0.11094672328E+04  0.11259470390E+04  0.12699999809E+01 0. -1.
</event>
<event>
 5   0  0.3215352E-03  0.1113433E+04  0.7818609E-02  0.9192198E-01
        1   -1    0    0  501    0  0.00000000000E+00  0.00000000000E+00  0.70512228850E+03  0.70512228852E+03  0.50400001928E-02 0.  1.
       -1   -1    0    0    0  501  0.00000000000E+00  0.00000000000E+00 -0.43954505321E+03  0.43954505324E+03  0.50400001928E-02 0. -1.
    10030    2    1    2    0    0  0.00000000000E+00  0.00000000000E+00  0.26557723529E+03  0.11446673418E+04  0.11134325554E+04 0.  0.
        1    1    3    3  502    0  0.14207692960E+03  0.51734784089E+03  0.28561400711E+03  0.60779108539E+03  0.50400001928E-02 0.  1.
       -1    1    3    3    0  502 -0.14207692960E+03 -0.51734784089E+03 -0.20036771817E+02  0.53687625637E+03  0.50400001928E-02 0. -1.
</event>
<event>
 5   0  0.3328741E-03  0.1143188E+04  0.7818609E-02  0.9164091E-01
       -1   -1    0    0    0  501  0.00000000000E+00  0.00000000000E+00  0.25662480647E+03  0.25662480652E+03  0.50400001928E-02 0.  1.
        1   -1    0    0  501    0  0.00000000000E+00  0.00000000000E+00 -0.12731415794E+04  0.12731415794E+04  0.50400001928E-02 0. -1.
    10030    2    1    2    0    0  0.00000000000E+00  0.00000000000E+00 -0.10165167729E+04  0.15297663859E+04  0.11431880186E+04 0.  0.
        3    1    3    3  502    0  0.48401967653E+02  0.44743708105E+03 -0.36708062348E+02  0.45154200692E+03  0.10100000352E+00 0.  1.
       -3    1    3    3    0  502 -0.48401967653E+02 -0.44743708105E+03 -0.97980871053E+03  0.10782243790E+04  0.10100000352E+00 0. -1.
</event>
<event>
 5   0  0.3328741E-03  0.1101396E+04  0.7818609E-02  0.9203832E-01
       -1   -1    0    0    0  501  0.00000000000E+00  0.00000000000E+00  0.41389249016E+03  0.41389249019E+03  0.50400001928E-02 0.  1.
        1   -1    0    0  501    0  0.00000000000E+00  0.00000000000E+00 -0.73272274236E+03  0.73272274238E+03  0.50400001928E-02 0. -1.
    10030    2    1    2    0    0  0.00000000000E+00  0.00000000000E+00 -0.31883025220E+03  0.11466152326E+04  0.11013962783E+04 0.  0.
        3    1    3    3  502    0  0.26776553400E+03  0.41607729444E+03  0.92274532875E+02  0.50332225837E+03  0.10100000352E+00 0.  1.
       -3    1    3    3    0  502 -0.26776553400E+03 -0.41607729444E+03 -0.41110478507E+03  0.64329297420E+03  0.10100000352E+00 0. -1.
</event>
<event>
 5   0  0.5946359E-03  0.1112248E+04  0.7818609E-02  0.9193336E-01
       -2   -1    0    0    0  501  0.00000000000E+00  0.00000000000E+00  0.87431574550E+03  0.87431574551E+03  0.25500000920E-02 0. -1.
        2   -1    0    0  501    0  0.00000000000E+00  0.00000000000E+00 -0.35373228734E+03  0.35373228735E+03  0.25500000920E-02 0.  1.
    10030    2    1    2    0    0  0.00000000000E+00  0.00000000000E+00  0.52058345817E+03  0.12280480329E+04  0.11122476496E+04 0.  0.
        4    1    3    3  502    0  0.17308743159E+03 -0.50389414742E+03  0.84312728267E+02  0.53942452654E+03  0.12699999809E+01 0.  1.
       -4    1    3    3    0  502 -0.17308743159E+03  0.50389414742E+03  0.43627072990E+03  0.68862350632E+03  0.12699999809E+01 0. -1.
</event>
<event>
 5   0  0.3320192E-03  0.1044707E+04  0.7818609E-02  0.9260826E-01
        1   -1    0    0  501    0  0.00000000000E+00  0.00000000000E+00  0.59352698156E+03  0.59352698158E+03  0.50400001928E-02 0. -1.
       -1   -1    0    0    0  501  0.00000000000E+00  0.00000000000E+00 -0.45971466759E+03  0.45971466762E+03  0.50400001928E-02 0.  1.
    10030    2    1    2    0    0  0.00000000000E+00  0.00000000000E+00  0.13381231397E+03  0.10532416492E+04  0.10447067705E+04 0.  0.
        2    1    3    3  502    0  0.36074992383E+03 -0.25142165354E+03 -0.21735424773E+03  0.49050609010E+03  0.25500000920E-02 0.  1.
       -2    1    3    3    0  502 -0.36074992383E+03  0.25142165354E+03  0.35116656170E+03  0.56273555910E+03  0.25500000920E-02 0. -1.
</event>
<event>
 5   0  0.3316784E-03  0.1103069E+04  0.7818609E-02  0.9202206E-01
       -1   -1    0    0    0  501  0.00000000000E+00  0.00000000000E+00  0.14111645306E+03  0.14111645315E+03  0.50400001928E-02 0. -1.
        1   -1    0    0  501    0  0.00000000000E+00  0.00000000000E+00 -0.21555969595E+04  0.21555969595E+04  0.50400001928E-02 0.  1.
    10030    2    1    2    0    0  0.00000000000E+00  0.00000000000E+00 -0.20144805065E+04  0.22967134127E+04  0.11030688052E+04 0.  0.
        4    1    3    3  502    0 -0.40587108277E+03  0.35769032439E+03 -0.12306663605E+04  0.13443269720E+04  0.12699999809E+01 0. -1.
       -4    1    3    3    0  502  0.40587108277E+03 -0.35769032439E+03 -0.78381414603E+03  0.95238644069E+03  0.12699999809E+01 0.  1.
</event>
<event>
 5   0  0.5946359E-03  0.1117271E+04  0.7818609E-02  0.9188520E-01
        2   -1    0    0  501    0  0.00000000000E+00  0.00000000000E+00  0.13966837435E+04  0.13966837435E+04  0.25500000920E-02 0. -1.
       -2   -1    0    0    0  501  0.00000000000E+00  0.00000000000E+00 -0.22343889610E+03  0.22343889612E+03  0.25500000920E-02 0.  1.
    10030    2    1    2    0    0  0.00000000000E+00  0.00000000000E+00  0.11732448474E+04  0.16201226396E+04  0.11172707351E+04 0.  0.
        4    1    3    3  502    0 -0.16505090277E+03  0.56142315388E+02 -0.18297926069E+03  0.25273856616E+03  0.12699999809E+01 0.  1.
       -4    1    3    3    0  502  0.16505090277E+03 -0.56142315388E+02  0.13562241081E+04  0.13673840734E+04  0.12699999809E+01 0. -1.
</event>
<event>
 5   0  0.5941585E-03  0.1102638E+04  0.7818609E-02  0.9202625E-01
       -2   -1    0    0    0  501  0.00000000000E+00  0.00000000000E+00  0.45331313313E+03  0.45331313314E+03  0.25500000920E-02 0. -1.
        2   -1    0    0  501    0  0.00000000000E+00  0.00000000000E+00 -0.67051332275E+03  0.67051332275E+03  0.25500000920E-02 0.  1.
    10030    2    1    2    0    0  0.00000000000E+00  0.00000000000E+00 -0.21720018961E+03  0.11238264559E+04  0.11026377377E+04 0.  0.
        5    1    3    3  502    0 -0.60473653472E+02  0.33222951959E+03 -0.55274565393E+03  0.64775254874E+03  0.46999998093E+01 0.  1.
       -5    1    3    3    0  502  0.60473653472E+02 -0.33222951959E+03  0.33554546432E+03  0.47607390716E+03  0.46999998093E+01 0. -1.
</event>
<event>
 5   0  0.3316784E-03  0.1113966E+04  0.7818609E-02  0.9191686E-01
       -1   -1    0    0    0  501  0.00000000000E+00  0.00000000000E+00  0.49121599454E+03  0.49121599456E+03  0.50400001928E-02 0. -1.
        1   -1    0    0  501    0  0.00000000000E+00  0.00000000000E+00 -0.63155489412E+03  0.63155489414E+03  0.50400001928E-02 0.  1.
    10030    2    1    2    0    0  0.00000000000E+00  0.00000000000E+00 -0.14033889958E+03  0.11227708887E+04  0.11139656466E+04 0.  0.
        4    1    3    3  502    0  0.29663735107E+03 -0.60988750771E+02 -0.54132019288E+03  0.62027615615E+03  0.12699999809E+01 0.  1.
       -4    1    3    3    0  502 -0.29663735107E+03  0.60988750771E+02  0.40098129330E+03  0.50249473255E+03  0.12699999809E+01 0. -1.
</event>
<event>
 5   0  0.5946359E-03  0.1105196E+04  0.7818609E-02  0.9200142E-01
       -2   -1    0    0    0  501  0.00000000000E+00  0.00000000000E+00  0.61291117805E+03  0.61291117805E+03  0.25500000920E-02 0.  1.
        2   -1    0    0  501    0  0.00000000000E+00  0.00000000000E+00 -0.49821976802E+03  0.49821976803E+03  0.25500000920E-02 0. -1.
    10030    2    1    2    0    0  0.00000000000E+00  0.00000000000E+00  0.11469141003E+03  0.11111309461E+04  0.11051958468E+04 0.  0.
        4    1    3    3  502    0 -0.94374227538E+02 -0.22233124228E+03  0.55703104456E+03  0.60714320685E+03  0.12699999809E+01 0.  1.
       -4    1    3    3    0  502  0.94374227538E+02  0.22233124228E+03 -0.44233963453E+03  0.50398773923E+03  0.12699999809E+01 0. -1.
</event>
<event>
 5   0  0.5500363E-03  0.1133803E+04  0.7818609E-02  0.9172857E-01
        2   -1    0    0  501    0  0.00000000000E+00  0.00000000000E+00  0.77946407370E+03  0.77946407370E+03  0.25500000920E-02 0. -1.
       -2   -1    0    0    0  501  0.00000000000E+00  0.00000000000E+00 -0.41230544354E+03  0.41230544355E+03  0.25500000920E-02 0.  1.
    10030    2    1    2    0    0  0.00000000000E+00  0.00000000000E+00  0.36715863015E+03  0.11917695173E+04  0.11338029470E+04 0.  0.
        3    1    3    3  502    0  0.24865907963E+03  0.36908028169E+03 -0.18555247414E+03  0.48216317059E+03  0.10100000352E+00 0.  1.
       -3    1    3    3    0  502 -0.24865907963E+03 -0.36908028169E+03  0.55271110429E+03  0.70960634666E+03  0.10100000352E+00 0. -1.
</event>
<event>
 5   0  0.3241189E-03  0.1038632E+04  0.7818609E-02  0.9267160E-01
       -1   -1    0    0    0  501  0.00000000000E+00  0.00000000000E+00  0.68702581634E+03  0.68702581636E+03  0.50400001928E-02 0. -1.
        1   -1    0    0  501    0  0.00000000000E+00  0.00000000000E+00 -0.39254562563E+03  0.39254562566E+03  0.50400001928E-02 0.  1.
    10030    2    1    2    0    0  0.00000000000E+00  0.00000000000E+00  0.29448019071E+03  0.10795714420E+04  0.10386317517E+04 0.  0.
        5    1    3    3  502    0  0.77335037406E+02 -0.82293628975E+02 -0.37960583152E+03  0.39607527909E+03  0.46999998093E+01 0.  1.
       -5    1    3    3    0  502 -0.77335037406E+02  0.82293628975E+02  0.67408602223E+03  0.68349616293E+03  0.46999998093E+01 0. -1.
</event>
<event>
 5   0  0.5627232E-03  0.1112456E+04  0.7818609E-02  0.9193135E-01
        2   -1    0    0  501    0  0.00000000000E+00  0.00000000000E+00  0.29356386165E+03  0.29356386166E+03  0.25500000920E-02 0.  1.
       -2   -1    0    0    0  501  0.00000000000E+00  0.00000000000E+00 -0.10539098844E+04  0.10539098844E+04  0.25500000920E-02 0. -1.
    10030    2    1    2    0    0  0.00000000000E+00  0.00000000000E+00 -0.76034602273E+03  0.13474737460E+04  0.11124564809E+04 0.  0.
        2    1    3    3  502    0  0.62696579468E+02  0.25054227472E+03 -0.97687988694E+03  0.10104437669E+04  0.25500000920E-02 0. -1.
       -2    1    3    3    0  502 -0.62696579468E+02 -0.25054227472E+03  0.21653386421E+03  0.33702997916E+03  0.25500000920E-02 0.  1.
</event>
<event>
 5   0  0.3241189E-03  0.1103593E+04  0.7818609E-02  0.9201697E-01
       -1   -1    0    0    0  501  0.00000000000E+00  0.00000000000E+00  0.54765560442E+03  0.54765560445E+03  0.50400001928E-02 0. -1.
        1   -1    0    0  501    0  0.00000000000E+00  0.00000000000E+00 -0.55596842651E+03  0.55596842654E+03  0.50400001928E-02 0.  1.
    10030    2    1    2    0    0  0.00000000000E+00  0.00000000000E+00 -0.83128220903E+01  0.11036240310E+04  0.11035927232E+04 0.  0.
        5    1    3    3  502    0 -0.58256990193E+02 -0.38806305851E+03  0.38375963386E+03  0.54889011729E+03  0.46999998093E+01 0. -1.
       -5    1    3    3    0  502  0.58256990193E+02  0.38806305851E+03 -0.39207245595E+03  0.55473391369E+03  0.46999998093E+01 0.  1.
</event>
<event>
 5   0  0.5627232E-03  0.1075785E+04  0.7818609E-02  0.9229120E-01
       -2   -1    0    0    0  501  0.00000000000E+00  0.00000000000E+00  0.54420411597E+03  0.54420411598E+03  0.25500000920E-02 0.  1.
        2   -1    0    0  501    0  0.00000000000E+00  0.00000000000E+00 -0.53165410813E+03  0.53165410814E+03  0.25500000920E-02 0. -1.
    10030    2    1    2    0    0  0.00000000000E+00  0.00000000000E+00  0.12550007838E+02  0.10758582241E+04  0.10757850230E+04 0.  0.
        2    1    3    3  502    0 -0.11589230679E+03  0.85466435163E+02 -0.51201967029E+03  0.53188314608E+03  0.25500000920E-02 0. -1.
       -2    1    3    3    0  502  0.11589230679E+03 -0.85466435163E+02  0.52456967812E+03  0.54397507804E+03  0.25500000920E-02 0.  1.
</event>
<event>
 5   0  0.3328741E-03  0.1130578E+04  0.7818609E-02  0.9175890E-01
        1   -1    0    0  501    0  0.00000000000E+00  0.00000000000E+00  0.54581004182E+03  0.54581004184E+03  0.50400001928E-02 0. -1.
       -1   -1    0    0    0  501  0.00000000000E+00  0.00000000000E+00 -0.58546319456E+03  0.58546319459E+03  0.50400001928E-02 0.  1.
    10030    2    1    2    0    0  0.00000000000E+00  0.00000000000E+00 -0.39653152744E+02  0.11312732364E+04  0.11305780658E+04 0.  0.
        3    1    3    3  502    0 -0.82671283021E+02  0.35637125553E+02  0.53859106140E+03  0.54606308003E+03  0.10100000352E+00 0. -1.
       -3    1    3    3    0  502  0.82671283021E+02 -0.35637125553E+02 -0.57824421414E+03  0.58521015639E+03  0.10100000352E+00 0.  1.
</event>
<event>
 5   0  0.5500363E-03  0.1087093E+04  0.7818609E-02  0.9217864E-01
        2   -1    0    0  501    0  0.00000000000E+00  0.00000000000E+00  0.86499773891E+03  0.86499773891E+03  0.25500000920E-02 0.  1.
       -2   -1    0    0    0  501  0.00000000000E+00  0.00000000000E+00 -0.34155332400E+03  0.34155332401E+03  0.25500000920E-02 0. -1.
    10030    2    1    2    0    0  0.00000000000E+00  0.00000000000E+00  0.52344441491E+03  0.12065510629E+04  0.10870931018E+04 0.  0.
        3    1    3    3  502    0  0.38802079360E+03 -0.34429552714E+03  0.81580602914E+02  0.52512374851E+03  0.10100000352E+00 0. -1.
       -3    1    3    3    0  502 -0.38802079360E+03  0.34429552714E+03  0.44186381200E+03  0.68142731441E+03  0.10100000352E+00 0.  1.
</event>
<event>
 5   0  0.3316784E-03  0.1108720E+04  0.7818609E-02  0.9196734E-01
        1   -1    0    0  501    0  0.00000000000E+00  0.00000000000E+00  0.14975441248E+04  0.14975441248E+04  0.50400001928E-02 0. -1.
       -1   -1    0    0    0  501  0.00000000000E+00  0.00000000000E+00 -0.20521278629E+03  0.20521278635E+03  0.50400001928E-02 0.  1.
    10030    2    1    2    0    0  0.00000000000E+00  0.00000000000E+00  0.12923313385E+04  0.17027569112E+04  0.11087203480E+04 0.  0.
        4    1    3    3  502    0  0.34629410832E+03  0.16209334197E+03  0.12626258006E+04  0.13192495542E+04  0.12699999809E+01 0. -1.
       -4    1    3    3    0  502 -0.34629410832E+03 -0.16209334197E+03  0.29705537909E+02  0.38350735697E+03  0.12699999809E+01 0.  1.
</event>
<event>
 5   0  0.3215352E-03  0.1110321E+04  0.7818609E-02  0.9195190E-01
       -1   -1    0    0    0  501  0.00000000000E+00  0.00000000000E+00  0.26468647616E+03  0.26468647620E+03  0.50400001928E-02 0.  1.
        1   -1    0    0  501    0  0.00000000000E+00  0.00000000000E+00 -0.11644086961E+04  0.11644086961E+04  0.50400001928E-02 0. -1.
    10030    2    1    2    0    0  0.00000000000E+00  0.00000000000E+00 -0.89972221990E+03  0.14290951723E+04  0.11103210970E+04 0.  0.
        1    1    3    3  502    0  0.46646472584E+03  0.30054558927E+03 -0.42808501914E+03  0.70083790945E+03  0.50400001928E-02 0.  1.
       -1    1    3    3    0  502 -0.46646472584E+03 -0.30054558927E+03 -0.47163720076E+03  0.72825726282E+03  0.50400001928E-02 0. -1.
</event>
<event>
 5   0  0.5627232E-03  0.1060937E+04  0.7818609E-02  0.9244125E-01
        2   -1    0    0  501    0  0.00000000000E+00  0.00000000000E+00  0.18280046867E+04  0.18280046867E+04  0.25500000920E-02 0.  1.
       -2   -1    0    0    0  501  0.00000000000E+00  0.00000000000E+00 -0.15393654674E+03  0.15393654676E+03  0.25500000920E-02 0. -1.
    10030    2    1    2    0    0  0.00000000000E+00  0.00000000000E+00  0.16740681399E+04  0.19819412334E+04  0.10609368104E+04 0.  0.
        2    1    3    3  502    0  0.30452143025E+03 -0.20074313198E+03  0.11747260643E+03  0.38318522908E+03  0.25500000920E-02 0. -1.
       -2    1    3    3    0  502 -0.30452143025E+03  0.20074313198E+03  0.15565955335E+04  0.15987560044E+04  0.25500000920E-02 0.  1.
</event>
<event>
 5   0  0.3328741E-03  0.1124274E+04  0.7818609E-02  0.9181850E-01
        1   -1    0    0  501    0  0.00000000000E+00  0.00000000000E+00  0.17269507695E+04  0.17269507695E+04  0.50400001928E-02 0. -1.
       -1   -1    0    0    0  501  0.00000000000E+00  0.00000000000E+00 -0.18298043168E+03  0.18298043175E+03  0.50400001928E-02 0.  1.
    10030    2    1    2    0    0  0.00000000000E+00  0.00000000000E+00  0.15439703378E+04  0.19099312012E+04  0.11242743391E+04 0.  0.
        3    1    3    3  502    0  0.52352979882E+03  0.72843434019E+02  0.44694516549E+03  0.69220633288E+03  0.10100000352E+00 0. -1.
       -3    1    3    3    0  502 -0.52352979882E+03 -0.72843434019E+02  0.10970251723E+04  0.12177248684E+04  0.10100000352E+00 0.  1.
</event>
<event>
 5   0  0.5946359E-03  0.1150374E+04  0.7818609E-02  0.9157439E-01
        2   -1    0    0  501    0  0.00000000000E+00  0.00000000000E+00  0.58796258467E+03  0.58796258468E+03  0.25500000920E-02 0. -1.
       -2   -1    0    0    0  501  0.00000000000E+00  0.00000000000E+00 -0.56268887069E+03  0.56268887070E+03  0.25500000920E-02 0.  1.
    10030    2    1    2    0    0  0.00000000000E+00  0.00000000000E+00  0.25273713980E+02  0.11506514554E+04  0.11503738571E+04 0.  0.
        4    1    3    3  502    0 -0.26113199797E+03  0.35751555117E+03  0.37991901092E+03  0.58339297000E+03  0.12699999809E+01 0. -1.
       -4    1    3    3    0  502  0.26113199797E+03 -0.35751555117E+03 -0.35464529694E+03  0.56725848538E+03  0.12699999809E+01 0.  1.
</event>
<event>
 5   0  0.5500363E-03  0.1126040E+04  0.7818609E-02  0.9180177E-01
       -2   -1    0    0    0  501  0.00000000000E+00  0.00000000000E+00  0.12949129982E+03  0.12949129984E+03  0.25500000920E-02 0. -1.
        2   -1    0    0  501    0  0.00000000000E+00  0.00000000000E+00 -0.24479746250E+04  0.24479746250E+04  0.25500000920E-02 0.  1.
    10030    2    1    2    0    0  0.00000000000E+00  0.00000000000E+00 -0.23184833252E+04  0.25774659249E+04  0.11260398148E+04 0.  0.
        3    1    3    3  502    0 -0.51742856538E+03  0.11252597854E+03 -0.72135484772E+03  0.89484481484E+03  0.10100000352E+00 0. -1.
       -3    1    3    3    0  502  0.51742856538E+03 -0.11252597854E+03 -0.15971284775E+04  0.16826211100E+04  0.10100000352E+00 0.  1.
</event>
<event>
 5   0  0.2185750E-03  0.1144490E+04  0.7818609E-02  0.9162882E-01
        4   -1    0    0  501    0  0.00000000000E+00  0.00000000000E+00  0.33660937254E+03  0.33661176834E+03  0.12699999809E+01 0.  1.
       -4   -1    0    0    0  501  0.00000000000E+00  0.00000000000E+00 -0.97282547969E+03  0.97282630867E+03  0.12699999809E+01 0. -1.
    10030    2    1    2    0    0  0.00000000000E+00  0.00000000000E+00 -0.63621610715E+03  0.13094380770E+04  0.11444899049E+04 0.  0.
        2    1    3    3  502    0 -0.23304549588E+03 -0.45977125376E+03 -0.33765157585E+02  0.51656547969E+03  0.25500000920E-02 0.  1.
       -2    1    3    3    0  502  0.23304549588E+03  0.45977125376E+03 -0.60245094956E+03  0.79287259731E+03  0.25500000920E-02 0. -1.
</event>
<event>
 5   0  0.3316784E-03  0.1027582E+04  0.7818609E-02  0.9278800E-01
        1   -1    0    0  501    0  0.00000000000E+00  0.00000000000E+00  0.40757752742E+03  0.40757752745E+03  0.50400001928E-02 0.  1.
       -1   -1    0    0    0  501  0.00000000000E+00  0.00000000000E+00 -0.64768340796E+03  0.64768340798E+03  0.50400001928E-02 0. -1.
    10030    2    1    2    0    0  0.00000000000E+00  0.00000000000E+00 -0.24010588054E+03  0.10552609354E+04  0.10275820201E+04 0.  0.
        4    1    3    3  502    0 -0.47632410913E+03 -0.19009529100E+03 -0.15185004372E+03  0.53486533377E+03  0.12699999809E+01 0.  1.
       -4    1    3    3    0  502  0.47632410913E+03  0.19009529100E+03 -0.88255836821E+02  0.52039560166E+03  0.12699999809E+01 0. -1.
</event>
<event>
 5   0  0.3328741E-03  0.1053102E+04  0.7818609E-02  0.9252147E-01
        1   -1    0    0  501    0  0.00000000000E+00  0.00000000000E+00  0.43586017768E+03  0.43586017770E+03  0.50400001928E-02 0.  1.
       -1   -1    0    0    0  501  0.00000000000E+00  0.00000000000E+00 -0.63611227869E+03  0.63611227871E+03  0.50400001928E-02 0. -1.
    10030    2    1    2    0    0  0.00000000000E+00  0.00000000000E+00 -0.20025210102E+03  0.10719724564E+04  0.10531021049E+04 0.  0.
        3    1    3    3  502    0 -0.44086440147E+03  0.21108651509E+03 -0.29943305722E+03  0.57321819868E+03  0.10100000352E+00 0. -1.
       -3    1    3    3    0  502  0.44086440147E+03 -0.21108651509E+03  0.99180956202E+02  0.49875425774E+03  0.10100000352E+00 0.  1.
</event>
<event>
 5   0  0.3241189E-03  0.1090945E+04  0.7818609E-02  0.9214063E-01
       -1   -1    0    0    0  501  0.00000000000E+00  0.00000000000E+00  0.59514264955E+03  0.59514264957E+03  0.50400001928E-02 0. -1.
        1   -1    0    0  501    0  0.00000000000E+00  0.00000000000E+00 -0.49994745381E+03  0.49994745384E+03  0.50400001928E-02 0.  1.
    10030    2    1    2    0    0  0.00000000000E+00  0.00000000000E+00  0.95195195735E+02  0.10950901034E+04  0.10909446408E+04 0.  0.
        5    1    3    3  502    0  0.17494507946E+01 -0.19385085141E+03 -0.46417965951E+03  0.50305671596E+03  0.46999998093E+01 0.  1.
       -5    1    3    3    0  502 -0.17494507946E+01  0.19385085141E+03  0.55937485525E+03  0.59203338745E+03  0.46999998093E+01 0. -1.
</event>
<event>
 5   0  0.5946359E-03  0.1110496E+04  0.7818609E-02  0.9195022E-01
       -2   -1    0    0    0  501  0.00000000000E+00  0.00000000000E+00  0.83051982063E+03  0.83051982064E+03  0.25500000920E-02 0. -1.
        2   -1    0    0  501    0  0.00000000000E+00  0.00000000000E+00 -0.37121339214E+03  0.37121339215E+03  0.25500000920E-02 0.  1.
    10030    2    1    2    0    0  0.00000000000E+00  0.00000000000E+00  0.45930642849E+03  0.12017332128E+04  0.11104955288E+04 0.  0.
        4    1    3    3  502    0 -0.37442159237E+03 -0.28941240559E+03 -0.84634275156E+02  0.48074488325E+03  0.12699999809E+01 0.  1.
       -4    1    3    3    0  502  0.37442159237E+03  0.28941240559E+03  0.54394070365E+03  0.72098832954E+03  0.12699999809E+01 0. -1.
</event>
<event>
 5   0  0.5723194E-03  0.1107457E+04  0.7818609E-02  0.9197954E-01
        2   -1    0    0  501    0  0.00000000000E+00  0.00000000000E+00  0.13206609747E+04  0.13206609747E+04  0.25500000920E-02 0. -1.
       -2   -1    0    0    0  501  0.00000000000E+00  0.00000000000E+00 -0.23216785991E+03  0.23216785993E+03  0.25500000920E-02 0.  1.
    10030    2    1    2    0    0  0.00000000000E+00  0.00000000000E+00  0.10884931148E+04  0.15528288346E+04  0.11074566035E+04 0.  0.
        1    1    3    3  502    0  0.37483551611E+03  0.22738851853E+03  0.10185155627E+04  0.11088648042E+04  0.50400001928E-02 0.  1.
       -1    1    3    3    0  502 -0.37483551611E+03 -0.22738851853E+03  0.69977552095E+02  0.44396403043E+03  0.50400001928E-02 0. -1.
</event>
<event>
 5   0  0.5941585E-03  0.1102418E+04  0.7818609E-02  0.9202838E-01
       -2   -1    0    0    0  501  0.00000000000E+00  0.00000000000E+00  0.39001404421E+03  0.39001404421E+03  0.25500000920E-02 0. -1.
        2   -1    0    0  501    0  0.00000000000E+00  0.00000000000E+00 -0.77902691268E+03  0.77902691268E+03  0.25500000920E-02 0.  1.
    10030    2    1    2    0    0  0.00000000000E+00  0.00000000000E+00 -0.38901286847E+03  0.11690409569E+04  0.11024181362E+04 0.  0.
        5    1    3    3  502    0 -0.50064812462E+03  0.17076138264E+03 -0.30220177966E+02  0.52985219037E+03  0.46999998093E+01 0. -1.
       -5    1    3    3    0  502  0.50064812462E+03 -0.17076138264E+03 -0.35879269050E+03  0.63918876652E+03  0.46999998093E+01 0.  1.
</event>
<event>
 5   0  0.5946359E-03  0.1111852E+04  0.7818609E-02  0.9193716E-01
        2   -1    0    0  501    0  0.00000000000E+00  0.00000000000E+00  0.89903080517E+03  0.89903080518E+03  0.25500000920E-02 0. -1.
       -2   -1    0    0    0  501  0.00000000000E+00  0.00000000000E+00 -0.34376324852E+03  0.34376324853E+03  0.25500000920E-02 0.  1.
    10030    2    1    2    0    0  0.00000000000E+00  0.00000000000E+00  0.55526755665E+03  0.12427940537E+04  0.11118520587E+04 0.  0.
        4    1    3    3  502    0  0.31100471982E+03  0.45567372982E+03  0.20108777214E+03  0.58719706130E+03  0.12699999809E+01 0.  1.
       -4    1    3    3    0  502 -0.31100471982E+03 -0.45567372982E+03  0.35417978451E+03  0.65559699241E+03  0.12699999809E+01 0. -1.
</event>
<event>
 5   0  0.5627232E-03  0.1103822E+04  0.7818609E-02  0.9201475E-01
       -2   -1    0    0    0  501  0.00000000000E+00  0.00000000000E+00  0.84936075191E+03  0.84936075191E+03  0.25500000920E-02 0. -1.
        2   -1    0    0  501    0  0.00000000000E+00  0.00000000000E+00 -0.35862952216E+03  0.35862952217E+03  0.25500000920E-02 0.  1.
    10030    2    1    2    0    0  0.00000000000E+00  0.00000000000E+00  0.49073122975E+03  0.12079902741E+04  0.11038221607E+04 0.  0.
        2    1    3    3  502    0  0.69972674347E+02  0.51252820478E+03  0.45594165658E+03  0.68953907073E+03  0.25500000920E-02 0. -1.
       -2    1    3    3    0  502 -0.69972674347E+02 -0.51252820478E+03  0.34789573172E+02  0.51845120336E+03  0.25500000920E-02 0.  1.
</event>
<event>
 5   0  0.5941585E-03  0.1103741E+04  0.7818609E-02  0.9201553E-01
        2   -1    0    0  501    0  0.00000000000E+00  0.00000000000E+00  0.77069342381E+03  0.77069342382E+03  0.25500000920E-02 0.  1.
       -2   -1    0    0    0  501  0.00000000000E+00  0.00000000000E+00 -0.39517808824E+03  0.39517808825E+03  0.25500000920E-02 0. -1.
    10030    2    1    2    0    0  0.00000000000E+00  0.00000000000E+00  0.37551533558E+03  0.11658715121E+04  0.11037411904E+04 0.  0.
        5    1    3    3  502    0  0.45776526181E+03 -0.17318178527E+03 -0.81540727198E+02  0.49619748675E+03  0.46999998093E+01 0. -1.
       -5    1    3    3    0  502 -0.45776526181E+03  0.17318178527E+03  0.45705606277E+03  0.66967402532E+03  0.46999998093E+01 0.  1.
</event>
<event>
 5   0  0.5941585E-03  0.1108002E+04  0.7818609E-02  0.9197428E-01
        2   -1    0    0  501    0  0.00000000000E+00  0.00000000000E+00  0.13984583445E+04  0.13984583445E+04  0.25500000920E-02 0. -1.
       -2   -1    0    0    0  501  0.00000000000E+00  0.00000000000E+00 -0.21946804223E+03  0.21946804225E+03  0.25500000920E-02 0.  1.
    10030    2    1    2    0    0  0.00000000000E+00  0.00000000000E+00  0.11789903022E+04  0.16179263867E+04  0.11080016517E+04 0.  0.
        5    1    3    3  502    0 -0.16750204984E+03 -0.24947723433E+03 -0.90094210373E+02  0.31374334079E+03  0.46999998093E+01 0.  1.
       -5    1    3    3    0  502  0.16750204984E+03  0.24947723433E+03  0.12690845126E+04  0.13041830459E+04  0.46999998093E+01 0. -1.
</event>
<event>
 5   0  0.3320192E-03  0.1039023E+04  0.7818609E-02  0.9266751E-01
        1   -1    0    0  501    0  0.00000000000E+00  0.00000000000E+00  0.60688760518E+03  0.60688760520E+03  0.50400001928E-02 0.  1.
       -1   -1    0    0    0  501  0.00000000000E+00  0.00000000000E+00 -0.44471532260E+03  0.44471532263E+03  0.50400001928E-02 0. -1.
    10030    2    1    2    0    0  0.00000000000E+00  0.00000000000E+00  0.16217228258E+03  0.10516029278E+04  0.10390230356E+04 0.  0.
        2    1    3    3  502    0  0.19825669676E+03 -0.87774025306E+02 -0.39673385727E+03  0.45211475406E+03  0.25500000920E-02 0. -1.
       -2    1    3    3    0  502 -0.19825669676E+03  0.87774025306E+02  0.55890613985E+03  0.59948817378E+03  0.25500000920E-02 0.  1.
</event>
<event>
 5   0  0.3320192E-03  0.1058508E+04  0.7818609E-02  0.9246604E-01
       -1   -1    0    0    0  501  0.00000000000E+00  0.00000000000E+00  0.29806559728E+03  0.29806559732E+03  0.50400001928E-02 0. -1.
        1   -1    0    0  501    0  0.00000000000E+00  0.00000000000E+00 -0.93975880008E+03  0.93975880010E+03  0.50400001928E-02 0.  1.
    10030    2    1    2    0    0  0.00000000000E+00  0.00000000000E+00 -0.64169320280E+03  0.12378243974E+04  0.10585079463E+04 0.  0.
        2    1    3    3  502    0 -0.51234127082E+03  0.13104894823E+03 -0.34544203820E+03  0.63166257319E+03  0.25500000920E-02 0. -1.
       -2    1    3    3    0  502  0.51234127082E+03 -0.13104894823E+03 -0.29625116460E+03  0.60616182423E+03  0.25500000920E-02 0.  1.
</event>
<event>
 5   0  0.2185750E-03  0.1100273E+04  0.7818609E-02  0.9204926E-01
       -4   -1    0    0    0  501  0.00000000000E+00  0.00000000000E+00  0.23534262337E+03  0.23534605005E+03  0.12699999809E+01 0. -1.
        4   -1    0    0  501    0  0.00000000000E+00  0.00000000000E+00 -0.12859846167E+04  0.12859852438E+04  0.12699999809E+01 0.  1.
    10030    2    1    2    0    0  0.00000000000E+00  0.00000000000E+00 -0.10506419933E+04  0.15213312939E+04  0.11002728332E+04 0.  0.
        5    1    3    3  502    0  0.17128790137E+03 -0.49193302153E+03 -0.28073669547E+03  0.59175402408E+03  0.46999998093E+01 0. -1.
       -5    1    3    3    0  502 -0.17128790137E+03  0.49193302153E+03 -0.76990529785E+03  0.92957726978E+03  0.46999998093E+01 0.  1.
</event>
<event>
 5   0  0.3241189E-03  0.1145295E+04  0.7818609E-02  0.9162135E-01
        1   -1    0    0  501    0  0.00000000000E+00  0.00000000000E+00  0.21511849084E+03  0.21511849090E+03  0.50400001928E-02 0.  1.
       -1   -1    0    0    0  501  0.00000000000E+00  0.00000000000E+00 -0.15243943425E+04  0.15243943425E+04  0.50400001928E-02 0. -1.
    10030    2    1    2    0    0  0.00000000000E+00  0.00000000000E+00 -0.13092758516E+04  0.17395128334E+04  0.11452954387E+04 0.  0.
        5    1    3    3  502    0  0.31555628476E+03 -0.16701192621E+03  0.25342511359E+02  0.35795682034E+03  0.46999998093E+01 0.  1.
       -5    1    3    3    0  502 -0.31555628476E+03  0.16701192621E+03 -0.13346183630E+04  0.13815560131E+04  0.46999998093E+01 0. -1.
</event>
<event>
 5   0  0.5500363E-03  0.1115867E+04  0.7818609E-02  0.9189864E-01
        2   -1    0    0  501    0  0.00000000000E+00  0.00000000000E+00  0.56719075273E+03  0.56719075274E+03  0.25500000920E-02 0.  1.
       -2   -1    0    0    0  501  0.00000000000E+00  0.00000000000E+00 -0.54882699291E+03  0.54882699292E+03  0.25500000920E-02 0. -1.
    10030    2    1    2    0    0  0.00000000000E+00  0.00000000000E+00  0.18363759819E+02  0.11160177457E+04  0.11158666502E+04 0.  0.
        3    1    3    3  502    0 -0.38755602456E+03  0.31117645140E+03 -0.24434628881E+03  0.55383713773E+03  0.10100000352E+00 0. -1.
       -3    1    3    3    0  502  0.38755602456E+03 -0.31117645140E+03  0.26271004862E+03  0.56218060792E+03  0.10100000352E+00 0.  1.
</event>
<event>
 5   0  0.3215352E-03  0.1112943E+04  0.7818609E-02  0.9192668E-01
       -1   -1    0    0    0  501  0.00000000000E+00  0.00000000000E+00  0.13894303698E+03  0.13894303707E+03  0.50400001928E-02 0. -1.
        1   -1    0    0  501    0  0.00000000000E+00  0.00000000000E+00 -0.22286859392E+04  0.22286859392E+04  0.50400001928E-02 0.  1.
    10030    2    1    2    0    0  0.00000000000E+00  0.00000000000E+00 -0.20897429022E+04  0.23676289762E+04  0.11129427532E+04 0.  0.
        1    1    3    3  502    0  0.28594542041E+02  0.20828771147E+03  0.51201667043E+02  0.21638629651E+03  0.50400001928E-02 0. -1.
       -1    1    3    3    0  502 -0.28594542041E+02 -0.20828771147E+03 -0.21409445692E+04  0.21512426797E+04  0.50400001928E-02 0.  1.
</event>
<event>
 5   0  0.3320192E-03  0.1098017E+04  0.7818609E-02  0.9207126E-01
        1   -1    0    0  501    0  0.00000000000E+00  0.00000000000E+00  0.68788778800E+03  0.68788778802E+03  0.50400001928E-02 0.  1.
       -1   -1    0    0    0  501  0.00000000000E+00  0.00000000000E+00 -0.43816824703E+03  0.43816824706E+03  0.50400001928E-02 0. -1.
    10030    2    1    2    0    0  0.00000000000E+00  0.00000000000E+00  0.24971954097E+03  0.11260560351E+04  0.10980174612E+04 0.  0.
        2    1    3    3  502    0  0.10484254723E+03 -0.16969882274E+03  0.64940990610E+03  0.67935474996E+03  0.25500000920E-02 0.  1.
       -2    1    3    3    0  502 -0.10484254723E+03  0.16969882274E+03 -0.39969036512E+03  0.44670128512E+03  0.25500000920E-02 0. -1.
</event>
<event>
 5   0  0.3241189E-03  0.1080579E+04  0.7818609E-02  0.9224331E-01
        1   -1    0    0  501    0  0.00000000000E+00  0.00000000000E+00  0.53759750884E+03  0.53759750887E+03  0.50400001928E-02 0. -1.
       -1   -1    0    0    0  501  0.00000000000E+00  0.00000000000E+00 -0.54299476414E+03  0.54299476416E+03  0.50400001928E-02 0.  1.
    10030    2    1    2    0    0  0.00000000000E+00  0.00000000000E+00 -0.53972552915E+01  0.10805922730E+04  0.10805787941E+04 0.  0.
        5    1    3    3  502    0  0.23942919720E+02 -0.36104672687E+03  0.39850774796E+03  0.53829222321E+03  0.46999998093E+01 0. -1.
       -5    1    3    3    0  502 -0.23942919720E+02  0.36104672687E+03 -0.40390500325E+03  0.54230004982E+03  0.46999998093E+01 0.  1.
</event>
<event>
 5   0  0.5627232E-03  0.1100728E+04  0.7818609E-02  0.9204482E-01
        2   -1    0    0  501    0  0.00000000000E+00  0.00000000000E+00  0.13821212655E+04  0.13821212655E+04  0.25500000920E-02 0. -1.
       -2   -1    0    0    0  501  0.00000000000E+00  0.00000000000E+00 -0.21915635808E+03  0.21915635810E+03  0.25500000920E-02 0.  1.
    10030    2    1    2    0    0  0.00000000000E+00  0.00000000000E+00  0.11629649075E+04  0.16012776236E+04  0.11007282371E+04 0.  0.
        2    1    3    3  502    0  0.38756340855E+03  0.17768247476E+03  0.10877755412E+04  0.11683458758E+04  0.25500000920E-02 0.  1.
       -2    1    3    3    0  502 -0.38756340855E+03 -0.17768247476E+03  0.75189366276E+02  0.43293174785E+03  0.25500000920E-02 0. -1.
</event>
<event>
 5   0  0.5946359E-03  0.1100813E+04  0.7818609E-02  0.9204399E-01
       -2   -1    0    0    0  501  0.00000000000E+00  0.00000000000E+00  0.43837758457E+03  0.43837758457E+03  0.25500000920E-02 0. -1.
        2   -1    0    0  501    0  0.00000000000E+00  0.00000000000E+00 -0.69106529693E+03  0.69106529693E+03  0.25500000920E-02 0.  1.
    10030    2    1    2    0    0  0.00000000000E+00  0.00000000000E+00 -0.25268771236E+03  0.11294428815E+04  0.11008134004E+04 0.  0.
        4    1    3    3  502    0 -0.24931217166E+03  0.18749881045E+03 -0.59160583329E+03  0.66881345512E+03  0.12699999809E+01 0.  1.
       -4    1    3    3    0  502  0.24931217166E+03 -0.18749881045E+03  0.33891812093E+03  0.46062942639E+03  0.12699999809E+01 0. -1.
</event>
<event>
 5   0  0.3328741E-03  0.1111736E+04  0.7818609E-02  0.9193828E-01
       -1   -1    0    0    0  501  0.00000000000E+00  0.00000000000E+00  0.30931400317E+03  0.30931400321E+03  0.50400001928E-02 0. -1.
        1   -1    0    0  501    0  0.00000000000E+00  0.00000000000E+00 -0.99895072215E+03  0.99895072217E+03  0.50400001928E-02 0.  1.
    10030    2    1    2    0    0  0.00000000000E+00  0.00000000000E+00 -0.68963671899E+03  0.13082647254E+04  0.11117363840E+04 0.  0.
        3    1    3    3  502    0 -0.49641646319E+03  0.20789456020E+03 -0.50847056521E+03  0.74039974269E+03  0.10100000352E+00 0.  1.
       -3    1    3    3    0  502  0.49641646319E+03 -0.20789456020E+03 -0.18116615377E+03  0.56786498268E+03  0.10100000352E+00 0. -1.
</event>
<event>
 5   0  0.5627232E-03  0.1103818E+04  0.7818609E-02  0.9201478E-01
       -2   -1    0    0    0  501  0.00000000000E+00  0.00000000000E+00  0.32432793655E+03  0.32432793656E+03  0.25500000920E-02 0.  1.
        2   -1    0    0  501    0  0.00000000000E+00  0.00000000000E+00 -0.93918446706E+03  0.93918446707E+03  0.25500000920E-02 0. -1.
    10030    2    1    2    0    0  0.00000000000E+00  0.00000000000E+00 -0.61485653052E+03  0.12635124036E+04  0.11038183913E+04 0.  0.
        2    1    3    3  502    0  0.50621006837E+03 -0.16729938732E+03 -0.14407222389E+03  0.55226309312E+03  0.25500000920E-02 0.  1.
       -2    1    3    3    0  502 -0.50621006837E+03  0.16729938732E+03 -0.47078430662E+03  0.71124931050E+03  0.25500000920E-02 0. -1.
</event>
<event>
 5   0  0.3241189E-03  0.1066438E+04  0.7818609E-02  0.9238536E-01
       -1   -1    0    0    0  501  0.00000000000E+00  0.00000000000E+00  0.34010032118E+03  0.34010032121E+03  0.50400001928E-02 0. -1.
        1   -1    0    0  501    0  0.00000000000E+00  0.00000000000E+00 -0.83599557409E+03  0.83599557410E+03  0.50400001928E-02 0.  1.
    10030    2    1    2    0    0  0.00000000000E+00  0.00000000000E+00 -0.49589525291E+03  0.11760958953E+04  0.10664377399E+04 0.  0.
        5    1    3    3  502    0  0.10613294522E+03 -0.26598847662E+03  0.24806228879E+03  0.37890772079E+03  0.46999998093E+01 0. -1.
       -5    1    3    3    0  502 -0.10613294522E+03  0.26598847662E+03 -0.74395754170E+03  0.79718817453E+03  0.46999998093E+01 0.  1.
</event>
<event>
 5   0  0.2185750E-03  0.1092360E+04  0.7818609E-02  0.9212670E-01
        3   -1    0    0  501    0  0.00000000000E+00  0.00000000000E+00  0.12777005833E+04  0.12777005873E+04  0.10100000352E+00 0. -1.
       -3   -1    0    0    0  501  0.00000000000E+00  0.00000000000E+00 -0.23347617411E+03  0.23347619595E+03  0.10100000352E+00 0.  1.
    10030    2    1    2    0    0  0.00000000000E+00  0.00000000000E+00  0.10442244092E+04  0.15111767833E+04  0.10923601300E+04 0.  0.
        3    1    3    3  502    0  0.25138621131E+03 -0.37310854396E+03  0.95053841793E+03  0.10516312600E+04  0.10100000352E+00 0. -1.
       -3    1    3    3    0  502 -0.25138621131E+03  0.37310854396E+03  0.93685991296E+02  0.45954552330E+03  0.10100000352E+00 0.  1.
</event>
<event>
 5   0  0.3316784E-03  0.1100636E+04  0.7818609E-02  0.9204572E-01
       -1   -1    0    0    0  501  0.00000000000E+00  0.00000000000E+00  0.60804968985E+03  0.60804968987E+03  0.50400001928E-02 0.  1.
        1   -1    0    0  501    0  0.00000000000E+00  0.00000000000E+00 -0.49806785586E+03  0.49806785588E+03  0.50400001928E-02 0. -1.
    10030    2    1    2    0    0  0.00000000000E+00  0.00000000000E+00  0.10998183399E+03  0.11061175458E+04  0.11006361893E+04 0.  0.
        4    1    3    3  502    0 -0.29039325189E+03 -0.50455035447E+02  0.52203585807E+03  0.59949729053E+03  0.12699999809E+01 0.  1.
       -4    1    3    3    0  502  0.29039325189E+03  0.50455035447E+02 -0.41205402408E+03  0.50662025522E+03  0.12699999809E+01 0. -1.
</event>
<event>
 5   0  0.3320192E-03  0.1102412E+04  0.7818609E-02  0.9202844E-01
       -1   -1    0    0    0  501  0.00000000000E+00  0.00000000000E+00  0.11732026869E+04  0.11732026869E+04  0.50400001928E-02 0.  1.
        1   -1    0    0  501    0  0.00000000000E+00  0.00000000000E+00 -0.25897320680E+03  0.25897320685E+03  0.50400001928E-02 0. -1.
    10030    2    1    2    0    0  0.00000000000E+00  0.00000000000E+00  0.91422948010E+03  0.14321758938E+04  0.11024120139E+04 0.  0.
        2    1    3    3  502    0 -0.49210275739E+03 -0.23308937207E+03  0.34587191019E+03  0.64507608657E+03  0.25500000920E-02 0. -1.
       -2    1    3    3    0  502  0.49210275739E+03  0.23308937207E+03  0.56835756991E+03  0.78709980720E+03  0.25500000920E-02 0.  1.
</event>
<event>
 5   0  0.3241189E-03  0.1066989E+04  0.7818609E-02  0.9237978E-01
       -1   -1    0    0    0  501  0.00000000000E+00  0.00000000000E+00  0.19106195290E+03  0.19106195297E+03  0.50400001928E-02 0.  1.
        1   -1    0    0  501    0  0.00000000000E+00  0.00000000000E+00 -0.14896548222E+04  0.14896548222E+04  0.50400001928E-02 0. -1.
    10030    2    1    2    0    0  0.00000000000E+00  0.00000000000E+00 -0.12985928693E+04  0.16807167752E+04  0.10669889588E+04 0.  0.
        5    1    3    3  502    0 -0.27187352637E+03  0.40078563726E+02  0.70953686037E+02  0.28386268013E+03  0.46999998093E+01 0.  1.
       -5    1    3    3    0  502  0.27187352637E+03 -0.40078563726E+02 -0.13695465553E+04  0.13968540950E+04  0.46999998093E+01 0. -1.
</event>
<event>
 5   0  0.3215352E-03  0.1076984E+04  0.7818609E-02  0.9227920E-01
        1   -1    0    0  501    0  0.00000000000E+00  0.00000000000E+00  0.75388041495E+03  0.75388041496E+03  0.50400001928E-02 0.  1.
       -1   -1    0    0    0  501  0.00000000000E+00  0.00000000000E+00 -0.38464123547E+03  0.38464123550E+03  0.50400001928E-02 0. -1.
    10030    2    1    2    0    0  0.00000000000E+00  0.00000000000E+00  0.36923917948E+03  0.11385216505E+04  0.10769837403E+04 0.  0.
        1    1    3    3  502    0  0.37127517802E+03  0.31678954196E+03 -0.55917598084E+02  0.49125110637E+03  0.50400001928E-02 0. -1.
       -1    1    3    3    0  502 -0.37127517802E+03 -0.31678954196E+03  0.42515677756E+03  0.64727054409E+03  0.50400001928E-02 0.  1.
</event>
<event>
 5   0  0.5500363E-03  0.1115829E+04  0.7818609E-02  0.9189900E-01
       -2   -1    0    0    0  501  0.00000000000E+00  0.00000000000E+00  0.40655173717E+03  0.40655173717E+03  0.25500000920E-02 0.  1.
        2   -1    0    0  501    0  0.00000000000E+00  0.00000000000E+00 -0.76563108652E+03  0.76563108653E+03  0.25500000920E-02 0. -1.
    10030    2    1    2    0    0  0.00000000000E+00  0.00000000000E+00 -0.35907934936E+03  0.11721828237E+04  0.11158291057E+04 0.  0.
        3    1    3    3  502    0 -0.52537094483E+03  0.10439735426E+03 -0.34348291896E+03  0.63631278713E+03  0.10100000352E+00 0. -1.
       -3    1    3    3    0  502  0.52537094483E+03 -0.10439735426E+03 -0.15596430401E+02  0.53587003657E+03  0.10100000352E+00 0.  1.
</event>
<event>
 5   0  0.5500363E-03  0.1098384E+04  0.7818609E-02  0.9206769E-01
        2   -1    0    0  501    0  0.00000000000E+00  0.00000000000E+00  0.10712994750E+04  0.10712994750E+04  0.25500000920E-02 0. -1.
       -2   -1    0    0    0  501  0.00000000000E+00  0.00000000000E+00 -0.28153820771E+03  0.28153820772E+03  0.25500000920E-02 0.  1.
    10030    2    1    2    0    0  0.00000000000E+00  0.00000000000E+00  0.78976126726E+03  0.13528376827E+04  0.10983837838E+04 0.  0.
        3    1    3    3  502    0  0.16872553134E+03  0.16008965157E+02  0.10382836726E+04  0.10520254687E+04  0.10100000352E+00 0. -1.
       -3    1    3    3    0  502 -0.16872553134E+03 -0.16008965157E+02 -0.24852240535E+03  0.30081221394E+03  0.10100000352E+00 0.  1.
</event>
<event>
 5   0  0.3241189E-03  0.1169754E+04  0.7818609E-02  0.9139751E-01
       -1   -1    0    0    0  501  0.00000000000E+00  0.00000000000E+00  0.21704794703E+03  0.21704794709E+03  0.50400001928E-02 0.  1.
        1   -1    0    0  501    0  0.00000000000E+00  0.00000000000E+00 -0.15760614065E+04  0.15760614065E+04  0.50400001928E-02 0. -1.
    10030    2    1    2    0    0  0.00000000000E+00  0.00000000000E+00 -0.13590134594E+04  0.17931093536E+04  0.11697536368E+04 0.  0.
        5    1    3    3  502    0  0.24522067941E+03  0.40955307409E+03 -0.11975070433E+04  0.12891517020E+04  0.46999998093E+01 0. -1.
       -5    1    3    3    0  502 -0.24522067941E+03 -0.40955307409E+03 -0.16150641617E+03  0.50395765156E+03  0.46999998093E+01 0.  1.
</event>
<event>
 5   0  0.3328741E-03  0.1117778E+04  0.7818609E-02  0.9188035E-01
       -1   -1    0    0    0  501  0.00000000000E+00  0.00000000000E+00  0.43028317590E+03  0.43028317593E+03  0.50400001928E-02 0.  1.
        1   -1    0    0  501    0  0.00000000000E+00  0.00000000000E+00 -0.72593376965E+03  0.72593376966E+03  0.50400001928E-02 0. -1.
    10030    2    1    2    0    0  0.00000000000E+00  0.00000000000E+00 -0.29565059375E+03  0.11562169456E+04  0.11177783106E+04 0.  0.
        3    1    3    3  502    0 -0.10504388585E+03  0.54495285406E+03 -0.21604199104E+03  0.59555183082E+03  0.10100000352E+00 0.  1.
       -3    1    3    3    0  502  0.10504388585E+03 -0.54495285406E+03 -0.79608602704E+02  0.56066511477E+03  0.10100000352E+00 0. -1.
</event>
<event>
 5   0  0.3328741E-03  0.1108635E+04  0.7818609E-02  0.9196816E-01
       -1   -1    0    0    0  501  0.00000000000E+00  0.00000000000E+00  0.43224481200E+03  0.43224481203E+03  0.50400001928E-02 0. -1.
        1   -1    0    0  501    0  0.00000000000E+00  0.00000000000E+00 -0.71086512036E+03  0.71086512038E+03  0.50400001928E-02 0.  1.
    10030    2    1    2    0    0  0.00000000000E+00  0.00000000000E+00 -0.27862030836E+03  0.11431099324E+04  0.11086347646E+04 0.  0.
        3    1    3    3  502    0 -0.24785059474E+03 -0.80490916236E+02 -0.64376747283E+03  0.69451081646E+03  0.10100000352E+00 0.  1.
       -3    1    3    3    0  502  0.24785059474E+03  0.80490916236E+02  0.36514716447E+03  0.44859911595E+03  0.10100000352E+00 0. -1.
</event>
<event>
 5   0  0.5627232E-03  0.1075213E+04  0.7818609E-02  0.9229694E-01
        2   -1    0    0  501    0  0.00000000000E+00  0.00000000000E+00  0.66993771906E+03  0.66993771907E+03  0.25500000920E-02 0. -1.
       -2   -1    0    0    0  501  0.00000000000E+00  0.00000000000E+00 -0.43141412938E+03  0.43141412938E+03  0.25500000920E-02 0.  1.
    10030    2    1    2    0    0  0.00000000000E+00  0.00000000000E+00  0.23852358969E+03  0.11013518485E+04  0.10752127191E+04 0.  0.
        2    1    3    3  502    0  0.50593148542E+03  0.91326217582E+02  0.28028868168E+03  0.58555007560E+03  0.25500000920E-02 0. -1.
       -2    1    3    3    0  502 -0.50593148542E+03 -0.91326217582E+02 -0.41765091988E+02  0.51580177285E+03  0.25500000920E-02 0.  1.
</event>
<event>
 5   0  0.5627232E-03  0.1110549E+04  0.7818609E-02  0.9194971E-01
       -2   -1    0    0    0  501  0.00000000000E+00  0.00000000000E+00  0.41662107673E+03  0.41662107674E+03  0.25500000920E-02 0.  1.
        2   -1    0    0  501    0  0.00000000000E+00  0.00000000000E+00 -0.74007255390E+03  0.74007255390E+03  0.25500000920E-02 0. -1.
    10030    2    1    2    0    0  0.00000000000E+00  0.00000000000E+00 -0.32345147717E+03  0.11566936306E+04  0.11105490971E+04 0.  0.
        2    1    3    3  502    0 -0.30642176762E+03 -0.12479695413E+02 -0.64386353485E+03  0.71316919030E+03  0.25500000920E-02 0. -1.
       -2    1    3    3    0  502  0.30642176762E+03  0.12479695413E+02  0.32041205769E+03  0.44352444035E+03  0.25500000920E-02 0.  1.
</event>
<event>
 5   0  0.3316784E-03  0.1060604E+04  0.7818609E-02  0.9244464E-01
        1   -1    0    0  501    0  0.00000000000E+00  0.00000000000E+00  0.20716533726E+03  0.20716533732E+03  0.50400001928E-02 0.  1.
       -1   -1    0    0    0  501  0.00000000000E+00  0.00000000000E+00 -0.13574674624E+04  0.13574674624E+04  0.50400001928E-02 0. -1.
    10030    2    1    2    0    0  0.00000000000E+00  0.00000000000E+00 -0.11503021251E+04  0.15646327997E+04  0.10606039878E+04 0.  0.
        4    1    3    3  502    0  0.31690866787E+03 -0.86723261932E+02 -0.11892191894E+04  0.12337730428E+04  0.12699999809E+01 0. -1.
       -4    1    3    3    0  502 -0.31690866787E+03  0.86723261932E+02  0.38917064256E+02  0.33085975688E+03  0.12699999809E+01 0.  1.
</event>
<event>
 5   0  0.5723194E-03  0.1011154E+04  0.7818609E-02  0.9296396E-01
       -2   -1    0    0    0  501  0.00000000000E+00  0.00000000000E+00  0.11625210965E+03  0.11625210968E+03  0.25500000920E-02 0. -1.
        2   -1    0    0  501    0  0.00000000000E+00  0.00000000000E+00 -0.21987376814E+04  0.21987376814E+04  0.25500000920E-02 0.  1.
    10030    2    1    2    0    0  0.00000000000E+00  0.00000000000E+00 -0.20824855718E+04  0.23149897911E+04  0.10111535869E+04 0.  0.
        1    1    3    3  502    0  0.36819389211E+03 -0.33796023464E+03 -0.86652230495E+03  0.10003223317E+04  0.50400001928E-02 0.  1.
       -1    1    3    3    0  502 -0.36819389211E+03  0.33796023464E+03 -0.12159632668E+04  0.13146674593E+04  0.50400001928E-02 0. -1.
</event>
<event>
 5   0  0.2185750E-03  0.1076424E+04  0.7818609E-02  0.9228481E-01
        3   -1    0    0  501    0  0.00000000000E+00  0.00000000000E+00  0.48870852582E+03  0.48870853626E+03  0.10100000352E+00 0. -1.
       -3   -1    0    0    0  501  0.00000000000E+00  0.00000000000E+00 -0.59272953003E+03  0.59272953864E+03  0.10100000352E+00 0.  1.
    10030    2    1    2    0    0  0.00000000000E+00  0.00000000000E+00 -0.10402100421E+03  0.10814380749E+04  0.10764236808E+04 0.  0.
        1    1    3    3  502    0  0.38770083095E+03  0.12809296251E+03 -0.40428941041E+03  0.57460392338E+03  0.50400001928E-02 0.  1.
       -1    1    3    3    0  502 -0.38770083095E+03 -0.12809296251E+03  0.30026840619E+03  0.50683415152E+03  0.50400001928E-02 0. -1.
</event>
<event>
 5   0  0.2185750E-03  0.1104774E+04  0.7818609E-02  0.9200552E-01
        4   -1    0    0  501    0  0.00000000000E+00  0.00000000000E+00  0.79579462809E+03  0.79579564148E+03  0.12699999809E+01 0.  1.
       -4   -1    0    0    0  501  0.00000000000E+00  0.00000000000E+00 -0.38342726620E+03  0.38342936946E+03  0.12699999809E+01 0. -1.
    10030    2    1    2    0    0  0.00000000000E+00  0.00000000000E+00  0.41236736189E+03  0.11792250109E+04  0.11047736353E+04 0.  0.
        2    1    3    3  502    0  0.46678593149E+03 -0.12830851875E+03 -0.77788394781E+02  0.49030930665E+03  0.25500000920E-02 0.  1.
       -2    1    3    3    0  502 -0.46678593149E+03  0.12830851875E+03  0.49015575667E+03  0.68891570429E+03  0.25500000920E-02 0. -1.
</event>
<event>
 5   0  0.2185750E-03  0.1084221E+04  0.7818609E-02  0.9220709E-01
        4   -1    0    0  501    0  0.00000000000E+00  0.00000000000E+00  0.57267748607E+03  0.57267889428E+03  0.12699999809E+01 0. -1.
       -4   -1    0    0    0  501  0.00000000000E+00  0.00000000000E+00 -0.51317266801E+03  0.51317423950E+03  0.12699999809E+01 0.  1.
    10030    2    1    2    0    0  0.00000000000E+00  0.00000000000E+00  0.59504818062E+02  0.10858531338E+04  0.10842214740E+04 0.  0.
        2    1    3    3  502    0  0.83027191315E+02 -0.53321304747E+03  0.81544668904E+02  0.54576478589E+03  0.25500000920E-02 0.  1.
       -2    1    3    3    0  502 -0.83027191315E+02  0.53321304747E+03 -0.22039850842E+02  0.54008834788E+03  0.25500000920E-02 0. -1.
</event>
<event>
 5   0  0.5627232E-03  0.1092822E+04  0.7818609E-02  0.9212217E-01
       -2   -1    0    0    0  501  0.00000000000E+00  0.00000000000E+00  0.50069008225E+03  0.50069008226E+03  0.25500000920E-02 0.  1.
        2   -1    0    0  501    0  0.00000000000E+00  0.00000000000E+00 -0.59630668865E+03  0.59630668865E+03  0.25500000920E-02 0. -1.
    10030    2    1    2    0    0  0.00000000000E+00  0.00000000000E+00 -0.95616606395E+02  0.10969967709E+04  0.10928217512E+04 0.  0.
        2    1    3    3  502    0 -0.20750354562E+03 -0.31644877112E+03  0.34786415970E+03  0.51401071954E+03  0.25500000920E-02 0.  1.
       -2    1    3    3    0  502  0.20750354562E+03  0.31644877112E+03 -0.44348076610E+03  0.58298605137E+03  0.25500000920E-02 0. -1.
</event>
<event>
 5   0  0.3241189E-03  0.1103338E+04  0.7818609E-02  0.9201944E-01
       -1   -1    0    0    0  501  0.00000000000E+00  0.00000000000E+00  0.33931289621E+03  0.33931289625E+03  0.50400001928E-02 0.  1.
        1   -1    0    0  501    0  0.00000000000E+00  0.00000000000E+00 -0.89692683142E+03  0.89692683143E+03  0.50400001928E-02 0. -1.
    10030    2    1    2    0    0  0.00000000000E+00  0.00000000000E+00 -0.55761393521E+03  0.12362397277E+04  0.11033382816E+04 0.  0.
        5    1    3    3  502    0 -0.43107158017E+02 -0.10966190040E+03  0.32502601811E+03  0.34575708513E+03  0.46999998093E+01 0.  1.
       -5    1    3    3    0  502  0.43107158017E+02  0.10966190040E+03 -0.88263995333E+03  0.89048264255E+03  0.46999998093E+01 0. -1.
</event>
<event>
 5   0  0.5500363E-03  0.1105290E+04  0.7818609E-02  0.9200052E-01
        2   -1    0    0  501    0  0.00000000000E+00  0.00000000000E+00  0.13280808673E+04  0.13280808673E+04  0.25500000920E-02 0. -1.
       -2   -1    0    0    0  501  0.00000000000E+00  0.00000000000E+00 -0.22996814892E+03  0.22996814894E+03  0.25500000920E-02 0.  1.
    10030    2    1    2    0    0  0.00000000000E+00  0.00000000000E+00  0.10981127184E+04  0.15580490162E+04  0.11052896429E+04 0.  0.
        3    1    3    3  502    0 -0.42577377053E+03  0.22740921274E+03  0.92839613524E+03  0.10463831267E+04  0.10100000352E+00 0.  1.
       -3    1    3    3    0  502  0.42577377053E+03 -0.22740921274E+03  0.16971658312E+03  0.51166588952E+03  0.10100000352E+00 0. -1.
</event>
<event>
 5   0  0.3328741E-03  0.1068219E+04  0.7818609E-02  0.9236733E-01
       -1   -1    0    0    0  501  0.00000000000E+00  0.00000000000E+00  0.38861946679E+03  0.38861946682E+03  0.50400001928E-02 0.  1.
        1   -1    0    0  501    0  0.00000000000E+00  0.00000000000E+00 -0.73406816870E+03  0.73406816872E+03  0.50400001928E-02 0. -1.
    10030    2    1    2    0    0  0.00000000000E+00  0.00000000000E+00 -0.34544870192E+03  0.11226876355E+04  0.10682194163E+04 0.  0.
        3    1    3    3  502    0 -0.47656772303E+02  0.30583114658E+03 -0.63019992536E+03  0.70210812151E+03  0.10100000352E+00 0. -1.
       -3    1    3    3    0  502  0.47656772303E+02 -0.30583114658E+03  0.28475122344E+03  0.42057951403E+03  0.10100000352E+00 0.  1.
</event>
<event>
 5   0  0.5946359E-03  0.1101474E+04  0.7818609E-02  0.9203756E-01
        2   -1    0    0  501    0  0.00000000000E+00  0.00000000000E+00  0.60800050587E+03  0.60800050587E+03  0.25500000920E-02 0.  1.
       -2   -1    0    0    0  501  0.00000000000E+00  0.00000000000E+00 -0.49886699955E+03  0.49886699956E+03  0.25500000920E-02 0. -1.
    10030    2    1    2    0    0  0.00000000000E+00  0.00000000000E+00  0.10913350632E+03  0.11068675054E+04  0.11014742631E+04 0.  0.
        4    1    3    3  502    0 -0.31478278451E+03 -0.25519110542E+02 -0.39883014468E+03  0.50873030540E+03  0.12699999809E+01 0. -1.
       -4    1    3    3    0  502  0.31478278451E+03  0.25519110542E+02  0.50796365100E+03  0.59813720003E+03  0.12699999809E+01 0.  1.
</event>
<event>
 5   0  0.3320192E-03  0.1076966E+04  0.7818609E-02  0.9227937E-01
       -1   -1    0    0    0  501  0.00000000000E+00  0.00000000000E+00  0.58714239054E+03  0.58714239056E+03  0.50400001928E-02 0.  1.
        1   -1    0    0  501    0  0.00000000000E+00  0.00000000000E+00 -0.49385649353E+03  0.49385649356E+03  0.50400001928E-02 0. -1.
    10030    2    1    2    0    0  0.00000000000E+00  0.00000000000E+00  0.93285897004E+02  0.10809988841E+04  0.10769662617E+04 0.  0.
        2    1    3    3  502    0  0.43844377667E+02  0.24819015015E+03 -0.43099957365E+03  0.49928079532E+03  0.25500000920E-02 0. -1.
       -2    1    3    3    0  502 -0.43844377667E+02 -0.24819015015E+03  0.52428547066E+03  0.58171808880E+03  0.25500000920E-02 0.  1.
</event>
<event>
 5   0  0.3215352E-03  0.1082541E+04  0.7818609E-02  0.9222378E-01
       -1   -1    0    0    0  501  0.00000000000E+00  0.00000000000E+00  0.15268939459E+03  0.15268939467E+03  0.50400001928E-02 0. -1.
        1   -1    0    0  501    0  0.00000000000E+00  0.00000000000E+00 -0.19187555874E+04  0.19187555874E+04  0.50400001928E-02 0.  1.
    10030    2    1    2    0    0  0.00000000000E+00  0.00000000000E+00 -0.17660661928E+04  0.20714449821E+04  0.10825407689E+04 0.  0.
        1    1    3    3  502    0 -0.36706507840E+01  0.34445580359E+03 -0.16819299951E+04  0.17168435522E+04  0.50400001928E-02 0.  1.
       -1    1    3    3    0  502  0.36706507840E+01 -0.34445580359E+03 -0.84136197761E+02  0.35460142993E+03  0.50400001928E-02 0. -1.
</event>
<event>
 5   0  0.5941585E-03  0.1088729E+04  0.7818609E-02  0.9216248E-01
       -2   -1    0    0    0  501  0.00000000000E+00  0.00000000000E+00  0.12442886207E+03  0.12442886209E+03  0.25500000920E-02 0.  1.
        2   -1    0    0  501    0  0.00000000000E+00  0.00000000000E+00 -0.23815416506E+04  0.23815416506E+04  0.25500000920E-02 0. -1.
    10030    2    1    2    0    0  0.00000000000E+00  0.00000000000E+00 -0.22571127885E+04  0.25059705127E+04  0.10887286486E+04 0.  0.
        5    1    3    3  502    0  0.36954057426E+03 -0.86702812164E+02 -0.20266269193E+04  0.20618720556E+04  0.46999998093E+01 0. -1.
       -5    1    3    3    0  502 -0.36954057426E+03  0.86702812164E+02 -0.23048586921E+03  0.44409845706E+03  0.46999998093E+01 0.  1.
</event>
<event>
 5   0  0.3241189E-03  0.1102855E+04  0.7818609E-02  0.9202414E-01
        1   -1    0    0  501    0  0.00000000000E+00  0.00000000000E+00  0.10017415140E+04  0.10017415140E+04  0.50400001928E-02 0.  1.
       -1   -1    0    0    0  501  0.00000000000E+00  0.00000000000E+00 -0.30354366187E+03  0.30354366191E+03  0.50400001928E-02 0. -1.
    10030    2    1    2    0    0  0.00000000000E+00  0.00000000000E+00  0.69819785212E+03  0.13052851759E+04  0.11028549994E+04 0.  0.
        5    1    3    3  502    0  0.39019477269E+03  0.40571206172E+02  0.80771878847E+03  0.89795863749E+03  0.46999998093E+01 0.  1.
       -5    1    3    3    0  502 -0.39019477269E+03 -0.40571206172E+02 -0.10952093636E+03  0.40732653842E+03  0.46999998093E+01 0. -1.
</event>
<event>
 5   0  0.5500363E-03  0.1104309E+04  0.7818609E-02  0.9201002E-01
       -2   -1    0    0    0  501  0.00000000000E+00  0.00000000000E+00  0.25282079083E+03  0.25282079084E+03  0.25500000920E-02 0. -1.
        2   -1    0    0  501    0  0.00000000000E+00  0.00000000000E+00 -0.12058924221E+04  0.12058924221E+04  0.25500000920E-02 0.  1.
    10030    2    1    2    0    0  0.00000000000E+00  0.00000000000E+00 -0.95307163129E+03  0.14587132130E+04  0.11043091521E+04 0.  0.
        3    1    3    3  502    0  0.36407026927E+03 -0.28516925329E+03 -0.87502291159E+03  0.98971398393E+03  0.10100000352E+00 0.  1.
       -3    1    3    3    0  502 -0.36407026927E+03  0.28516925329E+03 -0.78048719704E+02  0.46899922904E+03  0.10100000352E+00 0. -1.
</event>
<event>
 5   0  0.5723194E-03  0.1097739E+04  0.7818609E-02  0.9207398E-01
        2   -1    0    0  501    0  0.00000000000E+00  0.00000000000E+00  0.96880724262E+03  0.96880724262E+03  0.25500000920E-02 0.  1.
       -2   -1    0    0    0  501  0.00000000000E+00  0.00000000000E+00 -0.31095761746E+03  0.31095761747E+03  0.25500000920E-02 0. -1.
    10030    2    1    2    0    0  0.00000000000E+00  0.00000000000E+00  0.65784962516E+03  0.12797648601E+04  0.10977394809E+04 0.  0.
        1    1    3    3  502    0 -0.11246577090E+03 -0.86496159538E+02 -0.28920947983E+03  0.32213701819E+03  0.50400001928E-02 0. -1.
       -1    1    3    3    0  502  0.11246577090E+03  0.86496159538E+02  0.94705910499E+03  0.95762784191E+03  0.50400001928E-02 0.  1.
</event>
<event>
 5   0  0.3320192E-03  0.1096294E+04  0.7818609E-02  0.9208812E-01
       -1   -1    0    0    0  501  0.00000000000E+00  0.00000000000E+00  0.45752079822E+03  0.45752079824E+03  0.50400001928E-02 0. -1.
        1   -1    0    0  501    0  0.00000000000E+00  0.00000000000E+00 -0.65672420920E+03  0.65672420922E+03  0.50400001928E-02 0.  1.
    10030    2    1    2    0    0  0.00000000000E+00  0.00000000000E+00 -0.19920341099E+03  0.11142450075E+04  0.10962937278E+04 0.  0.
        2    1    3    3  502    0 -0.45387585911E+03 -0.18276949643E+03  0.15154153792E+03  0.51222341027E+03  0.25500000920E-02 0. -1.
       -2    1    3    3    0  502  0.45387585911E+03  0.18276949643E+03 -0.35074494891E+03  0.60202159720E+03  0.25500000920E-02 0.  1.
</event>
<event>
 5   0  0.3320192E-03  0.1106081E+04  0.7818609E-02  0.9199285E-01
       -1   -1    0    0    0  501  0.00000000000E+00  0.00000000000E+00  0.39530541792E+03  0.39530541795E+03  0.50400001928E-02 0.  1.
        1   -1    0    0  501    0  0.00000000000E+00  0.00000000000E+00 -0.77371568024E+03  0.77371568025E+03  0.50400001928E-02 0. -1.
    10030    2    1    2    0    0  0.00000000000E+00  0.00000000000E+00 -0.37841026232E+03  0.11690210982E+04  0.11060813720E+04 0.  0.
        2    1    3    3  502    0 -0.23799935708E+03 -0.22944102732E+03 -0.65779264265E+03  0.73619157814E+03  0.25500000920E-02 0. -1.
       -2    1    3    3    0  502  0.23799935708E+03  0.22944102732E+03  0.27938238034E+03  0.43282952006E+03  0.25500000920E-02 0.  1.
</event>
<event>
 5   0  0.5500363E-03  0.1113246E+04  0.7818609E-02  0.9192377E-01
       -2   -1    0    0    0  501  0.00000000000E+00  0.00000000000E+00  0.12780732462E+03  0.12780732464E+03  0.25500000920E-02 0.  1.
        2   -1    0    0  501    0  0.00000000000E+00  0.00000000000E+00 -0.24241898970E+04  0.24241898970E+04  0.25500000920E-02 0. -1.
    10030    2    1    2    0    0  0.00000000000E+00  0.00000000000E+00 -0.22963825724E+04  0.25519972216E+04  0.11132461096E+04 0.  0.
        3    1    3    3  502    0  0.43256076125E+03  0.11548881793E+03 -0.19063557099E+04  0.19582233228E+04  0.10100000352E+00 0. -1.
       -3    1    3    3    0  502 -0.43256076125E+03 -0.11548881793E+03 -0.39002686247E+03  0.59377389880E+03  0.10100000352E+00 0.  1.
</event>
<event>
 5   0  0.5941585E-03  0.1098564E+04  0.7818609E-02  0.9206593E-01
        2   -1    0    0  501    0  0.00000000000E+00  0.00000000000E+00  0.14323475679E+04  0.14323475679E+04  0.25500000920E-02 0.  1.
       -2   -1    0    0    0  501  0.00000000000E+00  0.00000000000E+00 -0.21064062235E+03  0.21064062237E+03  0.25500000920E-02 0. -1.
    10030    2    1    2    0    0  0.00000000000E+00  0.00000000000E+00  0.12217069455E+04  0.16429881903E+04  0.10985637590E+04 0.  0.
        5    1    3    3  502    0 -0.23899011787E+03 -0.31860031024E+03  0.11765421434E+04  0.12421336238E+04  0.46999998093E+01 0.  1.
       -5    1    3    3    0  502  0.23899011787E+03  0.31860031024E+03  0.45164802153E+02  0.40085456650E+03  0.46999998093E+01 0. -1.
</event>
<event>
 5   0  0.3316784E-03  0.1090938E+04  0.7818609E-02  0.9214070E-01
        1   -1    0    0  501    0  0.00000000000E+00  0.00000000000E+00  0.91945067961E+03  0.91945067963E+03  0.50400001928E-02 0. -1.
       -1   -1    0    0    0  501  0.00000000000E+00  0.00000000000E+00 -0.32360213389E+03  0.32360213393E+03  0.50400001928E-02 0.  1.
    10030    2    1    2    0    0  0.00000000000E+00  0.00000000000E+00  0.59584854572E+03  0.12430528136E+04  0.10909375820E+04 0.  0.
        4    1    3    3  502    0 -0.13690164698E+03 -0.26416540818E+03 -0.22299729991E+03  0.37182634723E+03  0.12699999809E+01 0.  1.
       -4    1    3    3    0  502  0.13690164698E+03  0.26416540818E+03  0.81884584563E+03  0.87122646633E+03  0.12699999809E+01 0. -1.
</event>
<event>
 5   0  0.3316784E-03  0.1094721E+04  0.7818609E-02  0.9210353E-01
       -1   -1    0    0    0  501  0.00000000000E+00  0.00000000000E+00  0.29734921436E+03  0.29734921441E+03  0.50400001928E-02 0.  1.
        1   -1    0    0  501    0  0.00000000000E+00  0.00000000000E+00 -0.10075811636E+04  0.10075811636E+04  0.50400001928E-02 0. -1.
    10030    2    1    2    0    0  0.00000000000E+00  0.00000000000E+00 -0.71023194921E+03  0.13049303780E+04  0.10947209095E+04 0.  0.
        4    1    3    3  502    0  0.32502824699E+02 -0.21522203322E+03 -0.95377275405E+03  0.97829496393E+03  0.12699999809E+01 0. -1.
       -4    1    3    3    0  502 -0.32502824699E+02  0.21522203322E+03  0.24354080484E+03  0.32663541406E+03  0.12699999809E+01 0.  1.
</event>
<event>
 5   0  0.3215352E-03  0.1099522E+04  0.7818609E-02  0.9205658E-01
        1   -1    0    0  501    0  0.00000000000E+00  0.00000000000E+00  0.11772184125E+04  0.11772184125E+04  0.50400001928E-02 0. -1.
       -1   -1    0    0    0  501  0.00000000000E+00  0.00000000000E+00 -0.25673823561E+03  0.25673823566E+03  0.50400001928E-02 0.  1.
    10030    2    1    2    0    0  0.00000000000E+00  0.00000000000E+00  0.92048017689E+03  0.14339566482E+04  0.10995216745E+04 0.  0.
        1    1    3    3  502    0 -0.70375194409E+02  0.59439615198E+02 -0.24660148165E+03  0.26324518347E+03  0.50400001928E-02 0.  1.
       -1    1    3    3    0  502  0.70375194409E+02 -0.59439615198E+02  0.11670816585E+04  0.11707114647E+04  0.50400001928E-02 0. -1.
</event>
<event>
 5   0  0.3215352E-03  0.1099974E+04  0.7818609E-02  0.9205217E-01
       -1   -1    0    0    0  501  0.00000000000E+00  0.00000000000E+00  0.22059508627E+03  0.22059508633E+03  0.50400001928E-02 0. -1.
        1   -1    0    0  501    0  0.00000000000E+00  0.00000000000E+00 -0.13712266333E+04  0.13712266333E+04  0.50400001928E-02 0.  1.
    10030    2    1    2    0    0  0.00000000000E+00  0.00000000000E+00 -0.11506315470E+04  0.15918217197E+04  0.10999742861E+04 0.  0.
        1    1    3    3  502    0 -0.32529639326E+03  0.31721605161E+03 -0.10237953764E+04  0.11200896123E+04  0.50400001928E-02 0.  1.
       -1    1    3    3    0  502  0.32529639326E+03 -0.31721605161E+03 -0.12683617063E+03  0.47173210732E+03  0.50400001928E-02 0. -1.
</event>
<event>
 5   0  0.3320192E-03  0.1102872E+04  0.7818609E-02  0.9202397E-01
        1   -1    0    0  501    0  0.00000000000E+00  0.00000000000E+00  0.50992441527E+03  0.50992441530E+03  0.50400001928E-02 0. -1.
       -1   -1    0    0    0  501  0.00000000000E+00  0.00000000000E+00 -0.59632715066E+03  0.59632715068E+03  0.50400001928E-02 0.  1.
    10030    2    1    2    0    0  0.00000000000E+00  0.00000000000E+00 -0.86402735382E+02  0.11062515660E+04  0.11028722023E+04 0.  0.
        2    1    3    3  502    0  0.19330357057E+02 -0.16155248044E+03  0.48529913661E+03  0.51184774947E+03  0.25500000920E-02 0. -1.
       -2    1    3    3    0  502 -0.19330357057E+02  0.16155248044E+03 -0.57170187199E+03  0.59440381651E+03  0.25500000920E-02 0.  1.
</event>
<event>
 5   0  0.3241189E-03  0.1090644E+04  0.7818609E-02  0.9214359E-01
       -1   -1    0    0    0  501  0.00000000000E+00  0.00000000000E+00  0.14527922590E+03  0.14527922599E+03  0.50400001928E-02 0. -1.
        1   -1    0    0  501    0  0.00000000000E+00  0.00000000000E+00 -0.20469290737E+04  0.20469290737E+04  0.50400001928E-02 0.  1.
    10030    2    1    2    0    0  0.00000000000E+00  0.00000000000E+00 -0.19016498478E+04  0.21922082997E+04  0.10906443442E+04 0.  0.
        5    1    3    3  502    0  0.39797917094E+03 -0.37031861936E+03 -0.86481892755E+03  0.10214975124E+04  0.46999998093E+01 0. -1.
       -5    1    3    3    0  502 -0.39797917094E+03  0.37031861936E+03 -0.10368309203E+04  0.11707107873E+04  0.46999998093E+01 0.  1.
</event>
<event>
 5   0  0.3320192E-03  0.1111106E+04  0.7818609E-02  0.9194434E-01
       -1   -1    0    0    0  501  0.00000000000E+00  0.00000000000E+00  0.37460877767E+03  0.37460877770E+03  0.50400001928E-02 0.  1.
        1   -1    0    0  501    0  0.00000000000E+00  0.00000000000E+00 -0.82389797169E+03  0.82389797171E+03  0.50400001928E-02 0. -1.
    10030    2    1    2    0    0  0.00000000000E+00  0.00000000000E+00 -0.44928919403E+03  0.11985067494E+04  0.11111064974E+04 0.  0.
        2    1    3    3  502    0  0.26782329446E+03 -0.79259549797E+02 -0.74265780235E+03  0.79344313261E+03  0.25500000920E-02 0. -1.
       -2    1    3    3    0  502 -0.26782329446E+03  0.79259549797E+02  0.29336860833E+03  0.40506361679E+03  0.25500000920E-02 0.  1.
</event>
<event>
 5   0  0.5723194E-03  0.1095073E+04  0.7818609E-02  0.9210007E-01
       -2   -1    0    0    0  501  0.00000000000E+00  0.00000000000E+00  0.36481718940E+03  0.36481718941E+03  0.25500000920E-02 0.  1.
        2   -1    0    0  501    0  0.00000000000E+00  0.00000000000E+00 -0.82177142906E+03  0.82177142906E+03  0.25500000920E-02 0. -1.
    10030    2    1    2    0    0  0.00000000000E+00  0.00000000000E+00 -0.45695423966E+03  0.11865886185E+04  0.10950732269E+04 0.  0.
        1    1    3    3  502    0  0.22507808834E+03 -0.17026327652E+03  0.27993163686E+03  0.39750654149E+03  0.50400001928E-02 0.  1.
       -1    1    3    3    0  502 -0.22507808834E+03  0.17026327652E+03 -0.73688587652E+03  0.78908207698E+03  0.50400001928E-02 0. -1.
</event>
<event>
 5   0  0.5723194E-03  0.1137661E+04  0.7818609E-02  0.9169243E-01
       -2   -1    0    0    0  501  0.00000000000E+00  0.00000000000E+00  0.36712359115E+03  0.36712359116E+03  0.25500000920E-02 0. -1.
        2   -1    0    0  501    0  0.00000000000E+00  0.00000000000E+00 -0.88136052746E+03  0.88136052746E+03  0.25500000920E-02 0.  1.
    10030    2    1    2    0    0  0.00000000000E+00  0.00000000000E+00 -0.51423693631E+03  0.12484841186E+04  0.11376611832E+04 0.  0.
        1    1    3    3  502    0 -0.26952748213E+03  0.40815314386E+03  0.61574088024E+02  0.49297608543E+03  0.50400001928E-02 0. -1.
       -1    1    3    3    0  502  0.26952748213E+03 -0.40815314386E+03 -0.57581102433E+03  0.75550803320E+03  0.50400001928E-02 0.  1.
</event>
<event>
 5   0  0.5627232E-03  0.1099710E+04  0.7818609E-02  0.9205475E-01
       -2   -1    0    0    0  501  0.00000000000E+00  0.00000000000E+00  0.17012883503E+03  0.17012883505E+03  0.25500000920E-02 0. -1.
        2   -1    0    0  501    0  0.00000000000E+00  0.00000000000E+00 -0.17771270298E+04  0.17771270298E+04  0.25500000920E-02 0.  1.
    10030    2    1    2    0    0  0.00000000000E+00  0.00000000000E+00 -0.16069981948E+04  0.19472558648E+04  0.10997100551E+04 0.  0.
        2    1    3    3  502    0 -0.36190159023E+03  0.38549556802E+03 -0.10706398141E+04  0.11940892787E+04  0.25500000920E-02 0.  1.
       -2    1    3    3    0  502  0.36190159023E+03 -0.38549556802E+03 -0.53635838065E+03  0.75316658614E+03  0.25500000920E-02 0. -1.
</event>
<event>
 5   0  0.3316784E-03  0.1093268E+04  0.7818609E-02  0.9211778E-01
       -1   -1    0    0    0  501  0.00000000000E+00  0.00000000000E+00  0.34719208546E+03  0.34719208550E+03  0.50400001928E-02 0.  1.
        1   -1    0    0  501    0  0.00000000000E+00  0.00000000000E+00 -0.86064375226E+03  0.86064375227E+03  0.50400001928E-02 0. -1.
    10030    2    1    2    0    0  0.00000000000E+00  0.00000000000E+00 -0.51345166680E+03  0.12078358378E+04  0.10932679438E+04 0.  0.
        4    1    3    3  502    0 -0.28558206719E+03  0.29412869494E+03 -0.65619446409E+03  0.77373224948E+03  0.12699999809E+01 0. -1.
       -4    1    3    3    0  502  0.28558206719E+03 -0.29412869494E+03  0.14274279729E+03  0.43410358829E+03  0.12699999809E+01 0.  1.
</event>
<event>
 5   0  0.3316784E-03  0.1101415E+04  0.7818609E-02  0.9203814E-01
        1   -1    0    0  501    0  0.00000000000E+00  0.00000000000E+00  0.46135316563E+03  0.46135316566E+03  0.50400001928E-02 0.  1.
       -1   -1    0    0    0  501  0.00000000000E+00  0.00000000000E+00 -0.65736767033E+03  0.65736767035E+03  0.50400001928E-02 0. -1.
    10030    2    1    2    0    0  0.00000000000E+00  0.00000000000E+00 -0.19601450470E+03  0.11187208360E+04  0.11014148278E+04 0.  0.
        4    1    3    3  502    0  0.36419252137E+03  0.38997499036E+03  0.40369767008E+02  0.53511495654E+03  0.12699999809E+01 0. -1.
       -4    1    3    3    0  502 -0.36419252137E+03 -0.38997499036E+03 -0.23638427171E+03  0.58360587946E+03  0.12699999809E+01 0.  1.
</event>
<event>
 5   0  0.3215352E-03  0.1090156E+04  0.7818609E-02  0.9214840E-01
       -1   -1    0    0    0  501  0.00000000000E+00  0.00000000000E+00  0.42813709970E+03  0.42813709973E+03  0.50400001928E-02 0. -1.
        1   -1    0    0  501    0  0.00000000000E+00  0.00000000000E+00 -0.69395953951E+03  0.69395953953E+03  0.50400001928E-02 0.  1.
    10030    2    1    2    0    0  0.00000000000E+00  0.00000000000E+00 -0.26582243982E+03  0.11220966393E+04  0.10901556303E+04 0.  0.
        1    1    3    3  502    0 -0.30474465122E+02 -0.77991661170E+02  0.42147758336E+03  0.42971472577E+03  0.50400001928E-02 0. -1.
       -1    1    3    3    0  502  0.30474465122E+02  0.77991661170E+02 -0.68730002318E+03  0.69238191349E+03  0.50400001928E-02 0.  1.
</event>
<event>
 5   0  0.3320192E-03  0.1075370E+04  0.7818609E-02  0.9229536E-01
        1   -1    0    0  501    0  0.00000000000E+00  0.00000000000E+00  0.46508139006E+03  0.46508139009E+03  0.50400001928E-02 0. -1.
       -1   -1    0    0    0  501  0.00000000000E+00  0.00000000000E+00 -0.62162278538E+03  0.62162278540E+03  0.50400001928E-02 0.  1.
    10030    2    1    2    0    0  0.00000000000E+00  0.00000000000E+00 -0.15654139532E+03  0.10867041755E+04  0.10753700556E+04 0.  0.
        2    1    3    3  502    0 -0.16358806786E+03  0.45939222730E+02  0.43723703304E+03  0.46909241222E+03  0.25500000920E-02 0. -1.
       -2    1    3    3    0  502  0.16358806786E+03 -0.45939222730E+02 -0.59377842836E+03  0.61761176327E+03  0.25500000920E-02 0.  1.
</event>
<event>
 5   0  0.3320192E-03  0.1111776E+04  0.7818609E-02  0.9193789E-01
        1   -1    0    0  501    0  0.00000000000E+00  0.00000000000E+00  0.11309291424E+04  0.11309291424E+04  0.50400001928E-02 0.  1.
       -1   -1    0    0    0  501  0.00000000000E+00  0.00000000000E+00 -0.27323701232E+03  0.27323701236E+03  0.50400001928E-02 0. -1.
    10030    2    1    2    0    0  0.00000000000E+00  0.00000000000E+00  0.85769213006E+03  0.14041661548E+04  0.11117764165E+04 0.  0.
        2    1    3    3  502    0 -0.17307113913E+03  0.13508531443E+03 -0.21615910430E+03  0.30810131410E+03  0.25500000920E-02 0. -1.
       -2    1    3    3    0  502  0.17307113913E+03 -0.13508531443E+03  0.10738512344E+04  0.10960648407E+04  0.25500000920E-02 0.  1.
</event>
<event>
 5   0  0.5500363E-03  0.1104698E+04  0.7818609E-02  0.9200625E-01
        2   -1    0    0  501    0  0.00000000000E+00  0.00000000000E+00  0.12646283606E+04  0.12646283606E+04  0.25500000920E-02 0.  1.
       -2   -1    0    0    0  501  0.00000000000E+00  0.00000000000E+00 -0.24124822972E+03  0.24124822973E+03  0.25500000920E-02 0. -1.
    10030    2    1    2    0    0  0.00000000000E+00  0.00000000000E+00  0.10233801309E+04  0.15058765903E+04  0.11046978832E+04 0.  0.
        3    1    3    3  502    0 -0.42198289137E+03 -0.21947982096E+03  0.89446393004E+03  0.10130679566E+04  0.10100000352E+00 0.  1.
       -3    1    3    3    0  502  0.42198289137E+03  0.21947982096E+03  0.12891620086E+03  0.49280863371E+03  0.10100000352E+00 0. -1.
</event>
<event>
 5   0  0.5723194E-03  0.1122900E+04  0.7818609E-02  0.9183155E-01
        2   -1    0    0  501    0  0.00000000000E+00  0.00000000000E+00  0.10540077384E+04  0.10540077384E+04  0.25500000920E-02 0.  1.
       -2   -1    0    0    0  501  0.00000000000E+00  0.00000000000E+00 -0.29907375043E+03  0.29907375045E+03  0.25500000920E-02 0. -1.
    10030    2    1    2    0    0  0.00000000000E+00  0.00000000000E+00  0.75493398793E+03  0.13530814888E+04  0.11228999017E+04 0.  0.
        1    1    3    3  502    0  0.18351447443E+03  0.52439065937E+03  0.27984863384E+03  0.62207586664E+03  0.50400001928E-02 0. -1.
       -1    1    3    3    0  502 -0.18351447443E+03 -0.52439065937E+03  0.47508535409E+03  0.73100562218E+03  0.50400001928E-02 0.  1.
</event>
<event>
 5   0  0.5500363E-03  0.1037182E+04  0.7818609E-02  0.9268679E-01
       -2   -1    0    0    0  501  0.00000000000E+00  0.00000000000E+00  0.40707433738E+03  0.40707433739E+03  0.25500000920E-02 0.  1.
        2   -1    0    0  501    0  0.00000000000E+00  0.00000000000E+00 -0.66065730944E+03  0.66065730944E+03  0.25500000920E-02 0. -1.
    10030    2    1    2    0    0  0.00000000000E+00  0.00000000000E+00 -0.25358297206E+03  0.10677316468E+04  0.10371820216E+04 0.  0.
        3    1    3    3  502    0 -0.50574530730E+03 -0.96294092595E+02 -0.62619568239E+02  0.51862519092E+03  0.10100000352E+00 0. -1.
       -3    1    3    3    0  502  0.50574530730E+03  0.96294092595E+02 -0.19096340382E+03  0.54910645591E+03  0.10100000352E+00 0.  1.
</event>
<event>
 5   0  0.3215352E-03  0.1104446E+04  0.7818609E-02  0.9200869E-01
       -1   -1    0    0    0  501  0.00000000000E+00  0.00000000000E+00  0.32580179917E+03  0.32580179921E+03  0.50400001928E-02 0. -1.
        1   -1    0    0  501    0  0.00000000000E+00  0.00000000000E+00 -0.93599897421E+03  0.93599897422E+03  0.50400001928E-02 0.  1.
    10030    2    1    2    0    0  0.00000000000E+00  0.00000000000E+00 -0.61019717504E+03  0.12618007734E+04  0.11044458336E+04 0.  0.
        1    1    3    3  502    0  0.45165541207E+03 -0.22552953929E+03 -0.49393673517E+02  0.50724345176E+03  0.50400001928E-02 0. -1.
       -1    1    3    3    0  502 -0.45165541207E+03  0.22552953929E+03 -0.56080350152E+03  0.75455732167E+03  0.50400001928E-02 0.  1.
</event>
<event>
 5   0  0.5627232E-03  0.1102221E+04  0.7818609E-02  0.9203029E-01
        2   -1    0    0  501    0  0.00000000000E+00  0.00000000000E+00  0.15966777801E+04  0.15966777801E+04  0.25500000920E-02 0. -1.
       -2   -1    0    0    0  501  0.00000000000E+00  0.00000000000E+00 -0.19022183984E+03  0.19022183986E+03  0.25500000920E-02 0.  1.
    10030    2    1    2    0    0  0.00000000000E+00  0.00000000000E+00  0.14064559402E+04  0.17868996199E+04  0.11022213661E+04 0.  0.
        2    1    3    3  502    0  0.46787023022E+03 -0.27153815691E+03  0.87393342647E+03  0.10278108566E+04  0.25500000920E-02 0. -1.
       -2    1    3    3    0  502 -0.46787023022E+03  0.27153815691E+03  0.53252251375E+03  0.75908876335E+03  0.25500000920E-02 0.  1.
</event>
<event>
 5   0  0.5627232E-03  0.1098268E+04  0.7818609E-02  0.9206882E-01
        2   -1    0    0  501    0  0.00000000000E+00  0.00000000000E+00  0.25057032612E+03  0.25057032613E+03  0.25500000920E-02 0.  1.
       -2   -1    0    0    0  501  0.00000000000E+00  0.00000000000E+00 -0.12034464053E+04  0.12034464053E+04  0.25500000920E-02 0. -1.
    10030    2    1    2    0    0  0.00000000000E+00  0.00000000000E+00 -0.95287607920E+03  0.14540167315E+04  0.10982676509E+04 0.  0.
        2    1    3    3  502    0 -0.43432824548E+03 -0.26371674170E+03 -0.20075635106E+03  0.54634298492E+03  0.25500000920E-02 0. -1.
       -2    1    3    3    0  502  0.43432824548E+03  0.26371674170E+03 -0.75211972814E+03  0.90767374653E+03  0.25500000920E-02 0.  1.
</event>
<event>
 5   0  0.3215352E-03  0.1108308E+04  0.7818609E-02  0.9197132E-01
       -1   -1    0    0    0  501  0.00000000000E+00  0.00000000000E+00  0.70792666386E+03  0.70792666388E+03  0.50400001928E-02 0. -1.
        1   -1    0    0  501    0  0.00000000000E+00  0.00000000000E+00 -0.43378327131E+03  0.43378327134E+03  0.50400001928E-02 0.  1.
    10030    2    1    2    0    0  0.00000000000E+00  0.00000000000E+00  0.27414339256E+03  0.11417099352E+04  0.11083081595E+04 0.  0.
        1    1    3    3  502    0  0.39392969429E+03  0.27943011497E+03 -0.14282439468E+03  0.50364729815E+03  0.50400001928E-02 0.  1.
       -1    1    3    3    0  502 -0.39392969429E+03 -0.27943011497E+03  0.41696778724E+03  0.63806263706E+03  0.50400001928E-02 0. -1.
</event>
<event>
 5   0  0.3316784E-03  0.1097569E+04  0.7818609E-02  0.9207564E-01
       -1   -1    0    0    0  501  0.00000000000E+00  0.00000000000E+00  0.10631497321E+04  0.10631497322E+04  0.50400001928E-02 0.  1.
        1   -1    0    0  501    0  0.00000000000E+00  0.00000000000E+00 -0.28327574094E+03  0.28327574098E+03  0.50400001928E-02 0. -1.
    10030    2    1    2    0    0  0.00000000000E+00  0.00000000000E+00  0.77987399120E+03  0.13464254731E+04  0.10975691835E+04 0.  0.
        4    1    3    3  502    0 -0.37611336072E+03 -0.31681148455E+03  0.68874719352E+03  0.84628900875E+03  0.12699999809E+01 0.  1.
       -4    1    3    3    0  502  0.37611336072E+03  0.31681148455E+03  0.91126797685E+02  0.50013646439E+03  0.12699999809E+01 0. -1.
</event>
<event>
 5   0  0.3241189E-03  0.1114151E+04  0.7818609E-02  0.9191508E-01
        1   -1    0    0  501    0  0.00000000000E+00  0.00000000000E+00  0.21491246071E+04  0.21491246071E+04  0.50400001928E-02 0.  1.
       -1   -1    0    0    0  501  0.00000000000E+00  0.00000000000E+00 -0.14439972590E+03  0.14439972599E+03  0.50400001928E-02 0. -1.
    10030    2    1    2    0    0  0.00000000000E+00  0.00000000000E+00  0.20047248812E+04  0.22935243331E+04  0.11141508054E+04 0.  0.
        5    1    3    3  502    0  0.27932256834E+03  0.31997670037E+03  0.26041720034E+03  0.49824230470E+03  0.46999998093E+01 0. -1.
       -5    1    3    3    0  502 -0.27932256834E+03 -0.31997670037E+03  0.17443076808E+04  0.17952820284E+04  0.46999998093E+01 0.  1.
</event>
<event>
 5   0  0.5946359E-03  0.1167975E+04  0.7818609E-02  0.9141359E-01
        2   -1    0    0  501    0  0.00000000000E+00  0.00000000000E+00  0.55563192162E+03  0.55563192163E+03  0.25500000920E-02 0.  1.
       -2   -1    0    0    0  501  0.00000000000E+00  0.00000000000E+00 -0.61379016198E+03  0.61379016199E+03  0.25500000920E-02 0. -1.
    10030    2    1    2    0    0  0.00000000000E+00  0.00000000000E+00 -0.58158240361E+02  0.11694220836E+04  0.11679750120E+04 0.  0.
        4    1    3    3  502    0 -0.41986059704E+03 -0.30281116613E+03 -0.29971434567E+03  0.59817039811E+03  0.12699999809E+01 0. -1.
       -4    1    3    3    0  502  0.41986059704E+03  0.30281116613E+03  0.24155610530E+03  0.57125168550E+03  0.12699999809E+01 0.  1.
</event>
<event>
 5   0  0.3241189E-03  0.1105788E+04  0.7818609E-02  0.9199569E-01
        1   -1    0    0  501    0  0.00000000000E+00  0.00000000000E+00  0.56481916057E+03  0.56481916059E+03  0.50400001928E-02 0. -1.
       -1   -1    0    0    0  501  0.00000000000E+00  0.00000000000E+00 -0.54122074002E+03  0.54122074004E+03  0.50400001928E-02 0.  1.
    10030    2    1    2    0    0  0.00000000000E+00  0.00000000000E+00  0.23598420550E+02  0.11060399006E+04  0.11057881245E+04 0.  0.
        5    1    3    3  502    0  0.50192918767E+03  0.23163356522E+03  0.27011996535E+01  0.55282583555E+03  0.46999998093E+01 0. -1.
       -5    1    3    3    0  502 -0.50192918767E+03 -0.23163356522E+03  0.20897220896E+02  0.55321406509E+03  0.46999998093E+01 0.  1.
</event>
<event>
 5   0  0.5500363E-03  0.1055924E+04  0.7818609E-02  0.9249249E-01
       -2   -1    0    0    0  501  0.00000000000E+00  0.00000000000E+00  0.36819332477E+03  0.36819332478E+03  0.25500000920E-02 0. -1.
        2   -1    0    0  501    0  0.00000000000E+00  0.00000000000E+00 -0.75705869923E+03  0.75705869924E+03  0.25500000920E-02 0.  1.
    10030    2    1    2    0    0  0.00000000000E+00  0.00000000000E+00 -0.38886537446E+03  0.11252520240E+04  0.10559241630E+04 0.  0.
        3    1    3    3  502    0  0.10778695795E+03  0.50662763092E+03 -0.30339238651E+03  0.60028038041E+03  0.10100000352E+00 0.  1.
       -3    1    3    3    0  502 -0.10778695795E+03 -0.50662763092E+03 -0.85472987952E+02  0.52497164360E+03  0.10100000352E+00 0. -1.
</event>
<event>
 5   0  0.3241189E-03  0.1102945E+04  0.7818609E-02  0.9202326E-01
        1   -1    0    0  501    0  0.00000000000E+00  0.00000000000E+00  0.60239727485E+03  0.60239727487E+03  0.50400001928E-02 0. -1.
       -1   -1    0    0    0  501  0.00000000000E+00  0.00000000000E+00 -0.50485301050E+03  0.50485301053E+03  0.50400001928E-02 0.  1.
    10030    2    1    2    0    0  0.00000000000E+00  0.00000000000E+00  0.97544264347E+02  0.11072502854E+04  0.11029452892E+04 0.  0.
        5    1    3    3  502    0 -0.24350739087E+03  0.48320158958E+03 -0.58040346056E+02  0.54421539609E+03  0.46999998093E+01 0.  1.
       -5    1    3    3    0  502  0.24350739087E+03 -0.48320158958E+03  0.15558461040E+03  0.56303488930E+03  0.46999998093E+01 0. -1.
</event>
<event>
 5   0  0.3328741E-03  0.1103459E+04  0.7818609E-02  0.9201827E-01
        1   -1    0    0  501    0  0.00000000000E+00  0.00000000000E+00  0.81209095549E+03  0.81209095550E+03  0.50400001928E-02 0. -1.
       -1   -1    0    0    0  501  0.00000000000E+00  0.00000000000E+00 -0.37484134759E+03  0.37484134762E+03  0.50400001928E-02 0.  1.
    10030    2    1    2    0    0  0.00000000000E+00  0.00000000000E+00  0.43724960790E+03  0.11869323031E+04  0.11034586864E+04 0.  0.
        3    1    3    3  502    0 -0.22546278112E+03 -0.29494819262E+03  0.65763828238E+03  0.75519270564E+03  0.10100000352E+00 0. -1.
       -3    1    3    3    0  502  0.22546278112E+03  0.29494819262E+03 -0.22038867448E+03  0.43173959748E+03  0.10100000352E+00 0.  1.
</event>
<event>
 5   0  0.3328741E-03  0.1099002E+04  0.7818609E-02  0.9206165E-01
       -1   -1    0    0    0  501  0.00000000000E+00  0.00000000000E+00  0.99573693067E+03  0.99573693068E+03  0.50400001928E-02 0.  1.
        1   -1    0    0  501    0  0.00000000000E+00  0.00000000000E+00 -0.30324415349E+03  0.30324415354E+03  0.50400001928E-02 0. -1.
    10030    2    1    2    0    0  0.00000000000E+00  0.00000000000E+00  0.69249277718E+03  0.12989810842E+04  0.10990020977E+04 0.  0.
        3    1    3    3  502    0 -0.49001023910E+02  0.51045525906E+03  0.57962287053E+03  0.77390461563E+03  0.10100000352E+00 0.  1.
       -3    1    3    3    0  502  0.49001023910E+02 -0.51045525906E+03  0.11286990664E+03  0.52507646859E+03  0.10100000352E+00 0. -1.
</event>
<event>
 5   0  0.3241189E-03  0.1103665E+04  0.7818609E-02  0.9201628E-01
        1   -1    0    0  501    0  0.00000000000E+00  0.00000000000E+00  0.12104373694E+04  0.12104373695E+04  0.50400001928E-02 0.  1.
       -1   -1    0    0    0  501  0.00000000000E+00  0.00000000000E+00 -0.25157753706E+03  0.25157753711E+03  0.50400001928E-02 0. -1.
    10030    2    1    2    0    0  0.00000000000E+00  0.00000000000E+00  0.95885983238E+03  0.14620149066E+04  0.11036645364E+04 0.  0.
        5    1    3    3  502    0 -0.14705986163E+03  0.43924898158E+03  0.82175991619E+02  0.47046918530E+03  0.46999998093E+01 0. -1.
       -5    1    3    3    0  502  0.14705986163E+03 -0.43924898158E+03  0.87668384076E+03  0.99154572127E+03  0.46999998093E+01 0.  1.
</event>
<event>
 5   0  0.5946359E-03  0.1087382E+04  0.7818609E-02  0.9217578E-01
        2   -1    0    0  501    0  0.00000000000E+00  0.00000000000E+00  0.14054941573E+04  0.14054941573E+04  0.25500000920E-02 0.  1.
       -2   -1    0    0    0  501  0.00000000000E+00  0.00000000000E+00 -0.21031757605E+03  0.21031757607E+03  0.25500000920E-02 0. -1.
    10030    2    1    2    0    0  0.00000000000E+00  0.00000000000E+00  0.11951765812E+04  0.16158117334E+04  0.10873824062E+04 0.  0.
        4    1    3    3  502    0 -0.49322363489E+03 -0.19338260660E+03  0.41600776772E+03  0.67359517683E+03  0.12699999809E+01 0. -1.
       -4    1    3    3    0  502  0.49322363489E+03  0.19338260660E+03  0.77916881352E+03  0.94221655654E+03  0.12699999809E+01 0.  1.
</event>
<event>
 5   0  0.5500363E-03  0.1094847E+04  0.7818609E-02  0.9210229E-01
        2   -1    0    0  501    0  0.00000000000E+00  0.00000000000E+00  0.13008504166E+04  0.13008504166E+04  0.25500000920E-02 0. -1.
       -2   -1    0    0    0  501  0.00000000000E+00  0.00000000000E+00 -0.23036646570E+03  0.23036646572E+03  0.25500000920E-02 0.  1.
    10030    2    1    2    0    0  0.00000000000E+00  0.00000000000E+00  0.10704839509E+04  0.15312168823E+04  0.10948466795E+04 0.  0.
        3    1    3    3  502    0  0.22165621169E+03  0.56874318831E+02  0.12307479279E+04  0.12518412984E+04  0.10100000352E+00 0. -1.
       -3    1    3    3    0  502 -0.22165621169E+03 -0.56874318831E+02 -0.16026397700E+03  0.27937558385E+03  0.10100000352E+00 0.  1.
</event>
<event>
 5   0  0.5627232E-03  0.1104134E+04  0.7818609E-02  0.9201172E-01
        2   -1    0    0  501    0  0.00000000000E+00  0.00000000000E+00  0.69049776342E+03  0.69049776343E+03  0.25500000920E-02 0. -1.
       -2   -1    0    0    0  501  0.00000000000E+00  0.00000000000E+00 -0.44138874503E+03  0.44138874504E+03  0.25500000920E-02 0.  1.
    10030    2    1    2    0    0  0.00000000000E+00  0.00000000000E+00  0.24910901839E+03  0.11318865085E+04  0.11041339434E+04 0.  0.
        2    1    3    3  502    0  0.36887001859E+03 -0.27106231462E+03  0.44091804456E+03  0.63556950135E+03  0.25500000920E-02 0. -1.
       -2    1    3    3    0  502 -0.36887001859E+03  0.27106231462E+03 -0.19180902618E+03  0.49631700711E+03  0.25500000920E-02 0.  1.
</event>
<event>
 5   0  0.5723194E-03  0.1142296E+04  0.7818609E-02  0.9164920E-01
        2   -1    0    0  501    0  0.00000000000E+00  0.00000000000E+00  0.42055306087E+03  0.42055306088E+03  0.25500000920E-02 0. -1.
       -2   -1    0    0    0  501  0.00000000000E+00  0.00000000000E+00 -0.77566940042E+03  0.77566940043E+03  0.25500000920E-02 0.  1.
    10030    2    1    2    0    0  0.00000000000E+00  0.00000000000E+00 -0.35511633955E+03  0.11962224613E+04  0.11422961798E+04 0.  0.
        1    1    3    3  502    0 -0.30231594024E+02 -0.54232252527E+03  0.73637886054E+01  0.54321441080E+03  0.50400001928E-02 0.  1.
       -1    1    3    3    0  502  0.30231594024E+02  0.54232252527E+03 -0.36248012816E+03  0.65300805051E+03  0.50400001928E-02 0. -1.
</event>
<event>
 5   0  0.5941585E-03  0.1061561E+04  0.7818609E-02  0.9243489E-01
        2   -1    0    0  501    0  0.00000000000E+00  0.00000000000E+00  0.69067175299E+03  0.69067175299E+03  0.25500000920E-02 0. -1.
       -2   -1    0    0    0  501  0.00000000000E+00  0.00000000000E+00 -0.40790403042E+03  0.40790403042E+03  0.25500000920E-02 0.  1.
    10030    2    1    2    0    0  0.00000000000E+00  0.00000000000E+00  0.28276772257E+03  0.10985757834E+04  0.10615607222E+04 0.  0.
        5    1    3    3  502    0 -0.21776556823E+03 -0.47354243629E+03  0.24508481442E+03  0.57597998049E+03  0.46999998093E+01 0. -1.
       -5    1    3    3    0  502  0.21776556823E+03  0.47354243629E+03  0.37682908149E+02  0.52259580293E+03  0.46999998093E+01 0.  1.
</event>
<event>
 5   0  0.5500363E-03  0.1155658E+04  0.7818609E-02  0.9152580E-01
        2   -1    0    0  501    0  0.00000000000E+00  0.00000000000E+00  0.18658915203E+04  0.18658915203E+04  0.25500000920E-02 0.  1.
       -2   -1    0    0    0  501  0.00000000000E+00  0.00000000000E+00 -0.17894195027E+03  0.17894195028E+03  0.25500000920E-02 0. -1.
    10030    2    1    2    0    0  0.00000000000E+00  0.00000000000E+00  0.16869495700E+04  0.20448334706E+04  0.11556578519E+04 0.  0.
        3    1    3    3  502    0  0.22670039444E+02  0.30562818956E+03  0.17102400097E+04  0.17374819198E+04  0.10100000352E+00 0.  1.
       -3    1    3    3    0  502 -0.22670039444E+02 -0.30562818956E+03 -0.23290439656E+02  0.30735155071E+03  0.10100000352E+00 0. -1.
</event>
<event>
 5   0  0.3215352E-03  0.1094626E+04  0.7818609E-02  0.9210446E-01
       -1   -1    0    0    0  501  0.00000000000E+00  0.00000000000E+00  0.44469501544E+03  0.44469501547E+03  0.50400001928E-02 0. -1.
        1   -1    0    0  501    0  0.00000000000E+00  0.00000000000E+00 -0.67361098877E+03  0.67361098879E+03  0.50400001928E-02 0.  1.
    10030    2    1    2    0    0  0.00000000000E+00  0.00000000000E+00 -0.22891597333E+03  0.11183060043E+04  0.10946258705E+04 0.  0.
        1    1    3    3  502    0  0.21523583964E+03 -0.41746993194E+02  0.39787055266E+03  0.45427993001E+03  0.50400001928E-02 0. -1.
       -1    1    3    3    0  502 -0.21523583964E+03  0.41746993194E+02 -0.62678652599E+03  0.66402607426E+03  0.50400001928E-02 0.  1.
</event>
<event>
 5   0  0.3328741E-03  0.1115353E+04  0.7818609E-02  0.9190356E-01
        1   -1    0    0  501    0  0.00000000000E+00  0.00000000000E+00  0.72968958570E+03  0.72968958572E+03  0.50400001928E-02 0. -1.
       -1   -1    0    0    0  501  0.00000000000E+00  0.00000000000E+00 -0.42621283779E+03  0.42621283782E+03  0.50400001928E-02 0.  1.
    10030    2    1    2    0    0  0.00000000000E+00  0.00000000000E+00  0.30347674791E+03  0.11559024235E+04  0.11153529828E+04 0.  0.
        3    1    3    3  502    0  0.17877173602E+03  0.42279396864E+03  0.47993601860E+03  0.66411796066E+03  0.10100000352E+00 0. -1.
       -3    1    3    3    0  502 -0.17877173602E+03 -0.42279396864E+03 -0.17645927069E+03  0.49178446288E+03  0.10100000352E+00 0.  1.
</event>
<event>
 5   0  0.3241189E-03  0.1094377E+04  0.7818609E-02  0.9210690E-01
        1   -1    0    0  501    0  0.00000000000E+00  0.00000000000E+00  0.74818444364E+03  0.74818444366E+03  0.50400001928E-02 0.  1.
       -1   -1    0    0    0  501  0.00000000000E+00  0.00000000000E+00 -0.40018920130E+03  0.40018920133E+03  0.50400001928E-02 0. -1.
    10030    2    1    2    0    0  0.00000000000E+00  0.00000000000E+00  0.34799524234E+03  0.11483736450E+04  0.10943771470E+04 0.  0.
        5    1    3    3  502    0 -0.28099194519E+03 -0.38254349863E+03 -0.11164119672E+03  0.48762880187E+03  0.46999998093E+01 0.  1.
       -5    1    3    3    0  502  0.28099194519E+03  0.38254349863E+03  0.45963643906E+03  0.66074484313E+03  0.46999998093E+01 0. -1.
</event>
<event>
 5   0  0.3328741E-03  0.1077138E+04  0.7818609E-02  0.9227765E-01
        1   -1    0    0  501    0  0.00000000000E+00  0.00000000000E+00  0.50356109332E+03  0.50356109334E+03  0.50400001928E-02 0.  1.
       -1   -1    0    0    0  501  0.00000000000E+00  0.00000000000E+00 -0.57601115511E+03  0.57601115513E+03  0.50400001928E-02 0. -1.
    10030    2    1    2    0    0  0.00000000000E+00  0.00000000000E+00 -0.72450061792E+02  0.10795722485E+04  0.10771384443E+04 0.  0.
        3    1    3    3  502    0  0.19222482625E+03  0.22192716015E+03 -0.48874797253E+03  0.57015492552E+03  0.10100000352E+00 0. -1.
       -3    1    3    3    0  502 -0.19222482625E+03 -0.22192716015E+03  0.41629791074E+03  0.50941732296E+03  0.10100000352E+00 0.  1.
</event>
<event>
 5   0  0.5627232E-03  0.1149088E+04  0.7818609E-02  0.9158626E-01
        2   -1    0    0  501    0  0.00000000000E+00  0.00000000000E+00  0.74596716705E+03  0.74596716705E+03  0.25500000920E-02 0.  1.
       -2   -1    0    0    0  501  0.00000000000E+00  0.00000000000E+00 -0.44251347539E+03  0.44251347540E+03  0.25500000920E-02 0. -1.
    10030    2    1    2    0    0  0.00000000000E+00  0.00000000000E+00  0.30345369165E+03  0.11884806425E+04  0.11490875052E+04 0.  0.
        2    1    3    3  502    0 -0.47259934669E+03 -0.23321999828E+03  0.38839177661E+03  0.65466776477E+03  0.25500000920E-02 0. -1.
       -2    1    3    3    0  502  0.47259934669E+03  0.23321999828E+03 -0.84938084959E+02  0.53381287768E+03  0.25500000920E-02 0.  1.
</event>
<event>
 5   0  0.5500363E-03  0.1091919E+04  0.7818609E-02  0.9213104E-01
        2   -1    0    0  501    0  0.00000000000E+00  0.00000000000E+00  0.11497742341E+04  0.11497742341E+04  0.25500000920E-02 0.  1.
       -2   -1    0    0    0  501  0.00000000000E+00  0.00000000000E+00 -0.25924372702E+03  0.25924372704E+03  0.25500000920E-02 0. -1.
    10030    2    1    2    0    0  0.00000000000E+00  0.00000000000E+00  0.89053050706E+03  0.14090179611E+04  0.10919189671E+04 0.  0.
        3    1    3    3  502    0  0.20885822746E+03  0.42760876249E+03  0.99974571940E+02  0.48627763487E+03  0.10100000352E+00 0. -1.
       -3    1    3    3    0  502 -0.20885822746E+03 -0.42760876249E+03  0.79055593512E+03  0.92274032625E+03  0.10100000352E+00 0.  1.
</event>
<event>
 5   0  0.3328741E-03  0.9607604E+03  0.7818609E-02  0.9352661E-01
        1   -1    0    0  501    0  0.00000000000E+00  0.00000000000E+00  0.50908154596E+03  0.50908154598E+03  0.50400001928E-02 0.  1.
       -1   -1    0    0    0  501  0.00000000000E+00  0.00000000000E+00 -0.45329696880E+03  0.45329696883E+03  0.50400001928E-02 0. -1.
    10030    2    1    2    0    0  0.00000000000E+00  0.00000000000E+00  0.55784577157E+02  0.96237851481E+03  0.96076036904E+03 0.  0.
        3    1    3    3  502    0 -0.12329937238E+03 -0.16086570189E+03 -0.40836920065E+03  0.45590122122E+03  0.10100000352E+00 0. -1.
       -3    1    3    3    0  502  0.12329937238E+03  0.16086570189E+03  0.46415377780E+03  0.50647729359E+03  0.10100000352E+00 0.  1.
</event>
<event>
 5   0  0.3320192E-03  0.1008362E+04  0.7818609E-02  0.9299421E-01
        1   -1    0    0  501    0  0.00000000000E+00  0.00000000000E+00  0.74269481436E+03  0.74269481438E+03  0.50400001928E-02 0.  1.
       -1   -1    0    0    0  501  0.00000000000E+00  0.00000000000E+00 -0.34226511931E+03  0.34226511935E+03  0.50400001928E-02 0. -1.
    10030    2    1    2    0    0  0.00000000000E+00  0.00000000000E+00  0.40042969505E+03  0.10849599337E+04  0.10083620962E+04 0.  0.
        2    1    3    3  502    0 -0.31121872389E+03 -0.38353283241E+03  0.91313812450E+02  0.50228750730E+03  0.25500000920E-02 0. -1.
       -2    1    3    3    0  502  0.31121872389E+03  0.38353283241E+03  0.30911588260E+03  0.58267242643E+03  0.25500000920E-02 0.  1.
</event>
<event>
 5   0  0.5627232E-03  0.1099747E+04  0.7818609E-02  0.9205439E-01
        2   -1    0    0  501    0  0.00000000000E+00  0.00000000000E+00  0.46736168440E+03  0.46736168441E+03  0.25500000920E-02 0. -1.
       -2   -1    0    0    0  501  0.00000000000E+00  0.00000000000E+00 -0.64695229532E+03  0.64695229533E+03  0.25500000920E-02 0.  1.
    10030    2    1    2    0    0  0.00000000000E+00  0.00000000000E+00 -0.17959061092E+03  0.11143139797E+04  0.10997467244E+04 0.  0.
        2    1    3    3  502    0  0.10366288410E+03 -0.52099371761E+03 -0.23373426443E+03  0.58035519616E+03  0.25500000920E-02 0.  1.
       -2    1    3    3    0  502 -0.10366288410E+03  0.52099371761E+03  0.54143653516E+02  0.53395878357E+03  0.25500000920E-02 0. -1.
</event>
<event>
 5   0  0.3316784E-03  0.1141839E+04  0.7818609E-02  0.9165346E-01
       -1   -1    0    0    0  501  0.00000000000E+00  0.00000000000E+00  0.33829265416E+03  0.33829265419E+03  0.50400001928E-02 0. -1.
        1   -1    0    0  501    0  0.00000000000E+00  0.00000000000E+00 -0.96351196898E+03  0.96351196900E+03  0.50400001928E-02 0.  1.
    10030    2    1    2    0    0  0.00000000000E+00  0.00000000000E+00 -0.62521931483E+03  0.13018046232E+04  0.11418389052E+04 0.  0.
        4    1    3    3  502    0  0.34738698281E+03  0.28599850496E+03 -0.71322695339E+03  0.84330727532E+03  0.12699999809E+01 0.  1.
       -4    1    3    3    0  502 -0.34738698281E+03 -0.28599850496E+03  0.88007638562E+02  0.45849734787E+03  0.12699999809E+01 0. -1.
</event>
<event>
 5   0  0.2185750E-03  0.1095212E+04  0.7818609E-02  0.9209871E-01
       -3   -1    0    0    0  501  0.00000000000E+00  0.00000000000E+00  0.50977344159E+03  0.50977345159E+03  0.10100000352E+00 0.  1.
        3   -1    0    0  501    0  0.00000000000E+00  0.00000000000E+00 -0.58824657080E+03  0.58824657947E+03  0.10100000352E+00 0. -1.
    10030    2    1    2    0    0  0.00000000000E+00  0.00000000000E+00 -0.78473129206E+02  0.10980200311E+04  0.10952122884E+04 0.  0.
        3    1    3    3  502    0  0.52783955143E+03  0.14509586917E+03 -0.53593739800E+02  0.55003609195E+03  0.10100000352E+00 0. -1.
       -3    1    3    3    0  502 -0.52783955143E+03 -0.14509586917E+03 -0.24879389406E+02  0.54798393911E+03  0.10100000352E+00 0.  1.
</event>
<event>
 5   0  0.5723194E-03  0.1104158E+04  0.7818609E-02  0.9201149E-01
        2   -1    0    0  501    0  0.00000000000E+00  0.00000000000E+00  0.16561983971E+04  0.16561983971E+04  0.25500000920E-02 0.  1.
       -2   -1    0    0    0  501  0.00000000000E+00  0.00000000000E+00 -0.18403051235E+03  0.18403051237E+03  0.25500000920E-02 0. -1.
    10030    2    1    2    0    0  0.00000000000E+00  0.00000000000E+00  0.14721678848E+04  0.18402289095E+04  0.11041576692E+04 0.  0.
        1    1    3    3  502    0 -0.27457148942E+03 -0.35006168717E+03  0.12808938436E+04  0.13559578630E+04  0.50400001928E-02 0.  1.
       -1    1    3    3    0  502  0.27457148942E+03  0.35006168717E+03  0.19127404117E+03  0.48427104650E+03  0.50400001928E-02 0. -1.
</event>
<event>
 5   0  0.3316784E-03  0.1191664E+04  0.7818609E-02  0.9120184E-01
       -1   -1    0    0    0  501  0.00000000000E+00  0.00000000000E+00  0.75602247205E+03  0.75602247206E+03  0.50400001928E-02 0.  1.
        1   -1    0    0  501    0  0.00000000000E+00  0.00000000000E+00 -0.46958371085E+03  0.46958371087E+03  0.50400001928E-02 0. -1.
    10030    2    1    2    0    0  0.00000000000E+00  0.00000000000E+00  0.28643876120E+03  0.12256061829E+04  0.11916641103E+04 0.  0.
        4    1    3    3  502    0 -0.34722497610E+03  0.46676663213E+03  0.10796654503E+02  0.58185432330E+03  0.12699999809E+01 0.  1.
       -4    1    3    3    0  502  0.34722497610E+03 -0.46676663213E+03  0.27564210670E+03  0.64375185963E+03  0.12699999809E+01 0. -1.
</event>
<event>
 5   0  0.3328741E-03  0.1104265E+04  0.7818609E-02  0.9201045E-01
        1   -1    0    0  501    0  0.00000000000E+00  0.00000000000E+00  0.70145007413E+03  0.70145007415E+03  0.50400001928E-02 0.  1.
       -1   -1    0    0    0  501  0.00000000000E+00  0.00000000000E+00 -0.43460012110E+03  0.43460012113E+03  0.50400001928E-02 0. -1.
    10030    2    1    2    0    0  0.00000000000E+00  0.00000000000E+00  0.26684995303E+03  0.11360501953E+04  0.11042649812E+04 0.  0.
        3    1    3    3  502    0  0.27420295959E+03  0.36678612065E+03 -0.18388604012E+03  0.49349104075E+03  0.10100000352E+00 0. -1.
       -3    1    3    3    0  502 -0.27420295959E+03 -0.36678612065E+03  0.45073599315E+03  0.64255915453E+03  0.10100000352E+00 0.  1.
</event>
<event>
 5   0  0.3320192E-03  0.1087840E+04  0.7818609E-02  0.9217125E-01
        1   -1    0    0  501    0  0.00000000000E+00  0.00000000000E+00  0.67159512509E+03  0.67159512511E+03  0.50400001928E-02 0.  1.
       -1   -1    0    0    0  501  0.00000000000E+00  0.00000000000E+00 -0.44051723342E+03  0.44051723345E+03  0.50400001928E-02 0. -1.
    10030    2    1    2    0    0  0.00000000000E+00  0.00000000000E+00  0.23107789167E+03  0.11121123586E+04  0.10878404782E+04 0.  0.
        2    1    3    3  502    0 -0.29406885137E+02  0.43089341713E+03  0.45354460895E+03  0.62628796423E+03  0.25500000920E-02 0.  1.
       -2    1    3    3    0  502  0.29406885137E+02 -0.43089341713E+03 -0.22246671729E+03  0.48582439433E+03  0.25500000920E-02 0. -1.
</event>
<event>
 5   0  0.5723194E-03  0.1027193E+04  0.7818609E-02  0.9279213E-01
       -2   -1    0    0    0  501  0.00000000000E+00  0.00000000000E+00  0.19572806595E+03  0.19572806596E+03  0.25500000920E-02 0. -1.
        2   -1    0    0  501    0  0.00000000000E+00  0.00000000000E+00 -0.13476933587E+04  0.13476933587E+04  0.25500000920E-02 0.  1.
    10030    2    1    2    0    0  0.00000000000E+00  0.00000000000E+00 -0.11519652927E+04  0.15434214247E+04  0.10271930969E+04 0.  0.
        1    1    3    3  502    0 -0.37250803603E+03 -0.61779387951E+02 -0.10990868311E+04  0.11621406076E+04  0.50400001928E-02 0.  1.
       -1    1    3    3    0  502  0.37250803603E+03  0.61779387951E+02 -0.52878461672E+02  0.38128081701E+03  0.50400001928E-02 0. -1.
</event>
<event>
 5   0  0.5941585E-03  0.1110650E+04  0.7818609E-02  0.9194874E-01
       -2   -1    0    0    0  501  0.00000000000E+00  0.00000000000E+00  0.26219335257E+03  0.26219335258E+03  0.25500000920E-02 0. -1.
        2   -1    0    0  501    0  0.00000000000E+00  0.00000000000E+00 -0.11761769810E+04  0.11761769810E+04  0.25500000920E-02 0.  1.
    10030    2    1    2    0    0  0.00000000000E+00  0.00000000000E+00 -0.91398362845E+03  0.14383703336E+04  0.11106498744E+04 0.  0.
        5    1    3    3  502    0  0.24127199003E+03  0.39686877360E+03 -0.62799165472E+02  0.46870334095E+03  0.46999998093E+01 0. -1.
       -5    1    3    3    0  502 -0.24127199003E+03 -0.39686877360E+03 -0.85118446298E+03  0.96966699266E+03  0.46999998093E+01 0.  1.
</event>
<event>
 5   0  0.3241189E-03  0.1121636E+04  0.7818609E-02  0.9184357E-01
       -1   -1    0    0    0  501  0.00000000000E+00  0.00000000000E+00  0.46542834086E+03  0.46542834088E+03  0.50400001928E-02 0. -1.
        1   -1    0    0  501    0  0.00000000000E+00  0.00000000000E+00 -0.67575782226E+03  0.67575782228E+03  0.50400001928E-02 0.  1.
    10030    2    1    2    0    0  0.00000000000E+00  0.00000000000E+00 -0.21032948141E+03  0.11411861632E+04  0.11216360231E+04 0.  0.
        5    1    3    3  502    0 -0.74069142239E+02 -0.73007092663E+02 -0.66584021080E+03  0.67392992939E+03  0.46999998093E+01 0.  1.
       -5    1    3    3    0  502  0.74069142239E+02  0.73007092663E+02  0.45551072939E+03  0.46725623377E+03  0.46999998093E+01 0. -1.
</event>
<event>
 5   0  0.5946359E-03  0.1103662E+04  0.7818609E-02  0.9201630E-01
        2   -1    0    0  501    0  0.00000000000E+00  0.00000000000E+00  0.48289445201E+03  0.48289445201E+03  0.25500000920E-02 0.  1.
       -2   -1    0    0    0  501  0.00000000000E+00  0.00000000000E+00 -0.63060830594E+03  0.63060830595E+03  0.25500000920E-02 0. -1.
    10030    2    1    2    0    0  0.00000000000E+00  0.00000000000E+00 -0.14771385394E+03  0.11135027580E+04  0.11036616372E+04 0.  0.
        4    1    3    3  502    0  0.34858317756E+03 -0.42773721034E+03 -0.80721021121E+02  0.55766194862E+03  0.12699999809E+01 0. -1.
       -4    1    3    3    0  502 -0.34858317756E+03  0.42773721034E+03 -0.66992832815E+02  0.55584080935E+03  0.12699999809E+01 0.  1.
</event>
<event>
 5   0  0.3215352E-03  0.1170206E+04  0.7818609E-02  0.9139342E-01
        1   -1    0    0  501    0  0.00000000000E+00  0.00000000000E+00  0.10204737479E+04  0.10204737479E+04  0.50400001928E-02 0. -1.
       -1   -1    0    0    0  501  0.00000000000E+00  0.00000000000E+00 -0.33547712845E+03  0.33547712848E+03  0.50400001928E-02 0.  1.
    10030    2    1    2    0    0  0.00000000000E+00  0.00000000000E+00  0.68499661948E+03  0.13559508764E+04  0.11702061402E+04 0.  0.
        1    1    3    3  502    0 -0.44470627784E+03  0.37888334184E+03  0.30532240882E+03  0.65919498908E+03  0.50400001928E-02 0. -1.
       -1    1    3    3    0  502  0.44470627784E+03 -0.37888334184E+03  0.37967421067E+03  0.69675588734E+03  0.50400001928E-02 0.  1.
</event>
<event>
 5   0  0.3241189E-03  0.1058052E+04  0.7818609E-02  0.9247070E-01
       -1   -1    0    0    0  501  0.00000000000E+00  0.00000000000E+00  0.28121936705E+03  0.28121936709E+03  0.50400001928E-02 0.  1.
        1   -1    0    0  501    0  0.00000000000E+00  0.00000000000E+00 -0.99519603720E+03  0.99519603722E+03  0.50400001928E-02 0. -1.
    10030    2    1    2    0    0  0.00000000000E+00  0.00000000000E+00 -0.71397667016E+03  0.12764154043E+04  0.10580517940E+04 0.  0.
        5    1    3    3  502    0 -0.30147769194E+03 -0.34032188782E+03 -0.30732563197E+02  0.45571303087E+03  0.46999998093E+01 0.  1.
       -5    1    3    3    0  502  0.30147769194E+03  0.34032188782E+03 -0.68324410696E+03  0.82070237343E+03  0.46999998093E+01 0. -1.
</event>
<event>
 5   0  0.3320192E-03  0.1112288E+04  0.7818609E-02  0.9193297E-01
        1   -1    0    0  501    0  0.00000000000E+00  0.00000000000E+00  0.49546908595E+03  0.49546908597E+03  0.50400001928E-02 0.  1.
       -1   -1    0    0    0  501  0.00000000000E+00  0.00000000000E+00 -0.62424914089E+03  0.62424914091E+03  0.50400001928E-02 0. -1.
    10030    2    1    2    0    0  0.00000000000E+00  0.00000000000E+00 -0.12878005495E+03  0.11197182269E+04  0.11122880045E+04 0.  0.
        2    1    3    3  502    0 -0.49245887080E+03  0.24510533385E+03  0.18033576943E+02  0.55037948182E+03  0.25500000920E-02 0. -1.
       -2    1    3    3    0  502  0.49245887080E+03 -0.24510533385E+03 -0.14681363189E+03  0.56933874506E+03  0.25500000920E-02 0.  1.
</event>
<event>
 5   0  0.3320192E-03  0.1059179E+04  0.7818609E-02  0.9245918E-01
        1   -1    0    0  501    0  0.00000000000E+00  0.00000000000E+00  0.11861350053E+04  0.11861350053E+04  0.50400001928E-02 0.  1.
       -1   -1    0    0    0  501  0.00000000000E+00  0.00000000000E+00 -0.23645293223E+03  0.23645293228E+03  0.50400001928E-02 0. -1.
    10030    2    1    2    0    0  0.00000000000E+00  0.00000000000E+00  0.94968207310E+03  0.14225879376E+04  0.10591791162E+04 0.  0.
        2    1    3    3  502    0 -0.29376853513E+03 -0.54979262956E+02  0.10620440321E+04  0.11032951544E+04  0.25500000920E-02 0.  1.
       -2    1    3    3    0  502  0.29376853513E+03  0.54979262956E+02 -0.11236195899E+03  0.31929278323E+03  0.25500000920E-02 0. -1.
</event>
<event>
 5   0  0.3241189E-03  0.1105996E+04  0.7818609E-02  0.9199368E-01
       -1   -1    0    0    0  501  0.00000000000E+00  0.00000000000E+00  0.38685179652E+03  0.38685179655E+03  0.50400001928E-02 0. -1.
        1   -1    0    0  501    0  0.00000000000E+00  0.00000000000E+00 -0.79050080984E+03  0.79050080986E+03  0.50400001928E-02 0.  1.
    10030    2    1    2    0    0  0.00000000000E+00  0.00000000000E+00 -0.40364901332E+03  0.11773526064E+04  0.11059957658E+04 0.  0.
        5    1    3    3  502    0 -0.28267011626E+03 -0.22989351512E+03  0.24098325712E+03  0.43686204130E+03  0.46999998093E+01 0. -1.
       -5    1    3    3    0  502  0.28267011626E+03  0.22989351512E+03 -0.64463227044E+03  0.74049056511E+03  0.46999998093E+01 0.  1.
</event>
<event>
 5   0  0.3241189E-03  0.1142468E+04  0.7818609E-02  0.9164760E-01
        1   -1    0    0  501    0  0.00000000000E+00  0.00000000000E+00  0.27702405009E+03  0.27702405013E+03  0.50400001928E-02 0.  1.
       -1   -1    0    0    0  501  0.00000000000E+00  0.00000000000E+00 -0.11779066785E+04  0.11779066785E+04  0.50400001928E-02 0. -1.
    10030    2    1    2    0    0  0.00000000000E+00  0.00000000000E+00 -0.90088262842E+03  0.14549307287E+04  0.11424683431E+04 0.  0.
        5    1    3    3  502    0  0.15377642832E+02  0.34009585005E+03  0.13368295215E+03  0.36577982560E+03  0.46999998093E+01 0.  1.
       -5    1    3    3    0  502 -0.15377642832E+02 -0.34009585005E+03 -0.10345655806E+04  0.10891509031E+04  0.46999998093E+01 0. -1.
</event>
<event>
 5   0  0.3320192E-03  0.1102135E+04  0.7818609E-02  0.9203113E-01
        1   -1    0    0  501    0  0.00000000000E+00  0.00000000000E+00  0.49388528228E+03  0.49388528231E+03  0.50400001928E-02 0.  1.
       -1   -1    0    0    0  501  0.00000000000E+00  0.00000000000E+00 -0.61487074088E+03  0.61487074090E+03  0.50400001928E-02 0. -1.
    10030    2    1    2    0    0  0.00000000000E+00  0.00000000000E+00 -0.12098545860E+03  0.11087560232E+04  0.11021353990E+04 0.  0.
        2    1    3    3  502    0  0.46992045213E+03 -0.27349849796E+03  0.29762141319E+02  0.54452956282E+03  0.25500000920E-02 0.  1.
       -2    1    3    3    0  502 -0.46992045213E+03  0.27349849796E+03 -0.15074759992E+03  0.56422646039E+03  0.25500000920E-02 0. -1.
</event>
<event>
 5   0  0.3320192E-03  0.1103153E+04  0.7818609E-02  0.9202124E-01
        1   -1    0    0  501    0  0.00000000000E+00  0.00000000000E+00  0.57838779399E+03  0.57838779401E+03  0.50400001928E-02 0. -1.
       -1   -1    0    0    0  501  0.00000000000E+00  0.00000000000E+00 -0.52600820116E+03  0.52600820118E+03  0.50400001928E-02 0.  1.
    10030    2    1    2    0    0  0.00000000000E+00  0.00000000000E+00  0.52379592832E+02  0.11043959952E+04  0.11031531591E+04 0.  0.
        2    1    3    3  502    0 -0.10421501150E+03  0.15142269577E+03  0.54682099800E+03  0.57689063545E+03  0.25500000920E-02 0. -1.
       -2    1    3    3    0  502  0.10421501150E+03 -0.15142269577E+03 -0.49444140516E+03  0.52750535975E+03  0.25500000920E-02 0.  1.
</event>
<event>
 5   0  0.2185750E-03  0.9335059E+03  0.7818609E-02  0.9384640E-01
        4   -1    0    0  501    0  0.00000000000E+00  0.00000000000E+00  0.10443106442E+04  0.10443114164E+04  0.12699999809E+01 0.  1.
       -4   -1    0    0    0  501  0.00000000000E+00  0.00000000000E+00 -0.20861170489E+03  0.20861557064E+03  0.12699999809E+01 0. -1.
    10030    2    1    2    0    0  0.00000000000E+00  0.00000000000E+00  0.83569893927E+03  0.12529269870E+04  0.93350592807E+03 0.  0.
        3    1    3    3  502    0 -0.18506798312E+03  0.42536613080E+03  0.34847304309E+03  0.58018960312E+03  0.10100000352E+00 0. -1.
       -3    1    3    3    0  502  0.18506798312E+03 -0.42536613080E+03  0.48722589617E+03  0.67273738391E+03  0.10100000352E+00 0.  1.
</event>
<event>
 5   0  0.5723194E-03  0.1142024E+04  0.7818609E-02  0.9165173E-01
        2   -1    0    0  501    0  0.00000000000E+00  0.00000000000E+00  0.53093657642E+03  0.53093657642E+03  0.25500000920E-02 0.  1.
       -2   -1    0    0    0  501  0.00000000000E+00  0.00000000000E+00 -0.61411236863E+03  0.61411236864E+03  0.25500000920E-02 0. -1.
    10030    2    1    2    0    0  0.00000000000E+00  0.00000000000E+00 -0.83175792215E+02  0.11450489451E+04  0.11420240252E+04 0.  0.
        1    1    3    3  502    0  0.10388727712E+03 -0.12434130264E+03  0.50740362049E+03  0.53264599877E+03  0.50400001928E-02 0.  1.
       -1    1    3    3    0  502 -0.10388727712E+03  0.12434130264E+03 -0.59057941271E+03  0.61240294629E+03  0.50400001928E-02 0. -1.
</event>
<event>
 5   0  0.3241189E-03  0.1097363E+04  0.7818609E-02  0.9207766E-01
       -1   -1    0    0    0  501  0.00000000000E+00  0.00000000000E+00  0.25579278908E+03  0.25579278913E+03  0.50400001928E-02 0. -1.
        1   -1    0    0  501    0  0.00000000000E+00  0.00000000000E+00 -0.11769337224E+04  0.11769337224E+04  0.50400001928E-02 0.  1.
    10030    2    1    2    0    0  0.00000000000E+00  0.00000000000E+00 -0.92114093332E+03  0.14327265115E+04  0.10973625827E+04 0.  0.
        5    1    3    3  502    0  0.30018481366E+03  0.27428795675E+02  0.13797091346E+03  0.33154384950E+03  0.46999998093E+01 0. -1.
       -5    1    3    3    0  502 -0.30018481366E+03 -0.27428795675E+02 -0.10591118468E+04  0.11011826620E+04  0.46999998093E+01 0.  1.
</event>
<event>
 5   0  0.3320192E-03  0.1040536E+04  0.7818609E-02  0.9265170E-01
        1   -1    0    0  501    0  0.00000000000E+00  0.00000000000E+00  0.31052352687E+03  0.31052352691E+03  0.50400001928E-02 0. -1.
       -1   -1    0    0    0  501  0.00000000000E+00  0.00000000000E+00 -0.87168542448E+03  0.87168542449E+03  0.50400001928E-02 0.  1.
    10030    2    1    2    0    0  0.00000000000E+00  0.00000000000E+00 -0.56116189761E+03  0.11822089514E+04  0.10405360779E+04 0.  0.
        2    1    3    3  502    0 -0.43718556726E+03  0.10177385751E+03 -0.57943407671E+03  0.73296179133E+03  0.25500000920E-02 0.  1.
       -2    1    3    3    0  502  0.43718556726E+03 -0.10177385751E+03  0.18272179103E+02  0.44924716007E+03  0.25500000920E-02 0. -1.
</event>
<event>
 5   0  0.3215352E-03  0.1089183E+04  0.7818609E-02  0.9215799E-01
       -1   -1    0    0    0  501  0.00000000000E+00  0.00000000000E+00  0.34327370013E+03  0.34327370017E+03  0.50400001928E-02 0.  1.
        1   -1    0    0  501    0  0.00000000000E+00  0.00000000000E+00 -0.86397580473E+03  0.86397580474E+03  0.50400001928E-02 0. -1.
    10030    2    1    2    0    0  0.00000000000E+00  0.00000000000E+00 -0.52070210459E+03  0.12072495049E+04  0.10891834948E+04 0.  0.
        1    1    3    3  502    0  0.51781520849E+03 -0.16614793062E+03 -0.29252224071E+03  0.61750059622E+03  0.50400001928E-02 0.  1.
       -1    1    3    3    0  502 -0.51781520849E+03  0.16614793062E+03 -0.22817986388E+03  0.58974890869E+03  0.50400001928E-02 0. -1.
</event>
<event>
 5   0  0.5941585E-03  0.1114069E+04  0.7818609E-02  0.9191587E-01
        2   -1    0    0  501    0  0.00000000000E+00  0.00000000000E+00  0.12577028948E+04  0.12577028948E+04  0.25500000920E-02 0.  1.
       -2   -1    0    0    0  501  0.00000000000E+00  0.00000000000E+00 -0.24670959996E+03  0.24670959997E+03  0.25500000920E-02 0. -1.
    10030    2    1    2    0    0  0.00000000000E+00  0.00000000000E+00  0.10109932949E+04  0.15044124948E+04  0.11140688992E+04 0.  0.
        5    1    3    3  502    0  0.34641343903E+03  0.35579773823E+03  0.84623865014E+03  0.98119123736E+03  0.46999998093E+01 0.  1.
       -5    1    3    3    0  502 -0.34641343903E+03 -0.35579773823E+03  0.16475464471E+03  0.52322125743E+03  0.46999998093E+01 0. -1.
</event>
<event>
 5   0  0.5941585E-03  0.1096191E+04  0.7818609E-02  0.9208912E-01
       -2   -1    0    0    0  501  0.00000000000E+00  0.00000000000E+00  0.35824942737E+03  0.35824942738E+03  0.25500000920E-02 0.  1.
        2   -1    0    0  501    0  0.00000000000E+00  0.00000000000E+00 -0.83854647744E+03  0.83854647744E+03  0.25500000920E-02 0. -1.
    10030    2    1    2    0    0  0.00000000000E+00  0.00000000000E+00 -0.48029705006E+03  0.11967959048E+04  0.10961912158E+04 0.  0.
        5    1    3    3  502    0  0.31958955394E+03  0.18771464242E+03 -0.68095112235E+03  0.77530045208E+03  0.46999998093E+01 0. -1.
       -5    1    3    3    0  502 -0.31958955394E+03 -0.18771464242E+03  0.20065407228E+03  0.42149545275E+03  0.46999998093E+01 0.  1.
</event>
<event>
 5   0  0.5946359E-03  0.1112241E+04  0.7818609E-02  0.9193342E-01
        2   -1    0    0  501    0  0.00000000000E+00  0.00000000000E+00  0.16186473433E+04  0.16186473433E+04  0.25500000920E-02 0.  1.
       -2   -1    0    0    0  501  0.00000000000E+00  0.00000000000E+00 -0.19106702526E+03  0.19106702528E+03  0.25500000920E-02 0. -1.
    10030    2    1    2    0    0  0.00000000000E+00  0.00000000000E+00  0.14275803181E+04  0.18097143686E+04  0.11122412200E+04 0.  0.
        4    1    3    3  502    0 -0.33653316268E+02 -0.40197081563E+03  0.13366811029E+04  0.13962202785E+04  0.12699999809E+01 0.  1.
       -4    1    3    3    0  502  0.33653316268E+02  0.40197081563E+03  0.90899215115E+02  0.41349409007E+03  0.12699999809E+01 0. -1.
</event>
<event>
 5   0  0.3241189E-03  0.1173936E+04  0.7818609E-02  0.9135981E-01
       -1   -1    0    0    0  501  0.00000000000E+00  0.00000000000E+00  0.79015503829E+03  0.79015503831E+03  0.50400001928E-02 0.  1.
        1   -1    0    0  501    0  0.00000000000E+00  0.00000000000E+00 -0.43603027896E+03  0.43603027899E+03  0.50400001928E-02 0. -1.
    10030    2    1    2    0    0  0.00000000000E+00  0.00000000000E+00  0.35412475933E+03  0.12261853173E+04  0.11739361512E+04 0.  0.
        5    1    3    3  502    0  0.24245689710E+03  0.33591824508E+03  0.61136035187E+03  0.73851877713E+03  0.46999998093E+01 0.  1.
       -5    1    3    3    0  502 -0.24245689710E+03 -0.33591824508E+03 -0.25723559255E+03  0.48766654017E+03  0.46999998093E+01 0. -1.
</event>
<event>
 5   0  0.5627232E-03  0.1103778E+04  0.7818609E-02  0.9201518E-01
        2   -1    0    0  501    0  0.00000000000E+00  0.00000000000E+00  0.11947370210E+04  0.11947370210E+04  0.25500000920E-02 0. -1.
       -2   -1    0    0    0  501  0.00000000000E+00  0.00000000000E+00 -0.25493576604E+03  0.25493576606E+03  0.25500000920E-02 0.  1.
    10030    2    1    2    0    0  0.00000000000E+00  0.00000000000E+00  0.93980125494E+03  0.14496727870E+04  0.11037775096E+04 0.  0.
        2    1    3    3  502    0 -0.37265585441E+03 -0.40707287895E+03  0.47081346484E+03  0.72542817238E+03  0.25500000920E-02 0.  1.
       -2    1    3    3    0  502  0.37265585441E+03  0.40707287895E+03  0.46898779010E+03  0.72424461466E+03  0.25500000920E-02 0. -1.
</event>
<event>
 5   0  0.3320192E-03  0.1195785E+04  0.7818609E-02  0.9116554E-01
        1   -1    0    0  501    0  0.00000000000E+00  0.00000000000E+00  0.28943872101E+03  0.28943872105E+03  0.50400001928E-02 0.  1.
       -1   -1    0    0    0  501  0.00000000000E+00  0.00000000000E+00 -0.12350648355E+04  0.12350648355E+04  0.50400001928E-02 0. -1.
    10030    2    1    2    0    0  0.00000000000E+00  0.00000000000E+00 -0.94562611447E+03  0.15245035565E+04  0.11957852422E+04 0.  0.
        2    1    3    3  502    0 -0.18712474195E+02  0.59553677564E+03 -0.53606362935E+03  0.80148513558E+03  0.25500000920E-02 0.  1.
       -2    1    3    3    0  502  0.18712474195E+02 -0.59553677564E+03 -0.40956248512E+03  0.72301842097E+03  0.25500000920E-02 0. -1.
</event>
<event>
 5   0  0.5627232E-03  0.1080239E+04  0.7818609E-02  0.9224669E-01
        2   -1    0    0  501    0  0.00000000000E+00  0.00000000000E+00  0.59189363424E+03  0.59189363424E+03  0.25500000920E-02 0.  1.
       -2   -1    0    0    0  501  0.00000000000E+00  0.00000000000E+00 -0.49287457294E+03  0.49287457294E+03  0.25500000920E-02 0. -1.
    10030    2    1    2    0    0  0.00000000000E+00  0.00000000000E+00  0.99019061301E+02  0.10847682072E+04  0.10802394590E+04 0.  0.
        2    1    3    3  502    0 -0.17247189238E+03  0.19363990597E+02  0.56312992391E+03  0.58926804513E+03  0.25500000920E-02 0.  1.
       -2    1    3    3    0  502  0.17247189238E+03 -0.19363990597E+02 -0.46411086261E+03  0.49550016206E+03  0.25500000920E-02 0. -1.
</event>
<event>
 5   0  0.3241189E-03  0.1218560E+04  0.7818609E-02  0.9096765E-01
       -1   -1    0    0    0  501  0.00000000000E+00  0.00000000000E+00  0.66999072629E+03  0.66999072631E+03  0.50400001928E-02 0. -1.
        1   -1    0    0  501    0  0.00000000000E+00  0.00000000000E+00 -0.55407023683E+03  0.55407023685E+03  0.50400001928E-02 0.  1.
    10030    2    1    2    0    0  0.00000000000E+00  0.00000000000E+00  0.11592048946E+03  0.12240609632E+04  0.12185596750E+04 0.  0.
        5    1    3    3  502    0 -0.28354281251E+03  0.40383667271E+03  0.41695195340E+03  0.64602755839E+03  0.46999998093E+01 0. -1.
       -5    1    3    3    0  502  0.28354281251E+03 -0.40383667271E+03 -0.30103146394E+03  0.57803340477E+03  0.46999998093E+01 0.  1.
</event>
<event>
 5   0  0.5946359E-03  0.1102201E+04  0.7818609E-02  0.9203049E-01
        2   -1    0    0  501    0  0.00000000000E+00  0.00000000000E+00  0.50770342640E+03  0.50770342641E+03  0.25500000920E-02 0.  1.
       -2   -1    0    0    0  501  0.00000000000E+00  0.00000000000E+00 -0.59820711452E+03  0.59820711452E+03  0.25500000920E-02 0. -1.
    10030    2    1    2    0    0  0.00000000000E+00  0.00000000000E+00 -0.90503688114E+02  0.11059105409E+04  0.11022010738E+04 0.  0.
        4    1    3    3  502    0 -0.40469517565E+03 -0.56498605334E+02 -0.41627995450E+03  0.58331885879E+03  0.12699999809E+01 0. -1.
       -4    1    3    3    0  502  0.40469517565E+03  0.56498605334E+02  0.32577626639E+03  0.52259168214E+03  0.12699999809E+01 0.  1.
</event>
<event>
 5   0  0.3215352E-03  0.1055913E+04  0.7818609E-02  0.9249260E-01
        1   -1    0    0  501    0  0.00000000000E+00  0.00000000000E+00  0.10243140512E+04  0.10243140512E+04  0.50400001928E-02 0.  1.
       -1   -1    0    0    0  501  0.00000000000E+00  0.00000000000E+00 -0.27212176702E+03  0.27212176707E+03  0.50400001928E-02 0. -1.
    10030    2    1    2    0    0  0.00000000000E+00  0.00000000000E+00  0.75219228416E+03  0.12964358183E+04  0.10559131586E+04 0.  0.
        1    1    3    3  502    0 -0.47124580059E+03 -0.27925354094E+02  0.85845463923E+02  0.47981441587E+03  0.50400001928E-02 0. -1.
       -1    1    3    3    0  502  0.47124580059E+03  0.27925354094E+02  0.66634682023E+03  0.81662140239E+03  0.50400001928E-02 0.  1.
</event>
<event>
 5   0  0.3241189E-03  0.1069217E+04  0.7818609E-02  0.9235725E-01
       -1   -1    0    0    0  501  0.00000000000E+00  0.00000000000E+00  0.21424328032E+03  0.21424328038E+03  0.50400001928E-02 0. -1.
        1   -1    0    0  501    0  0.00000000000E+00  0.00000000000E+00 -0.13340269583E+04  0.13340269583E+04  0.50400001928E-02 0.  1.
    10030    2    1    2    0    0  0.00000000000E+00  0.00000000000E+00 -0.11197836780E+04  0.15482702387E+04  0.10692171185E+04 0.  0.
        5    1    3    3  502    0  0.36391995853E+03 -0.14555924861E+03 -0.10863080062E+04  0.11548646697E+04  0.46999998093E+01 0.  1.
       -5    1    3    3    0  502 -0.36391995853E+03  0.14555924861E+03 -0.33475671765E+02  0.39340556893E+03  0.46999998093E+01 0. -1.
</event>
<event>
 5   0  0.3215352E-03  0.1132721E+04  0.7818609E-02  0.9173874E-01
        1   -1    0    0  501    0  0.00000000000E+00  0.00000000000E+00  0.17512047985E+04  0.17512047985E+04  0.50400001928E-02 0.  1.
       -1   -1    0    0    0  501  0.00000000000E+00  0.00000000000E+00 -0.18316777978E+03  0.18316777985E+03  0.50400001928E-02 0. -1.
    10030    2    1    2    0    0  0.00000000000E+00  0.00000000000E+00  0.15680370187E+04  0.19343725783E+04  0.11327211395E+04 0.  0.
        1    1    3    3  502    0  0.92008244289E+02  0.86955434718E+02  0.17267328055E+04  0.17313673631E+04  0.50400001928E-02 0.  1.
       -1    1    3    3    0  502 -0.92008244289E+02 -0.86955434718E+02 -0.15869578675E+03  0.20300521521E+03  0.50400001928E-02 0. -1.
</event>
<event>
 5   0  0.5627232E-03  0.1104594E+04  0.7818609E-02  0.9200726E-01
        2   -1    0    0  501    0  0.00000000000E+00  0.00000000000E+00  0.11529840219E+04  0.11529840219E+04  0.25500000920E-02 0.  1.
       -2   -1    0    0    0  501  0.00000000000E+00  0.00000000000E+00 -0.26455853190E+03  0.26455853191E+03  0.25500000920E-02 0. -1.
    10030    2    1    2    0    0  0.00000000000E+00  0.00000000000E+00  0.88842549001E+03  0.14175425538E+04  0.11045936088E+04 0.  0.
        2    1    3    3  502    0  0.53200963196E+02 -0.50239777451E+03  0.73059035906E+03  0.88825454633E+03  0.25500000920E-02 0.  1.
       -2    1    3    3    0  502 -0.53200963196E+02  0.50239777451E+03  0.15783513094E+03  0.52928800750E+03  0.25500000920E-02 0. -1.
</event>
<event>
 5   0  0.5500363E-03  0.1061703E+04  0.7818609E-02  0.9243344E-01
       -2   -1    0    0    0  501  0.00000000000E+00  0.00000000000E+00  0.29044081165E+03  0.29044081166E+03  0.25500000920E-02 0. -1.
        2   -1    0    0  501    0  0.00000000000E+00  0.00000000000E+00 -0.97026090868E+03  0.97026090869E+03  0.25500000920E-02 0.  1.
    10030    2    1    2    0    0  0.00000000000E+00  0.00000000000E+00 -0.67982009703E+03  0.12607017204E+04  0.10617030957E+04 0.  0.
        3    1    3    3  502    0  0.32448196484E+03  0.39143203815E+03 -0.15867266095E+03  0.53262051174E+03  0.10100000352E+00 0. -1.
       -3    1    3    3    0  502 -0.32448196484E+03 -0.39143203815E+03 -0.52114743608E+03  0.72808120861E+03  0.10100000352E+00 0.  1.
</event>
<event>
 5   0  0.3241189E-03  0.1088048E+04  0.7818609E-02  0.9216920E-01
       -1   -1    0    0    0  501  0.00000000000E+00  0.00000000000E+00  0.49371343413E+03  0.49371343416E+03  0.50400001928E-02 0.  1.
        1   -1    0    0  501    0  0.00000000000E+00  0.00000000000E+00 -0.59946121843E+03  0.59946121846E+03  0.50400001928E-02 0. -1.
    10030    2    1    2    0    0  0.00000000000E+00  0.00000000000E+00 -0.10574778430E+03  0.10931746526E+04  0.10880478975E+04 0.  0.
        5    1    3    3  502    0 -0.61054649111E+02  0.23813178662E+03  0.43470187324E+03  0.49942189236E+03  0.46999998093E+01 0.  1.
       -5    1    3    3    0  502  0.61054649111E+02 -0.23813178662E+03 -0.54044965754E+03  0.59375276025E+03  0.46999998093E+01 0. -1.
</event>
<event>
 5   0  0.5941585E-03  0.9441095E+03  0.7818609E-02  0.9372062E-01
        2   -1    0    0  501    0  0.00000000000E+00  0.00000000000E+00  0.13933800525E+04  0.13933800525E+04  0.25500000920E-02 0. -1.
       -2   -1    0    0    0  501  0.00000000000E+00  0.00000000000E+00 -0.15992454593E+03  0.15992454595E+03  0.25500000920E-02 0.  1.
    10030    2    1    2    0    0  0.00000000000E+00  0.00000000000E+00  0.12334555065E+04  0.15533045984E+04  0.94410946868E+03 0.  0.
        5    1    3    3  502    0 -0.62851679996E+02 -0.42892140748E+03  0.92404202894E+03  0.10206858815E+04  0.46999998093E+01 0. -1.
       -5    1    3    3    0  502  0.62851679996E+02  0.42892140748E+03  0.30941347760E+03  0.53261871690E+03  0.46999998093E+01 0.  1.
</event>
<event>
 5   0  0.5941585E-03  0.1089126E+04  0.7818609E-02  0.9215856E-01
        2   -1    0    0  501    0  0.00000000000E+00  0.00000000000E+00  0.71817431475E+03  0.71817431476E+03  0.25500000920E-02 0. -1.
       -2   -1    0    0    0  501  0.00000000000E+00  0.00000000000E+00 -0.41292019085E+03  0.41292019086E+03  0.25500000920E-02 0.  1.
    10030    2    1    2    0    0  0.00000000000E+00  0.00000000000E+00  0.30525412390E+03  0.11310945056E+04  0.10891256587E+04 0.  0.
        5    1    3    3  502    0 -0.31940036032E+02 -0.49318725168E+03  0.39006963718E+03  0.62962706658E+03  0.46999998093E+01 0. -1.
       -5    1    3    3    0  502  0.31940036032E+02  0.49318725168E+03 -0.84815513276E+02  0.50146743903E+03  0.46999998093E+01 0.  1.
</event>
<event>
 5   0  0.5941585E-03  0.1097026E+04  0.7818609E-02  0.9208096E-01
       -2   -1    0    0    0  501  0.00000000000E+00  0.00000000000E+00  0.22397164080E+03  0.22397164081E+03  0.25500000920E-02 0.  1.
        2   -1    0    0  501    0  0.00000000000E+00  0.00000000000E+00 -0.13433233008E+04  0.13433233008E+04  0.25500000920E-02 0. -1.
    10030    2    1    2    0    0  0.00000000000E+00  0.00000000000E+00 -0.11193516600E+04  0.15672949416E+04  0.10970256584E+04 0.  0.
        5    1    3    3  502    0 -0.41818037592E+03  0.33290419873E+03 -0.38386033978E+03  0.65808121291E+03  0.46999998093E+01 0.  1.
       -5    1    3    3    0  502  0.41818037592E+03 -0.33290419873E+03 -0.73549132019E+03  0.90921372867E+03  0.46999998093E+01 0. -1.
</event>
<event>
 5   0  0.3215352E-03  0.1068258E+04  0.7818609E-02  0.9236694E-01
       -1   -1    0    0    0  501  0.00000000000E+00  0.00000000000E+00  0.14455165082E+03  0.14455165091E+03  0.50400001928E-02 0.  1.
        1   -1    0    0  501    0  0.00000000000E+00  0.00000000000E+00 -0.19736457159E+04  0.19736457159E+04  0.50400001928E-02 0. -1.
    10030    2    1    2    0    0  0.00000000000E+00  0.00000000000E+00 -0.18290940650E+04  0.21181973668E+04  0.10682579210E+04 0.  0.
        1    1    3    3  502    0  0.46490569658E+02 -0.45278270537E+03 -0.14687539747E+04  0.15376643944E+04  0.50400001928E-02 0. -1.
       -1    1    3    3    0  502 -0.46490569658E+02  0.45278270537E+03 -0.36034009029E+03  0.58053297241E+03  0.50400001928E-02 0.  1.
</event>
<event>
 5   0  0.5946359E-03  0.1122866E+04  0.7818609E-02  0.9183187E-01
        2   -1    0    0  501    0  0.00000000000E+00  0.00000000000E+00  0.80393935821E+03  0.80393935822E+03  0.25500000920E-02 0.  1.
       -2   -1    0    0    0  501  0.00000000000E+00  0.00000000000E+00 -0.39207827675E+03  0.39207827676E+03  0.25500000920E-02 0. -1.
    10030    2    1    2    0    0  0.00000000000E+00  0.00000000000E+00  0.41186108146E+03  0.11960176350E+04  0.11228662577E+04 0.  0.
        4    1    3    3  502    0 -0.22813463440E+03  0.31154674117E+03  0.64003350307E+03  0.74749667645E+03  0.12699999809E+01 0.  1.
       -4    1    3    3    0  502  0.22813463440E+03 -0.31154674117E+03 -0.22817242161E+03  0.44852095852E+03  0.12699999809E+01 0. -1.
</event>
<event>
 5   0  0.3215352E-03  0.8914595E+03  0.7818609E-02  0.9436321E-01
       -1   -1    0    0    0  501  0.00000000000E+00  0.00000000000E+00  0.38582903490E+03  0.38582903493E+03  0.50400001928E-02 0. -1.
        1   -1    0    0  501    0  0.00000000000E+00  0.00000000000E+00 -0.51493022238E+03  0.51493022240E+03  0.50400001928E-02 0.  1.
    10030    2    1    2    0    0  0.00000000000E+00  0.00000000000E+00 -0.12910118748E+03  0.90075925733E+03  0.89145954651E+03 0.  0.
        1    1    3    3  502    0 -0.17812754089E+03 -0.28603981049E+03 -0.35935932504E+03  0.49263304653E+03  0.50400001928E-02 0.  1.
       -1    1    3    3    0  502  0.17812754089E+03  0.28603981049E+03  0.23025813757E+03  0.40812621081E+03  0.50400001928E-02 0. -1.
</event>
<event>
 5   0  0.3328741E-03  0.1141427E+04  0.7818609E-02  0.9165729E-01
        1   -1    0    0  501    0  0.00000000000E+00  0.00000000000E+00  0.77234378733E+03  0.77234378735E+03  0.50400001928E-02 0.  1.
       -1   -1    0    0    0  501  0.00000000000E+00  0.00000000000E+00 -0.42172145560E+03  0.42172145563E+03  0.50400001928E-02 0. -1.
    10030    2    1    2    0    0  0.00000000000E+00  0.00000000000E+00  0.35062233173E+03  0.11940652430E+04  0.11414270826E+04 0.  0.
        3    1    3    3  502    0 -0.13136020409E+03 -0.31064394062E+03 -0.30631002211E+03  0.45561058033E+03  0.10100000352E+00 0. -1.
       -3    1    3    3    0  502  0.13136020409E+03  0.31064394062E+03  0.65693235384E+03  0.73845466265E+03  0.10100000352E+00 0.  1.
</event>
<event>
 5   0  0.3320192E-03  0.1122435E+04  0.7818609E-02  0.9183597E-01
       -1   -1    0    0    0  501  0.00000000000E+00  0.00000000000E+00  0.13590088569E+04  0.13590088569E+04  0.50400001928E-02 0. -1.
        1   -1    0    0  501    0  0.00000000000E+00  0.00000000000E+00 -0.23176074884E+03  0.23176074889E+03  0.50400001928E-02 0.  1.
    10030    2    1    2    0    0  0.00000000000E+00  0.00000000000E+00  0.11272481080E+04  0.15907696058E+04  0.11224346937E+04 0.  0.
        2    1    3    3  502    0  0.65014749385E+02  0.37076091651E+03 -0.26323389613E+02  0.37733737649E+03  0.25500000920E-02 0.  1.
       -2    1    3    3    0  502 -0.65014749385E+02 -0.37076091651E+03  0.11535714976E+04  0.12134322293E+04  0.25500000920E-02 0. -1.
</event>
<event>
 5   0  0.5946359E-03  0.1096272E+04  0.7818609E-02  0.9208833E-01
       -2   -1    0    0    0  501  0.00000000000E+00  0.00000000000E+00  0.22184327414E+03  0.22184327415E+03  0.25500000920E-02 0. -1.
        2   -1    0    0  501    0  0.00000000000E+00  0.00000000000E+00 -0.13543492478E+04  0.13543492478E+04  0.25500000920E-02 0.  1.
    10030    2    1    2    0    0  0.00000000000E+00  0.00000000000E+00 -0.11325059737E+04  0.15761925220E+04  0.10962723594E+04 0.  0.
        4    1    3    3  502    0 -0.10457261854E+03  0.11622746372E+03 -0.13216080830E+04  0.13308244790E+04  0.12699999809E+01 0.  1.
       -4    1    3    3    0  502  0.10457261854E+03 -0.11622746372E+03  0.18910210933E+03  0.24536804300E+03  0.12699999809E+01 0. -1.
</event>
<event>
 5   0  0.3316784E-03  0.1080076E+04  0.7818609E-02  0.9224831E-01
        1   -1    0    0  501    0  0.00000000000E+00  0.00000000000E+00  0.66098070921E+03  0.66098070923E+03  0.50400001928E-02 0.  1.
       -1   -1    0    0    0  501  0.00000000000E+00  0.00000000000E+00 -0.44122492243E+03  0.44122492246E+03  0.50400001928E-02 0. -1.
    10030    2    1    2    0    0  0.00000000000E+00  0.00000000000E+00  0.21975578678E+03  0.11022056317E+04  0.10800762236E+04 0.  0.
        4    1    3    3  502    0  0.12374186636E+02  0.53765564717E+03  0.59750868672E+02  0.54110857934E+03  0.12699999809E+01 0.  1.
       -4    1    3    3    0  502 -0.12374186636E+02 -0.53765564717E+03  0.16000491810E+03  0.56109705234E+03  0.12699999809E+01 0. -1.
</event>
<event>
 5   0  0.3328741E-03  0.1181346E+04  0.7818609E-02  0.9129343E-01
       -1   -1    0    0    0  501  0.00000000000E+00  0.00000000000E+00  0.15137534050E+03  0.15137534059E+03  0.50400001928E-02 0.  1.
        1   -1    0    0  501    0  0.00000000000E+00  0.00000000000E+00 -0.23048321438E+04  0.23048321439E+04  0.50400001928E-02 0. -1.
    10030    2    1    2    0    0  0.00000000000E+00  0.00000000000E+00 -0.21534568033E+04  0.24562074844E+04  0.11813462671E+04 0.  0.
        3    1    3    3  502    0 -0.29384265627E+03  0.50532967798E+03 -0.90038979394E+03  0.10735005269E+04  0.10100000352E+00 0.  1.
       -3    1    3    3    0  502  0.29384265627E+03 -0.50532967798E+03 -0.12530670094E+04  0.13827069575E+04  0.10100000352E+00 0. -1.
</event>
<event>
 5   0  0.5723194E-03  0.1117423E+04  0.7818609E-02  0.9188375E-01
        2   -1    0    0  501    0  0.00000000000E+00  0.00000000000E+00  0.15960023336E+04  0.15960023336E+04  0.25500000920E-02 0. -1.
       -2   -1    0    0    0  501  0.00000000000E+00  0.00000000000E+00 -0.19558763533E+03  0.19558763535E+03  0.25500000920E-02 0.  1.
    10030    2    1    2    0    0  0.00000000000E+00  0.00000000000E+00  0.14004146983E+04  0.17915899690E+04  0.11174226102E+04 0.  0.
        1    1    3    3  502    0  0.41645932836E+03 -0.37179694748E+03  0.66482580669E+03  0.86813863847E+03  0.50400001928E-02 0. -1.
       -1    1    3    3    0  502 -0.41645932836E+03  0.37179694748E+03  0.73558889162E+03  0.92345133052E+03  0.50400001928E-02 0.  1.
</event>
<event>
 5   0  0.5941585E-03  0.1052078E+04  0.7818609E-02  0.9253201E-01
        2   -1    0    0  501    0  0.00000000000E+00  0.00000000000E+00  0.14702198856E+04  0.14702198856E+04  0.25500000920E-02 0.  1.
       -2   -1    0    0    0  501  0.00000000000E+00  0.00000000000E+00 -0.18821465756E+03  0.18821465758E+03  0.25500000920E-02 0. -1.
    10030    2    1    2    0    0  0.00000000000E+00  0.00000000000E+00  0.12820052280E+04  0.16584345431E+04  0.10520778152E+04 0.  0.
        5    1    3    3  502    0  0.66327759357E+02 -0.32303837202E+03  0.12869984519E+04  0.13285858146E+04  0.46999998093E+01 0.  1.
       -5    1    3    3    0  502 -0.66327759357E+02  0.32303837202E+03 -0.49932239202E+01  0.32984872857E+03  0.46999998093E+01 0. -1.
</event>
<event>
 5   0  0.3316784E-03  0.1102793E+04  0.7818609E-02  0.9202474E-01
       -1   -1    0    0    0  501  0.00000000000E+00  0.00000000000E+00  0.69734167355E+03  0.69734167356E+03  0.50400001928E-02 0.  1.
        1   -1    0    0  501    0  0.00000000000E+00  0.00000000000E+00 -0.43599591594E+03  0.43599591597E+03  0.50400001928E-02 0. -1.
    10030    2    1    2    0    0  0.00000000000E+00  0.00000000000E+00  0.26134575760E+03  0.11333375895E+04  0.11027930390E+04 0.  0.
        4    1    3    3  502    0  0.24979680868E+03  0.43092966247E+03 -0.11238938471E+03  0.51061904226E+03  0.12699999809E+01 0. -1.
       -4    1    3    3    0  502 -0.24979680868E+03 -0.43092966247E+03  0.37373514231E+03  0.62271854727E+03  0.12699999809E+01 0.  1.
</event>
<event>
 5   0  0.5946359E-03  0.1106990E+04  0.7818609E-02  0.9198406E-01
       -2   -1    0    0    0  501  0.00000000000E+00  0.00000000000E+00  0.58454125610E+03  0.58454125610E+03  0.25500000920E-02 0.  1.
        2   -1    0    0  501    0  0.00000000000E+00  0.00000000000E+00 -0.52409766140E+03  0.52409766140E+03  0.25500000920E-02 0. -1.
    10030    2    1    2    0    0  0.00000000000E+00  0.00000000000E+00  0.60443594700E+02  0.11086389175E+04  0.11069899825E+04 0.  0.
        4    1    3    3  502    0  0.86963117060E+02  0.50408104186E+03 -0.18150458945E+03  0.54277602138E+03  0.12699999809E+01 0.  1.
       -4    1    3    3    0  502 -0.86963117060E+02 -0.50408104186E+03  0.24194818415E+03  0.56586289612E+03  0.12699999809E+01 0. -1.
</event>
<event>
 5   0  0.5627232E-03  0.1094137E+04  0.7818609E-02  0.9210926E-01
       -2   -1    0    0    0  501  0.00000000000E+00  0.00000000000E+00  0.18833256647E+03  0.18833256649E+03  0.25500000920E-02 0.  1.
        2   -1    0    0  501    0  0.00000000000E+00  0.00000000000E+00 -0.15891235359E+04  0.15891235359E+04  0.25500000920E-02 0. -1.
    10030    2    1    2    0    0  0.00000000000E+00  0.00000000000E+00 -0.14007909694E+04  0.17774561024E+04  0.10941365801E+04 0.  0.
        2    1    3    3  502    0  0.59079000389E+02  0.68812545823E+02  0.17603460577E+03  0.19802443582E+03  0.25500000920E-02 0.  1.
       -2    1    3    3    0  502 -0.59079000389E+02 -0.68812545823E+02 -0.15768255752E+04  0.15794316666E+04  0.25500000920E-02 0. -1.
</event>
<event>
 5   0  0.3215352E-03  0.1094388E+04  0.7818609E-02  0.9210679E-01
        1   -1    0    0  501    0  0.00000000000E+00  0.00000000000E+00  0.26576045307E+03  0.26576045311E+03  0.50400001928E-02 0. -1.
       -1   -1    0    0    0  501  0.00000000000E+00  0.00000000000E+00 -0.11266580349E+04  0.11266580349E+04  0.50400001928E-02 0.  1.
    10030    2    1    2    0    0  0.00000000000E+00  0.00000000000E+00 -0.86089758181E+03  0.13924184880E+04  0.10943877738E+04 0.  0.
        1    1    3    3  502    0  0.14587790186E+03  0.42834194481E+03 -0.38985632315E+02  0.45417734806E+03  0.50400001928E-02 0. -1.
       -1    1    3    3    0  502 -0.14587790186E+03 -0.42834194481E+03 -0.82191194949E+03  0.93824113994E+03  0.50400001928E-02 0.  1.
</event>
<event>
 5   0  0.5627232E-03  0.9966943E+03  0.7818609E-02  0.9312178E-01
        2   -1    0    0  501    0  0.00000000000E+00  0.00000000000E+00  0.57911927738E+03  0.57911927739E+03  0.25500000920E-02 0.  1.
       -2   -1    0    0    0  501  0.00000000000E+00  0.00000000000E+00 -0.42884062609E+03  0.42884062610E+03  0.25500000920E-02 0. -1.
    10030    2    1    2    0    0  0.00000000000E+00  0.00000000000E+00  0.15027865129E+03  0.10079599035E+04  0.99669428312E+03 0.  0.
        2    1    3    3  502    0  0.65874527954E+02  0.38256383067E+03  0.39117002870E+03  0.55109756789E+03  0.25500000920E-02 0.  1.
       -2    1    3    3    0  502 -0.65874527954E+02 -0.38256383067E+03 -0.24089137741E+03  0.45686233560E+03  0.25500000920E-02 0. -1.
</event>
<event>
 5   0  0.3320192E-03  0.1116831E+04  0.7818609E-02  0.9188941E-01
       -1   -1    0    0    0  501  0.00000000000E+00  0.00000000000E+00  0.89361862797E+03  0.89361862798E+03  0.50400001928E-02 0. -1.
        1   -1    0    0  501    0  0.00000000000E+00  0.00000000000E+00 -0.34894963786E+03  0.34894963790E+03  0.50400001928E-02 0.  1.
    10030    2    1    2    0    0  0.00000000000E+00  0.00000000000E+00  0.54466899011E+03  0.12425682659E+04  0.11168310466E+04 0.  0.
        2    1    3    3  502    0 -0.53779602410E+03  0.15033640801E+03  0.27064808602E+03  0.62054491021E+03  0.25500000920E-02 0.  1.
       -2    1    3    3    0  502  0.53779602410E+03 -0.15033640801E+03  0.27402090409E+03  0.62202335567E+03  0.25500000920E-02 0. -1.
</event>
<event>
 5   0  0.3316784E-03  0.1086041E+04  0.7818609E-02  0.9218905E-01
       -1   -1    0    0    0  501  0.00000000000E+00  0.00000000000E+00  0.51094272027E+03  0.51094272030E+03  0.50400001928E-02 0. -1.
        1   -1    0    0  501    0  0.00000000000E+00  0.00000000000E+00 -0.57711227826E+03  0.57711227828E+03  0.50400001928E-02 0.  1.
    10030    2    1    2    0    0  0.00000000000E+00  0.00000000000E+00 -0.66169557986E+02  0.10880549986E+04  0.10860410994E+04 0.  0.
        4    1    3    3  502    0 -0.36022336082E+03 -0.27263899659E+01 -0.44016496833E+03  0.56878389141E+03  0.12699999809E+01 0.  1.
       -4    1    3    3    0  502  0.36022336082E+03  0.27263899659E+01  0.37399541035E+03  0.51927110717E+03  0.12699999809E+01 0. -1.
</event>
<event>
 5   0  0.5723194E-03  0.1092861E+04  0.7818609E-02  0.9212178E-01
       -2   -1    0    0    0  501  0.00000000000E+00  0.00000000000E+00  0.26402998078E+03  0.26402998079E+03  0.25500000920E-02 0. -1.
        2   -1    0    0  501    0  0.00000000000E+00  0.00000000000E+00 -0.11308806480E+04  0.11308806480E+04  0.25500000920E-02 0.  1.
    10030    2    1    2    0    0  0.00000000000E+00  0.00000000000E+00 -0.86685066726E+03  0.13949106288E+04  0.10928611911E+04 0.  0.
        1    1    3    3  502    0 -0.24155707899E+03 -0.48930851783E+03 -0.39701486478E+03  0.67482846036E+03  0.50400001928E-02 0.  1.
       -1    1    3    3    0  502  0.24155707899E+03  0.48930851783E+03 -0.46983580249E+03  0.72008216847E+03  0.50400001928E-02 0. -1.
</event>
<event>
 5   0  0.5627232E-03  0.1032158E+04  0.7818609E-02  0.9273961E-01
        2   -1    0    0  501    0  0.00000000000E+00  0.00000000000E+00  0.49376266407E+03  0.49376266408E+03  0.25500000920E-02 0. -1.
       -2   -1    0    0    0  501  0.00000000000E+00  0.00000000000E+00 -0.53940430574E+03  0.53940430575E+03  0.25500000920E-02 0.  1.
    10030    2    1    2    0    0  0.00000000000E+00  0.00000000000E+00 -0.45641641669E+02  0.10331669698E+04  0.10321583348E+04 0.  0.
        2    1    3    3  502    0 -0.34522808964E+03  0.23204038404E+03  0.28294869077E+03  0.50307567554E+03  0.25500000920E-02 0. -1.
       -2    1    3    3    0  502  0.34522808964E+03 -0.23204038404E+03 -0.32859033244E+03  0.53009129429E+03  0.25500000920E-02 0.  1.
</event>
<event>
 5   0  0.3215352E-03  0.1044042E+04  0.7818609E-02  0.9261517E-01
        1   -1    0    0  501    0  0.00000000000E+00  0.00000000000E+00  0.42829793921E+03  0.42829793924E+03  0.50400001928E-02 0. -1.
       -1   -1    0    0    0  501  0.00000000000E+00  0.00000000000E+00 -0.63625344028E+03  0.63625344030E+03  0.50400001928E-02 0.  1.
    10030    2    1    2    0    0  0.00000000000E+00  0.00000000000E+00 -0.20795550107E+03  0.10645513795E+04  0.10440422162E+04 0.  0.
        1    1    3    3  502    0 -0.73749124462E+02  0.17352708994E+03  0.39236527185E+03  0.43531723017E+03  0.50400001928E-02 0. -1.
       -1    1    3    3    0  502  0.73749124462E+02 -0.17352708994E+03 -0.60032077292E+03  0.62923414937E+03  0.50400001928E-02 0.  1.
</event>
<event>
 5   0  0.3320192E-03  0.1102449E+04  0.7818609E-02  0.9202809E-01
        1   -1    0    0  501    0  0.00000000000E+00  0.00000000000E+00  0.75360646193E+03  0.75360646195E+03  0.50400001928E-02 0. -1.
       -1   -1    0    0    0  501  0.00000000000E+00  0.00000000000E+00 -0.40319221739E+03  0.40319221742E+03  0.50400001928E-02 0.  1.
    10030    2    1    2    0    0  0.00000000000E+00  0.00000000000E+00  0.35041424455E+03  0.11567986794E+04  0.11024486572E+04 0.  0.
        2    1    3    3  502    0 -0.15623838961E+03 -0.30768638238E+03  0.62624344365E+03  0.71502601003E+03  0.25500000920E-02 0. -1.
       -2    1    3    3    0  502  0.15623838961E+03  0.30768638238E+03 -0.27582919910E+03  0.44177266934E+03  0.25500000920E-02 0.  1.
</event>
<event>
 5   0  0.5723194E-03  0.1087306E+04  0.7818609E-02  0.9217653E-01
       -2   -1    0    0    0  501  0.00000000000E+00  0.00000000000E+00  0.32220440536E+03  0.32220440537E+03  0.25500000920E-02 0.  1.
        2   -1    0    0  501    0  0.00000000000E+00  0.00000000000E+00 -0.91730165358E+03  0.91730165359E+03  0.25500000920E-02 0. -1.
    10030    2    1    2    0    0  0.00000000000E+00  0.00000000000E+00 -0.59509724822E+03  0.12395060590E+04  0.10873060909E+04 0.  0.
        1    1    3    3  502    0 -0.10999625391E+03 -0.41193786937E+03  0.86958435183E+02  0.43514796744E+03  0.50400001928E-02 0. -1.
       -1    1    3    3    0  502  0.10999625391E+03  0.41193786937E+03 -0.68205568340E+03  0.80435809151E+03  0.50400001928E-02 0.  1.
</event>
<event>
 5   0  0.3320192E-03  0.1100303E+04  0.7818609E-02  0.9204897E-01
        1   -1    0    0  501    0  0.00000000000E+00  0.00000000000E+00  0.46657287896E+03  0.46657287899E+03  0.50400001928E-02 0. -1.
       -1   -1    0    0    0  501  0.00000000000E+00  0.00000000000E+00 -0.64870186928E+03  0.64870186930E+03  0.50400001928E-02 0.  1.
    10030    2    1    2    0    0  0.00000000000E+00  0.00000000000E+00 -0.18212899032E+03  0.11152747483E+04  0.11003030469E+04 0.  0.
        2    1    3    3  502    0 -0.39501085506E+03  0.34034272233E+03 -0.26895165082E+03  0.58668708418E+03  0.25500000920E-02 0.  1.
       -2    1    3    3    0  502  0.39501085506E+03 -0.34034272233E+03  0.86822660501E+02  0.52858766411E+03  0.25500000920E-02 0. -1.
</event>
<event>
 5   0  0.3328741E-03  0.1122541E+04  0.7818609E-02  0.9183496E-01
       -1   -1    0    0    0  501  0.00000000000E+00  0.00000000000E+00  0.23741636445E+03  0.23741636450E+03  0.50400001928E-02 0.  1.
        1   -1    0    0  501    0  0.00000000000E+00  0.00000000000E+00 -0.13268865885E+04  0.13268865885E+04  0.50400001928E-02 0. -1.
    10030    2    1    2    0    0  0.00000000000E+00  0.00000000000E+00 -0.10894702240E+04  0.15643029530E+04  0.11225410281E+04 0.  0.
        3    1    3    3  502    0 -0.20185268115E+03 -0.24592424053E+03  0.99617890012E+02  0.33338711910E+03  0.10100000352E+00 0.  1.
       -3    1    3    3    0  502  0.20185268115E+03  0.24592424053E+03 -0.11890881140E+04  0.12309158339E+04  0.10100000352E+00 0. -1.
</event>
<event>
 5   0  0.5723194E-03  0.1095971E+04  0.7818609E-02  0.9209128E-01
       -2   -1    0    0    0  501  0.00000000000E+00  0.00000000000E+00  0.37512531275E+03  0.37512531276E+03  0.25500000920E-02 0.  1.
        2   -1    0    0  501    0  0.00000000000E+00  0.00000000000E+00 -0.80050089952E+03  0.80050089953E+03  0.25500000920E-02 0. -1.
    10030    2    1    2    0    0  0.00000000000E+00  0.00000000000E+00 -0.42537558677E+03  0.11756262123E+04  0.10959710768E+04 0.  0.
        1    1    3    3  502    0 -0.21717023275E+03  0.33196378406E+03 -0.61821939528E+03  0.73454617598E+03  0.50400001928E-02 0. -1.
       -1    1    3    3    0  502  0.21717023275E+03 -0.33196378406E+03  0.19284380850E+03  0.44108003631E+03  0.50400001928E-02 0.  1.
</event>
<event>
 5   0  0.5946359E-03  0.1077370E+04  0.7818609E-02  0.9227534E-01
        2   -1    0    0  501    0  0.00000000000E+00  0.00000000000E+00  0.78504905147E+03  0.78504905147E+03  0.25500000920E-02 0.  1.
       -2   -1    0    0    0  501  0.00000000000E+00  0.00000000000E+00 -0.36963469136E+03  0.36963469137E+03  0.25500000920E-02 0. -1.
    10030    2    1    2    0    0  0.00000000000E+00  0.00000000000E+00  0.41541436011E+03  0.11546837428E+04  0.10773696930E+04 0.  0.
        4    1    3    3  502    0 -0.16672378841E+03  0.14246746617E+03  0.73503792130E+03  0.76705681614E+03  0.12699999809E+01 0.  1.
       -4    1    3    3    0  502  0.16672378841E+03 -0.14246746617E+03 -0.31962356119E+03  0.38762692670E+03  0.12699999809E+01 0. -1.
</event>
<event>
 5   0  0.5946359E-03  0.1095813E+04  0.7818609E-02  0.9209283E-01
       -2   -1    0    0    0  501  0.00000000000E+00  0.00000000000E+00  0.43835833435E+03  0.43835833436E+03  0.25500000920E-02 0. -1.
        2   -1    0    0  501    0  0.00000000000E+00  0.00000000000E+00 -0.68483097053E+03  0.68483097054E+03  0.25500000920E-02 0.  1.
    10030    2    1    2    0    0  0.00000000000E+00  0.00000000000E+00 -0.24647263618E+03  0.11231893049E+04  0.10958126912E+04 0.  0.
        4    1    3    3  502    0  0.34979182458E+03  0.43461781868E+02  0.30671501053E+03  0.46724614242E+03  0.12699999809E+01 0. -1.
       -4    1    3    3    0  502 -0.34979182458E+03 -0.43461781868E+02 -0.55318764671E+03  0.65594316247E+03  0.12699999809E+01 0.  1.
</event>
<event>
 5   0  0.5500363E-03  0.1101090E+04  0.7818609E-02  0.9204130E-01
       -2   -1    0    0    0  501  0.00000000000E+00  0.00000000000E+00  0.28822616517E+03  0.28822616518E+03  0.25500000920E-02 0.  1.
        2   -1    0    0  501    0  0.00000000000E+00  0.00000000000E+00 -0.10516043256E+04  0.10516043256E+04  0.25500000920E-02 0. -1.
    10030    2    1    2    0    0  0.00000000000E+00  0.00000000000E+00 -0.76337816045E+03  0.13398304908E+04  0.11010901545E+04 0.  0.
        3    1    3    3  502    0 -0.46021526934E+03 -0.21917827224E+03 -0.12859405994E+03  0.52571251803E+03  0.10100000352E+00 0.  1.
       -3    1    3    3    0  502  0.46021526934E+03  0.21917827224E+03 -0.63478410051E+03  0.81411797279E+03  0.10100000352E+00 0. -1.
</event>
<event>
 5   0  0.3215352E-03  0.1104450E+04  0.7818609E-02  0.9200865E-01
       -1   -1    0    0    0  501  0.00000000000E+00  0.00000000000E+00  0.10403813617E+04  0.10403813617E+04  0.50400001928E-02 0. -1.
        1   -1    0    0  501    0  0.00000000000E+00  0.00000000000E+00 -0.29311598850E+03  0.29311598854E+03  0.50400001928E-02 0.  1.
    10030    2    1    2    0    0  0.00000000000E+00  0.00000000000E+00  0.74726537324E+03  0.13334973503E+04  0.11044499288E+04 0.  0.
        1    1    3    3  502    0 -0.29527188775E+03  0.23978505495E+03 -0.10972909990E+03  0.39588235078E+03  0.50400001928E-02 0.  1.
       -1    1    3    3    0  502  0.29527188775E+03 -0.23978505495E+03  0.85699447314E+03  0.93761499950E+03  0.50400001928E-02 0. -1.
</event>
<event>
 5   0  0.5627232E-03  0.1101350E+04  0.7818609E-02  0.9203877E-01
       -2   -1    0    0    0  501  0.00000000000E+00  0.00000000000E+00  0.19049667012E+03  0.19049667014E+03  0.25500000920E-02 0. -1.
        2   -1    0    0  501    0  0.00000000000E+00  0.00000000000E+00 -0.15918537919E+04  0.15918537919E+04  0.25500000920E-02 0.  1.
    10030    2    1    2    0    0  0.00000000000E+00  0.00000000000E+00 -0.14013571218E+04  0.17823504620E+04  0.11013498022E+04 0.  0.
        2    1    3    3  502    0 -0.97271734717E+02  0.25711524809E+02  0.17549578194E+03  0.20229098440E+03  0.25500000920E-02 0. -1.
       -2    1    3    3    0  502  0.97271734717E+02 -0.25711524809E+02 -0.15768529037E+04  0.15800594776E+04  0.25500000920E-02 0.  1.
</event>
<event>
 5   0  0.5723194E-03  0.1106976E+04  0.7818609E-02  0.9198419E-01
       -2   -1    0    0    0  501  0.00000000000E+00  0.00000000000E+00  0.25342807645E+03  0.25342807646E+03  0.25500000920E-02 0. -1.
        2   -1    0    0  501    0  0.00000000000E+00  0.00000000000E+00 -0.12088194880E+04  0.12088194880E+04  0.25500000920E-02 0.  1.
    10030    2    1    2    0    0  0.00000000000E+00  0.00000000000E+00 -0.95539141157E+03  0.14622475645E+04  0.11069756956E+04 0.  0.
        1    1    3    3  502    0  0.35179065269E+03  0.13963465294E+03  0.55764723128E+02  0.38257574935E+03  0.50400001928E-02 0. -1.
       -1    1    3    3    0  502 -0.35179065269E+03 -0.13963465294E+03 -0.10111561347E+04  0.10796718151E+04  0.50400001928E-02 0.  1.
</event>
<event>
 5   0  0.3320192E-03  0.1111472E+04  0.7818609E-02  0.9194082E-01
       -1   -1    0    0    0  501  0.00000000000E+00  0.00000000000E+00  0.12525189387E+04  0.12525189387E+04  0.50400001928E-02 0.  1.
        1   -1    0    0  501    0  0.00000000000E+00  0.00000000000E+00 -0.24657707571E+03  0.24657707577E+03  0.50400001928E-02 0. -1.
    10030    2    1    2    0    0  0.00000000000E+00  0.00000000000E+00  0.10059418630E+04  0.14990960144E+04  0.11114719200E+04 0.  0.
        2    1    3    3  502    0  0.41130051460E+03 -0.18026005762E+03  0.94453035609E+03  0.10458486484E+04  0.25500000920E-02 0.  1.
       -2    1    3    3    0  502 -0.41130051460E+03  0.18026005762E+03  0.61411506865E+02  0.45324736609E+03  0.25500000920E-02 0. -1.
</event>
<event>
 5   0  0.3320192E-03  0.1086015E+04  0.7818609E-02  0.9218931E-01
       -1   -1    0    0    0  501  0.00000000000E+00  0.00000000000E+00  0.46959607407E+03  0.46959607410E+03  0.50400001928E-02 0.  1.
        1   -1    0    0  501    0  0.00000000000E+00  0.00000000000E+00 -0.62789477475E+03  0.62789477477E+03  0.50400001928E-02 0. -1.
    10030    2    1    2    0    0  0.00000000000E+00  0.00000000000E+00 -0.15829870068E+03  0.10974908489E+04  0.10860145877E+04 0.  0.
        2    1    3    3  502    0 -0.34915328236E+03 -0.21768332937E+03  0.27894368457E+03  0.49709518771E+03  0.25500000920E-02 0.  1.
       -2    1    3    3    0  502  0.34915328236E+03  0.21768332937E+03 -0.43724238526E+03  0.60039566116E+03  0.25500000920E-02 0. -1.
</event>
<event>
 5   0  0.5723194E-03  0.1101069E+04  0.7818609E-02  0.9204151E-01
       -2   -1    0    0    0  501  0.00000000000E+00  0.00000000000E+00  0.69219947968E+03  0.69219947968E+03  0.25500000920E-02 0. -1.
        2   -1    0    0  501    0  0.00000000000E+00  0.00000000000E+00 -0.43786224902E+03  0.43786224902E+03  0.25500000920E-02 0.  1.
    10030    2    1    2    0    0  0.00000000000E+00  0.00000000000E+00  0.25433723066E+03  0.11300617287E+04  0.11010686099E+04 0.  0.
        1    1    3    3  502    0 -0.49663417514E+03  0.40122207558E+02  0.36749845792E+03  0.61912067649E+03  0.50400001928E-02 0. -1.
       -1    1    3    3    0  502  0.49663417514E+03 -0.40122207558E+02 -0.11316122726E+03  0.51094105221E+03  0.50400001928E-02 0.  1.
</event>
<event>
 5   0  0.5946359E-03  0.1101396E+04  0.7818609E-02  0.9203832E-01
        2   -1    0    0  501    0  0.00000000000E+00  0.00000000000E+00  0.25480765368E+04  0.25480765368E+04  0.25500000920E-02 0. -1.
       -2   -1    0    0    0  501  0.00000000000E+00  0.00000000000E+00 -0.11901851087E+03  0.11901851089E+03  0.25500000920E-02 0.  1.
    10030    2    1    2    0    0  0.00000000000E+00  0.00000000000E+00  0.24290580259E+04  0.26670950477E+04  0.11013959779E+04 0.  0.
        4    1    3    3  502    0 -0.44707859009E+03  0.28686143737E+03  0.86279469255E+03  0.10132053318E+04  0.12699999809E+01 0.  1.
       -4    1    3    3    0  502  0.44707859009E+03 -0.28686143737E+03  0.15662633334E+04  0.16538897159E+04  0.12699999809E+01 0. -1.
</event>
<event>
 5   0  0.5946359E-03  0.1096721E+04  0.7818609E-02  0.9208394E-01
        2   -1    0    0  501    0  0.00000000000E+00  0.00000000000E+00  0.96407465155E+03  0.96407465155E+03  0.25500000920E-02 0. -1.
       -2   -1    0    0    0  501  0.00000000000E+00  0.00000000000E+00 -0.31190460086E+03  0.31190460087E+03  0.25500000920E-02 0.  1.
    10030    2    1    2    0    0  0.00000000000E+00  0.00000000000E+00  0.65217005069E+03  0.12759792524E+04  0.10967211485E+04 0.  0.
        4    1    3    3  502    0 -0.21980663026E+02  0.51558186323E+03  0.11032904302E+03  0.52771385984E+03  0.12699999809E+01 0.  1.
       -4    1    3    3    0  502  0.21980663026E+02 -0.51558186323E+03  0.54184100767E+03  0.74826539257E+03  0.12699999809E+01 0. -1.
</event>
<event>
 5   0  0.3328741E-03  0.9912288E+03  0.7818609E-02  0.9318218E-01
       -1   -1    0    0    0  501  0.00000000000E+00  0.00000000000E+00  0.56049716471E+03  0.56049716473E+03  0.50400001928E-02 0.  1.
        1   -1    0    0  501    0  0.00000000000E+00  0.00000000000E+00 -0.43824243908E+03  0.43824243911E+03  0.50400001928E-02 0. -1.
    10030    2    1    2    0    0  0.00000000000E+00  0.00000000000E+00  0.12225472563E+03  0.99873960384E+03  0.99122882240E+03 0.  0.
        3    1    3    3  502    0  0.24679480050E+03 -0.28600197814E+02  0.49322177321E+03  0.55226205070E+03  0.10100000352E+00 0.  1.
       -3    1    3    3    0  502 -0.24679480050E+03  0.28600197814E+02 -0.37096704759E+03  0.44647755315E+03  0.10100000352E+00 0. -1.
</event>
<event>
 5   0  0.2185750E-03  0.1124337E+04  0.7818609E-02  0.9181791E-01
        3   -1    0    0  501    0  0.00000000000E+00  0.00000000000E+00  0.66652259082E+03  0.66652259847E+03  0.10100000352E+00 0.  1.
       -3   -1    0    0    0  501  0.00000000000E+00  0.00000000000E+00 -0.47415248984E+03  0.47415250060E+03  0.10100000352E+00 0. -1.
    10030    2    1    2    0    0  0.00000000000E+00  0.00000000000E+00  0.19237010098E+03  0.11406750991E+04  0.11243368827E+04 0.  0.
        5    1    3    3  502    0  0.37816097488E+03  0.29935939142E+03  0.38915372357E+03  0.61974549512E+03  0.46999998093E+01 0.  1.
       -5    1    3    3    0  502 -0.37816097488E+03 -0.29935939142E+03 -0.19678362259E+03  0.52092960395E+03  0.46999998093E+01 0. -1.
</event>
<event>
 5   0  0.3241189E-03  0.1105597E+04  0.7818609E-02  0.9199754E-01
        1   -1    0    0  501    0  0.00000000000E+00  0.00000000000E+00  0.49185388154E+03  0.49185388157E+03  0.50400001928E-02 0. -1.
       -1   -1    0    0    0  501  0.00000000000E+00  0.00000000000E+00 -0.62129419803E+03  0.62129419805E+03  0.50400001928E-02 0.  1.
    10030    2    1    2    0    0  0.00000000000E+00  0.00000000000E+00 -0.12944031649E+03  0.11131480796E+04  0.11055966044E+04 0.  0.
        5    1    3    3  502    0 -0.25131670163E+03 -0.49108619294E+03 -0.10014770123E+03  0.56069366456E+03  0.46999998093E+01 0. -1.
       -5    1    3    3    0  502  0.25131670163E+03  0.49108619294E+03 -0.29292615255E+02  0.55245441506E+03  0.46999998093E+01 0.  1.
</event>
<event>
 5   0  0.5627232E-03  0.1018010E+04  0.7818609E-02  0.9289010E-01
        2   -1    0    0  501    0  0.00000000000E+00  0.00000000000E+00  0.19397075573E+04  0.19397075573E+04  0.25500000920E-02 0. -1.
       -2   -1    0    0    0  501  0.00000000000E+00  0.00000000000E+00 -0.13356957902E+03  0.13356957904E+03  0.25500000920E-02 0.  1.
    10030    2    1    2    0    0  0.00000000000E+00  0.00000000000E+00  0.18061379783E+04  0.20732771364E+04  0.10180096697E+04 0.  0.
        2    1    3    3  502    0  0.27275529173E+03 -0.25586228486E+03  0.19985248479E+03  0.42403062821E+03  0.25500000920E-02 0.  1.
       -2    1    3    3    0  502 -0.27275529173E+03  0.25586228486E+03  0.16062854935E+04  0.16492465082E+04  0.25500000920E-02 0. -1.
</event>
<event>
 5   0  0.3320192E-03  0.1087497E+04  0.7818609E-02  0.9217465E-01
       -1   -1    0    0    0  501  0.00000000000E+00  0.00000000000E+00  0.22559831111E+03  0.22559831117E+03  0.50400001928E-02 0. -1.
        1   -1    0    0  501    0  0.00000000000E+00  0.00000000000E+00 -0.13105701488E+04  0.13105701488E+04  0.50400001928E-02 0.  1.
    10030    2    1    2    0    0  0.00000000000E+00  0.00000000000E+00 -0.10849718377E+04  0.15361684600E+04  0.10874969650E+04 0.  0.
        2    1    3    3  502    0  0.51772301520E+03  0.15783515893E+03 -0.61606664119E+03  0.82005314721E+03  0.25500000920E-02 0. -1.
       -2    1    3    3    0  502 -0.51772301520E+03 -0.15783515893E+03 -0.46890519648E+03  0.71611531275E+03  0.25500000920E-02 0.  1.
</event>
<event>
 5   0  0.3320192E-03  0.1072084E+04  0.7818609E-02  0.9232836E-01
       -1   -1    0    0    0  501  0.00000000000E+00  0.00000000000E+00  0.22447952953E+03  0.22447952958E+03  0.50400001928E-02 0. -1.
        1   -1    0    0  501    0  0.00000000000E+00  0.00000000000E+00 -0.12800318841E+04  0.12800318841E+04  0.50400001928E-02 0.  1.
    10030    2    1    2    0    0  0.00000000000E+00  0.00000000000E+00 -0.10555523546E+04  0.15045114137E+04  0.10720838683E+04 0.  0.
        2    1    3    3  502    0  0.31185831768E+02 -0.39562238360E+02 -0.12767026455E+04  0.12776961188E+04  0.25500000920E-02 0.  1.
       -2    1    3    3    0  502 -0.31185831768E+02  0.39562238360E+02  0.22115029096E+03  0.22681529491E+03  0.25500000920E-02 0. -1.
</event>
<event>
 5   0  0.3215352E-03  0.1091671E+04  0.7818609E-02  0.9213348E-01
       -1   -1    0    0    0  501  0.00000000000E+00  0.00000000000E+00  0.58849155929E+03  0.58849155931E+03  0.50400001928E-02 0. -1.
        1   -1    0    0  501    0  0.00000000000E+00  0.00000000000E+00 -0.50627125188E+03  0.50627125191E+03  0.50400001928E-02 0.  1.
    10030    2    1    2    0    0  0.00000000000E+00  0.00000000000E+00  0.82220307403E+02  0.10947628112E+04  0.10916709366E+04 0.  0.
        1    1    3    3  502    0  0.28970759022E+03  0.16923402532E+03  0.47287073871E+03  0.57980805334E+03  0.50400001928E-02 0. -1.
       -1    1    3    3    0  502 -0.28970759022E+03 -0.16923402532E+03 -0.39065043131E+03  0.51495475788E+03  0.50400001928E-02 0.  1.
</event>
<event>
 5   0  0.5627232E-03  0.8886659E+03  0.7818609E-02  0.9439862E-01
        2   -1    0    0  501    0  0.00000000000E+00  0.00000000000E+00  0.26807487390E+03  0.26807487392E+03  0.25500000920E-02 0. -1.
       -2   -1    0    0    0  501  0.00000000000E+00  0.00000000000E+00 -0.73647988003E+03  0.73647988003E+03  0.25500000920E-02 0.  1.
    10030    2    1    2    0    0  0.00000000000E+00  0.00000000000E+00 -0.46840500612E+03  0.10045547539E+04  0.88866585617E+03 0.  0.
        2    1    3    3  502    0 -0.16840972222E+03 -0.37740706202E+03 -0.41868361085E+03  0.58829745113E+03  0.25500000920E-02 0.  1.
       -2    1    3    3    0  502  0.16840972222E+03  0.37740706202E+03 -0.49721395271E+02  0.41625730282E+03  0.25500000920E-02 0. -1.
</event>
<event>
 5   0  0.5946359E-03  0.1082121E+04  0.7818609E-02  0.9222795E-01
       -2   -1    0    0    0  501  0.00000000000E+00  0.00000000000E+00  0.29456417382E+03  0.29456417383E+03  0.25500000920E-02 0. -1.
        2   -1    0    0  501    0  0.00000000000E+00  0.00000000000E+00 -0.99382885521E+03  0.99382885522E+03  0.25500000920E-02 0.  1.
    10030    2    1    2    0    0  0.00000000000E+00  0.00000000000E+00 -0.69926468140E+03  0.12883930290E+04  0.10821208355E+04 0.  0.
        4    1    3    3  502    0 -0.15776209927E+03  0.22941092278E+03 -0.90199013950E+03  0.94398415035E+03  0.12699999809E+01 0.  1.
       -4    1    3    3    0  502  0.15776209927E+03 -0.22941092278E+03  0.20272545810E+03  0.34440887869E+03  0.12699999809E+01 0. -1.
</event>
<event>
 5   0  0.3215352E-03  0.1044667E+04  0.7818609E-02  0.9260868E-01
       -1   -1    0    0    0  501  0.00000000000E+00  0.00000000000E+00  0.34188331088E+03  0.34188331091E+03  0.50400001928E-02 0. -1.
        1   -1    0    0  501    0  0.00000000000E+00  0.00000000000E+00 -0.79802725065E+03  0.79802725066E+03  0.50400001928E-02 0.  1.
    10030    2    1    2    0    0  0.00000000000E+00  0.00000000000E+00 -0.45614393977E+03  0.11399105616E+04  0.10446668343E+04 0.  0.
        1    1    3    3  502    0  0.14718488994E+03 -0.48229251414E+03 -0.79405173382E+02  0.51046512379E+03  0.50400001928E-02 0. -1.
       -1    1    3    3    0  502 -0.14718488994E+03  0.48229251414E+03 -0.37673876639E+03  0.62944543778E+03  0.50400001928E-02 0.  1.
</event>
<event>
 5   0  0.5723194E-03  0.1099912E+04  0.7818609E-02  0.9205278E-01
        2   -1    0    0  501    0  0.00000000000E+00  0.00000000000E+00  0.80770250802E+03  0.80770250802E+03  0.25500000920E-02 0. -1.
       -2   -1    0    0    0  501  0.00000000000E+00  0.00000000000E+00 -0.37445907287E+03  0.37445907287E+03  0.25500000920E-02 0.  1.
    10030    2    1    2    0    0  0.00000000000E+00  0.00000000000E+00  0.43324343516E+03  0.11821615809E+04  0.10999118734E+04 0.  0.
        1    1    3    3  502    0  0.14091201521E+03 -0.13643151214E+03  0.76883382737E+03  0.79345775418E+03  0.50400001928E-02 0. -1.
       -1    1    3    3    0  502 -0.14091201521E+03  0.13643151214E+03 -0.33559039221E+03  0.38870382672E+03  0.50400001928E-02 0.  1.
</event>
<event>
 5   0  0.3320192E-03  0.1091092E+04  0.7818609E-02  0.9213918E-01
       -1   -1    0    0    0  501  0.00000000000E+00  0.00000000000E+00  0.25450515546E+03  0.25450515551E+03  0.50400001928E-02 0. -1.
        1   -1    0    0  501    0  0.00000000000E+00  0.00000000000E+00 -0.11694072389E+04  0.11694072389E+04  0.50400001928E-02 0.  1.
    10030    2    1    2    0    0  0.00000000000E+00  0.00000000000E+00 -0.91490208343E+03  0.14239123944E+04  0.10910915107E+04 0.  0.
        2    1    3    3  502    0 -0.35650241851E+03  0.31085511290E+03 -0.10269443772E+03  0.48401551955E+03  0.25500000920E-02 0. -1.
       -2    1    3    3    0  502  0.35650241851E+03 -0.31085511290E+03 -0.81220764571E+03  0.93989687486E+03  0.25500000920E-02 0.  1.
</event>
<event>
 5   0  0.3215352E-03  0.1109070E+04  0.7818609E-02  0.9196396E-01
        1   -1    0    0  501    0  0.00000000000E+00  0.00000000000E+00  0.89642032864E+03  0.89642032865E+03  0.50400001928E-02 0.  1.
       -1   -1    0    0    0  501  0.00000000000E+00  0.00000000000E+00 -0.34304125658E+03  0.34304125662E+03  0.50400001928E-02 0. -1.
    10030    2    1    2    0    0  0.00000000000E+00  0.00000000000E+00  0.55337907206E+03  0.12394615853E+04  0.11090701619E+04 0.  0.
        1    1    3    3  502    0 -0.18829900168E+03 -0.48540046630E+03  0.63356826572E+02  0.52448471304E+03  0.50400001928E-02 0. -1.
       -1    1    3    3    0  502  0.18829900168E+03  0.48540046630E+03  0.49002224549E+03  0.71497687223E+03  0.50400001928E-02 0.  1.
</event>
<event>
 5   0  0.3215352E-03  0.1194207E+04  0.7818609E-02  0.9117942E-01
       -1   -1    0    0    0  501  0.00000000000E+00  0.00000000000E+00  0.84334891217E+03  0.84334891218E+03  0.50400001928E-02 0. -1.
        1   -1    0    0  501    0  0.00000000000E+00  0.00000000000E+00 -0.42275840455E+03  0.42275840458E+03  0.50400001928E-02 0.  1.
    10030    2    1    2    0    0  0.00000000000E+00  0.00000000000E+00  0.42059050762E+03  0.12661073168E+04  0.11942074202E+04 0.  0.
        1    1    3    3  502    0 -0.53151908953E+03  0.27205472026E+03  0.20758658809E+03  0.63215386175E+03  0.50400001928E-02 0.  1.
       -1    1    3    3    0  502  0.53151908953E+03 -0.27205472026E+03  0.21300391954E+03  0.63395345501E+03  0.50400001928E-02 0. -1.
</event>
<event>
 5   0  0.3215352E-03  0.1115178E+04  0.7818609E-02  0.9190523E-01
       -1   -1    0    0    0  501  0.00000000000E+00  0.00000000000E+00  0.24149741246E+03  0.24149741251E+03  0.50400001928E-02 0.  1.
        1   -1    0    0  501    0  0.00000000000E+00  0.00000000000E+00 -0.12874069233E+04  0.12874069233E+04  0.50400001928E-02 0. -1.
    10030    2    1    2    0    0  0.00000000000E+00  0.00000000000E+00 -0.10459095108E+04  0.15289043358E+04  0.11151779065E+04 0.  0.
        1    1    3    3  502    0 -0.11086738428E+03  0.30347480357E+03  0.10008242155E+03  0.33823811793E+03  0.50400001928E-02 0.  1.
       -1    1    3    3    0  502  0.11086738428E+03 -0.30347480357E+03 -0.11459919324E+04  0.11906662179E+04  0.50400001928E-02 0. -1.
</event>
<event>
 5   0  0.3215352E-03  0.1104952E+04  0.7818609E-02  0.9200379E-01
        1   -1    0    0  501    0  0.00000000000E+00  0.00000000000E+00  0.65664116716E+03  0.65664116718E+03  0.50400001928E-02 0.  1.
       -1   -1    0    0    0  501  0.00000000000E+00  0.00000000000E+00 -0.46483478811E+03  0.46483478814E+03  0.50400001928E-02 0. -1.
    10030    2    1    2    0    0  0.00000000000E+00  0.00000000000E+00  0.19180637905E+03  0.11214759553E+04  0.11049518683E+04 0.  0.
        1    1    3    3  502    0  0.32113545968E+03 -0.84942891711E+02 -0.35215802304E+03  0.48410593007E+03  0.50400001928E-02 0. -1.
       -1    1    3    3    0  502 -0.32113545968E+03  0.84942891711E+02  0.54396440209E+03  0.63737002525E+03  0.50400001928E-02 0.  1.
</event>
<event>
 5   0  0.3320192E-03  0.1080963E+04  0.7818609E-02  0.9223948E-01
        1   -1    0    0  501    0  0.00000000000E+00  0.00000000000E+00  0.14293657488E+04  0.14293657488E+04  0.50400001928E-02 0.  1.
       -1   -1    0    0    0  501  0.00000000000E+00  0.00000000000E+00 -0.20437038219E+03  0.20437038225E+03  0.50400001928E-02 0. -1.
    10030    2    1    2    0    0  0.00000000000E+00  0.00000000000E+00  0.12249953666E+04  0.16337361310E+04  0.10809625792E+04 0.  0.
        2    1    3    3  502    0  0.46237107013E+03 -0.11209411428E+03  0.22490253502E+03  0.52624447476E+03  0.25500000920E-02 0. -1.
       -2    1    3    3    0  502 -0.46237107013E+03  0.11209411428E+03  0.10000928316E+04  0.11074916563E+04  0.25500000920E-02 0.  1.
</event>
<event>
 5   0  0.3215352E-03  0.1085563E+04  0.7818609E-02  0.9219379E-01
       -1   -1    0    0    0  501  0.00000000000E+00  0.00000000000E+00  0.32834343160E+03  0.32834343164E+03  0.50400001928E-02 0.  1.
        1   -1    0    0  501    0  0.00000000000E+00  0.00000000000E+00 -0.89726661233E+03  0.89726661235E+03  0.50400001928E-02 0. -1.
    10030    2    1    2    0    0  0.00000000000E+00  0.00000000000E+00 -0.56892318073E+03  0.12256100440E+04  0.10855627086E+04 0.  0.
        1    1    3    3  502    0  0.14274904819E+03  0.21744819265E+03 -0.82231392084E+03  0.86247387883E+03  0.50400001928E-02 0. -1.
       -1    1    3    3    0  502 -0.14274904819E+03 -0.21744819265E+03  0.25339074010E+03  0.36313616515E+03  0.50400001928E-02 0.  1.
</event>
<event>
 5   0  0.5627232E-03  0.1113989E+04  0.7818609E-02  0.9191663E-01
        2   -1    0    0  501    0  0.00000000000E+00  0.00000000000E+00  0.16210707710E+04  0.16210707710E+04  0.25500000920E-02 0. -1.
       -2   -1    0    0    0  501  0.00000000000E+00  0.00000000000E+00 -0.19138151219E+03  0.19138151220E+03  0.25500000920E-02 0.  1.
    10030    2    1    2    0    0  0.00000000000E+00  0.00000000000E+00  0.14296892588E+04  0.18124522832E+04  0.11139891840E+04 0.  0.
        2    1    3    3  502    0 -0.37214698815E+03 -0.32208499186E+03  0.11391462764E+04  0.12409215777E+04  0.25500000920E-02 0. -1.
       -2    1    3    3    0  502  0.37214698815E+03  0.32208499186E+03  0.29054298238E+03  0.57153070555E+03  0.25500000920E-02 0.  1.
</event>
<event>
 5   0  0.3320192E-03  0.1099776E+04  0.7818609E-02  0.9205410E-01
        1   -1    0    0  501    0  0.00000000000E+00  0.00000000000E+00  0.89815319218E+03  0.89815319219E+03  0.50400001928E-02 0.  1.
       -1   -1    0    0    0  501  0.00000000000E+00  0.00000000000E+00 -0.33666524603E+03  0.33666524607E+03  0.50400001928E-02 0. -1.
    10030    2    1    2    0    0  0.00000000000E+00  0.00000000000E+00  0.56148794615E+03  0.12348184383E+04  0.10997762781E+04 0.  0.
        2    1    3    3  502    0  0.25227373051E+03  0.36733960953E+03 -0.80990750655E+02  0.45292375245E+03  0.25500000920E-02 0. -1.
       -2    1    3    3    0  502 -0.25227373051E+03 -0.36733960953E+03  0.64247869680E+03  0.78189468581E+03  0.25500000920E-02 0.  1.
</event>
<event>
 5   0  0.3241189E-03  0.1067526E+04  0.7818609E-02  0.9237434E-01
        1   -1    0    0  501    0  0.00000000000E+00  0.00000000000E+00  0.17227441306E+04  0.17227441306E+04  0.50400001928E-02 0.  1.
       -1   -1    0    0    0  501  0.00000000000E+00  0.00000000000E+00 -0.16537749300E+03  0.16537749308E+03  0.50400001928E-02 0. -1.
    10030    2    1    2    0    0  0.00000000000E+00  0.00000000000E+00  0.15573666376E+04  0.18881216237E+04  0.10675263097E+04 0.  0.
        5    1    3    3  502    0  0.18648656987E+03  0.48652630755E+03  0.98339270764E+03  0.11129098778E+04  0.46999998093E+01 0. -1.
       -5    1    3    3    0  502 -0.18648656987E+03 -0.48652630755E+03  0.57397392996E+03  0.77521174588E+03  0.46999998093E+01 0.  1.
</event>
<event>
 5   0  0.5723194E-03  0.1101088E+04  0.7818609E-02  0.9204132E-01
       -2   -1    0    0    0  501  0.00000000000E+00  0.00000000000E+00  0.34125667559E+03  0.34125667560E+03  0.25500000920E-02 0. -1.
        2   -1    0    0  501    0  0.00000000000E+00  0.00000000000E+00 -0.88818455774E+03  0.88818455774E+03  0.25500000920E-02 0.  1.
    10030    2    1    2    0    0  0.00000000000E+00  0.00000000000E+00 -0.54692788214E+03  0.12294412333E+04  0.11010883879E+04 0.  0.
        1    1    3    3  502    0  0.10024612198E+03 -0.25863205982E+03 -0.80446160247E+03  0.85093965545E+03  0.50400001928E-02 0.  1.
       -1    1    3    3    0  502 -0.10024612198E+03  0.25863205982E+03  0.25753372033E+03  0.37850157789E+03  0.50400001928E-02 0. -1.
</event>
<event>
 5   0  0.5723194E-03  0.1021994E+04  0.7818609E-02  0.9284746E-01
        2   -1    0    0  501    0  0.00000000000E+00  0.00000000000E+00  0.11902643367E+04  0.11902643367E+04  0.25500000920E-02 0. -1.
       -2   -1    0    0    0  501  0.00000000000E+00  0.00000000000E+00 -0.21937794147E+03  0.21937794148E+03  0.25500000920E-02 0.  1.
    10030    2    1    2    0    0  0.00000000000E+00  0.00000000000E+00  0.97088639526E+03  0.14096422782E+04  0.10219936203E+04 0.  0.
        1    1    3    3  502    0  0.40906321669E+03  0.15975317586E+03  0.84581967129E+03  0.95302922768E+03  0.50400001928E-02 0. -1.
       -1    1    3    3    0  502 -0.40906321669E+03 -0.15975317586E+03  0.12506672397E+03  0.45661305053E+03  0.50400001928E-02 0.  1.
</event>
<event>
 5   0  0.5627232E-03  0.1097767E+04  0.7818609E-02  0.9207371E-01
       -2   -1    0    0    0  501  0.00000000000E+00  0.00000000000E+00  0.25883857649E+03  0.25883857650E+03  0.25500000920E-02 0.  1.
        2   -1    0    0  501    0  0.00000000000E+00  0.00000000000E+00 -0.11639414739E+04  0.11639414739E+04  0.25500000920E-02 0. -1.
    10030    2    1    2    0    0  0.00000000000E+00  0.00000000000E+00 -0.90510289744E+03  0.14227800504E+04  0.10977667407E+04 0.  0.
        2    1    3    3  502    0  0.53122342054E+02 -0.19725312234E+03  0.20773391370E+03  0.29134885688E+03  0.25500000920E-02 0.  1.
       -2    1    3    3    0  502 -0.53122342054E+02  0.19725312234E+03 -0.11128368111E+04  0.11314311936E+04  0.25500000920E-02 0. -1.
</event>
<event>
 5   0  0.5941585E-03  0.1091544E+04  0.7818609E-02  0.9213473E-01
       -2   -1    0    0    0  501  0.00000000000E+00  0.00000000000E+00  0.62307995940E+03  0.62307995941E+03  0.25500000920E-02 0. -1.
        2   -1    0    0  501    0  0.00000000000E+00  0.00000000000E+00 -0.47805571419E+03  0.47805571420E+03  0.25500000920E-02 0.  1.
    10030    2    1    2    0    0  0.00000000000E+00  0.00000000000E+00  0.14502424521E+03  0.11011356736E+04  0.10915437417E+04 0.  0.
        5    1    3    3  502    0  0.18234893674E+03 -0.14607455558E+03 -0.42503178288E+03  0.48503919117E+03  0.46999998093E+01 0.  1.
       -5    1    3    3    0  502 -0.18234893674E+03  0.14607455558E+03  0.57005602809E+03  0.61609648244E+03  0.46999998093E+01 0. -1.
</event>
<event>
 5   0  0.3316784E-03  0.1104177E+04  0.7818609E-02  0.9201130E-01
        1   -1    0    0  501    0  0.00000000000E+00  0.00000000000E+00  0.38799689879E+03  0.38799689882E+03  0.50400001928E-02 0. -1.
       -1   -1    0    0    0  501  0.00000000000E+00  0.00000000000E+00 -0.78557793377E+03  0.78557793378E+03  0.50400001928E-02 0.  1.
    10030    2    1    2    0    0  0.00000000000E+00  0.00000000000E+00 -0.39758103498E+03  0.11735748326E+04  0.11041771635E+04 0.  0.
        4    1    3    3  502    0  0.79267800281E+02  0.52704291600E+03 -0.45715856623E+02  0.53492912793E+03  0.12699999809E+01 0. -1.
       -4    1    3    3    0  502 -0.79267800281E+02 -0.52704291600E+03 -0.35186517835E+03  0.63864570468E+03  0.12699999809E+01 0.  1.
</event>
<event>
 5   0  0.5723194E-03  0.1080980E+04  0.7818609E-02  0.9223930E-01
        2   -1    0    0  501    0  0.00000000000E+00  0.00000000000E+00  0.31058022579E+03  0.31058022580E+03  0.25500000920E-02 0. -1.
       -2   -1    0    0    0  501  0.00000000000E+00  0.00000000000E+00 -0.94059321668E+03  0.94059321669E+03  0.25500000920E-02 0.  1.
    10030    2    1    2    0    0  0.00000000000E+00  0.00000000000E+00 -0.63001299089E+03  0.12511734425E+04  0.10809803951E+04 0.  0.
        1    1    3    3  502    0  0.41605141472E+02 -0.28050275265E+03 -0.84757739699E+03  0.89375624527E+03  0.50400001928E-02 0.  1.
       -1    1    3    3    0  502 -0.41605141472E+02  0.28050275265E+03  0.21756440610E+03  0.35741719722E+03  0.50400001928E-02 0. -1.
</event>
<event>
 5   0  0.3215352E-03  0.1118282E+04  0.7818609E-02  0.9187554E-01
       -1   -1    0    0    0  501  0.00000000000E+00  0.00000000000E+00  0.40007534150E+03  0.40007534153E+03  0.50400001928E-02 0.  1.
        1   -1    0    0  501    0  0.00000000000E+00  0.00000000000E+00 -0.78145002362E+03  0.78145002364E+03  0.50400001928E-02 0. -1.
    10030    2    1    2    0    0  0.00000000000E+00  0.00000000000E+00 -0.38137468212E+03  0.11815253652E+04  0.11182824064E+04 0.  0.
        1    1    3    3  502    0 -0.24292132009E+02  0.40270168176E+03 -0.59972528057E+03  0.72279261504E+03  0.50400001928E-02 0. -1.
       -1    1    3    3    0  502  0.24292132009E+02 -0.40270168176E+03  0.21835059845E+03  0.45873275013E+03  0.50400001928E-02 0.  1.
</event>
<event>
 5   0  0.3320192E-03  0.1087908E+04  0.7818609E-02  0.9217059E-01
        1   -1    0    0  501    0  0.00000000000E+00  0.00000000000E+00  0.91293180266E+03  0.91293180267E+03  0.50400001928E-02 0. -1.
       -1   -1    0    0    0  501  0.00000000000E+00  0.00000000000E+00 -0.32410493911E+03  0.32410493915E+03  0.50400001928E-02 0.  1.
    10030    2    1    2    0    0  0.00000000000E+00  0.00000000000E+00  0.58882686354E+03  0.12370367418E+04  0.10879075445E+04 0.  0.
        2    1    3    3  502    0 -0.52720929079E+03  0.10448298972E+03  0.19914701515E+03  0.57317175880E+03  0.25500000920E-02 0. -1.
       -2    1    3    3    0  502  0.52720929079E+03 -0.10448298972E+03  0.38967984839E+03  0.66386498302E+03  0.25500000920E-02 0.  1.
</event>
<event>
 5   0  0.3215352E-03  0.1112514E+04  0.7818609E-02  0.9193080E-01
       -1   -1    0    0    0  501  0.00000000000E+00  0.00000000000E+00  0.37497420053E+03  0.37497420056E+03  0.50400001928E-02 0. -1.
        1   -1    0    0  501    0  0.00000000000E+00  0.00000000000E+00 -0.82518176203E+03  0.82518176204E+03  0.50400001928E-02 0.  1.
    10030    2    1    2    0    0  0.00000000000E+00  0.00000000000E+00 -0.45020756150E+03  0.12001559626E+04  0.11125140386E+04 0.  0.
        1    1    3    3  502    0 -0.52728091543E+03  0.14385915340E+03 -0.11350756264E+03  0.55821553776E+03  0.50400001928E-02 0. -1.
       -1    1    3    3    0  502  0.52728091543E+03 -0.14385915340E+03 -0.33669999886E+03  0.64194042485E+03  0.50400001928E-02 0.  1.
</event>
<event>
 5   0  0.3241189E-03  0.1093462E+04  0.7818609E-02  0.9211588E-01
        1   -1    0    0  501    0  0.00000000000E+00  0.00000000000E+00  0.42741493406E+03  0.42741493409E+03  0.50400001928E-02 0. -1.
       -1   -1    0    0    0  501  0.00000000000E+00  0.00000000000E+00 -0.69935475967E+03  0.69935475969E+03  0.50400001928E-02 0.  1.
    10030    2    1    2    0    0  0.00000000000E+00  0.00000000000E+00 -0.27193982561E+03  0.11267696938E+04  0.10934617845E+04 0.  0.
        5    1    3    3  502    0  0.19983675917E+03  0.23494492251E+03  0.32917648523E+03  0.45112425711E+03  0.46999998093E+01 0. -1.
       -5    1    3    3    0  502 -0.19983675917E+03 -0.23494492251E+03 -0.60111631084E+03  0.67564543667E+03  0.46999998093E+01 0.  1.
</event>
<event>
 5   0  0.3320192E-03  0.1115797E+04  0.7818609E-02  0.9189930E-01
        1   -1    0    0  501    0  0.00000000000E+00  0.00000000000E+00  0.13620231034E+04  0.13620231034E+04  0.50400001928E-02 0.  1.
       -1   -1    0    0    0  501  0.00000000000E+00  0.00000000000E+00 -0.22852097719E+03  0.22852097724E+03  0.50400001928E-02 0. -1.
    10030    2    1    2    0    0  0.00000000000E+00  0.00000000000E+00  0.11335021262E+04  0.15905440807E+04  0.11157972049E+04 0.  0.
        2    1    3    3  502    0  0.55686390808E+03  0.32328712168E+02  0.58158513236E+03  0.80584354805E+03  0.25500000920E-02 0. -1.
       -2    1    3    3    0  502 -0.55686390808E+03 -0.32328712168E+02  0.55191699387E+03  0.78470053261E+03  0.25500000920E-02 0.  1.
</event>
<event>
 5   0  0.5723194E-03  0.1116695E+04  0.7818609E-02  0.9189070E-01
       -2   -1    0    0    0  501  0.00000000000E+00  0.00000000000E+00  0.47585145769E+03  0.47585145769E+03  0.25500000920E-02 0.  1.
        2   -1    0    0  501    0  0.00000000000E+00  0.00000000000E+00 -0.65514596253E+03  0.65514596254E+03  0.25500000920E-02 0. -1.
    10030    2    1    2    0    0  0.00000000000E+00  0.00000000000E+00 -0.17929450485E+03  0.11309974202E+04  0.11166954129E+04 0.  0.
        1    1    3    3  502    0 -0.49672000704E+03  0.22937373617E+03 -0.20247002344E+03  0.58338425300E+03  0.50400001928E-02 0. -1.
       -1    1    3    3    0  502  0.49672000704E+03 -0.22937373617E+03  0.23175518595E+02  0.54761316723E+03  0.50400001928E-02 0.  1.
</event>
<event>
 5   0  0.5500363E-03  0.1123856E+04  0.7818609E-02  0.9182247E-01
        2   -1    0    0  501    0  0.00000000000E+00  0.00000000000E+00  0.86520345929E+03  0.86520345929E+03  0.25500000920E-02 0.  1.
       -2   -1    0    0    0  501  0.00000000000E+00  0.00000000000E+00 -0.36495817920E+03  0.36495817921E+03  0.25500000920E-02 0. -1.
    10030    2    1    2    0    0  0.00000000000E+00  0.00000000000E+00  0.50024528008E+03  0.12301616385E+04  0.11238560035E+04 0.  0.
        3    1    3    3  502    0  0.97273047696E+02  0.93119161246E+02 -0.34703603944E+03  0.37224621807E+03  0.10100000352E+00 0. -1.
       -3    1    3    3    0  502 -0.97273047696E+02 -0.93119161246E+02  0.84728131952E+03  0.85791542043E+03  0.10100000352E+00 0.  1.
</event>
<event>
 5   0  0.3215352E-03  0.1082425E+04  0.7818609E-02  0.9222493E-01
       -1   -1    0    0    0  501  0.00000000000E+00  0.00000000000E+00  0.32843012349E+03  0.32843012353E+03  0.50400001928E-02 0. -1.
        1   -1    0    0  501    0  0.00000000000E+00  0.00000000000E+00 -0.89185106151E+03  0.89185106153E+03  0.50400001928E-02 0.  1.
    10030    2    1    2    0    0  0.00000000000E+00  0.00000000000E+00 -0.56342093802E+03  0.12202811851E+04  0.10824246012E+04 0.  0.
        1    1    3    3  502    0 -0.30939403433E+03  0.13453936836E+03 -0.75879151476E+03  0.83041560258E+03  0.50400001928E-02 0.  1.
       -1    1    3    3    0  502  0.30939403433E+03 -0.13453936836E+03  0.19537057674E+03  0.38986558247E+03  0.50400001928E-02 0. -1.
</event>
<event>
 5   0  0.3320192E-03  0.1102256E+04  0.7818609E-02  0.9202995E-01
       -1   -1    0    0    0  501  0.00000000000E+00  0.00000000000E+00  0.32909859673E+03  0.32909859677E+03  0.50400001928E-02 0. -1.
        1   -1    0    0  501    0  0.00000000000E+00  0.00000000000E+00 -0.92295224542E+03  0.92295224543E+03  0.50400001928E-02 0.  1.
    10030    2    1    2    0    0  0.00000000000E+00  0.00000000000E+00 -0.59385364869E+03  0.12520508422E+04  0.11022563928E+04 0.  0.
        2    1    3    3  502    0 -0.17429182784E+03 -0.14801366057E+03 -0.86652797936E+03  0.89618994861E+03  0.25500000920E-02 0.  1.
       -2    1    3    3    0  502  0.17429182784E+03  0.14801366057E+03  0.27267433068E+03  0.35586089359E+03  0.25500000920E-02 0. -1.
</event>
<event>
 5   0  0.2185750E-03  0.1094456E+04  0.7818609E-02  0.9210612E-01
       -3   -1    0    0    0  501  0.00000000000E+00  0.00000000000E+00  0.92266901085E+03  0.92266901638E+03  0.10100000352E+00 0.  1.
        3   -1    0    0  501    0  0.00000000000E+00  0.00000000000E+00 -0.32455689098E+03  0.32455690669E+03  0.10100000352E+00 0. -1.
    10030    2    1    2    0    0  0.00000000000E+00  0.00000000000E+00  0.59811211987E+03  0.12472259231E+04  0.10944562098E+04 0.  0.
        3    1    3    3  502    0  0.11039844903E+03  0.53000454612E+03  0.20813208282E+03  0.58001000902E+03  0.10100000352E+00 0. -1.
       -3    1    3    3    0  502 -0.11039844903E+03 -0.53000454612E+03  0.38998003706E+03  0.66721591405E+03  0.10100000352E+00 0.  1.
</event>
<event>
 5   0  0.3215352E-03  0.1124966E+04  0.7818609E-02  0.9181194E-01
       -1   -1    0    0    0  501  0.00000000000E+00  0.00000000000E+00  0.46561972288E+03  0.46561972291E+03  0.50400001928E-02 0. -1.
        1   -1    0    0  501    0  0.00000000000E+00  0.00000000000E+00 -0.67949665193E+03  0.67949665195E+03  0.50400001928E-02 0.  1.
    10030    2    1    2    0    0  0.00000000000E+00  0.00000000000E+00 -0.21387692905E+03  0.11451163749E+04  0.11249658533E+04 0.  0.
        1    1    3    3  502    0  0.45330323758E+03 -0.86867619521E+02 -0.43418927021E+03  0.63367983313E+03  0.50400001928E-02 0.  1.
       -1    1    3    3    0  502 -0.45330323758E+03  0.86867619521E+02  0.22031234116E+03  0.51143654173E+03  0.50400001928E-02 0. -1.
</event>
<event>
 5   0  0.3320192E-03  0.1094229E+04  0.7818609E-02  0.9210835E-01
       -1   -1    0    0    0  501  0.00000000000E+00  0.00000000000E+00  0.37084783680E+03  0.37084783684E+03  0.50400001928E-02 0.  1.
        1   -1    0    0  501    0  0.00000000000E+00  0.00000000000E+00 -0.80716198250E+03  0.80716198252E+03  0.50400001928E-02 0. -1.
    10030    2    1    2    0    0  0.00000000000E+00  0.00000000000E+00 -0.43631414570E+03  0.11780098194E+04  0.10942289983E+04 0.  0.
        2    1    3    3  502    0 -0.95278659538E+02  0.16560274781E+03 -0.77008172905E+03  0.79342810794E+03  0.25500000920E-02 0. -1.
       -2    1    3    3    0  502  0.95278659538E+02 -0.16560274781E+03  0.33376758335E+03  0.38458171141E+03  0.25500000920E-02 0.  1.
</event>
<event>
 5   0  0.3328741E-03  0.1118711E+04  0.7818609E-02  0.9187144E-01
        1   -1    0    0  501    0  0.00000000000E+00  0.00000000000E+00  0.11667413136E+04  0.11667413136E+04  0.50400001928E-02 0.  1.
       -1   -1    0    0    0  501  0.00000000000E+00  0.00000000000E+00 -0.26816467494E+03  0.26816467498E+03  0.50400001928E-02 0. -1.
    10030    2    1    2    0    0  0.00000000000E+00  0.00000000000E+00  0.89857663863E+03  0.14349059886E+04  0.11187114107E+04 0.  0.
        3    1    3    3  502    0  0.20681523558E+03  0.41223930784E+03  0.85522976277E+03  0.97166442043E+03  0.10100000352E+00 0.  1.
       -3    1    3    3    0  502 -0.20681523558E+03 -0.41223930784E+03  0.43346875857E+02  0.46324156813E+03  0.10100000352E+00 0. -1.
</event>
<event>
 5   0  0.5723194E-03  0.1081939E+04  0.7818609E-02  0.9222976E-01
       -2   -1    0    0    0  501  0.00000000000E+00  0.00000000000E+00  0.15036500698E+03  0.15036500701E+03  0.25500000920E-02 0. -1.
        2   -1    0    0  501    0  0.00000000000E+00  0.00000000000E+00 -0.19462514352E+04  0.19462514352E+04  0.25500000920E-02 0.  1.
    10030    2    1    2    0    0  0.00000000000E+00  0.00000000000E+00 -0.17958864282E+04  0.20966164422E+04  0.10819392047E+04 0.  0.
        1    1    3    3  502    0 -0.39193954791E+03 -0.25064640524E+03 -0.36298966614E+03  0.59008620339E+03  0.50400001928E-02 0. -1.
       -1    1    3    3    0  502  0.39193954791E+03  0.25064640524E+03 -0.14328967620E+04  0.15065302388E+04  0.50400001928E-02 0.  1.
</event>
<event>
 5   0  0.3241189E-03  0.1095714E+04  0.7818609E-02  0.9209379E-01
       -1   -1    0    0    0  501  0.00000000000E+00  0.00000000000E+00  0.24512383530E+03  0.24512383536E+03  0.50400001928E-02 0. -1.
        1   -1    0    0  501    0  0.00000000000E+00  0.00000000000E+00 -0.12244720578E+04  0.12244720578E+04  0.50400001928E-02 0.  1.
    10030    2    1    2    0    0  0.00000000000E+00  0.00000000000E+00 -0.97934822248E+03  0.14695958931E+04  0.10957139902E+04 0.  0.
        5    1    3    3  502    0  0.34371496162E+03  0.29475802096E+03 -0.76057783510E+02  0.45916134658E+03  0.46999998093E+01 0. -1.
       -5    1    3    3    0  502 -0.34371496162E+03 -0.29475802096E+03 -0.90329043897E+03  0.10104345466E+04  0.46999998093E+01 0.  1.
</event>
<event>
 5   0  0.5627232E-03  0.1090559E+04  0.7818609E-02  0.9214443E-01
        2   -1    0    0  501    0  0.00000000000E+00  0.00000000000E+00  0.98534981860E+03  0.98534981860E+03  0.25500000920E-02 0.  1.
       -2   -1    0    0    0  501  0.00000000000E+00  0.00000000000E+00 -0.30175035988E+03  0.30175035989E+03  0.25500000920E-02 0. -1.
    10030    2    1    2    0    0  0.00000000000E+00  0.00000000000E+00  0.68359945872E+03  0.12871001785E+04  0.10905588703E+04 0.  0.
        2    1    3    3  502    0 -0.43530068946E+03  0.32807627209E+03  0.32474025963E+03  0.63448953245E+03  0.25500000920E-02 0. -1.
       -2    1    3    3    0  502  0.43530068946E+03 -0.32807627209E+03  0.35885919909E+03  0.65261064604E+03  0.25500000920E-02 0.  1.
</event>
<event>
 5   0  0.3320192E-03  0.1060643E+04  0.7818609E-02  0.9244424E-01
        1   -1    0    0  501    0  0.00000000000E+00  0.00000000000E+00  0.14475460264E+04  0.14475460264E+04  0.50400001928E-02 0. -1.
       -1   -1    0    0    0  501  0.00000000000E+00  0.00000000000E+00 -0.19428814116E+03  0.19428814122E+03  0.50400001928E-02 0.  1.
    10030    2    1    2    0    0  0.00000000000E+00  0.00000000000E+00  0.12532578852E+04  0.16418341676E+04  0.10606432515E+04 0.  0.
        2    1    3    3  502    0  0.38541890454E+03 -0.35991102965E+03  0.71360926472E+03  0.88731159349E+03  0.25500000920E-02 0. -1.
       -2    1    3    3    0  502 -0.38541890454E+03  0.35991102965E+03  0.53964862049E+03  0.75452257411E+03  0.25500000920E-02 0.  1.
</event>
<event>
 5   0  0.5500363E-03  0.1105057E+04  0.7818609E-02  0.9200277E-01
        2   -1    0    0  501    0  0.00000000000E+00  0.00000000000E+00  0.20730027587E+04  0.20730027587E+04  0.25500000920E-02 0.  1.
       -2   -1    0    0    0  501  0.00000000000E+00  0.00000000000E+00 -0.14726845908E+03  0.14726845910E+03  0.25500000920E-02 0. -1.
    10030    2    1    2    0    0  0.00000000000E+00  0.00000000000E+00  0.19257342997E+04  0.22202712178E+04  0.11050573233E+04 0.  0.
        3    1    3    3  502    0 -0.13620326405E+03 -0.21120695725E+03  0.19515202037E+04  0.19676358463E+04  0.10100000352E+00 0.  1.
       -3    1    3    3    0  502  0.13620326405E+03  0.21120695725E+03 -0.25785904012E+02  0.25263537158E+03  0.10100000352E+00 0. -1.
</event>
<event>
 5   0  0.3215352E-03  0.1093690E+04  0.7818609E-02  0.9211364E-01
        1   -1    0    0  501    0  0.00000000000E+00  0.00000000000E+00  0.59098711657E+03  0.59098711659E+03  0.50400001928E-02 0.  1.
       -1   -1    0    0    0  501  0.00000000000E+00  0.00000000000E+00 -0.50599996502E+03  0.50599996504E+03  0.50400001928E-02 0. -1.
    10030    2    1    2    0    0  0.00000000000E+00  0.00000000000E+00  0.84987151555E+02  0.10969870816E+04  0.10936900115E+04 0.  0.
        1    1    3    3  502    0  0.35514626718E+03 -0.18296877882E+03 -0.33203941356E+03  0.51947725388E+03  0.50400001928E-02 0. -1.
       -1    1    3    3    0  502 -0.35514626718E+03  0.18296877882E+03  0.41702656512E+03  0.57750982776E+03  0.50400001928E-02 0.  1.
</event>
<event>
 5   0  0.5500363E-03  0.1116641E+04  0.7818609E-02  0.9189122E-01
       -2   -1    0    0    0  501  0.00000000000E+00  0.00000000000E+00  0.39480840040E+03  0.39480840041E+03  0.25500000920E-02 0. -1.
        2   -1    0    0  501    0  0.00000000000E+00  0.00000000000E+00 -0.78955231664E+03  0.78955231665E+03  0.25500000920E-02 0.  1.
    10030    2    1    2    0    0  0.00000000000E+00  0.00000000000E+00 -0.39474391625E+03  0.11843607171E+04  0.11166411907E+04 0.  0.
        3    1    3    3  502    0  0.13743988797E+03  0.11621024956E+03  0.36319444701E+03  0.40534523736E+03  0.10100000352E+00 0. -1.
       -3    1    3    3    0  502 -0.13743988797E+03 -0.11621024956E+03 -0.75793836325E+03  0.77901547969E+03  0.10100000352E+00 0.  1.
</event>
<event>
 5   0  0.3328741E-03  0.8590253E+03  0.7818609E-02  0.9478303E-01
        1   -1    0    0  501    0  0.00000000000E+00  0.00000000000E+00  0.29042402017E+03  0.29042402021E+03  0.50400001928E-02 0. -1.
       -1   -1    0    0    0  501  0.00000000000E+00  0.00000000000E+00 -0.63521295045E+03  0.63521295047E+03  0.50400001928E-02 0.  1.
    10030    2    1    2    0    0  0.00000000000E+00  0.00000000000E+00 -0.34478893029E+03  0.92563697068E+03  0.85902525868E+03 0.  0.
        3    1    3    3  502    0 -0.36168168884E+03  0.15811904184E+03 -0.35483313245E+03  0.53077475215E+03  0.10100000352E+00 0.  1.
       -3    1    3    3    0  502  0.36168168884E+03 -0.15811904184E+03  0.10044202158E+02  0.39486221854E+03  0.10100000352E+00 0. -1.
</event>
<event>
 5   0  0.3241189E-03  0.1111821E+04  0.7818609E-02  0.9193746E-01
        1   -1    0    0  501    0  0.00000000000E+00  0.00000000000E+00  0.16407981837E+04  0.16407981837E+04  0.50400001928E-02 0.  1.
       -1   -1    0    0    0  501  0.00000000000E+00  0.00000000000E+00 -0.18834521194E+03  0.18834521201E+03  0.50400001928E-02 0. -1.
    10030    2    1    2    0    0  0.00000000000E+00  0.00000000000E+00  0.14524529717E+04  0.18291433957E+04  0.11118209959E+04 0.  0.
        5    1    3    3  502    0  0.29295781482E+03 -0.36603365641E+03  0.23484547576E+03  0.52438478846E+03  0.46999998093E+01 0. -1.
       -5    1    3    3    0  502 -0.29295781482E+03  0.36603365641E+03  0.12176074960E+04  0.13047586072E+04  0.46999998093E+01 0.  1.
</event>
<event>
 5   0  0.3328741E-03  0.1108703E+04  0.7818609E-02  0.9196751E-01
        1   -1    0    0  501    0  0.00000000000E+00  0.00000000000E+00  0.44009552556E+03  0.44009552559E+03  0.50400001928E-02 0.  1.
       -1   -1    0    0    0  501  0.00000000000E+00  0.00000000000E+00 -0.69826976768E+03  0.69826976769E+03  0.50400001928E-02 0. -1.
    10030    2    1    2    0    0  0.00000000000E+00  0.00000000000E+00 -0.25817424211E+03  0.11383652933E+04  0.11087026660E+04 0.  0.
        3    1    3    3  502    0 -0.47102587845E+02 -0.77190277115E+02 -0.69064610140E+03  0.69654076710E+03  0.10100000352E+00 0. -1.
       -3    1    3    3    0  502  0.47102587845E+02  0.77190277115E+02  0.43247185928E+03  0.44182452618E+03  0.10100000352E+00 0.  1.
</event>
<event>
 5   0  0.5941585E-03  0.1093636E+04  0.7818609E-02  0.9211416E-01
       -2   -1    0    0    0  501  0.00000000000E+00  0.00000000000E+00  0.26159571053E+03  0.26159571054E+03  0.25500000920E-02 0.  1.
        2   -1    0    0  501    0  0.00000000000E+00  0.00000000000E+00 -0.11430240481E+04  0.11430240481E+04  0.25500000920E-02 0. -1.
    10030    2    1    2    0    0  0.00000000000E+00  0.00000000000E+00 -0.88142833753E+03  0.14046197586E+04  0.10936364808E+04 0.  0.
        5    1    3    3  502    0  0.36142940309E+03  0.16100253491E+03  0.44009524739E+02  0.39813560244E+03  0.46999998093E+01 0.  1.
       -5    1    3    3    0  502 -0.36142940309E+03 -0.16100253491E+03 -0.92543786227E+03  0.10064841562E+04  0.46999998093E+01 0. -1.
</event>
<event>
 5   0  0.5723194E-03  0.1102886E+04  0.7818609E-02  0.9202384E-01
       -2   -1    0    0    0  501  0.00000000000E+00  0.00000000000E+00  0.37019330377E+03  0.37019330378E+03  0.25500000920E-02 0.  1.
        2   -1    0    0  501    0  0.00000000000E+00  0.00000000000E+00 -0.82143336970E+03  0.82143336971E+03  0.25500000920E-02 0. -1.
    10030    2    1    2    0    0  0.00000000000E+00  0.00000000000E+00 -0.45124006593E+03  0.11916266735E+04  0.11028855479E+04 0.  0.
        1    1    3    3  502    0 -0.51747708783E+03 -0.11390565534E+03 -0.60581000918E+02  0.53331706559E+03  0.50400001928E-02 0.  1.
       -1    1    3    3    0  502  0.51747708783E+03  0.11390565534E+03 -0.39065906501E+03  0.65830960790E+03  0.50400001928E-02 0. -1.
</event>
<event>
 5   0  0.5723194E-03  0.1103759E+04  0.7818609E-02  0.9201536E-01
       -2   -1    0    0    0  501  0.00000000000E+00  0.00000000000E+00  0.19846138567E+03  0.19846138568E+03  0.25500000920E-02 0.  1.
        2   -1    0    0  501    0  0.00000000000E+00  0.00000000000E+00 -0.15346604966E+04  0.15346604966E+04  0.25500000920E-02 0. -1.
    10030    2    1    2    0    0  0.00000000000E+00  0.00000000000E+00 -0.13361991110E+04  0.17331218823E+04  0.11037587575E+04 0.  0.
        1    1    3    3  502    0 -0.25484872934E+03 -0.32411075070E+03 -0.92079702030E+02  0.42246221738E+03  0.50400001928E-02 0.  1.
       -1    1    3    3    0  502  0.25484872934E+03  0.32411075070E+03 -0.12441194089E+04  0.13106596649E+04  0.50400001928E-02 0. -1.
</event>
<event>
 5   0  0.3320192E-03  0.1085227E+04  0.7818609E-02  0.9219711E-01
        1   -1    0    0  501    0  0.00000000000E+00  0.00000000000E+00  0.30692907946E+03  0.30692907950E+03  0.50400001928E-02 0.  1.
       -1   -1    0    0    0  501  0.00000000000E+00  0.00000000000E+00 -0.95927580383E+03  0.95927580384E+03  0.50400001928E-02 0. -1.
    10030    2    1    2    0    0  0.00000000000E+00  0.00000000000E+00 -0.65234672437E+03  0.12662048833E+04  0.10852274222E+04 0.  0.
        2    1    3    3  502    0 -0.26745716363E+03  0.93014899970E+02 -0.86622849695E+03  0.91133798063E+03  0.25500000920E-02 0. -1.
       -2    1    3    3    0  502  0.26745716363E+03 -0.93014899970E+02  0.21388177258E+03  0.35486690272E+03  0.25500000920E-02 0.  1.
</event>
<event>
 5   0  0.2185750E-03  0.1097574E+04  0.7818609E-02  0.9207560E-01
        4   -1    0    0  501    0  0.00000000000E+00  0.00000000000E+00  0.79665242826E+03  0.79665344056E+03  0.12699999809E+01 0.  1.
       -4   -1    0    0    0  501  0.00000000000E+00  0.00000000000E+00 -0.37803833982E+03  0.37804047306E+03  0.12699999809E+01 0. -1.
    10030    2    1    2    0    0  0.00000000000E+00  0.00000000000E+00  0.41861408844E+03  0.11746939136E+04  0.10975737040E+04 0.  0.
        3    1    3    3  502    0  0.12019367903E+03  0.10475137436E+03 -0.35270667547E+03  0.38706766854E+03  0.10100000352E+00 0. -1.
       -3    1    3    3    0  502 -0.12019367903E+03 -0.10475137436E+03  0.77132076391E+03  0.78762624508E+03  0.10100000352E+00 0.  1.
</event>
<event>
 5   0  0.5627232E-03  0.1070630E+04  0.7818609E-02  0.9234300E-01
        2   -1    0    0  501    0  0.00000000000E+00  0.00000000000E+00  0.49370464756E+03  0.49370464756E+03  0.25500000920E-02 0. -1.
       -2   -1    0    0    0  501  0.00000000000E+00  0.00000000000E+00 -0.58043269520E+03  0.58043269520E+03  0.25500000920E-02 0.  1.
    10030    2    1    2    0    0  0.00000000000E+00  0.00000000000E+00 -0.86728047640E+02  0.10741373428E+04  0.10706303176E+04 0.  0.
        2    1    3    3  502    0 -0.35524232672E+03 -0.25200123956E+03 -0.35560782047E+03  0.56227987464E+03  0.25500000920E-02 0.  1.
       -2    1    3    3    0  502  0.35524232672E+03  0.25200123956E+03  0.26887977283E+03  0.51185746813E+03  0.25500000920E-02 0. -1.
</event>
<event>
 5   0  0.3241189E-03  0.1091130E+04  0.7818609E-02  0.9213881E-01
       -1   -1    0    0    0  501  0.00000000000E+00  0.00000000000E+00  0.49180108256E+03  0.49180108259E+03  0.50400001928E-02 0. -1.
        1   -1    0    0  501    0  0.00000000000E+00  0.00000000000E+00 -0.60520629043E+03  0.60520629045E+03  0.50400001928E-02 0.  1.
    10030    2    1    2    0    0  0.00000000000E+00  0.00000000000E+00 -0.11340520786E+03  0.10970073730E+04  0.10911298893E+04 0.  0.
        5    1    3    3  502    0  0.32933730582E+03  0.12185635939E+03 -0.47645239635E+03  0.59189611362E+03  0.46999998093E+01 0. -1.
       -5    1    3    3    0  502 -0.32933730582E+03 -0.12185635939E+03  0.36304718849E+03  0.50511125942E+03  0.46999998093E+01 0.  1.
</event>
<event>
 5   0  0.3316784E-03  0.1079023E+04  0.7818609E-02  0.9225883E-01
        1   -1    0    0  501    0  0.00000000000E+00  0.00000000000E+00  0.36084215223E+03  0.36084215226E+03  0.50400001928E-02 0. -1.
       -1   -1    0    0    0  501  0.00000000000E+00  0.00000000000E+00 -0.80664754511E+03  0.80664754513E+03  0.50400001928E-02 0.  1.
    10030    2    1    2    0    0  0.00000000000E+00  0.00000000000E+00 -0.44580539288E+03  0.11674896974E+04  0.10790225879E+04 0.  0.
        4    1    3    3  502    0  0.78085170309E+02  0.38962167010E+03 -0.61774461010E+03  0.73451504807E+03  0.12699999809E+01 0.  1.
       -4    1    3    3    0  502 -0.78085170309E+02 -0.38962167010E+03  0.17193921722E+03  0.43297464932E+03  0.12699999809E+01 0. -1.
</event>
<event>
 5   0  0.3328741E-03  0.1100897E+04  0.7818609E-02  0.9204318E-01
       -1   -1    0    0    0  501  0.00000000000E+00  0.00000000000E+00  0.33389489916E+03  0.33389489920E+03  0.50400001928E-02 0.  1.
        1   -1    0    0  501    0  0.00000000000E+00  0.00000000000E+00 -0.90745218135E+03  0.90745218137E+03  0.50400001928E-02 0. -1.
    10030    2    1    2    0    0  0.00000000000E+00  0.00000000000E+00 -0.57355728219E+03  0.12413470806E+04  0.11008971880E+04 0.  0.
        3    1    3    3  502    0 -0.35908021691E+03 -0.41664248781E+03 -0.26248779160E+03  0.60945009292E+03  0.10100000352E+00 0. -1.
       -3    1    3    3    0  502  0.35908021691E+03  0.41664248781E+03 -0.31106949059E+03  0.63189698765E+03  0.10100000352E+00 0.  1.
</event>
<event>
 5   0  0.3241189E-03  0.1096459E+04  0.7818609E-02  0.9208650E-01
        1   -1    0    0  501    0  0.00000000000E+00  0.00000000000E+00  0.80374072960E+03  0.80374072962E+03  0.50400001928E-02 0. -1.
       -1   -1    0    0    0  501  0.00000000000E+00  0.00000000000E+00 -0.37394608187E+03  0.37394608190E+03  0.50400001928E-02 0.  1.
    10030    2    1    2    0    0  0.00000000000E+00  0.00000000000E+00  0.42979464773E+03  0.11776868115E+04  0.10964592043E+04 0.  0.
        5    1    3    3  502    0 -0.26516150717E+03  0.29833922908E+03  0.61852444656E+03  0.73614638590E+03  0.46999998093E+01 0. -1.
       -5    1    3    3    0  502  0.26516150717E+03 -0.29833922908E+03 -0.18872979883E+03  0.44154042561E+03  0.46999998093E+01 0.  1.
</event>
<event>
 5   0  0.5627232E-03  0.1042406E+04  0.7818609E-02  0.9263219E-01
       -2   -1    0    0    0  501  0.00000000000E+00  0.00000000000E+00  0.25561146287E+03  0.25561146288E+03  0.25500000920E-02 0.  1.
        2   -1    0    0  501    0  0.00000000000E+00  0.00000000000E+00 -0.10627566992E+04  0.10627566992E+04  0.25500000920E-02 0. -1.
    10030    2    1    2    0    0  0.00000000000E+00  0.00000000000E+00 -0.80714523636E+03  0.13183681621E+04  0.10424064362E+04 0.  0.
        2    1    3    3  502    0 -0.49932373464E+03 -0.14019881140E+03 -0.33818573401E+03  0.61915223442E+03  0.25500000920E-02 0.  1.
       -2    1    3    3    0  502  0.49932373464E+03  0.14019881140E+03 -0.46895950235E+03  0.69921592770E+03  0.25500000920E-02 0. -1.
</event>
<event>
 5   0  0.5627232E-03  0.1149503E+04  0.7818609E-02  0.9158242E-01
        2   -1    0    0  501    0  0.00000000000E+00  0.00000000000E+00  0.65694791081E+03  0.65694791082E+03  0.25500000920E-02 0. -1.
       -2   -1    0    0    0  501  0.00000000000E+00  0.00000000000E+00 -0.50283921752E+03  0.50283921752E+03  0.25500000920E-02 0.  1.
    10030    2    1    2    0    0  0.00000000000E+00  0.00000000000E+00  0.15410869330E+03  0.11597871283E+04  0.11495028028E+04 0.  0.
        2    1    3    3  502    0  0.36253051916E+03  0.43804524452E+03 -0.75238003945E+01  0.56865509859E+03  0.25500000920E-02 0. -1.
       -2    1    3    3    0  502 -0.36253051916E+03 -0.43804524452E+03  0.16163249369E+03  0.59113202975E+03  0.25500000920E-02 0.  1.
</event>
<event>
 5   0  0.3316784E-03  0.1105923E+04  0.7818609E-02  0.9199438E-01
        1   -1    0    0  501    0  0.00000000000E+00  0.00000000000E+00  0.52703178824E+03  0.52703178826E+03  0.50400001928E-02 0.  1.
       -1   -1    0    0    0  501  0.00000000000E+00  0.00000000000E+00 -0.58016736464E+03  0.58016736467E+03  0.50400001928E-02 0. -1.
    10030    2    1    2    0    0  0.00000000000E+00  0.00000000000E+00 -0.53135576408E+02  0.11071991529E+04  0.11059234037E+04 0.  0.
        4    1    3    3  502    0 -0.24637122973E+03 -0.29544621013E+03  0.37110293889E+03  0.53451496711E+03  0.12699999809E+01 0.  1.
       -4    1    3    3    0  502  0.24637122973E+03  0.29544621013E+03 -0.42423851530E+03  0.57268418581E+03  0.12699999809E+01 0. -1.
</event>
<event>
 5   0  0.3215352E-03  0.1112405E+04  0.7818609E-02  0.9193184E-01
       -1   -1    0    0    0  501  0.00000000000E+00  0.00000000000E+00  0.29094550543E+03  0.29094550547E+03  0.50400001928E-02 0.  1.
        1   -1    0    0  501    0  0.00000000000E+00  0.00000000000E+00 -0.10632966944E+04  0.10632966944E+04  0.50400001928E-02 0. -1.
    10030    2    1    2    0    0  0.00000000000E+00  0.00000000000E+00 -0.77235118900E+03  0.13542421999E+04  0.11124053114E+04 0.  0.
        1    1    3    3  502    0 -0.24059709598E+03  0.11852709544E+03 -0.97937021891E+03  0.10154317607E+04  0.50400001928E-02 0. -1.
       -1    1    3    3    0  502  0.24059709598E+03 -0.11852709544E+03  0.20701902991E+03  0.33881043921E+03  0.50400001928E-02 0.  1.
</event>
<event>
 5   0  0.3215352E-03  0.1072697E+04  0.7818609E-02  0.9232219E-01
       -1   -1    0    0    0  501  0.00000000000E+00  0.00000000000E+00  0.28812327657E+03  0.28812327661E+03  0.50400001928E-02 0.  1.
        1   -1    0    0  501    0  0.00000000000E+00  0.00000000000E+00 -0.99842636744E+03  0.99842636745E+03  0.50400001928E-02 0. -1.
    10030    2    1    2    0    0  0.00000000000E+00  0.00000000000E+00 -0.71030309087E+03  0.12865496441E+04  0.10726973039E+04 0.  0.
        1    1    3    3  502    0 -0.40442830065E+03  0.35141366826E+03 -0.32538278184E+03  0.62683951004E+03  0.50400001928E-02 0.  1.
       -1    1    3    3    0  502  0.40442830065E+03 -0.35141366826E+03 -0.38492030903E+03  0.65971013403E+03  0.50400001928E-02 0. -1.
</event>
<event>
 5   0  0.2185750E-03  0.1092181E+04  0.7818609E-02  0.9212846E-01
        3   -1    0    0  501    0  0.00000000000E+00  0.00000000000E+00  0.87239226771E+03  0.87239227355E+03  0.10100000352E+00 0. -1.
       -3   -1    0    0    0  501  0.00000000000E+00  0.00000000000E+00 -0.34183569590E+03  0.34183571082E+03  0.10100000352E+00 0.  1.
    10030    2    1    2    0    0  0.00000000000E+00  0.00000000000E+00  0.53055657181E+03  0.12142279844E+04  0.10921809933E+04 0.  0.
        5    1    3    3  502    0 -0.39966800630E+02  0.43971835728E+03 -0.91942129542E+02  0.45102663343E+03  0.46999998093E+01 0.  1.
       -5    1    3    3    0  502  0.39966800630E+02 -0.43971835728E+03  0.62249870135E+03  0.76320135093E+03  0.46999998093E+01 0. -1.
</event>
<event>
 5   0  0.3241189E-03  0.1100581E+04  0.7818609E-02  0.9204626E-01
        1   -1    0    0  501    0  0.00000000000E+00  0.00000000000E+00  0.48876491030E+03  0.48876491032E+03  0.50400001928E-02 0. -1.
       -1   -1    0    0    0  501  0.00000000000E+00  0.00000000000E+00 -0.61956073745E+03  0.61956073747E+03  0.50400001928E-02 0.  1.
    10030    2    1    2    0    0  0.00000000000E+00  0.00000000000E+00 -0.13079582715E+03  0.11083256478E+04  0.11005808435E+04 0.  0.
        5    1    3    3  502    0  0.43472302685E+02 -0.17597992874E+03  0.45781444714E+03  0.49241743920E+03  0.46999998093E+01 0. -1.
       -5    1    3    3    0  502 -0.43472302685E+02  0.17597992874E+03 -0.58861027429E+03  0.61590820859E+03  0.46999998093E+01 0.  1.
</event>
<event>
 5   0  0.5723194E-03  0.1108046E+04  0.7818609E-02  0.9197385E-01
       -2   -1    0    0    0  501  0.00000000000E+00  0.00000000000E+00  0.22644084578E+03  0.22644084580E+03  0.25500000920E-02 0.  1.
        2   -1    0    0  501    0  0.00000000000E+00  0.00000000000E+00 -0.13555048187E+04  0.13555048187E+04  0.25500000920E-02 0. -1.
    10030    2    1    2    0    0  0.00000000000E+00  0.00000000000E+00 -0.11290639730E+04  0.15819456645E+04  0.11080463124E+04 0.  0.
        1    1    3    3  502    0 -0.37653487215E+03  0.90620575446E+02  0.10763149631E+01  0.38728769296E+03  0.50400001928E-02 0.  1.
       -1    1    3    3    0  502  0.37653487215E+03 -0.90620575446E+02 -0.11301402879E+04  0.11946579716E+04  0.50400001928E-02 0. -1.
</event>
<event>
 5   0  0.5500363E-03  0.9608103E+03  0.7818609E-02  0.9352604E-01
       -2   -1    0    0    0  501  0.00000000000E+00  0.00000000000E+00  0.16698423509E+03  0.16698423511E+03  0.25500000920E-02 0. -1.
        2   -1    0    0  501    0  0.00000000000E+00  0.00000000000E+00 -0.13821010992E+04  0.13821010992E+04  0.25500000920E-02 0.  1.
    10030    2    1    2    0    0  0.00000000000E+00  0.00000000000E+00 -0.12151168641E+04  0.15490853343E+04  0.96081027238E+03 0.  0.
        3    1    3    3  502    0  0.30937513326E+02  0.94200506950E+02 -0.13654250632E+04  0.13690202623E+04  0.10100000352E+00 0.  1.
       -3    1    3    3    0  502 -0.30937513326E+02 -0.94200506950E+02  0.15030819908E+03  0.18006507199E+03  0.10100000352E+00 0. -1.
</event>
<event>
 5   0  0.5723194E-03  0.1101169E+04  0.7818609E-02  0.9204053E-01
       -2   -1    0    0    0  501  0.00000000000E+00  0.00000000000E+00  0.51141701489E+03  0.51141701490E+03  0.25500000920E-02 0. -1.
        2   -1    0    0  501    0  0.00000000000E+00  0.00000000000E+00 -0.59275212337E+03  0.59275212337E+03  0.25500000920E-02 0.  1.
    10030    2    1    2    0    0  0.00000000000E+00  0.00000000000E+00 -0.81335108474E+02  0.11041691383E+04  0.11011694175E+04 0.  0.
        1    1    3    3  502    0 -0.52681469549E+03  0.15702138623E+03 -0.96951871864E+01  0.54980308820E+03  0.50400001928E-02 0. -1.
       -1    1    3    3    0  502  0.52681469549E+03 -0.15702138623E+03 -0.71639921288E+02  0.55436605007E+03  0.50400001928E-02 0.  1.
</event>
<event>
 5   0  0.5500363E-03  0.1102738E+04  0.7818609E-02  0.9202527E-01
        2   -1    0    0  501    0  0.00000000000E+00  0.00000000000E+00  0.68406964219E+03  0.68406964219E+03  0.25500000920E-02 0.  1.
       -2   -1    0    0    0  501  0.00000000000E+00  0.00000000000E+00 -0.44441050520E+03  0.44441050521E+03  0.25500000920E-02 0. -1.
    10030    2    1    2    0    0  0.00000000000E+00  0.00000000000E+00  0.23965913698E+03  0.11284801474E+04  0.11027379295E+04 0.  0.
        3    1    3    3  502    0 -0.24576889326E+03 -0.33341908331E+03  0.49224393567E+03  0.64333096958E+03  0.10100000352E+00 0.  1.
       -3    1    3    3    0  502  0.24576889326E+03  0.33341908331E+03 -0.25258479869E+03  0.48514917782E+03  0.10100000352E+00 0. -1.
</event>
<event>
 5   0  0.5941585E-03  0.1109952E+04  0.7818609E-02  0.9195546E-01
       -2   -1    0    0    0  501  0.00000000000E+00  0.00000000000E+00  0.53102904638E+03  0.53102904639E+03  0.25500000920E-02 0. -1.
        2   -1    0    0  501    0  0.00000000000E+00  0.00000000000E+00 -0.58000267624E+03  0.58000267625E+03  0.25500000920E-02 0.  1.
    10030    2    1    2    0    0  0.00000000000E+00  0.00000000000E+00 -0.48973629859E+02  0.11110317226E+04  0.11099518333E+04 0.  0.
        5    1    3    3  502    0  0.33967135104E+03 -0.18629127596E+03 -0.42223359180E+03  0.57304830709E+03  0.46999998093E+01 0.  1.
       -5    1    3    3    0  502 -0.33967135104E+03  0.18629127596E+03  0.37325996195E+03  0.53798341555E+03  0.46999998093E+01 0. -1.
</event>
<event>
 5   0  0.2185750E-03  0.1098927E+04  0.7818609E-02  0.9206239E-01
        4   -1    0    0  501    0  0.00000000000E+00  0.00000000000E+00  0.30374601773E+03  0.30374867274E+03  0.12699999809E+01 0. -1.
       -4   -1    0    0    0  501  0.00000000000E+00  0.00000000000E+00 -0.99394791060E+03  0.99394872196E+03  0.12699999809E+01 0.  1.
    10030    2    1    2    0    0  0.00000000000E+00  0.00000000000E+00 -0.69020189286E+03  0.12976973947E+04  0.10989266924E+04 0.  0.
        1    1    3    3  502    0  0.34280734225E+03  0.22530229819E+03 -0.77677892541E+03  0.87844379357E+03  0.50400001928E-02 0.  1.
       -1    1    3    3    0  502 -0.34280734225E+03 -0.22530229819E+03  0.86577032549E+02  0.41925360113E+03  0.50400001928E-02 0. -1.
</event>
<event>
 5   0  0.3328741E-03  0.1097967E+04  0.7818609E-02  0.9207176E-01
        1   -1    0    0  501    0  0.00000000000E+00  0.00000000000E+00  0.56242676718E+03  0.56242676720E+03  0.50400001928E-02 0.  1.
       -1   -1    0    0    0  501  0.00000000000E+00  0.00000000000E+00 -0.53586117110E+03  0.53586117112E+03  0.50400001928E-02 0. -1.
    10030    2    1    2    0    0  0.00000000000E+00  0.00000000000E+00  0.26565596081E+02  0.10982879383E+04  0.10979666045E+04 0.  0.
        3    1    3    3  502    0  0.12969375944E+02  0.26053009789E+03 -0.46990983255E+03  0.53745641455E+03  0.10100000352E+00 0. -1.
       -3    1    3    3    0  502 -0.12969375944E+02 -0.26053009789E+03  0.49647542863E+03  0.56083152377E+03  0.10100000352E+00 0.  1.
</event>
<event>
 5   0  0.5723194E-03  0.1073244E+04  0.7818609E-02  0.9231670E-01
        2   -1    0    0  501    0  0.00000000000E+00  0.00000000000E+00  0.18439734915E+04  0.18439734915E+04  0.25500000920E-02 0. -1.
       -2   -1    0    0    0  501  0.00000000000E+00  0.00000000000E+00 -0.15616441905E+03  0.15616441907E+03  0.25500000920E-02 0.  1.
    10030    2    1    2    0    0  0.00000000000E+00  0.00000000000E+00  0.16878090724E+04  0.20001379106E+04  0.10732437730E+04 0.  0.
        1    1    3    3  502    0  0.80408439326E+02 -0.16863752854E+03 -0.93597858529E+02  0.20896098271E+03  0.50400001928E-02 0.  1.
       -1    1    3    3    0  502 -0.80408439326E+02  0.16863752854E+03  0.17814069310E+04  0.17911769278E+04  0.50400001928E-02 0. -1.
</event>
<event>
 5   0  0.3328741E-03  0.1155065E+04  0.7818609E-02  0.9153124E-01
       -1   -1    0    0    0  501  0.00000000000E+00  0.00000000000E+00  0.59271861229E+03  0.59271861231E+03  0.50400001928E-02 0. -1.
        1   -1    0    0  501    0  0.00000000000E+00  0.00000000000E+00 -0.56273503111E+03  0.56273503113E+03  0.50400001928E-02 0.  1.
    10030    2    1    2    0    0  0.00000000000E+00  0.00000000000E+00  0.29983581179E+02  0.11554536434E+04  0.11550645467E+04 0.  0.
        3    1    3    3  502    0  0.52478899865E+03  0.13956050935E+03  0.21168683409E+03  0.58283098305E+03  0.10100000352E+00 0. -1.
       -3    1    3    3    0  502 -0.52478899865E+03 -0.13956050935E+03 -0.18170325291E+03  0.57262266039E+03  0.10100000352E+00 0.  1.
</event>
<event>
 5   0  0.3320192E-03  0.1090697E+04  0.7818609E-02  0.9214307E-01
       -1   -1    0    0    0  501  0.00000000000E+00  0.00000000000E+00  0.19117593488E+03  0.19117593495E+03  0.50400001928E-02 0. -1.
        1   -1    0    0  501    0  0.00000000000E+00  0.00000000000E+00 -0.15556601404E+04  0.15556601404E+04  0.50400001928E-02 0.  1.
    10030    2    1    2    0    0  0.00000000000E+00  0.00000000000E+00 -0.13644842055E+04  0.17468360754E+04  0.10906966247E+04 0.  0.
        2    1    3    3  502    0 -0.30291529385E+03 -0.22337679858E+03 -0.50176598753E+02  0.37970061952E+03  0.25500000920E-02 0. -1.
       -2    1    3    3    0  502  0.30291529385E+03  0.22337679858E+03 -0.13143076068E+04  0.13671354559E+04  0.25500000920E-02 0.  1.
</event>
<event>
 5   0  0.3316784E-03  0.1102672E+04  0.7818609E-02  0.9202591E-01
       -1   -1    0    0    0  501  0.00000000000E+00  0.00000000000E+00  0.34162441800E+03  0.34162441804E+03  0.50400001928E-02 0. -1.
        1   -1    0    0  501    0  0.00000000000E+00  0.00000000000E+00 -0.88978284287E+03  0.88978284289E+03  0.50400001928E-02 0.  1.
    10030    2    1    2    0    0  0.00000000000E+00  0.00000000000E+00 -0.54815842487E+03  0.12314072609E+04  0.11026722920E+04 0.  0.
        4    1    3    3  502    0  0.26286040740E+03 -0.19300935942E+03  0.22236744707E+03  0.39471141486E+03  0.12699999809E+01 0. -1.
       -4    1    3    3    0  502 -0.26286040740E+03  0.19300935942E+03 -0.77052587194E+03  0.83669584607E+03  0.12699999809E+01 0.  1.
</event>
<event>
 5   0  0.5946359E-03  0.1062897E+04  0.7818609E-02  0.9242129E-01
        2   -1    0    0  501    0  0.00000000000E+00  0.00000000000E+00  0.12822115317E+04  0.12822115317E+04  0.25500000920E-02 0. -1.
       -2   -1    0    0    0  501  0.00000000000E+00  0.00000000000E+00 -0.22027389527E+03  0.22027389529E+03  0.25500000920E-02 0.  1.
    10030    2    1    2    0    0  0.00000000000E+00  0.00000000000E+00  0.10619376364E+04  0.15024854270E+04  0.10628974149E+04 0.  0.
        4    1    3    3  502    0  0.48300037880E+03  0.17885625053E+03  0.34581101613E+03  0.62037552825E+03  0.12699999809E+01 0.  1.
       -4    1    3    3    0  502 -0.48300037880E+03 -0.17885625053E+03  0.71612662032E+03  0.88210989876E+03  0.12699999809E+01 0. -1.
</event>
<event>
 5   0  0.3241189E-03  0.1083344E+04  0.7818609E-02  0.9221580E-01
       -1   -1    0    0    0  501  0.00000000000E+00  0.00000000000E+00  0.73082905874E+03  0.73082905875E+03  0.50400001928E-02 0.  1.
        1   -1    0    0  501    0  0.00000000000E+00  0.00000000000E+00 -0.40147357263E+03  0.40147357266E+03  0.50400001928E-02 0. -1.
    10030    2    1    2    0    0  0.00000000000E+00  0.00000000000E+00  0.32935548610E+03  0.11323026314E+04  0.10833439956E+04 0.  0.
        5    1    3    3  502    0 -0.12613333808E+02  0.86922847736E+02 -0.39395940340E+03  0.40365923645E+03  0.46999998093E+01 0. -1.
       -5    1    3    3    0  502  0.12613333808E+02 -0.86922847736E+02  0.72331488951E+03  0.72864339497E+03  0.46999998093E+01 0.  1.
</event>
<event>
 5   0  0.3241189E-03  0.1098572E+04  0.7818609E-02  0.9206585E-01
       -1   -1    0    0    0  501  0.00000000000E+00  0.00000000000E+00  0.48980263987E+03  0.48980263990E+03  0.50400001928E-02 0. -1.
        1   -1    0    0  501    0  0.00000000000E+00  0.00000000000E+00 -0.61599315311E+03  0.61599315313E+03  0.50400001928E-02 0.  1.
    10030    2    1    2    0    0  0.00000000000E+00  0.00000000000E+00 -0.12619051324E+03  0.11057957930E+04  0.10985719322E+04 0.  0.
        5    1    3    3  502    0 -0.29057155878E+03  0.42986371686E+03  0.11830726697E+03  0.53219671669E+03  0.46999998093E+01 0. -1.
       -5    1    3    3    0  502  0.29057155878E+03 -0.42986371686E+03 -0.24449778021E+03  0.57359907633E+03  0.46999998093E+01 0.  1.
</event>
<event>
 5   0  0.3241189E-03  0.1096628E+04  0.7818609E-02  0.9208485E-01
        1   -1    0    0  501    0  0.00000000000E+00  0.00000000000E+00  0.49040192591E+03  0.49040192593E+03  0.50400001928E-02 0. -1.
       -1   -1    0    0    0  501  0.00000000000E+00  0.00000000000E+00 -0.61306444561E+03  0.61306444563E+03  0.50400001928E-02 0.  1.
    10030    2    1    2    0    0  0.00000000000E+00  0.00000000000E+00 -0.12266251970E+03  0.11034663716E+04  0.10966275299E+04 0.  0.
        5    1    3    3  502    0 -0.78745048290E+02  0.53390336802E+03  0.36083145650E+02  0.54090449472E+03  0.46999998093E+01 0.  1.
       -5    1    3    3    0  502  0.78745048290E+02 -0.53390336802E+03 -0.15874566535E+03  0.56256187685E+03  0.46999998093E+01 0. -1.
</event>
<event>
 5   0  0.5941585E-03  0.1109211E+04  0.7818609E-02  0.9196261E-01
        2   -1    0    0  501    0  0.00000000000E+00  0.00000000000E+00  0.55102515487E+03  0.55102515487E+03  0.25500000920E-02 0. -1.
       -2   -1    0    0    0  501  0.00000000000E+00  0.00000000000E+00 -0.55820889868E+03  0.55820889869E+03  0.25500000920E-02 0.  1.
    10030    2    1    2    0    0  0.00000000000E+00  0.00000000000E+00 -0.71837438138E+01  0.11092340536E+04  0.11092107912E+04 0.  0.
        5    1    3    3  502    0 -0.33039939248E+03  0.32064261812E+03 -0.31277404666E+03  0.55661938645E+03  0.46999998093E+01 0.  1.
       -5    1    3    3    0  502  0.33039939248E+03 -0.32064261812E+03  0.30559030285E+03  0.55261466711E+03  0.46999998093E+01 0. -1.
</event>
<event>
 5   0  0.5723194E-03  0.1094355E+04  0.7818609E-02  0.9210711E-01
        2   -1    0    0  501    0  0.00000000000E+00  0.00000000000E+00  0.19215772251E+04  0.19215772251E+04  0.25500000920E-02 0.  1.
       -2   -1    0    0    0  501  0.00000000000E+00  0.00000000000E+00 -0.15581124766E+03  0.15581124769E+03  0.25500000920E-02 0. -1.
    10030    2    1    2    0    0  0.00000000000E+00  0.00000000000E+00  0.17657659774E+04  0.20773884728E+04  0.10943552347E+04 0.  0.
        1    1    3    3  502    0 -0.36714467086E+03 -0.38378042791E+03  0.11327117027E+04  0.12510469326E+04  0.50400001928E-02 0.  1.
       -1    1    3    3    0  502  0.36714467086E+03  0.38378042791E+03  0.63305427473E+03  0.82634154015E+03  0.50400001928E-02 0. -1.
</event>
<event>
 5   0  0.3320192E-03  0.1103027E+04  0.7818609E-02  0.9202246E-01
       -1   -1    0    0    0  501  0.00000000000E+00  0.00000000000E+00  0.73217573471E+03  0.73217573473E+03  0.50400001928E-02 0. -1.
        1   -1    0    0  501    0  0.00000000000E+00  0.00000000000E+00 -0.41542948996E+03  0.41542948999E+03  0.50400001928E-02 0.  1.
    10030    2    1    2    0    0  0.00000000000E+00  0.00000000000E+00  0.31674624475E+03  0.11476052247E+04  0.11030274558E+04 0.  0.
        2    1    3    3  502    0  0.30500064912E+03  0.24401118635E+03  0.56346782493E+03  0.68561129277E+03  0.25500000920E-02 0. -1.
       -2    1    3    3    0  502 -0.30500064912E+03 -0.24401118635E+03 -0.24672158018E+03  0.46199393195E+03  0.25500000920E-02 0.  1.
</event>
<event>
 5   0  0.2185750E-03  0.1101382E+04  0.7818609E-02  0.9203846E-01
       -4   -1    0    0    0  501  0.00000000000E+00  0.00000000000E+00  0.90400905547E+03  0.90400994755E+03  0.12699999809E+01 0. -1.
        4   -1    0    0  501    0  0.00000000000E+00  0.00000000000E+00 -0.33545951095E+03  0.33546191496E+03  0.12699999809E+01 0.  1.
    10030    2    1    2    0    0  0.00000000000E+00  0.00000000000E+00  0.56854954452E+03  0.12394718625E+04  0.11013818200E+04 0.  0.
        1    1    3    3  502    0  0.25974039743E+03  0.58051738445E+02 -0.25827622010E+03  0.37086612718E+03  0.50400001928E-02 0.  1.
       -1    1    3    3    0  502 -0.25974039743E+03 -0.58051738445E+02  0.82682576462E+03  0.86860573533E+03  0.50400001928E-02 0. -1.
</event>
<event>
 5   0  0.5723194E-03  0.1092368E+04  0.7818609E-02  0.9212662E-01
       -2   -1    0    0    0  501  0.00000000000E+00  0.00000000000E+00  0.16521469435E+03  0.16521469437E+03  0.25500000920E-02 0. -1.
        2   -1    0    0  501    0  0.00000000000E+00  0.00000000000E+00 -0.18056335518E+04  0.18056335518E+04  0.25500000920E-02 0.  1.
    10030    2    1    2    0    0  0.00000000000E+00  0.00000000000E+00 -0.16404188575E+04  0.19708482462E+04  0.10923684276E+04 0.  0.
        1    1    3    3  502    0 -0.13697035807E+03  0.29462145613E+03 -0.16123209397E+04  0.16447314352E+04  0.50400001928E-02 0.  1.
       -1    1    3    3    0  502  0.13697035807E+03 -0.29462145613E+03 -0.28097917788E+02  0.32611681099E+03  0.50400001928E-02 0. -1.
</event>
<event>
 5   0  0.2185750E-03  0.1086024E+04  0.7818609E-02  0.9218922E-01
        3   -1    0    0  501    0  0.00000000000E+00  0.00000000000E+00  0.35541998470E+03  0.35541999905E+03  0.10100000352E+00 0. -1.
       -3   -1    0    0    0  501  0.00000000000E+00  0.00000000000E+00 -0.82961565264E+03  0.82961565879E+03  0.10100000352E+00 0.  1.
    10030    2    1    2    0    0  0.00000000000E+00  0.00000000000E+00 -0.47419566794E+03  0.11850356578E+04  0.10860239311E+04 0.  0.
        1    1    3    3  502    0  0.10582131650E+03 -0.39066758740E+03  0.15790335800E+03  0.43445688551E+03  0.50400001928E-02 0. -1.
       -1    1    3    3    0  502 -0.10582131650E+03  0.39066758740E+03 -0.63209902593E+03  0.75057877234E+03  0.50400001928E-02 0.  1.
</event>
<event>
 5   0  0.5723194E-03  0.1094328E+04  0.7818609E-02  0.9210738E-01
        2   -1    0    0  501    0  0.00000000000E+00  0.00000000000E+00  0.51111397295E+03  0.51111397296E+03  0.25500000920E-02 0. -1.
       -2   -1    0    0    0  501  0.00000000000E+00  0.00000000000E+00 -0.58575632442E+03  0.58575632442E+03  0.25500000920E-02 0.  1.
    10030    2    1    2    0    0  0.00000000000E+00  0.00000000000E+00 -0.74642351464E+02  0.10968702974E+04  0.10943276331E+04 0.  0.
        1    1    3    3  502    0  0.37810530891E+03  0.17714051939E+03 -0.39176103761E+03  0.57255488719E+03  0.50400001928E-02 0.  1.
       -1    1    3    3    0  502 -0.37810530891E+03 -0.17714051939E+03  0.31711868614E+03  0.52431541019E+03  0.50400001928E-02 0. -1.
</event>
<event>
 5   0  0.5500363E-03  0.1066063E+04  0.7818609E-02  0.9238915E-01
       -2   -1    0    0    0  501  0.00000000000E+00  0.00000000000E+00  0.58779674323E+03  0.58779674323E+03  0.25500000920E-02 0.  1.
        2   -1    0    0  501    0  0.00000000000E+00  0.00000000000E+00 -0.48336910229E+03  0.48336910229E+03  0.25500000920E-02 0. -1.
    10030    2    1    2    0    0  0.00000000000E+00  0.00000000000E+00  0.10442764094E+03  0.10711658455E+04  0.10660633829E+04 0.  0.
        3    1    3    3  502    0  0.68227600048E+02  0.13725324863E+03  0.56517597026E+03  0.58559145078E+03  0.10100000352E+00 0.  1.
       -3    1    3    3    0  502 -0.68227600048E+02 -0.13725324863E+03 -0.46074832931E+03  0.48557439475E+03  0.10100000352E+00 0. -1.
</event>
<event>
 5   0  0.3316784E-03  0.1107337E+04  0.7818609E-02  0.9198070E-01
       -1   -1    0    0    0  501  0.00000000000E+00  0.00000000000E+00  0.66462454569E+03  0.66462454571E+03  0.50400001928E-02 0. -1.
        1   -1    0    0  501    0  0.00000000000E+00  0.00000000000E+00 -0.46123637576E+03  0.46123637579E+03  0.50400001928E-02 0.  1.
    10030    2    1    2    0    0  0.00000000000E+00  0.00000000000E+00  0.20338816993E+03  0.11258609215E+04  0.11073373772E+04 0.  0.
        4    1    3    3  502    0 -0.32594512815E+03 -0.29470664293E+02  0.55575012419E+03  0.64495624662E+03  0.12699999809E+01 0. -1.
       -4    1    3    3    0  502  0.32594512815E+03  0.29470664293E+02 -0.35236195425E+03  0.48090467488E+03  0.12699999809E+01 0.  1.
</event>
<event>
 5   0  0.3316784E-03  0.1093902E+04  0.7818609E-02  0.9211156E-01
       -1   -1    0    0    0  501  0.00000000000E+00  0.00000000000E+00  0.13130979084E+04  0.13130979084E+04  0.50400001928E-02 0. -1.
        1   -1    0    0  501    0  0.00000000000E+00  0.00000000000E+00 -0.22782396301E+03  0.22782396307E+03  0.50400001928E-02 0.  1.
    10030    2    1    2    0    0  0.00000000000E+00  0.00000000000E+00  0.10852739454E+04  0.15409218714E+04  0.10939015849E+04 0.  0.
        4    1    3    3  502    0  0.40556314221E+03 -0.28086568337E+03  0.20992596712E+03  0.53613199772E+03  0.12699999809E+01 0.  1.
       -4    1    3    3    0  502 -0.40556314221E+03  0.28086568337E+03  0.87534797824E+03  0.10047898737E+04  0.12699999809E+01 0. -1.
</event>
<event>
 5   0  0.3215352E-03  0.1094644E+04  0.7818609E-02  0.9210428E-01
        1   -1    0    0  501    0  0.00000000000E+00  0.00000000000E+00  0.50660192222E+03  0.50660192225E+03  0.50400001928E-02 0.  1.
       -1   -1    0    0    0  501  0.00000000000E+00  0.00000000000E+00 -0.59131496604E+03  0.59131496606E+03  0.50400001928E-02 0. -1.
    10030    2    1    2    0    0  0.00000000000E+00  0.00000000000E+00 -0.84713043820E+02  0.10979168883E+04  0.10946438662E+04 0.  0.
        1    1    3    3  502    0 -0.48312196926E+03  0.21847170904E+03 -0.17849952953E+03  0.55946296293E+03  0.50400001928E-02 0. -1.
       -1    1    3    3    0  502  0.48312196926E+03 -0.21847170904E+03  0.93786485708E+02  0.53845392538E+03  0.50400001928E-02 0.  1.
</event>
<event>
 5   0  0.5941585E-03  0.1102718E+04  0.7818609E-02  0.9202546E-01
       -2   -1    0    0    0  501  0.00000000000E+00  0.00000000000E+00  0.36895160260E+03  0.36895160261E+03  0.25500000920E-02 0.  1.
        2   -1    0    0  501    0  0.00000000000E+00  0.00000000000E+00 -0.82394798344E+03  0.82394798345E+03  0.25500000920E-02 0. -1.
    10030    2    1    2    0    0  0.00000000000E+00  0.00000000000E+00 -0.45499638084E+03  0.11928995861E+04  0.11027183302E+04 0.  0.
        5    1    3    3  502    0 -0.32594268201E+03  0.18792260641E+03  0.20847600666E+03  0.43016028792E+03  0.46999998093E+01 0.  1.
       -5    1    3    3    0  502  0.32594268201E+03 -0.18792260641E+03 -0.66347238750E+03  0.76273929814E+03  0.46999998093E+01 0. -1.
</event>
<event>
 5   0  0.3215352E-03  0.1096884E+04  0.7818609E-02  0.9208234E-01
       -1   -1    0    0    0  501  0.00000000000E+00  0.00000000000E+00  0.45124475706E+03  0.45124475708E+03  0.50400001928E-02 0. -1.
        1   -1    0    0  501    0  0.00000000000E+00  0.00000000000E+00 -0.66657567073E+03  0.66657567075E+03  0.50400001928E-02 0.  1.
    10030    2    1    2    0    0  0.00000000000E+00  0.00000000000E+00 -0.21533091368E+03  0.11178204278E+04  0.10968842722E+04 0.  0.
        1    1    3    3  502    0 -0.37520348615E+03  0.30246540211E+03  0.15910534449E+03  0.50752092190E+03  0.50400001928E-02 0. -1.
       -1    1    3    3    0  502  0.37520348615E+03 -0.30246540211E+03 -0.37443625817E+03  0.61029950594E+03  0.50400001928E-02 0.  1.
</event>
<event>
 5   0  0.2185750E-03  0.1121228E+04  0.7818609E-02  0.9184745E-01
       -3   -1    0    0    0  501  0.00000000000E+00  0.00000000000E+00  0.61163730284E+03  0.61163731117E+03  0.10100000352E+00 0. -1.
        3   -1    0    0  501    0  0.00000000000E+00  0.00000000000E+00 -0.51384748108E+03  0.51384749101E+03  0.10100000352E+00 0.  1.
    10030    2    1    2    0    0  0.00000000000E+00  0.00000000000E+00  0.97789821750E+02  0.11254848022E+04  0.11212284293E+04 0.  0.
        3    1    3    3  502    0 -0.45306549025E+03  0.10462194290E+03  0.36325175259E+03  0.59005587477E+03  0.10100000352E+00 0. -1.
       -3    1    3    3    0  502  0.45306549025E+03 -0.10462194290E+03 -0.26546193084E+03  0.53542892742E+03  0.10100000352E+00 0.  1.
</event>
<event>
 5   0  0.5941585E-03  0.1059705E+04  0.7818609E-02  0.9245381E-01
       -2   -1    0    0    0  501  0.00000000000E+00  0.00000000000E+00  0.14231920499E+03  0.14231920501E+03  0.25500000920E-02 0. -1.
        2   -1    0    0  501    0  0.00000000000E+00  0.00000000000E+00 -0.19726333815E+04  0.19726333815E+04  0.25500000920E-02 0.  1.
    10030    2    1    2    0    0  0.00000000000E+00  0.00000000000E+00 -0.18303141765E+04  0.21149525865E+04  0.10597048922E+04 0.  0.
        5    1    3    3  502    0 -0.35331906589E+03  0.27425760411E+03 -0.34830267332E+03  0.56691131402E+03  0.46999998093E+01 0. -1.
       -5    1    3    3    0  502  0.35331906589E+03 -0.27425760411E+03 -0.14820115032E+04  0.15480412725E+04  0.46999998093E+01 0.  1.
</event>
<event>
 5   0  0.5723194E-03  0.1090185E+04  0.7818609E-02  0.9214812E-01
       -2   -1    0    0    0  501  0.00000000000E+00  0.00000000000E+00  0.32923029621E+03  0.32923029622E+03  0.25500000920E-02 0. -1.
        2   -1    0    0  501    0  0.00000000000E+00  0.00000000000E+00 -0.90248561528E+03  0.90248561529E+03  0.25500000920E-02 0.  1.
    10030    2    1    2    0    0  0.00000000000E+00  0.00000000000E+00 -0.57325531908E+03  0.12317159115E+04  0.10901845834E+04 0.  0.
        1    1    3    3  502    0 -0.16635473710E+03  0.30078319771E+03 -0.76461257815E+03  0.83831785456E+03  0.50400001928E-02 0.  1.
       -1    1    3    3    0  502  0.16635473710E+03 -0.30078319771E+03  0.19135725908E+03  0.39339805694E+03  0.50400001928E-02 0. -1.
</event>
<event>
 5   0  0.5946359E-03  0.1110726E+04  0.7818609E-02  0.9194800E-01
        2   -1    0    0  501    0  0.00000000000E+00  0.00000000000E+00  0.42134350217E+03  0.42134350218E+03  0.25500000920E-02 0.  1.
       -2   -1    0    0    0  501  0.00000000000E+00  0.00000000000E+00 -0.73201151774E+03  0.73201151774E+03  0.25500000920E-02 0. -1.
    10030    2    1    2    0    0  0.00000000000E+00  0.00000000000E+00 -0.31066801557E+03  0.11533550199E+04  0.11107264227E+04 0.  0.
        4    1    3    3  502    0  0.45985156006E+03 -0.14474459836E+03  0.13095036156E+03  0.49956387593E+03  0.12699999809E+01 0.  1.
       -4    1    3    3    0  502 -0.45985156006E+03  0.14474459836E+03 -0.44161837712E+03  0.65379114399E+03  0.12699999809E+01 0. -1.
</event>
<event>
 5   0  0.5941585E-03  0.1094468E+04  0.7818609E-02  0.9210600E-01
        2   -1    0    0  501    0  0.00000000000E+00  0.00000000000E+00  0.11471958532E+04  0.11471958532E+04  0.25500000920E-02 0. -1.
       -2   -1    0    0    0  501  0.00000000000E+00  0.00000000000E+00 -0.26104108608E+03  0.26104108609E+03  0.25500000920E-02 0.  1.
    10030    2    1    2    0    0  0.00000000000E+00  0.00000000000E+00  0.88615476714E+03  0.14082369393E+04  0.10944683668E+04 0.  0.
        5    1    3    3  502    0 -0.20448998557E+03  0.41477499939E+03  0.66650396624E+02  0.46724599482E+03  0.46999998093E+01 0.  1.
       -5    1    3    3    0  502  0.20448998557E+03 -0.41477499939E+03  0.81950437051E+03  0.94099094448E+03  0.46999998093E+01 0. -1.
</event>
<event>
 5   0  0.3316784E-03  0.1083248E+04  0.7818609E-02  0.9221675E-01
       -1   -1    0    0    0  501  0.00000000000E+00  0.00000000000E+00  0.37750638453E+03  0.37750638456E+03  0.50400001928E-02 0. -1.
        1   -1    0    0  501    0  0.00000000000E+00  0.00000000000E+00 -0.77708999523E+03  0.77708999524E+03  0.50400001928E-02 0.  1.
    10030    2    1    2    0    0  0.00000000000E+00  0.00000000000E+00 -0.39958361070E+03  0.11545963798E+04  0.10832477733E+04 0.  0.
        4    1    3    3  502    0  0.52374479123E+03  0.13366037832E+03 -0.23642283631E+03  0.58997548551E+03  0.12699999809E+01 0.  1.
       -4    1    3    3    0  502 -0.52374479123E+03 -0.13366037832E+03 -0.16316077438E+03  0.56462089429E+03  0.12699999809E+01 0. -1.
</event>
<event>
 5   0  0.5723194E-03  0.1114371E+04  0.7818609E-02  0.9191297E-01
        2   -1    0    0  501    0  0.00000000000E+00  0.00000000000E+00  0.93478977189E+03  0.93478977189E+03  0.25500000920E-02 0.  1.
       -2   -1    0    0    0  501  0.00000000000E+00  0.00000000000E+00 -0.33211268938E+03  0.33211268939E+03  0.25500000920E-02 0. -1.
    10030    2    1    2    0    0  0.00000000000E+00  0.00000000000E+00  0.60267708251E+03  0.12669024613E+04  0.11143707555E+04 0.  0.
        1    1    3    3  502    0 -0.43467042725E+02  0.15811697629E+03  0.90673507012E+03  0.92144389380E+03  0.50400001928E-02 0.  1.
       -1    1    3    3    0  502  0.43467042725E+02 -0.15811697629E+03 -0.30405798761E+03  0.34545856749E+03  0.50400001928E-02 0. -1.
</event>
<event>
 5   0  0.3316784E-03  0.1096168E+04  0.7818609E-02  0.9208935E-01
        1   -1    0    0  501    0  0.00000000000E+00  0.00000000000E+00  0.86652927274E+03  0.86652927276E+03  0.50400001928E-02 0.  1.
       -1   -1    0    0    0  501  0.00000000000E+00  0.00000000000E+00 -0.34666574626E+03  0.34666574630E+03  0.50400001928E-02 0. -1.
    10030    2    1    2    0    0  0.00000000000E+00  0.00000000000E+00  0.51986352648E+03  0.12131950191E+04  0.10961679014E+04 0.  0.
        4    1    3    3  502    0 -0.48534719608E+03  0.78717961356E+02 -0.80687673922E+01  0.49175719221E+03  0.12699999809E+01 0. -1.
       -4    1    3    3    0  502  0.48534719608E+03 -0.78717961356E+02  0.52793229387E+03  0.72143782684E+03  0.12699999809E+01 0.  1.
</event>
<event>
 5   0  0.3320192E-03  0.1102859E+04  0.7818609E-02  0.9202409E-01
        1   -1    0    0  501    0  0.00000000000E+00  0.00000000000E+00  0.72791278592E+03  0.72791278594E+03  0.50400001928E-02 0. -1.
       -1   -1    0    0    0  501  0.00000000000E+00  0.00000000000E+00 -0.41773512135E+03  0.41773512138E+03  0.50400001928E-02 0.  1.
    10030    2    1    2    0    0  0.00000000000E+00  0.00000000000E+00  0.31017766457E+03  0.11456479073E+04  0.11028594398E+04 0.  0.
        2    1    3    3  502    0 -0.77665723380E+02 -0.16223008165E+03 -0.38640702491E+03  0.42621702558E+03  0.25500000920E-02 0.  1.
       -2    1    3    3    0  502  0.77665723380E+02  0.16223008165E+03  0.69658468949E+03  0.71943088175E+03  0.25500000920E-02 0. -1.
</event>
<event>
 5   0  0.3320192E-03  0.1099485E+04  0.7818609E-02  0.9205694E-01
       -1   -1    0    0    0  501  0.00000000000E+00  0.00000000000E+00  0.24443459120E+03  0.24443459125E+03  0.50400001928E-02 0. -1.
        1   -1    0    0  501    0  0.00000000000E+00  0.00000000000E+00 -0.12363904083E+04  0.12363904083E+04  0.50400001928E-02 0.  1.
    10030    2    1    2    0    0  0.00000000000E+00  0.00000000000E+00 -0.99195581707E+03  0.14808249995E+04  0.10994845775E+04 0.  0.
        2    1    3    3  502    0  0.18212663072E+03 -0.69664252387E+02 -0.11882479700E+04  0.12041413770E+04  0.25500000920E-02 0.  1.
       -2    1    3    3    0  502 -0.18212663072E+03  0.69664252387E+02  0.19629215290E+03  0.27668362253E+03  0.25500000920E-02 0. -1.
</event>
<event>
 5   0  0.3215352E-03  0.1114055E+04  0.7818609E-02  0.9191600E-01
        1   -1    0    0  501    0  0.00000000000E+00  0.00000000000E+00  0.88906926997E+03  0.88906926998E+03  0.50400001928E-02 0. -1.
       -1   -1    0    0    0  501  0.00000000000E+00  0.00000000000E+00 -0.34899379787E+03  0.34899379791E+03  0.50400001928E-02 0.  1.
    10030    2    1    2    0    0  0.00000000000E+00  0.00000000000E+00  0.54007547210E+03  0.12380630679E+04  0.11140550455E+04 0.  0.
        1    1    3    3  502    0  0.50808534720E+03  0.12048870245E+03  0.54513583001E+02  0.52501426477E+03  0.50400001928E-02 0.  1.
       -1    1    3    3    0  502 -0.50808534720E+03 -0.12048870245E+03  0.48556188910E+03  0.71304880312E+03  0.50400001928E-02 0. -1.
</event>
<event>
 5   0  0.3316784E-03  0.1109123E+04  0.7818609E-02  0.9196345E-01
        1   -1    0    0  501    0  0.00000000000E+00  0.00000000000E+00  0.11303332126E+04  0.11303332126E+04  0.50400001928E-02 0.  1.
       -1   -1    0    0    0  501  0.00000000000E+00  0.00000000000E+00 -0.27207763863E+03  0.27207763868E+03  0.50400001928E-02 0. -1.
    10030    2    1    2    0    0  0.00000000000E+00  0.00000000000E+00  0.85825557394E+03  0.14024108513E+04  0.11091228812E+04 0.  0.
        4    1    3    3  502    0  0.25081365011E+03  0.28184416986E+03  0.94304317628E+03  0.10157143636E+04  0.12699999809E+01 0. -1.
       -4    1    3    3    0  502 -0.25081365011E+03 -0.28184416986E+03 -0.84787602340E+02  0.38669648767E+03  0.12699999809E+01 0.  1.
</event>
<event>
 5   0  0.5946359E-03  0.1097047E+04  0.7818609E-02  0.9208075E-01
       -2   -1    0    0    0  501  0.00000000000E+00  0.00000000000E+00  0.20513687966E+03  0.20513687967E+03  0.25500000920E-02 0.  1.
        2   -1    0    0  501    0  0.00000000000E+00  0.00000000000E+00 -0.14667171694E+04  0.14667171694E+04  0.25500000920E-02 0. -1.
    10030    2    1    2    0    0  0.00000000000E+00  0.00000000000E+00 -0.12615802897E+04  0.16718540490E+04  0.10970465505E+04 0.  0.
        4    1    3    3  502    0 -0.14766795164E+03  0.29315425999E+02  0.17303283304E+03  0.22936257836E+03  0.12699999809E+01 0.  1.
       -4    1    3    3    0  502  0.14766795164E+03 -0.29315425999E+02 -0.14346131227E+04  0.14424914707E+04  0.12699999809E+01 0. -1.
</event>
<event>
 5   0  0.5946359E-03  0.1081050E+04  0.7818609E-02  0.9223861E-01
       -2   -1    0    0    0  501  0.00000000000E+00  0.00000000000E+00  0.19657866708E+03  0.19657866710E+03  0.25500000920E-02 0.  1.
        2   -1    0    0  501    0  0.00000000000E+00  0.00000000000E+00 -0.14862625509E+04  0.14862625509E+04  0.25500000920E-02 0. -1.
    10030    2    1    2    0    0  0.00000000000E+00  0.00000000000E+00 -0.12896838838E+04  0.16828412180E+04  0.10810504358E+04 0.  0.
        4    1    3    3  502    0 -0.11192151666E+03  0.50135997074E+03 -0.38307255343E+03  0.64080764684E+03  0.12699999809E+01 0. -1.
       -4    1    3    3    0  502  0.11192151666E+03 -0.50135997074E+03 -0.90661133041E+03  0.10420335712E+04  0.12699999809E+01 0.  1.
</event>
<event>
 5   0  0.3241189E-03  0.1084120E+04  0.7818609E-02  0.9220809E-01
       -1   -1    0    0    0  501  0.00000000000E+00  0.00000000000E+00  0.33299631107E+03  0.33299631111E+03  0.50400001928E-02 0. -1.
        1   -1    0    0  501    0  0.00000000000E+00  0.00000000000E+00 -0.88237979370E+03  0.88237979371E+03  0.50400001928E-02 0.  1.
    10030    2    1    2    0    0  0.00000000000E+00  0.00000000000E+00 -0.54938348262E+03  0.12153761048E+04  0.10841203186E+04 0.  0.
        5    1    3    3  502    0  0.44223713102E+03 -0.24488205821E+03 -0.55390538756E+02  0.50855786717E+03  0.46999998093E+01 0. -1.
       -5    1    3    3    0  502 -0.44223713102E+03  0.24488205821E+03 -0.49399294387E+03  0.70681823765E+03  0.46999998093E+01 0.  1.
</event>
<event>
 5   0  0.5627232E-03  0.1105192E+04  0.7818609E-02  0.9200146E-01
       -2   -1    0    0    0  501  0.00000000000E+00  0.00000000000E+00  0.23080673843E+03  0.23080673845E+03  0.25500000920E-02 0. -1.
        2   -1    0    0  501    0  0.00000000000E+00  0.00000000000E+00 -0.13230220964E+04  0.13230220964E+04  0.25500000920E-02 0.  1.
    10030    2    1    2    0    0  0.00000000000E+00  0.00000000000E+00 -0.10922153580E+04  0.15538288348E+04  0.11051921371E+04 0.  0.
        2    1    3    3  502    0 -0.49617566052E+03  0.52724645386E+02 -0.21223947151E+03  0.54223220818E+03  0.25500000920E-02 0. -1.
       -2    1    3    3    0  502  0.49617566052E+03 -0.52724645386E+02 -0.87997588646E+03  0.10115966267E+04  0.25500000920E-02 0.  1.
</event>
<event>
 5   0  0.3241189E-03  0.1094933E+04  0.7818609E-02  0.9210145E-01
        1   -1    0    0  501    0  0.00000000000E+00  0.00000000000E+00  0.65395049118E+03  0.65395049120E+03  0.50400001928E-02 0.  1.
       -1   -1    0    0    0  501  0.00000000000E+00  0.00000000000E+00 -0.45832133591E+03  0.45832133594E+03  0.50400001928E-02 0. -1.
    10030    2    1    2    0    0  0.00000000000E+00  0.00000000000E+00  0.19562915527E+03  0.11122718271E+04  0.10949328066E+04 0.  0.
        5    1    3    3  502    0 -0.18051069864E+03  0.47736905334E+03 -0.10339282508E+03  0.52074705154E+03  0.46999998093E+01 0. -1.
       -5    1    3    3    0  502  0.18051069864E+03 -0.47736905334E+03  0.29902198035E+03  0.59152477559E+03  0.46999998093E+01 0.  1.
</event>
<event>
 5   0  0.5723194E-03  0.1111351E+04  0.7818609E-02  0.9194198E-01
       -2   -1    0    0    0  501  0.00000000000E+00  0.00000000000E+00  0.31105771362E+03  0.31105771363E+03  0.25500000920E-02 0.  1.
        2   -1    0    0  501    0  0.00000000000E+00  0.00000000000E+00 -0.99266244497E+03  0.99266244498E+03  0.25500000920E-02 0. -1.
    10030    2    1    2    0    0  0.00000000000E+00  0.00000000000E+00 -0.68160473135E+03  0.13037201586E+04  0.11113510886E+04 0.  0.
        1    1    3    3  502    0 -0.40197275174E+03  0.25144790756E+03 -0.87365088627E+00  0.47414017616E+03  0.50400001928E-02 0.  1.
       -1    1    3    3    0  502  0.40197275174E+03 -0.25144790756E+03 -0.68073108046E+03  0.82957998245E+03  0.50400001928E-02 0. -1.
</event>
<event>
 5   0  0.5946359E-03  0.1097442E+04  0.7818609E-02  0.9207689E-01
       -2   -1    0    0    0  501  0.00000000000E+00  0.00000000000E+00  0.45573809580E+03  0.45573809581E+03  0.25500000920E-02 0. -1.
        2   -1    0    0  501    0  0.00000000000E+00  0.00000000000E+00 -0.66067435475E+03  0.66067435475E+03  0.25500000920E-02 0.  1.
    10030    2    1    2    0    0  0.00000000000E+00  0.00000000000E+00 -0.20493625894E+03  0.11164124506E+04  0.10974415199E+04 0.  0.
        4    1    3    3  502    0 -0.24314688316E+03 -0.39470198823E+03 -0.40111197346E+03  0.61302731950E+03  0.12699999809E+01 0.  1.
       -4    1    3    3    0  502  0.24314688316E+03  0.39470198823E+03  0.19617571452E+03  0.50338513106E+03  0.12699999809E+01 0. -1.
</event>
<event>
 5   0  0.3241189E-03  0.1086857E+04  0.7818609E-02  0.9218098E-01
        1   -1    0    0  501    0  0.00000000000E+00  0.00000000000E+00  0.16614709672E+04  0.16614709672E+04  0.50400001928E-02 0.  1.
       -1   -1    0    0    0  501  0.00000000000E+00  0.00000000000E+00 -0.17774267300E+03  0.17774267307E+03  0.50400001928E-02 0. -1.
    10030    2    1    2    0    0  0.00000000000E+00  0.00000000000E+00  0.14837282942E+04  0.18392136402E+04  0.10868565515E+04 0.  0.
        5    1    3    3  502    0  0.30674423476E+03 -0.16056168748E+03  0.33103406583E+02  0.34783617778E+03  0.46999998093E+01 0. -1.
       -5    1    3    3    0  502 -0.30674423476E+03  0.16056168748E+03  0.14506248876E+04  0.14913774625E+04  0.46999998093E+01 0.  1.
</event>
<event>
 5   0  0.5946359E-03  0.1082421E+04  0.7818609E-02  0.9222497E-01
       -2   -1    0    0    0  501  0.00000000000E+00  0.00000000000E+00  0.32524947915E+03  0.32524947916E+03  0.25500000920E-02 0. -1.
        2   -1    0    0  501    0  0.00000000000E+00  0.00000000000E+00 -0.90056604359E+03  0.90056604360E+03  0.25500000920E-02 0.  1.
    10030    2    1    2    0    0  0.00000000000E+00  0.00000000000E+00 -0.57531656444E+03  0.12258155228E+04  0.10824206883E+04 0.  0.
        4    1    3    3  502    0 -0.25111974082E+03 -0.43065902702E+03 -0.52622855648E+03  0.72487683667E+03  0.12699999809E+01 0.  1.
       -4    1    3    3    0  502  0.25111974082E+03  0.43065902702E+03 -0.49088007957E+02  0.50093868608E+03  0.12699999809E+01 0. -1.
</event>
<event>
 5   0  0.5941585E-03  0.1099707E+04  0.7818609E-02  0.9205478E-01
        2   -1    0    0  501    0  0.00000000000E+00  0.00000000000E+00  0.29564184885E+03  0.29564184886E+03  0.25500000920E-02 0.  1.
       -2   -1    0    0    0  501  0.00000000000E+00  0.00000000000E+00 -0.10226517996E+04  0.10226517996E+04  0.25500000920E-02 0. -1.
    10030    2    1    2    0    0  0.00000000000E+00  0.00000000000E+00 -0.72700995078E+03  0.13182936485E+04  0.10997066314E+04 0.  0.
        5    1    3    3  502    0 -0.12410892484E+03 -0.53030715221E+03 -0.45391372174E+03  0.70900525929E+03  0.46999998093E+01 0. -1.
       -5    1    3    3    0  502  0.12410892484E+03  0.53030715221E+03 -0.27309622904E+03  0.60928838921E+03  0.46999998093E+01 0.  1.
</event>
<event>
 5   0  0.5723194E-03  0.1083369E+04  0.7818609E-02  0.9221555E-01
        2   -1    0    0  501    0  0.00000000000E+00  0.00000000000E+00  0.11783492067E+04  0.11783492067E+04  0.25500000920E-02 0. -1.
       -2   -1    0    0    0  501  0.00000000000E+00  0.00000000000E+00 -0.24901096982E+03  0.24901096984E+03  0.25500000920E-02 0.  1.
    10030    2    1    2    0    0  0.00000000000E+00  0.00000000000E+00  0.92933823684E+03  0.14273601765E+04  0.10833685961E+04 0.  0.
        1    1    3    3  502    0 -0.34850843045E+03  0.39915050510E+03  0.61281036484E+03  0.81013319590E+03  0.50400001928E-02 0. -1.
       -1    1    3    3    0  502  0.34850843045E+03 -0.39915050510E+03  0.31652787200E+03  0.61722698061E+03  0.50400001928E-02 0.  1.
</event>
<event>
 5   0  0.3316784E-03  0.1118378E+04  0.7818609E-02  0.9187462E-01
        1   -1    0    0  501    0  0.00000000000E+00  0.00000000000E+00  0.33305125489E+03  0.33305125493E+03  0.50400001928E-02 0. -1.
       -1   -1    0    0    0  501  0.00000000000E+00  0.00000000000E+00 -0.93887132926E+03  0.93887132928E+03  0.50400001928E-02 0.  1.
    10030    2    1    2    0    0  0.00000000000E+00  0.00000000000E+00 -0.60582007437E+03  0.12719225842E+04  0.11183778868E+04 0.  0.
        4    1    3    3  502    0 -0.27713009821E+03  0.44580357919E+02 -0.85294364369E+03  0.89794374649E+03  0.12699999809E+01 0.  1.
       -4    1    3    3    0  502  0.27713009821E+03 -0.44580357919E+02  0.24712356932E+03  0.37397883771E+03  0.12699999809E+01 0. -1.
</event>
<event>
 5   0  0.5723194E-03  0.1095270E+04  0.7818609E-02  0.9209814E-01
       -2   -1    0    0    0  501  0.00000000000E+00  0.00000000000E+00  0.34384995355E+03  0.34384995356E+03  0.25500000920E-02 0.  1.
        2   -1    0    0  501    0  0.00000000000E+00  0.00000000000E+00 -0.87219450557E+03  0.87219450558E+03  0.25500000920E-02 0. -1.
    10030    2    1    2    0    0  0.00000000000E+00  0.00000000000E+00 -0.52834455202E+03  0.12160444591E+04  0.10952699032E+04 0.  0.
        1    1    3    3  502    0 -0.30879127359E+03  0.40878637089E+03 -0.47901924585E+03  0.70136850912E+03  0.50400001928E-02 0. -1.
       -1    1    3    3    0  502  0.30879127359E+03 -0.40878637089E+03 -0.49325306175E+02  0.51467595002E+03  0.50400001928E-02 0.  1.
</event>
<event>
 5   0  0.3320192E-03  0.1091302E+04  0.7818609E-02  0.9213711E-01
        1   -1    0    0  501    0  0.00000000000E+00  0.00000000000E+00  0.98347573657E+03  0.98347573658E+03  0.50400001928E-02 0.  1.
       -1   -1    0    0    0  501  0.00000000000E+00  0.00000000000E+00 -0.30273767996E+03  0.30273768001E+03  0.50400001928E-02 0. -1.
    10030    2    1    2    0    0  0.00000000000E+00  0.00000000000E+00  0.68073805661E+03  0.12862134166E+04  0.10913022731E+04 0.  0.
        2    1    3    3  502    0  0.37094912560E+03 -0.11027570425E+03  0.79374295596E+03  0.88305824545E+03  0.25500000920E-02 0.  1.
       -2    1    3    3    0  502 -0.37094912560E+03  0.11027570425E+03 -0.11300489935E+03  0.40315517113E+03  0.25500000920E-02 0. -1.
</event>
<event>
 5   0  0.5500363E-03  0.1116301E+04  0.7818609E-02  0.9189448E-01
        2   -1    0    0  501    0  0.00000000000E+00  0.00000000000E+00  0.17437411989E+04  0.17437411989E+04  0.25500000920E-02 0. -1.
       -2   -1    0    0    0  501  0.00000000000E+00  0.00000000000E+00 -0.17865709424E+03  0.17865709426E+03  0.25500000920E-02 0.  1.
    10030    2    1    2    0    0  0.00000000000E+00  0.00000000000E+00  0.15650841047E+04  0.19223982932E+04  0.11163005612E+04 0.  0.
        3    1    3    3  502    0  0.49486357951E+03 -0.25777130842E+03  0.75844992663E+03  0.94158499944E+03  0.10100000352E+00 0. -1.
       -3    1    3    3    0  502 -0.49486357951E+03  0.25777130842E+03  0.80663417804E+03  0.98081329373E+03  0.10100000352E+00 0.  1.
</event>
<event>
 5   0  0.3316784E-03  0.1148939E+04  0.7818609E-02  0.9158763E-01
       -1   -1    0    0    0  501  0.00000000000E+00  0.00000000000E+00  0.74748473453E+03  0.74748473455E+03  0.50400001928E-02 0. -1.
        1   -1    0    0  501    0  0.00000000000E+00  0.00000000000E+00 -0.44150069307E+03  0.44150069310E+03  0.50400001928E-02 0.  1.
    10030    2    1    2    0    0  0.00000000000E+00  0.00000000000E+00  0.30598404146E+03  0.11889854276E+04  0.11489386901E+04 0.  0.
        4    1    3    3  502    0  0.42621093393E+03 -0.37322053570E+03  0.25151594699E+03  0.61984773369E+03  0.12699999809E+01 0. -1.
       -4    1    3    3    0  502 -0.42621093393E+03  0.37322053570E+03  0.54468094471E+02  0.56913769396E+03  0.12699999809E+01 0.  1.
</event>
<event>
 5   0  0.3316784E-03  0.1098496E+04  0.7818609E-02  0.9206659E-01
        1   -1    0    0  501    0  0.00000000000E+00  0.00000000000E+00  0.40400345379E+03  0.40400345382E+03  0.50400001928E-02 0.  1.
       -1   -1    0    0    0  501  0.00000000000E+00  0.00000000000E+00 -0.74670967316E+03  0.74670967318E+03  0.50400001928E-02 0. -1.
    10030    2    1    2    0    0  0.00000000000E+00  0.00000000000E+00 -0.34270621937E+03  0.11507131270E+04  0.10984958570E+04 0.  0.
        4    1    3    3  502    0  0.10907470916E+03  0.41287312739E+03  0.19047921535E+03  0.46759539762E+03  0.12699999809E+01 0.  1.
       -4    1    3    3    0  502 -0.10907470916E+03 -0.41287312739E+03 -0.53318543472E+03  0.68311772938E+03  0.12699999809E+01 0. -1.
</event>
<event>
 5   0  0.5500363E-03  0.1096299E+04  0.7818609E-02  0.9208807E-01
       -2   -1    0    0    0  501  0.00000000000E+00  0.00000000000E+00  0.41893643257E+03  0.41893643257E+03  0.25500000920E-02 0.  1.
        2   -1    0    0  501    0  0.00000000000E+00  0.00000000000E+00 -0.71721592153E+03  0.71721592154E+03  0.25500000920E-02 0. -1.
    10030    2    1    2    0    0  0.00000000000E+00  0.00000000000E+00 -0.29827948897E+03  0.11361523541E+04  0.10962990095E+04 0.  0.
        3    1    3    3  502    0  0.18062613539E+03  0.43352360952E+03  0.14380058801E+03  0.49116915631E+03  0.10100000352E+00 0.  1.
       -3    1    3    3    0  502 -0.18062613539E+03 -0.43352360952E+03 -0.44208007697E+03  0.64498319780E+03  0.10100000352E+00 0. -1.
</event>
<event>
 5   0  0.5946359E-03  0.1114270E+04  0.7818609E-02  0.9191394E-01
        2   -1    0    0  501    0  0.00000000000E+00  0.00000000000E+00  0.14911818599E+04  0.14911818599E+04  0.25500000920E-02 0. -1.
       -2   -1    0    0    0  501  0.00000000000E+00  0.00000000000E+00 -0.20815669111E+03  0.20815669112E+03  0.25500000920E-02 0.  1.
    10030    2    1    2    0    0  0.00000000000E+00  0.00000000000E+00  0.12830251688E+04  0.16993385510E+04  0.11142701321E+04 0.  0.
        4    1    3    3  502    0  0.54413046254E+03 -0.17669296882E+02  0.82201079783E+03  0.98594803563E+03  0.12699999809E+01 0. -1.
       -4    1    3    3    0  502 -0.54413046254E+03  0.17669296882E+02  0.46101437094E+03  0.71339051538E+03  0.12699999809E+01 0.  1.
</event>
<event>
 5   0  0.3241189E-03  0.1098965E+04  0.7818609E-02  0.9206201E-01
        1   -1    0    0  501    0  0.00000000000E+00  0.00000000000E+00  0.85332606377E+03  0.85332606379E+03  0.50400001928E-02 0. -1.
       -1   -1    0    0    0  501  0.00000000000E+00  0.00000000000E+00 -0.35382841662E+03  0.35382841665E+03  0.50400001928E-02 0.  1.
    10030    2    1    2    0    0  0.00000000000E+00  0.00000000000E+00  0.49949764716E+03  0.12071544804E+04  0.10989649859E+04 0.  0.
        5    1    3    3  502    0  0.53478851719E+03 -0.89952915315E+02  0.34687682740E+03  0.64376696752E+03  0.46999998093E+01 0. -1.
       -5    1    3    3    0  502 -0.53478851719E+03  0.89952915315E+02  0.15262081976E+03  0.56338751292E+03  0.46999998093E+01 0.  1.
</event>
<event>
 5   0  0.5723194E-03  0.1103237E+04  0.7818609E-02  0.9202042E-01
       -2   -1    0    0    0  501  0.00000000000E+00  0.00000000000E+00  0.26676083690E+03  0.26676083692E+03  0.25500000920E-02 0.  1.
        2   -1    0    0  501    0  0.00000000000E+00  0.00000000000E+00 -0.11406592065E+04  0.11406592065E+04  0.25500000920E-02 0. -1.
    10030    2    1    2    0    0  0.00000000000E+00  0.00000000000E+00 -0.87389836960E+03  0.14074200434E+04  0.11032374261E+04 0.  0.
        1    1    3    3  502    0 -0.14607494294E+02 -0.32372210818E+03 -0.10064310134E+04  0.10573139396E+04  0.50400001928E-02 0. -1.
       -1    1    3    3    0  502  0.14607494294E+02  0.32372210818E+03  0.13253264379E+03  0.35010610379E+03  0.50400001928E-02 0.  1.
</event>
<event>
 5   0  0.5500363E-03  0.1127575E+04  0.7818609E-02  0.9178724E-01
        2   -1    0    0  501    0  0.00000000000E+00  0.00000000000E+00  0.20556113297E+04  0.20556113297E+04  0.25500000920E-02 0. -1.
       -2   -1    0    0    0  501  0.00000000000E+00  0.00000000000E+00 -0.15462862607E+03  0.15462862609E+03  0.25500000920E-02 0.  1.
    10030    2    1    2    0    0  0.00000000000E+00  0.00000000000E+00  0.19009827036E+04  0.22102399558E+04  0.11275750187E+04 0.  0.
        3    1    3    3  502    0 -0.18049565037E+03  0.50633373519E+03  0.61724027673E+03  0.81849746524E+03  0.10100000352E+00 0.  1.
       -3    1    3    3    0  502  0.18049565037E+03 -0.50633373519E+03  0.12837424269E+04  0.13917424905E+04  0.10100000352E+00 0. -1.
</event>
<event>
 5   0  0.3215352E-03  0.1101109E+04  0.7818609E-02  0.9204112E-01
       -1   -1    0    0    0  501  0.00000000000E+00  0.00000000000E+00  0.19583215209E+03  0.19583215216E+03  0.50400001928E-02 0. -1.
        1   -1    0    0  501    0  0.00000000000E+00  0.00000000000E+00 -0.15478060112E+04  0.15478060112E+04  0.50400001928E-02 0.  1.
    10030    2    1    2    0    0  0.00000000000E+00  0.00000000000E+00 -0.13519738591E+04  0.17436381633E+04  0.11011088634E+04 0.  0.
        1    1    3    3  502    0 -0.40250797355E+03 -0.29750481413E+02 -0.83035181723E+02  0.41205897800E+03  0.50400001928E-02 0. -1.
       -1    1    3    3    0  502  0.40250797355E+03  0.29750481413E+02 -0.12689386774E+04  0.13315791853E+04  0.50400001928E-02 0.  1.
</event>
<event>
 5   0  0.3215352E-03  0.1100036E+04  0.7818609E-02  0.9205157E-01
        1   -1    0    0  501    0  0.00000000000E+00  0.00000000000E+00  0.17068492801E+04  0.17068492801E+04  0.50400001928E-02 0.  1.
       -1   -1    0    0    0  501  0.00000000000E+00  0.00000000000E+00 -0.17723866481E+03  0.17723866488E+03  0.50400001928E-02 0. -1.
    10030    2    1    2    0    0  0.00000000000E+00  0.00000000000E+00  0.15296106152E+04  0.18840879449E+04  0.11000357949E+04 0.  0.
        1    1    3    3  502    0 -0.62326870262E+02  0.13590403178E+03  0.16713754343E+04  0.16780495782E+04  0.50400001928E-02 0.  1.
       -1    1    3    3    0  502  0.62326870262E+02 -0.13590403178E+03 -0.14176481905E+03  0.20603836671E+03  0.50400001928E-02 0. -1.
</event>
<event>
 5   0  0.3328741E-03  0.1109706E+04  0.7818609E-02  0.9195783E-01
       -1   -1    0    0    0  501  0.00000000000E+00  0.00000000000E+00  0.56427904168E+03  0.56427904171E+03  0.50400001928E-02 0. -1.
        1   -1    0    0  501    0  0.00000000000E+00  0.00000000000E+00 -0.54558461633E+03  0.54558461635E+03  0.50400001928E-02 0.  1.
    10030    2    1    2    0    0  0.00000000000E+00  0.00000000000E+00  0.18694425358E+02  0.11098636581E+04  0.11097062034E+04 0.  0.
        3    1    3    3  502    0 -0.44939160588E+02 -0.32127309900E+03 -0.44085665969E+03  0.54734864291E+03  0.10100000352E+00 0.  1.
       -3    1    3    3    0  502  0.44939160588E+02  0.32127309900E+03  0.45955108505E+03  0.56251501515E+03  0.10100000352E+00 0. -1.
</event>
<event>
 5   0  0.3241189E-03  0.1098935E+04  0.7818609E-02  0.9206230E-01
       -1   -1    0    0    0  501  0.00000000000E+00  0.00000000000E+00  0.26153885049E+03  0.26153885053E+03  0.50400001928E-02 0.  1.
        1   -1    0    0  501    0  0.00000000000E+00  0.00000000000E+00 -0.11543780025E+04  0.11543780025E+04  0.50400001928E-02 0. -1.
    10030    2    1    2    0    0  0.00000000000E+00  0.00000000000E+00 -0.89283915204E+03  0.14159168531E+04  0.10989352954E+04 0.  0.
        5    1    3    3  502    0  0.24664152636E+03  0.17436030293E+03 -0.10377846718E+04  0.10808573786E+04  0.46999998093E+01 0. -1.
       -5    1    3    3    0  502 -0.24664152636E+03 -0.17436030293E+03  0.14494551976E+03  0.33505947451E+03  0.46999998093E+01 0.  1.
</event>
<event>
 5   0  0.3328741E-03  0.1127118E+04  0.7818609E-02  0.9179157E-01
        1   -1    0    0  501    0  0.00000000000E+00  0.00000000000E+00  0.18261054536E+03  0.18261054543E+03  0.50400001928E-02 0.  1.
       -1   -1    0    0    0  501  0.00000000000E+00  0.00000000000E+00 -0.17392121970E+04  0.17392121970E+04  0.50400001928E-02 0. -1.
    10030    2    1    2    0    0  0.00000000000E+00  0.00000000000E+00 -0.15566016516E+04  0.19218227424E+04  0.11271175411E+04 0.  0.
        3    1    3    3  502    0  0.24314967247E+03  0.11178523025E+03  0.67357061915E+02  0.27596138302E+03  0.10100000352E+00 0.  1.
       -3    1    3    3    0  502 -0.24314967247E+03 -0.11178523025E+03 -0.16239587135E+04  0.16458613594E+04  0.10100000352E+00 0. -1.
</event>
<event>
 5   0  0.5946359E-03  0.1092975E+04  0.7818609E-02  0.9212066E-01
        2   -1    0    0  501    0  0.00000000000E+00  0.00000000000E+00  0.19055260507E+04  0.19055260507E+04  0.25500000920E-02 0.  1.
       -2   -1    0    0    0  501  0.00000000000E+00  0.00000000000E+00 -0.15672767283E+03  0.15672767285E+03  0.25500000920E-02 0. -1.
    10030    2    1    2    0    0  0.00000000000E+00  0.00000000000E+00  0.17487983779E+04  0.20622537236E+04  0.10929751387E+04 0.  0.
        4    1    3    3  502    0  0.10550964905E+03  0.18147653998E+03  0.18264164718E+04  0.18384408508E+04  0.12699999809E+01 0.  1.
       -4    1    3    3    0  502 -0.10550964905E+03 -0.18147653998E+03 -0.77618093913E+02  0.22381287275E+03  0.12699999809E+01 0. -1.
</event>
<event>
 5   0  0.5723194E-03  0.1104989E+04  0.7818609E-02  0.9200343E-01
        2   -1    0    0  501    0  0.00000000000E+00  0.00000000000E+00  0.46431538758E+03  0.46431538759E+03  0.25500000920E-02 0. -1.
       -2   -1    0    0    0  501  0.00000000000E+00  0.00000000000E+00 -0.65741967565E+03  0.65741967566E+03  0.25500000920E-02 0.  1.
    10030    2    1    2    0    0  0.00000000000E+00  0.00000000000E+00 -0.19310428807E+03  0.11217350632E+04  0.11049888172E+04 0.  0.
        1    1    3    3  502    0  0.30481401292E+03  0.33150547128E+03 -0.42146936726E+03  0.61680133554E+03  0.50400001928E-02 0.  1.
       -1    1    3    3    0  502 -0.30481401292E+03 -0.33150547128E+03  0.22836507919E+03  0.50493372771E+03  0.50400001928E-02 0. -1.
</event>
<event>
 5   0  0.3320192E-03  0.1092499E+04  0.7818609E-02  0.9212534E-01
       -1   -1    0    0    0  501  0.00000000000E+00  0.00000000000E+00  0.26495251480E+03  0.26495251485E+03  0.50400001928E-02 0. -1.
        1   -1    0    0  501    0  0.00000000000E+00  0.00000000000E+00 -0.11261951868E+04  0.11261951868E+04  0.50400001928E-02 0.  1.
    10030    2    1    2    0    0  0.00000000000E+00  0.00000000000E+00 -0.86124267203E+03  0.13911477017E+04  0.10924985070E+04 0.  0.
        2    1    3    3  502    0 -0.29390726928E+03  0.23614979335E+03 -0.93394640293E+03  0.10071762961E+04  0.25500000920E-02 0.  1.
       -2    1    3    3    0  502  0.29390726928E+03 -0.23614979335E+03  0.72703730893E+02  0.38397140562E+03  0.25500000920E-02 0. -1.
</event>
<event>
 5   0  0.5941585E-03  0.1089659E+04  0.7818609E-02  0.9215330E-01
       -2   -1    0    0    0  501  0.00000000000E+00  0.00000000000E+00  0.27146216139E+03  0.27146216140E+03  0.25500000920E-02 0. -1.
        2   -1    0    0  501    0  0.00000000000E+00  0.00000000000E+00 -0.10934822223E+04  0.10934822223E+04  0.25500000920E-02 0.  1.
    10030    2    1    2    0    0  0.00000000000E+00  0.00000000000E+00 -0.82202006091E+03  0.13649443837E+04  0.10896587494E+04 0.  0.
        5    1    3    3  502    0 -0.19724727908E+03 -0.13981617275E+02 -0.10469180170E+04  0.10654395333E+04  0.46999998093E+01 0.  1.
       -5    1    3    3    0  502  0.19724727908E+03  0.13981617275E+02  0.22489795614E+03  0.29950485038E+03  0.46999998093E+01 0. -1.
</event>
<event>
 5   0  0.3320192E-03  0.1104635E+04  0.7818609E-02  0.9200686E-01
       -1   -1    0    0    0  501  0.00000000000E+00  0.00000000000E+00  0.21502790875E+03  0.21502790880E+03  0.50400001928E-02 0. -1.
        1   -1    0    0  501    0  0.00000000000E+00  0.00000000000E+00 -0.14186751473E+04  0.14186751473E+04  0.50400001928E-02 0.  1.
    10030    2    1    2    0    0  0.00000000000E+00  0.00000000000E+00 -0.12036472386E+04  0.16337030561E+04  0.11046352342E+04 0.  0.
        2    1    3    3  502    0  0.11776882491E+03  0.17982144520E+03 -0.13542740525E+04  0.13712269898E+04  0.25500000920E-02 0.  1.
       -2    1    3    3    0  502 -0.11776882491E+03 -0.17982144520E+03  0.15062681398E+03  0.26247606628E+03  0.25500000920E-02 0. -1.
</event>
<event>
 5   0  0.5627232E-03  0.1117016E+04  0.7818609E-02  0.9188764E-01
       -2   -1    0    0    0  501  0.00000000000E+00  0.00000000000E+00  0.20268795466E+03  0.20268795467E+03  0.25500000920E-02 0.  1.
        2   -1    0    0  501    0  0.00000000000E+00  0.00000000000E+00 -0.15389712281E+04  0.15389712281E+04  0.25500000920E-02 0. -1.
    10030    2    1    2    0    0  0.00000000000E+00  0.00000000000E+00 -0.13362832735E+04  0.17416591828E+04  0.11170155425E+04 0.  0.
        2    1    3    3  502    0 -0.55812947705E+02 -0.43179111206E+03 -0.12270351873E+03  0.45234367809E+03  0.25500000920E-02 0.  1.
       -2    1    3    3    0  502  0.55812947705E+02  0.43179111206E+03 -0.12135797547E+04  0.12893155047E+04  0.25500000920E-02 0. -1.
</event>
<event>
 5   0  0.5500363E-03  0.1067379E+04  0.7818609E-02  0.9237583E-01
       -2   -1    0    0    0  501  0.00000000000E+00  0.00000000000E+00  0.76501776080E+03  0.76501776081E+03  0.25500000920E-02 0. -1.
        2   -1    0    0  501    0  0.00000000000E+00  0.00000000000E+00 -0.37231103991E+03  0.37231103991E+03  0.25500000920E-02 0.  1.
    10030    2    1    2    0    0  0.00000000000E+00  0.00000000000E+00  0.39270672090E+03  0.11373288007E+04  0.10673791418E+04 0.  0.
        3    1    3    3  502    0 -0.16185398291E+03 -0.12624224368E+03  0.72127432841E+03  0.74991365030E+03  0.10100000352E+00 0. -1.
       -3    1    3    3    0  502  0.16185398291E+03  0.12624224368E+03 -0.32856760751E+03  0.38741515043E+03  0.10100000352E+00 0.  1.
</event>
<event>
 5   0  0.2185750E-03  0.1063232E+04  0.7818609E-02  0.9241788E-01
       -3   -1    0    0    0  501  0.00000000000E+00  0.00000000000E+00  0.20068421958E+03  0.20068424500E+03  0.10100000352E+00 0.  1.
        3   -1    0    0  501    0  0.00000000000E+00  0.00000000000E+00 -0.14082602409E+04  0.14082602445E+04  0.10100000352E+00 0. -1.
    10030    2    1    2    0    0  0.00000000000E+00  0.00000000000E+00 -0.12075760213E+04  0.16089444895E+04  0.10632321116E+04 0.  0.
        1    1    3    3  502    0  0.44330232343E+02 -0.18962630360E+03 -0.13523420374E+04  0.13662914369E+04  0.50400001928E-02 0. -1.
       -1    1    3    3    0  502 -0.44330232343E+02  0.18962630360E+03  0.14476601605E+03  0.24265305261E+03  0.50400001928E-02 0.  1.
</event>
<event>
 5   0  0.5723194E-03  0.1095525E+04  0.7818609E-02  0.9209564E-01
        2   -1    0    0  501    0  0.00000000000E+00  0.00000000000E+00  0.46607399115E+03  0.46607399115E+03  0.25500000920E-02 0.  1.
       -2   -1    0    0    0  501  0.00000000000E+00  0.00000000000E+00 -0.64376898518E+03  0.64376898518E+03  0.25500000920E-02 0. -1.
    10030    2    1    2    0    0  0.00000000000E+00  0.00000000000E+00 -0.17769499403E+03  0.11098429763E+04  0.10955254088E+04 0.  0.
        1    1    3    3  502    0 -0.10568974470E+03 -0.45864529993E+03  0.19502551391E+03  0.50947108297E+03  0.50400001928E-02 0.  1.
       -1    1    3    3    0  502  0.10568974470E+03  0.45864529993E+03 -0.37272050794E+03  0.60037189337E+03  0.50400001928E-02 0. -1.
</event>
<event>
 5   0  0.5946359E-03  0.1088279E+04  0.7818609E-02  0.9216691E-01
       -2   -1    0    0    0  501  0.00000000000E+00  0.00000000000E+00  0.37226481923E+03  0.37226481924E+03  0.25500000920E-02 0. -1.
        2   -1    0    0  501    0  0.00000000000E+00  0.00000000000E+00 -0.79536937605E+03  0.79536937606E+03  0.25500000920E-02 0.  1.
    10030    2    1    2    0    0  0.00000000000E+00  0.00000000000E+00 -0.42310455682E+03  0.11676341953E+04  0.10882794439E+04 0.  0.
        4    1    3    3  502    0  0.20510611054E+03 -0.13452152606E+03 -0.73268756059E+03  0.77265595960E+03  0.12699999809E+01 0.  1.
       -4    1    3    3    0  502 -0.20510611054E+03  0.13452152606E+03  0.30958300377E+03  0.39497823570E+03  0.12699999809E+01 0. -1.
</event>
<event>
 5   0  0.3241189E-03  0.1096627E+04  0.7818609E-02  0.9208486E-01
       -1   -1    0    0    0  501  0.00000000000E+00  0.00000000000E+00  0.27876908666E+03  0.27876908670E+03  0.50400001928E-02 0.  1.
        1   -1    0    0  501    0  0.00000000000E+00  0.00000000000E+00 -0.10784825069E+04  0.10784825069E+04  0.50400001928E-02 0. -1.
    10030    2    1    2    0    0  0.00000000000E+00  0.00000000000E+00 -0.79971342026E+03  0.13572515936E+04  0.10966267979E+04 0.  0.
        5    1    3    3  502    0 -0.50583610852E+03  0.20171578686E+03 -0.32093641070E+03  0.63212474802E+03  0.46999998093E+01 0. -1.
       -5    1    3    3    0  502  0.50583610852E+03 -0.20171578686E+03 -0.47877700956E+03  0.72512684561E+03  0.46999998093E+01 0.  1.
</event>
<event>
 5   0  0.3316784E-03  0.1077235E+04  0.7818609E-02  0.9227669E-01
       -1   -1    0    0    0  501  0.00000000000E+00  0.00000000000E+00  0.27062504974E+03  0.27062504978E+03  0.50400001928E-02 0.  1.
        1   -1    0    0  501    0  0.00000000000E+00  0.00000000000E+00 -0.10719948547E+04  0.10719948547E+04  0.50400001928E-02 0. -1.
    10030    2    1    2    0    0  0.00000000000E+00  0.00000000000E+00 -0.80136980499E+03  0.13426199045E+04  0.10772347208E+04 0.  0.
        4    1    3    3  502    0  0.61467659718E+02 -0.50855193334E+03 -0.19323574626E+03  0.54748973381E+03  0.12699999809E+01 0. -1.
       -4    1    3    3    0  502 -0.61467659718E+02  0.50855193334E+03 -0.60813405874E+03  0.79513017072E+03  0.12699999809E+01 0.  1.
</event>
<event>
 5   0  0.3241189E-03  0.1097861E+04  0.7818609E-02  0.9207279E-01
       -1   -1    0    0    0  501  0.00000000000E+00  0.00000000000E+00  0.47303381272E+03  0.47303381274E+03  0.50400001928E-02 0. -1.
        1   -1    0    0  501    0  0.00000000000E+00  0.00000000000E+00 -0.63700420806E+03  0.63700420808E+03  0.50400001928E-02 0.  1.
    10030    2    1    2    0    0  0.00000000000E+00  0.00000000000E+00 -0.16397039534E+03  0.11100380208E+04  0.10978607002E+04 0.  0.
        5    1    3    3  502    0 -0.29313648522E+03  0.46301002829E+03 -0.11388116403E+03  0.55973055552E+03  0.46999998093E+01 0.  1.
       -5    1    3    3    0  502  0.29313648522E+03 -0.46301002829E+03 -0.50089231311E+02  0.55030746530E+03  0.46999998093E+01 0. -1.
</event>
<event>
 5   0  0.5500363E-03  0.1096597E+04  0.7818609E-02  0.9208515E-01
       -2   -1    0    0    0  501  0.00000000000E+00  0.00000000000E+00  0.54011671133E+03  0.54011671134E+03  0.25500000920E-02 0.  1.
        2   -1    0    0  501    0  0.00000000000E+00  0.00000000000E+00 -0.55660454944E+03  0.55660454945E+03  0.25500000920E-02 0. -1.
    10030    2    1    2    0    0  0.00000000000E+00  0.00000000000E+00 -0.16487838110E+02  0.10967212608E+04  0.10965973167E+04 0.  0.
        3    1    3    3  502    0  0.19882927121E+03 -0.34382231798E+03 -0.38628736141E+03  0.55404404267E+03  0.10100000352E+00 0. -1.
       -3    1    3    3    0  502 -0.19882927121E+03  0.34382231798E+03  0.36979952330E+03  0.54267721812E+03  0.10100000352E+00 0.  1.
</event>
<event>
 5   0  0.5627232E-03  0.1138866E+04  0.7818609E-02  0.9168117E-01
       -2   -1    0    0    0  501  0.00000000000E+00  0.00000000000E+00  0.13565204753E+03  0.13565204755E+03  0.25500000920E-02 0.  1.
        2   -1    0    0  501    0  0.00000000000E+00  0.00000000000E+00 -0.23903363229E+04  0.23903363229E+04  0.25500000920E-02 0. -1.
    10030    2    1    2    0    0  0.00000000000E+00  0.00000000000E+00 -0.22546842754E+04  0.25259883705E+04  0.11388661318E+04 0.  0.
        2    1    3    3  502    0 -0.19176530774E+03 -0.18897688077E+03 -0.22402488971E+04  0.22563690558E+04  0.25500000920E-02 0. -1.
       -2    1    3    3    0  502  0.19176530774E+03  0.18897688077E+03 -0.14435378276E+02  0.26961931472E+03  0.25500000920E-02 0.  1.
</event>
<event>
 5   0  0.5941585E-03  0.1086635E+04  0.7818609E-02  0.9218317E-01
       -2   -1    0    0    0  501  0.00000000000E+00  0.00000000000E+00  0.13288547852E+03  0.13288547855E+03  0.25500000920E-02 0.  1.
        2   -1    0    0  501    0  0.00000000000E+00  0.00000000000E+00 -0.22214148485E+04  0.22214148485E+04  0.25500000920E-02 0. -1.
    10030    2    1    2    0    0  0.00000000000E+00  0.00000000000E+00 -0.20885293700E+04  0.23543003271E+04  0.10866347596E+04 0.  0.
        5    1    3    3  502    0  0.12696456471E+03 -0.17197912672E+03  0.37895789324E+02  0.21715202409E+03  0.46999998093E+01 0.  1.
       -5    1    3    3    0  502 -0.12696456471E+03  0.17197912672E+03 -0.21264251593E+04  0.21371483030E+04  0.46999998093E+01 0. -1.
</event>
<event>
 5   0  0.3316784E-03  0.1093374E+04  0.7818609E-02  0.9211674E-01
       -1   -1    0    0    0  501  0.00000000000E+00  0.00000000000E+00  0.46130020216E+03  0.46130020219E+03  0.50400001928E-02 0. -1.
        1   -1    0    0  501    0  0.00000000000E+00  0.00000000000E+00 -0.64787917592E+03  0.64787917594E+03  0.50400001928E-02 0.  1.
    10030    2    1    2    0    0  0.00000000000E+00  0.00000000000E+00 -0.18657897376E+03  0.11091793781E+04  0.10933742175E+04 0.  0.
        4    1    3    3  502    0 -0.47218484620E+02 -0.37974004510E+03  0.30278109957E+03  0.48796525932E+03  0.12699999809E+01 0. -1.
       -4    1    3    3    0  502  0.47218484620E+02  0.37974004510E+03 -0.48936007333E+03  0.62121411881E+03  0.12699999809E+01 0.  1.
</event>
<event>
 5   0  0.3215352E-03  0.9653410E+03  0.7818609E-02  0.9347397E-01
       -1   -1    0    0    0  501  0.00000000000E+00  0.00000000000E+00  0.22901472887E+03  0.22901472892E+03  0.50400001928E-02 0.  1.
        1   -1    0    0  501    0  0.00000000000E+00  0.00000000000E+00 -0.10172744020E+04  0.10172744020E+04  0.50400001928E-02 0. -1.
    10030    2    1    2    0    0  0.00000000000E+00  0.00000000000E+00 -0.78825967312E+03  0.12462891309E+04  0.96534102035E+03 0.  0.
        1    1    3    3  502    0 -0.44954393479E+03 -0.15512258759E+03 -0.50073255821E+03  0.69056922996E+03  0.50400001928E-02 0. -1.
       -1    1    3    3    0  502  0.44954393479E+03  0.15512258759E+03 -0.28752711491E+03  0.55571990096E+03  0.50400001928E-02 0.  1.
</event>
<event>
 5   0  0.5627232E-03  0.1100401E+04  0.7818609E-02  0.9204801E-01
       -2   -1    0    0    0  501  0.00000000000E+00  0.00000000000E+00  0.20174308694E+03  0.20174308696E+03  0.25500000920E-02 0. -1.
        2   -1    0    0  501    0  0.00000000000E+00  0.00000000000E+00 -0.15005247076E+04  0.15005247076E+04  0.25500000920E-02 0.  1.
    10030    2    1    2    0    0  0.00000000000E+00  0.00000000000E+00 -0.12987816207E+04  0.17022677946E+04  0.11004008116E+04 0.  0.
        2    1    3    3  502    0 -0.13714440499E+03 -0.45826328764E+03 -0.10699419001E+04  0.11720023456E+04  0.25500000920E-02 0.  1.
       -2    1    3    3    0  502  0.13714440499E+03  0.45826328764E+03 -0.22883972061E+03  0.53026544896E+03  0.25500000920E-02 0. -1.
</event>
<event>
 5   0  0.2185750E-03  0.1102281E+04  0.7818609E-02  0.9202972E-01
        3   -1    0    0  501    0  0.00000000000E+00  0.00000000000E+00  0.35564276627E+03  0.35564278061E+03  0.10100000352E+00 0.  1.
       -3   -1    0    0    0  501  0.00000000000E+00  0.00000000000E+00 -0.85410376294E+03  0.85410376891E+03  0.10100000352E+00 0. -1.
    10030    2    1    2    0    0  0.00000000000E+00  0.00000000000E+00 -0.49846099667E+03  0.12097465495E+04  0.11022809755E+04 0.  0.
        1    1    3    3  502    0  0.29538142919E+03 -0.32481114736E+03 -0.61488435326E+03  0.75553639096E+03  0.50400001928E-02 0. -1.
       -1    1    3    3    0  502 -0.29538142919E+03  0.32481114736E+03  0.11642335659E+03  0.45421015856E+03  0.50400001928E-02 0.  1.
</event>
<event>
 5   0  0.3316784E-03  0.9865332E+03  0.7818609E-02  0.9323439E-01
       -1   -1    0    0    0  501  0.00000000000E+00  0.00000000000E+00  0.16145418931E+03  0.16145418939E+03  0.50400001928E-02 0.  1.
        1   -1    0    0  501    0  0.00000000000E+00  0.00000000000E+00 -0.15070030296E+04  0.15070030296E+04  0.50400001928E-02 0. -1.
    10030    2    1    2    0    0  0.00000000000E+00  0.00000000000E+00 -0.13455488403E+04  0.16684572190E+04  0.98653322805E+03 0.  0.
        4    1    3    3  502    0 -0.72250691286E+02  0.15111534965E+03  0.11188158758E+03  0.20143265334E+03  0.12699999809E+01 0.  1.
       -4    1    3    3    0  502  0.72250691286E+02 -0.15111534965E+03 -0.14574304279E+04  0.14670245657E+04  0.12699999809E+01 0. -1.
</event>
<event>
 5   0  0.5946359E-03  0.1097825E+04  0.7818609E-02  0.9207315E-01
       -2   -1    0    0    0  501  0.00000000000E+00  0.00000000000E+00  0.23568776438E+03  0.23568776439E+03  0.25500000920E-02 0. -1.
        2   -1    0    0  501    0  0.00000000000E+00  0.00000000000E+00 -0.12784066221E+04  0.12784066221E+04  0.25500000920E-02 0.  1.
    10030    2    1    2    0    0  0.00000000000E+00  0.00000000000E+00 -0.10427188577E+04  0.15140943865E+04  0.10978247560E+04 0.  0.
        4    1    3    3  502    0 -0.29503819592E+03  0.29308294688E+03 -0.27240536263E+02  0.41675989553E+03  0.12699999809E+01 0. -1.
       -4    1    3    3    0  502  0.29503819592E+03 -0.29308294688E+03 -0.10154783215E+04  0.10973344910E+04  0.12699999809E+01 0.  1.
</event>
<event>
 5   0  0.3241189E-03  0.1112672E+04  0.7818609E-02  0.9192928E-01
        1   -1    0    0  501    0  0.00000000000E+00  0.00000000000E+00  0.58419185866E+03  0.58419185868E+03  0.50400001928E-02 0.  1.
       -1   -1    0    0    0  501  0.00000000000E+00  0.00000000000E+00 -0.52980876096E+03  0.52980876098E+03  0.50400001928E-02 0. -1.
    10030    2    1    2    0    0  0.00000000000E+00  0.00000000000E+00  0.54383097703E+02  0.11140006197E+04  0.11126723953E+04 0.  0.
        5    1    3    3  502    0  0.26007091480E+03  0.34336172388E+03  0.37968244307E+03  0.57420815191E+03  0.46999998093E+01 0.  1.
       -5    1    3    3    0  502 -0.26007091480E+03 -0.34336172388E+03 -0.32529934537E+03  0.53979246775E+03  0.46999998093E+01 0. -1.
</event>
<event>
 5   0  0.5941585E-03  0.1044421E+04  0.7818609E-02  0.9261123E-01
        2   -1    0    0  501    0  0.00000000000E+00  0.00000000000E+00  0.27782053459E+04  0.27782053459E+04  0.25500000920E-02 0.  1.
       -2   -1    0    0    0  501  0.00000000000E+00  0.00000000000E+00 -0.98158255168E+02  0.98158255202E+02  0.25500000920E-02 0. -1.
    10030    2    1    2    0    0  0.00000000000E+00  0.00000000000E+00  0.26800470907E+04  0.28763636011E+04  0.10444209674E+04 0.  0.
        5    1    3    3  502    0  0.12508770626E+03  0.44221089201E+03  0.65713427246E+03  0.80190083508E+03  0.46999998093E+01 0. -1.
       -5    1    3    3    0  502 -0.12508770626E+03 -0.44221089201E+03  0.20229128183E+04  0.20744627660E+04  0.46999998093E+01 0.  1.
</event>
<event>
 5   0  0.5723194E-03  0.1098533E+04  0.7818609E-02  0.9206623E-01
       -2   -1    0    0    0  501  0.00000000000E+00  0.00000000000E+00  0.49191290941E+03  0.49191290942E+03  0.25500000920E-02 0. -1.
        2   -1    0    0  501    0  0.00000000000E+00  0.00000000000E+00 -0.61330740783E+03  0.61330740783E+03  0.25500000920E-02 0.  1.
    10030    2    1    2    0    0  0.00000000000E+00  0.00000000000E+00 -0.12139449841E+03  0.11052203173E+04  0.10985332610E+04 0.  0.
        1    1    3    3  502    0 -0.14357837945E+03 -0.13511518057E+02 -0.59392019258E+03  0.61117796700E+03  0.50400001928E-02 0.  1.
       -1    1    3    3    0  502  0.14357837945E+03  0.13511518057E+02  0.47252569417E+03  0.49404235025E+03  0.50400001928E-02 0. -1.
</event>
<event>
 5   0  0.3328741E-03  0.1147519E+04  0.7818609E-02  0.9160076E-01
       -1   -1    0    0    0  501  0.00000000000E+00  0.00000000000E+00  0.62465547045E+03  0.62465547047E+03  0.50400001928E-02 0. -1.
        1   -1    0    0  501    0  0.00000000000E+00  0.00000000000E+00 -0.52701025947E+03  0.52701025950E+03  0.50400001928E-02 0.  1.
    10030    2    1    2    0    0  0.00000000000E+00  0.00000000000E+00  0.97645210976E+02  0.11516657300E+04  0.11475187869E+04 0.  0.
        3    1    3    3  502    0  0.39328651725E+03 -0.30864202350E+03  0.33138160665E+03  0.59978993218E+03  0.10100000352E+00 0. -1.
       -3    1    3    3    0  502 -0.39328651725E+03  0.30864202350E+03 -0.23373639567E+03  0.55187579779E+03  0.10100000352E+00 0.  1.
</event>
<event>
 5   0  0.3316784E-03  0.1104479E+04  0.7818609E-02  0.9200837E-01
        1   -1    0    0  501    0  0.00000000000E+00  0.00000000000E+00  0.31596801258E+03  0.31596801262E+03  0.50400001928E-02 0.  1.
       -1   -1    0    0    0  501  0.00000000000E+00  0.00000000000E+00 -0.96518797566E+03  0.96518797567E+03  0.50400001928E-02 0. -1.
    10030    2    1    2    0    0  0.00000000000E+00  0.00000000000E+00 -0.64921996308E+03  0.12811559883E+04  0.11044791107E+04 0.  0.
        4    1    3    3  502    0 -0.55103671189E+03 -0.28325748810E+02 -0.29807981052E+03  0.62713395079E+03  0.12699999809E+01 0.  1.
       -4    1    3    3    0  502  0.55103671189E+03  0.28325748810E+02 -0.35114015256E+03  0.65402203750E+03  0.12699999809E+01 0. -1.
</event>
<event>
 5   0  0.3316784E-03  0.1079977E+04  0.7818609E-02  0.9224930E-01
        1   -1    0    0  501    0  0.00000000000E+00  0.00000000000E+00  0.59225759375E+03  0.59225759378E+03  0.50400001928E-02 0.  1.
       -1   -1    0    0    0  501  0.00000000000E+00  0.00000000000E+00 -0.49233226320E+03  0.49233226322E+03  0.50400001928E-02 0. -1.
    10030    2    1    2    0    0  0.00000000000E+00  0.00000000000E+00  0.99925330559E+02  0.10845898570E+04  0.10799768915E+04 0.  0.
        4    1    3    3  502    0  0.55473040895E+02 -0.44886796531E+03 -0.24629942743E+03  0.51499973728E+03  0.12699999809E+01 0. -1.
       -4    1    3    3    0  502 -0.55473040895E+02  0.44886796531E+03  0.34622475798E+03  0.56959011972E+03  0.12699999809E+01 0.  1.
</event>
<event>
 5   0  0.3316784E-03  0.1081099E+04  0.7818609E-02  0.9223812E-01
       -1   -1    0    0    0  501  0.00000000000E+00  0.00000000000E+00  0.37229646513E+03  0.37229646517E+03  0.50400001928E-02 0.  1.
        1   -1    0    0  501    0  0.00000000000E+00  0.00000000000E+00 -0.78484230274E+03  0.78484230276E+03  0.50400001928E-02 0. -1.
    10030    2    1    2    0    0  0.00000000000E+00  0.00000000000E+00 -0.41254583761E+03  0.11571387679E+04  0.10810994682E+04 0.  0.
        4    1    3    3  502    0  0.95374273234E+02  0.47727483985E+03  0.45437682582E+02  0.48882892779E+03  0.12699999809E+01 0. -1.
       -4    1    3    3    0  502 -0.95374273234E+02 -0.47727483985E+03 -0.45798352019E+03  0.66830984013E+03  0.12699999809E+01 0.  1.
</event>
<event>
 5   0  0.3328741E-03  0.1070907E+04  0.7818609E-02  0.9234021E-01
        1   -1    0    0  501    0  0.00000000000E+00  0.00000000000E+00  0.47176778606E+03  0.47176778609E+03  0.50400001928E-02 0.  1.
       -1   -1    0    0    0  501  0.00000000000E+00  0.00000000000E+00 -0.60773662940E+03  0.60773662942E+03  0.50400001928E-02 0. -1.
    10030    2    1    2    0    0  0.00000000000E+00  0.00000000000E+00 -0.13596884334E+03  0.10795044155E+04  0.10709072120E+04 0.  0.
        3    1    3    3  502    0  0.68112477107E+02 -0.45920025621E+03 -0.33697186091E+03  0.57363248695E+03  0.10100000352E+00 0. -1.
       -3    1    3    3    0  502 -0.68112477107E+02  0.45920025621E+03  0.20100301756E+03  0.50587192856E+03  0.10100000352E+00 0.  1.
</event>
<event>
 5   0  0.5941585E-03  0.1071945E+04  0.7818609E-02  0.9232976E-01
        2   -1    0    0  501    0  0.00000000000E+00  0.00000000000E+00  0.49381597549E+03  0.49381597550E+03  0.25500000920E-02 0.  1.
       -2   -1    0    0    0  501  0.00000000000E+00  0.00000000000E+00 -0.58172818917E+03  0.58172818918E+03  0.25500000920E-02 0. -1.
    10030    2    1    2    0    0  0.00000000000E+00  0.00000000000E+00 -0.87912213684E+02  0.10755441647E+04  0.10719452845E+04 0.  0.
        5    1    3    3  502    0 -0.44627159375E+03 -0.25936486767E+03 -0.18871839903E+03  0.54960457977E+03  0.46999998093E+01 0. -1.
       -5    1    3    3    0  502  0.44627159375E+03  0.25936486767E+03  0.10080618535E+03  0.52593958491E+03  0.46999998093E+01 0.  1.
</event>
<event>
 5   0  0.5627232E-03  0.1093892E+04  0.7818609E-02  0.9211166E-01
       -2   -1    0    0    0  501  0.00000000000E+00  0.00000000000E+00  0.86701915952E+03  0.86701915952E+03  0.25500000920E-02 0.  1.
        2   -1    0    0  501    0  0.00000000000E+00  0.00000000000E+00 -0.34503236007E+03  0.34503236008E+03  0.25500000920E-02 0. -1.
    10030    2    1    2    0    0  0.00000000000E+00  0.00000000000E+00  0.52198679945E+03  0.12120515196E+04  0.10938915245E+04 0.  0.
        2    1    3    3  502    0  0.37838085254E+03  0.23374675850E+03  0.61371932422E+03  0.75793207189E+03  0.25500000920E-02 0.  1.
       -2    1    3    3    0  502 -0.37838085254E+03 -0.23374675850E+03 -0.91732524771E+02  0.45411944771E+03  0.25500000920E-02 0. -1.
</event>
<event>
 5   0  0.3320192E-03  0.1084139E+04  0.7818609E-02  0.9220791E-01
        1   -1    0    0  501    0  0.00000000000E+00  0.00000000000E+00  0.15124936284E+04  0.15124936284E+04  0.50400001928E-02 0. -1.
       -1   -1    0    0    0  501  0.00000000000E+00  0.00000000000E+00 -0.19427464177E+03  0.19427464183E+03  0.50400001928E-02 0.  1.
    10030    2    1    2    0    0  0.00000000000E+00  0.00000000000E+00  0.13182189866E+04  0.17067682702E+04  0.10841386588E+04 0.  0.
        2    1    3    3  502    0  0.51500850819E+03  0.10170690419E+03  0.44636751325E+03  0.68907330144E+03  0.25500000920E-02 0. -1.
       -2    1    3    3    0  502 -0.51500850819E+03 -0.10170690419E+03  0.87185147336E+03  0.10176949688E+04  0.25500000920E-02 0.  1.
</event>
<event>
 5   0  0.3215352E-03  0.1093195E+04  0.7818609E-02  0.9211850E-01
       -1   -1    0    0    0  501  0.00000000000E+00  0.00000000000E+00  0.53261957434E+03  0.53261957437E+03  0.50400001928E-02 0.  1.
        1   -1    0    0  501    0  0.00000000000E+00  0.00000000000E+00 -0.56094265691E+03  0.56094265693E+03  0.50400001928E-02 0. -1.
    10030    2    1    2    0    0  0.00000000000E+00  0.00000000000E+00 -0.28323082563E+02  0.10935622313E+04  0.10931953882E+04 0.  0.
        1    1    3    3  502    0 -0.36737107571E+03  0.13239672842E+03  0.36843070640E+03  0.53687203914E+03  0.50400001928E-02 0. -1.
       -1    1    3    3    0  502  0.36737107571E+03 -0.13239672842E+03 -0.39675378896E+03  0.55669019216E+03  0.50400001928E-02 0.  1.
</event>
<event>
 5   0  0.3328741E-03  0.1099619E+04  0.7818609E-02  0.9205563E-01
        1   -1    0    0  501    0  0.00000000000E+00  0.00000000000E+00  0.13265104311E+04  0.13265104311E+04  0.50400001928E-02 0. -1.
       -1   -1    0    0    0  501  0.00000000000E+00  0.00000000000E+00 -0.22788390526E+03  0.22788390531E+03  0.50400001928E-02 0.  1.
    10030    2    1    2    0    0  0.00000000000E+00  0.00000000000E+00  0.10986265259E+04  0.15543943364E+04  0.10996188021E+04 0.  0.
        3    1    3    3  502    0 -0.10313257333E+03  0.66461894936E+02  0.13069118053E+04  0.13126583669E+04  0.10100000352E+00 0. -1.
       -3    1    3    3    0  502  0.10313257333E+03 -0.66461894936E+02 -0.20828527941E+03  0.24173596956E+03  0.10100000352E+00 0.  1.
</event>
<event>
 5   0  0.3215352E-03  0.1102138E+04  0.7818609E-02  0.9203111E-01
       -1   -1    0    0    0  501  0.00000000000E+00  0.00000000000E+00  0.28435630977E+03  0.28435630982E+03  0.50400001928E-02 0. -1.
        1   -1    0    0  501    0  0.00000000000E+00  0.00000000000E+00 -0.10679446343E+04  0.10679446343E+04  0.50400001928E-02 0.  1.
    10030    2    1    2    0    0  0.00000000000E+00  0.00000000000E+00 -0.78358832453E+03  0.13523009441E+04  0.11021375509E+04 0.  0.
        1    1    3    3  502    0 -0.26331675608E+03 -0.64160454493E+02 -0.98052032664E+03  0.10172867781E+04  0.50400001928E-02 0.  1.
       -1    1    3    3    0  502  0.26331675608E+03  0.64160454493E+02  0.19693200211E+03  0.33501416602E+03  0.50400001928E-02 0. -1.
</event>
<event>
 5   0  0.3316784E-03  0.7916785E+03  0.7818609E-02  0.9572141E-01
       -1   -1    0    0    0  501  0.00000000000E+00  0.00000000000E+00  0.21145514080E+03  0.21145514086E+03  0.50400001928E-02 0. -1.
        1   -1    0    0  501    0  0.00000000000E+00  0.00000000000E+00 -0.74100209662E+03  0.74100209664E+03  0.50400001928E-02 0.  1.
    10030    2    1    2    0    0  0.00000000000E+00  0.00000000000E+00 -0.52954695582E+03  0.95245723751E+03  0.79167847695E+03 0.  0.
        4    1    3    3  502    0 -0.39261583244E+03  0.41482570286E+02 -0.29920558486E+03  0.49537217365E+03  0.12699999809E+01 0.  1.
       -4    1    3    3    0  502  0.39261583244E+03 -0.41482570286E+02 -0.23034137096E+03  0.45708506385E+03  0.12699999809E+01 0. -1.
</event>
<event>
 5   0  0.3316784E-03  0.1103144E+04  0.7818609E-02  0.9202133E-01
       -1   -1    0    0    0  501  0.00000000000E+00  0.00000000000E+00  0.97339646490E+03  0.97339646491E+03  0.50400001928E-02 0.  1.
        1   -1    0    0  501    0  0.00000000000E+00  0.00000000000E+00 -0.31254644773E+03  0.31254644777E+03  0.50400001928E-02 0. -1.
    10030    2    1    2    0    0  0.00000000000E+00  0.00000000000E+00  0.66085001717E+03  0.12859429127E+04  0.11031438843E+04 0.  0.
        4    1    3    3  502    0  0.46498486790E+02  0.54400787251E+03  0.42164352409E+03  0.68984893196E+03  0.12699999809E+01 0.  1.
       -4    1    3    3    0  502 -0.46498486790E+02 -0.54400787251E+03  0.23920649308E+03  0.59609398072E+03  0.12699999809E+01 0. -1.
</event>
<event>
 5   0  0.3328741E-03  0.1087034E+04  0.7818609E-02  0.9217922E-01
        1   -1    0    0  501    0  0.00000000000E+00  0.00000000000E+00  0.33602734198E+03  0.33602734202E+03  0.50400001928E-02 0. -1.
       -1   -1    0    0    0  501  0.00000000000E+00  0.00000000000E+00 -0.87912702364E+03  0.87912702366E+03  0.50400001928E-02 0.  1.
    10030    2    1    2    0    0  0.00000000000E+00  0.00000000000E+00 -0.54309968166E+03  0.12151543657E+04  0.10870339775E+04 0.  0.
        3    1    3    3  502    0 -0.26052320427E+03  0.47632115569E+03 -0.24290717203E+03  0.59477566169E+03  0.10100000352E+00 0. -1.
       -3    1    3    3    0  502  0.26052320427E+03 -0.47632115569E+03 -0.30019250963E+03  0.62037870399E+03  0.10100000352E+00 0.  1.
</event>
<event>
 5   0  0.5627232E-03  0.1101101E+04  0.7818609E-02  0.9204119E-01
        2   -1    0    0  501    0  0.00000000000E+00  0.00000000000E+00  0.10699805284E+04  0.10699805284E+04  0.25500000920E-02 0.  1.
       -2   -1    0    0    0  501  0.00000000000E+00  0.00000000000E+00 -0.28328177617E+03  0.28328177619E+03  0.25500000920E-02 0. -1.
    10030    2    1    2    0    0  0.00000000000E+00  0.00000000000E+00  0.78669875223E+03  0.13532623046E+04  0.11011012389E+04 0.  0.
        2    1    3    3  502    0 -0.19133826931E+03 -0.22176390169E+03 -0.17957989034E+03  0.34356731278E+03  0.25500000920E-02 0. -1.
       -2    1    3    3    0  502  0.19133826931E+03  0.22176390169E+03  0.96627864257E+03  0.10096949918E+04  0.25500000920E-02 0.  1.
</event>
<event>
 5   0  0.3241189E-03  0.1106616E+04  0.7818609E-02  0.9198767E-01
       -1   -1    0    0    0  501  0.00000000000E+00  0.00000000000E+00  0.37730797813E+03  0.37730797816E+03  0.50400001928E-02 0.  1.
        1   -1    0    0  501    0  0.00000000000E+00  0.00000000000E+00 -0.81140571606E+03  0.81140571608E+03  0.50400001928E-02 0. -1.
    10030    2    1    2    0    0  0.00000000000E+00  0.00000000000E+00 -0.43409773793E+03  0.11887136942E+04  0.11066161940E+04 0.  0.
        5    1    3    3  502    0 -0.28224066171E+03 -0.12566521745E+03 -0.71009551137E+03  0.77440897674E+03  0.46999998093E+01 0. -1.
       -5    1    3    3    0  502  0.28224066171E+03  0.12566521745E+03  0.27599777344E+03  0.41430471750E+03  0.46999998093E+01 0.  1.
</event>
<event>
 5   0  0.5723194E-03  0.1167309E+04  0.7818609E-02  0.9141962E-01
        2   -1    0    0  501    0  0.00000000000E+00  0.00000000000E+00  0.69546850141E+03  0.69546850141E+03  0.25500000920E-02 0.  1.
       -2   -1    0    0    0  501  0.00000000000E+00  0.00000000000E+00 -0.48981718183E+03  0.48981718184E+03  0.25500000920E-02 0. -1.
    10030    2    1    2    0    0  0.00000000000E+00  0.00000000000E+00  0.20565131958E+03  0.11852856832E+04  0.11673087362E+04 0.  0.
        1    1    3    3  502    0  0.25456009421E+03 -0.52517521761E+03  0.96200561040E+02  0.59149336322E+03  0.50400001928E-02 0.  1.
       -1    1    3    3    0  502 -0.25456009421E+03  0.52517521761E+03  0.10945075854E+03  0.59379232003E+03  0.50400001928E-02 0. -1.
</event>
<event>
 5   0  0.3328741E-03  0.1100903E+04  0.7818609E-02  0.9204312E-01
       -1   -1    0    0    0  501  0.00000000000E+00  0.00000000000E+00  0.78844657674E+03  0.78844657675E+03  0.50400001928E-02 0.  1.
        1   -1    0    0  501    0  0.00000000000E+00  0.00000000000E+00 -0.38429627444E+03  0.38429627447E+03  0.50400001928E-02 0. -1.
    10030    2    1    2    0    0  0.00000000000E+00  0.00000000000E+00  0.40415030230E+03  0.11727428512E+04  0.11009034146E+04 0.  0.
        3    1    3    3  502    0 -0.19320060705E+03 -0.36146014016E+03  0.59349970648E+03  0.72126404269E+03  0.10100000352E+00 0.  1.
       -3    1    3    3    0  502  0.19320060705E+03  0.36146014016E+03 -0.18934940418E+03  0.45147880853E+03  0.10100000352E+00 0. -1.
</event>
<event>
 5   0  0.5723194E-03  0.1103658E+04  0.7818609E-02  0.9201634E-01
       -2   -1    0    0    0  501  0.00000000000E+00  0.00000000000E+00  0.24509860796E+03  0.24509860797E+03  0.25500000920E-02 0. -1.
        2   -1    0    0  501    0  0.00000000000E+00  0.00000000000E+00 -0.12424199483E+04  0.12424199483E+04  0.25500000920E-02 0.  1.
    10030    2    1    2    0    0  0.00000000000E+00  0.00000000000E+00 -0.99732134035E+03  0.14875185563E+04  0.11036582802E+04 0.  0.
        1    1    3    3  502    0  0.20487085634E+03  0.19947339874E+03  0.13746105018E+03  0.31726525956E+03  0.50400001928E-02 0. -1.
       -1    1    3    3    0  502 -0.20487085634E+03 -0.19947339874E+03 -0.11347823905E+04  0.11702532967E+04  0.50400001928E-02 0.  1.
</event>
<event>
 5   0  0.3215352E-03  0.1115580E+04  0.7818609E-02  0.9190139E-01
       -1   -1    0    0    0  501  0.00000000000E+00  0.00000000000E+00  0.26035532373E+03  0.26035532378E+03  0.50400001928E-02 0.  1.
        1   -1    0    0  501    0  0.00000000000E+00  0.00000000000E+00 -0.11950184496E+04  0.11950184496E+04  0.50400001928E-02 0. -1.
    10030    2    1    2    0    0  0.00000000000E+00  0.00000000000E+00 -0.93466312583E+03  0.14553737734E+04  0.11155795182E+04 0.  0.
        1    1    3    3  502    0 -0.21712769667E+03  0.51162922178E+03 -0.52880693549E+03  0.76716730397E+03  0.50400001928E-02 0. -1.
       -1    1    3    3    0  502  0.21712769667E+03 -0.51162922178E+03 -0.40585619035E+03  0.68820646939E+03  0.50400001928E-02 0.  1.
</event>
<event>
 5   0  0.5941585E-03  0.1107704E+04  0.7818609E-02  0.9197715E-01
       -2   -1    0    0    0  501  0.00000000000E+00  0.00000000000E+00  0.22054842579E+03  0.22054842580E+03  0.25500000920E-02 0. -1.
        2   -1    0    0  501    0  0.00000000000E+00  0.00000000000E+00 -0.13908612389E+04  0.13908612389E+04  0.25500000920E-02 0.  1.
    10030    2    1    2    0    0  0.00000000000E+00  0.00000000000E+00 -0.11703128131E+04  0.16114096647E+04  0.11077043951E+04 0.  0.
        5    1    3    3  502    0 -0.26983177994E+03  0.25135839544E+03 -0.11862604373E+04  0.12422665364E+04  0.46999998093E+01 0.  1.
       -5    1    3    3    0  502  0.26983177994E+03 -0.25135839544E+03  0.15947624209E+02  0.36914312826E+03  0.46999998093E+01 0. -1.
</event>
<event>
 5   0  0.3320192E-03  0.1101045E+04  0.7818609E-02  0.9204174E-01
        1   -1    0    0  501    0  0.00000000000E+00  0.00000000000E+00  0.72511651995E+03  0.72511651997E+03  0.50400001928E-02 0.  1.
       -1   -1    0    0    0  501  0.00000000000E+00  0.00000000000E+00 -0.41796702119E+03  0.41796702122E+03  0.50400001928E-02 0. -1.
    10030    2    1    2    0    0  0.00000000000E+00  0.00000000000E+00  0.30714949876E+03  0.11430835412E+04  0.11010445802E+04 0.  0.
        2    1    3    3  502    0  0.29955142302E+03 -0.43039542485E+03  0.32761647874E+03  0.61830723262E+03  0.25500000920E-02 0.  1.
       -2    1    3    3    0  502 -0.29955142302E+03  0.43039542485E+03 -0.20466979982E+02  0.52477630857E+03  0.25500000920E-02 0. -1.
</event>
<event>
 5   0  0.5500363E-03  0.1090797E+04  0.7818609E-02  0.9214208E-01
       -2   -1    0    0    0  501  0.00000000000E+00  0.00000000000E+00  0.16481233847E+03  0.16481233849E+03  0.25500000920E-02 0.  1.
        2   -1    0    0  501    0  0.00000000000E+00  0.00000000000E+00 -0.18048389496E+04  0.18048389496E+04  0.25500000920E-02 0. -1.
    10030    2    1    2    0    0  0.00000000000E+00  0.00000000000E+00 -0.16400266111E+04  0.19696512881E+04  0.10907973742E+04 0.  0.
        3    1    3    3  502    0  0.41218552192E+03 -0.32923461062E+01 -0.17511853975E+03  0.44785517434E+03  0.10100000352E+00 0.  1.
       -3    1    3    3    0  502 -0.41218552192E+03  0.32923461062E+01 -0.14649080714E+04  0.15217961137E+04  0.10100000352E+00 0. -1.
</event>
<event>
 5   0  0.5627232E-03  0.1075440E+04  0.7818609E-02  0.9229466E-01
       -2   -1    0    0    0  501  0.00000000000E+00  0.00000000000E+00  0.42070267883E+03  0.42070267884E+03  0.25500000920E-02 0. -1.
        2   -1    0    0  501    0  0.00000000000E+00  0.00000000000E+00 -0.68728549236E+03  0.68728549236E+03  0.25500000920E-02 0.  1.
    10030    2    1    2    0    0  0.00000000000E+00  0.00000000000E+00 -0.26658281353E+03  0.11079881712E+04  0.10754400918E+04 0.  0.
        2    1    3    3  502    0  0.23647591133E+03  0.48031275239E+03 -0.81555580263E+02  0.54154640561E+03  0.25500000920E-02 0. -1.
       -2    1    3    3    0  502 -0.23647591133E+03 -0.48031275239E+03 -0.18502723327E+03  0.56644176559E+03  0.25500000920E-02 0.  1.
</event>
<event>
 5   0  0.3320192E-03  0.1111615E+04  0.7818609E-02  0.9193945E-01
        1   -1    0    0  501    0  0.00000000000E+00  0.00000000000E+00  0.26699080500E+04  0.26699080500E+04  0.50400001928E-02 0. -1.
       -1   -1    0    0    0  501  0.00000000000E+00  0.00000000000E+00 -0.11570503749E+03  0.11570503760E+03  0.50400001928E-02 0.  1.
    10030    2    1    2    0    0  0.00000000000E+00  0.00000000000E+00  0.25542030125E+04  0.27856130876E+04  0.11116147016E+04 0.  0.
        2    1    3    3  502    0 -0.62359165169E+02  0.29958699044E+03  0.11439757104E+03  0.32669226283E+03  0.25500000920E-02 0.  1.
       -2    1    3    3    0  502  0.62359165169E+02 -0.29958699044E+03  0.24398054415E+04  0.24589208248E+04  0.25500000920E-02 0. -1.
</event>
<event>
 5   0  0.2185750E-03  0.1165571E+04  0.7818609E-02  0.9143538E-01
       -4   -1    0    0    0  501  0.00000000000E+00  0.00000000000E+00  0.53355051856E+03  0.53355203003E+03  0.12699999809E+01 0. -1.
        4   -1    0    0  501    0  0.00000000000E+00  0.00000000000E+00 -0.63656058332E+03  0.63656185020E+03  0.12699999809E+01 0.  1.
    10030    2    1    2    0    0  0.00000000000E+00  0.00000000000E+00 -0.10301006476E+03  0.11701138802E+04  0.11655708555E+04 0.  0.
        2    1    3    3  502    0 -0.48776731983E+03 -0.31650915276E+03 -0.12059993512E+02  0.58158442682E+03  0.25500000920E-02 0.  1.
       -2    1    3    3    0  502  0.48776731983E+03  0.31650915276E+03 -0.90950071250E+02  0.58852945341E+03  0.25500000920E-02 0. -1.
</event>
<event>
 5   0  0.5941585E-03  0.1049338E+04  0.7818609E-02  0.9256028E-01
        2   -1    0    0  501    0  0.00000000000E+00  0.00000000000E+00  0.27460503518E+04  0.27460503518E+04  0.25500000920E-02 0. -1.
       -2   -1    0    0    0  501  0.00000000000E+00  0.00000000000E+00 -0.10024493208E+03  0.10024493211E+03  0.25500000920E-02 0.  1.
    10030    2    1    2    0    0  0.00000000000E+00  0.00000000000E+00  0.26458054197E+04  0.28462952839E+04  0.10493381363E+04 0.  0.
        5    1    3    3  502    0  0.18353476558E+03  0.49149799119E+03  0.13242738699E+04  0.14244222190E+04  0.46999998093E+01 0. -1.
       -5    1    3    3    0  502 -0.18353476558E+03 -0.49149799119E+03  0.13215315498E+04  0.14218730649E+04  0.46999998093E+01 0.  1.
</event>
<event>
 5   0  0.5500363E-03  0.1096876E+04  0.7818609E-02  0.9208242E-01
        2   -1    0    0  501    0  0.00000000000E+00  0.00000000000E+00  0.72793322902E+03  0.72793322903E+03  0.25500000920E-02 0.  1.
       -2   -1    0    0    0  501  0.00000000000E+00  0.00000000000E+00 -0.41320298178E+03  0.41320298179E+03  0.25500000920E-02 0. -1.
    10030    2    1    2    0    0  0.00000000000E+00  0.00000000000E+00  0.31473024725E+03  0.11411362108E+04  0.10968758923E+04 0.  0.
        3    1    3    3  502    0 -0.29935832918E+02 -0.44901126937E+03 -0.16877611173E+03  0.48061695789E+03  0.10100000352E+00 0. -1.
       -3    1    3    3    0  502  0.29935832918E+02  0.44901126937E+03  0.48350635898E+03  0.66051925293E+03  0.10100000352E+00 0.  1.
</event>
<event>
 5   0  0.5723194E-03  0.1089285E+04  0.7818609E-02  0.9215698E-01
       -2   -1    0    0    0  501  0.00000000000E+00  0.00000000000E+00  0.36610070489E+03  0.36610070490E+03  0.25500000920E-02 0. -1.
        2   -1    0    0  501    0  0.00000000000E+00  0.00000000000E+00 -0.81025694818E+03  0.81025694818E+03  0.25500000920E-02 0.  1.
    10030    2    1    2    0    0  0.00000000000E+00  0.00000000000E+00 -0.44415624329E+03  0.11763576531E+04  0.10892853435E+04 0.  0.
        1    1    3    3  502    0 -0.21274488419E+03  0.47502785570E+03 -0.48871215901E+02  0.52278125943E+03  0.50400001928E-02 0. -1.
       -1    1    3    3    0  502  0.21274488419E+03 -0.47502785570E+03 -0.39528502739E+03  0.65357639366E+03  0.50400001928E-02 0.  1.
</event>
<event>
 5   0  0.3241189E-03  0.1080643E+04  0.7818609E-02  0.9224267E-01
        1   -1    0    0  501    0  0.00000000000E+00  0.00000000000E+00  0.14208194866E+04  0.14208194866E+04  0.50400001928E-02 0. -1.
       -1   -1    0    0    0  501  0.00000000000E+00  0.00000000000E+00 -0.20547797852E+03  0.20547797858E+03  0.50400001928E-02 0.  1.
    10030    2    1    2    0    0  0.00000000000E+00  0.00000000000E+00  0.12153415080E+04  0.16262974651E+04  0.10806426162E+04 0.  0.
        5    1    3    3  502    0 -0.37265405559E+03 -0.19874473146E+03  0.10053983060E+03  0.43416685844E+03  0.46999998093E+01 0. -1.
       -5    1    3    3    0  502  0.37265405559E+03  0.19874473146E+03  0.11148016774E+04  0.11921306067E+04  0.46999998093E+01 0.  1.
</event>
<event>
 5   0  0.3215352E-03  0.1119035E+04  0.7818609E-02  0.9186835E-01
        1   -1    0    0  501    0  0.00000000000E+00  0.00000000000E+00  0.17527496983E+04  0.17527496984E+04  0.50400001928E-02 0. -1.
       -1   -1    0    0    0  501  0.00000000000E+00  0.00000000000E+00 -0.17861058151E+03  0.17861058158E+03  0.50400001928E-02 0.  1.
    10030    2    1    2    0    0  0.00000000000E+00  0.00000000000E+00  0.15741391168E+04  0.19313602799E+04  0.11190346606E+04 0.  0.
        1    1    3    3  502    0  0.29904047882E+03 -0.46821139431E+03  0.90171673277E+03  0.10591223649E+04  0.50400001928E-02 0. -1.
       -1    1    3    3    0  502 -0.29904047882E+03  0.46821139431E+03  0.67242238408E+03  0.87223791500E+03  0.50400001928E-02 0.  1.
</event>
<event>
 5   0  0.2185750E-03  0.1088130E+04  0.7818609E-02  0.9216839E-01
        3   -1    0    0  501    0  0.00000000000E+00  0.00000000000E+00  0.43548039429E+03  0.43548040600E+03  0.10100000352E+00 0. -1.
       -3   -1    0    0    0  501  0.00000000000E+00  0.00000000000E+00 -0.67972513975E+03  0.67972514725E+03  0.10100000352E+00 0.  1.
    10030    2    1    2    0    0  0.00000000000E+00  0.00000000000E+00 -0.24424474546E+03  0.11152055533E+04  0.10881304749E+04 0.  0.
        5    1    3    3  502    0  0.33134584285E+02 -0.68310773626E+01 -0.67862522273E+03  0.67948425090E+03  0.46999998093E+01 0.  1.
       -5    1    3    3    0  502 -0.33134584285E+02  0.68310773626E+01  0.43438047727E+03  0.43572130236E+03  0.46999998093E+01 0. -1.
</event>
<event>
 5   0  0.5627232E-03  0.1083815E+04  0.7818609E-02  0.9221112E-01
        2   -1    0    0  501    0  0.00000000000E+00  0.00000000000E+00  0.45092871376E+03  0.45092871377E+03  0.25500000920E-02 0. -1.
       -2   -1    0    0    0  501  0.00000000000E+00  0.00000000000E+00 -0.65124226888E+03  0.65124226889E+03  0.25500000920E-02 0.  1.
    10030    2    1    2    0    0  0.00000000000E+00  0.00000000000E+00 -0.20031355512E+03  0.11021709827E+04  0.10838151847E+04 0.  0.
        2    1    3    3  502    0  0.39639600738E+03  0.26894836787E+03 -0.35782687823E+03  0.59791562452E+03  0.25500000920E-02 0.  1.
       -2    1    3    3    0  502 -0.39639600738E+03 -0.26894836787E+03  0.15751332311E+03  0.50425535814E+03  0.25500000920E-02 0. -1.
</event>
<event>
 5   0  0.3320192E-03  0.1105812E+04  0.7818609E-02  0.9199546E-01
        1   -1    0    0  501    0  0.00000000000E+00  0.00000000000E+00  0.34231691491E+03  0.34231691495E+03  0.50400001928E-02 0.  1.
       -1   -1    0    0    0  501  0.00000000000E+00  0.00000000000E+00 -0.89304611593E+03  0.89304611594E+03  0.50400001928E-02 0. -1.
    10030    2    1    2    0    0  0.00000000000E+00  0.00000000000E+00 -0.55072920102E+03  0.12353630309E+04  0.11058115415E+04 0.  0.
        2    1    3    3  502    0 -0.47367104821E+03 -0.79220211953E+02  0.30712840981E+02  0.48123111132E+03  0.25500000920E-02 0.  1.
       -2    1    3    3    0  502  0.47367104821E+03  0.79220211953E+02 -0.58144204200E+03  0.75413191957E+03  0.25500000920E-02 0. -1.
</event>
<event>
 5   0  0.5500363E-03  0.1112005E+04  0.7818609E-02  0.9193570E-01
       -2   -1    0    0    0  501  0.00000000000E+00  0.00000000000E+00  0.29876480465E+03  0.29876480467E+03  0.25500000920E-02 0.  1.
        2   -1    0    0  501    0  0.00000000000E+00  0.00000000000E+00 -0.10347222061E+04  0.10347222061E+04  0.25500000920E-02 0. -1.
    10030    2    1    2    0    0  0.00000000000E+00  0.00000000000E+00 -0.73595740145E+03  0.13334870108E+04  0.11120046363E+04 0.  0.
        3    1    3    3  502    0  0.39127340757E+03  0.23809172240E+03  0.10010406338E+02  0.45812963906E+03  0.10100000352E+00 0.  1.
       -3    1    3    3    0  502 -0.39127340757E+03 -0.23809172240E+03 -0.74596780778E+03  0.87535737171E+03  0.10100000352E+00 0. -1.
</event>
<event>
 5   0  0.5941585E-03  0.1110680E+04  0.7818609E-02  0.9194844E-01
        2   -1    0    0  501    0  0.00000000000E+00  0.00000000000E+00  0.37000596176E+03  0.37000596177E+03  0.25500000920E-02 0. -1.
       -2   -1    0    0    0  501  0.00000000000E+00  0.00000000000E+00 -0.83350751877E+03  0.83350751878E+03  0.25500000920E-02 0.  1.
    10030    2    1    2    0    0  0.00000000000E+00  0.00000000000E+00 -0.46350155701E+03  0.12035134805E+04  0.11106804241E+04 0.  0.
        5    1    3    3  502    0  0.21073348462E+03 -0.31965227294E+03  0.20410589240E+03  0.43389800926E+03  0.46999998093E+01 0. -1.
       -5    1    3    3    0  502 -0.21073348462E+03  0.31965227294E+03 -0.66760744941E+03  0.76961547128E+03  0.46999998093E+01 0.  1.
</event>
<event>
 5   0  0.2185750E-03  0.1090790E+04  0.7818609E-02  0.9214215E-01
       -3   -1    0    0    0  501  0.00000000000E+00  0.00000000000E+00  0.41662969623E+03  0.41662970847E+03  0.10100000352E+00 0.  1.
        3   -1    0    0  501    0  0.00000000000E+00  0.00000000000E+00 -0.71395752693E+03  0.71395753407E+03  0.10100000352E+00 0. -1.
    10030    2    1    2    0    0  0.00000000000E+00  0.00000000000E+00 -0.29732783070E+03  0.11305872425E+04  0.10907903896E+04 0.  0.
        5    1    3    3  502    0 -0.10794895080E+03 -0.47925089252E+02 -0.70052158550E+03  0.71042407892E+03  0.46999998093E+01 0. -1.
       -5    1    3    3    0  502  0.10794895080E+03  0.47925089252E+02  0.40319375480E+03  0.42016316362E+03  0.46999998093E+01 0.  1.
</event>
<event>
 5   0  0.3328741E-03  0.1079212E+04  0.7818609E-02  0.9225693E-01
        1   -1    0    0  501    0  0.00000000000E+00  0.00000000000E+00  0.14463712396E+04  0.14463712396E+04  0.50400001928E-02 0. -1.
       -1   -1    0    0    0  501  0.00000000000E+00  0.00000000000E+00 -0.20131398283E+03  0.20131398289E+03  0.50400001928E-02 0.  1.
    10030    2    1    2    0    0  0.00000000000E+00  0.00000000000E+00  0.12450572568E+04  0.16476852225E+04  0.10792122219E+04 0.  0.
        3    1    3    3  502    0 -0.17854369607E+02 -0.42710755352E+03  0.11252789323E+04  0.12037409715E+04  0.10100000352E+00 0. -1.
       -3    1    3    3    0  502  0.17854369607E+02  0.42710755352E+03  0.11977832448E+03  0.44394425101E+03  0.10100000352E+00 0.  1.
</event>
<event>
 5   0  0.3241189E-03  0.1098629E+04  0.7818609E-02  0.9206529E-01
        1   -1    0    0  501    0  0.00000000000E+00  0.00000000000E+00  0.54898700960E+03  0.54898700962E+03  0.50400001928E-02 0. -1.
       -1   -1    0    0    0  501  0.00000000000E+00  0.00000000000E+00 -0.54964247606E+03  0.54964247609E+03  0.50400001928E-02 0.  1.
    10030    2    1    2    0    0  0.00000000000E+00  0.00000000000E+00 -0.65546646637E+00  0.10986294857E+04  0.10986292902E+04 0.  0.
        5    1    3    3  502    0 -0.24355667869E+02  0.31946545618E+03  0.44584844713E+03  0.54904854435E+03  0.46999998093E+01 0. -1.
       -5    1    3    3    0  502  0.24355667869E+02 -0.31946545618E+03 -0.44650391359E+03  0.54958094136E+03  0.46999998093E+01 0.  1.
</event>
<event>
 5   0  0.5723194E-03  0.1084406E+04  0.7818609E-02  0.9220526E-01
        2   -1    0    0  501    0  0.00000000000E+00  0.00000000000E+00  0.93302962997E+03  0.93302962998E+03  0.25500000920E-02 0. -1.
       -2   -1    0    0    0  501  0.00000000000E+00  0.00000000000E+00 -0.31508538371E+03  0.31508538372E+03  0.25500000920E-02 0.  1.
    10030    2    1    2    0    0  0.00000000000E+00  0.00000000000E+00  0.61794424626E+03  0.12481150137E+04  0.10844058262E+04 0.  0.
        1    1    3    3  502    0 -0.45535873640E+03 -0.94877193881E+02  0.62965784443E+03  0.78282965057E+03  0.50400001928E-02 0. -1.
       -1    1    3    3    0  502  0.45535873640E+03  0.94877193881E+02 -0.11713598173E+02  0.46528536313E+03  0.50400001928E-02 0.  1.
</event>
<event>
 5   0  0.5946359E-03  0.1089691E+04  0.7818609E-02  0.9215298E-01
       -2   -1    0    0    0  501  0.00000000000E+00  0.00000000000E+00  0.39207054329E+03  0.39207054330E+03  0.25500000920E-02 0. -1.
        2   -1    0    0  501    0  0.00000000000E+00  0.00000000000E+00 -0.75715086918E+03  0.75715086918E+03  0.25500000920E-02 0.  1.
    10030    2    1    2    0    0  0.00000000000E+00  0.00000000000E+00 -0.36508032589E+03  0.11492214125E+04  0.10896908784E+04 0.  0.
        4    1    3    3  502    0 -0.18476177302E+03 -0.34212547780E+03  0.21997546550E+03  0.44674105884E+03  0.12699999809E+01 0. -1.
       -4    1    3    3    0  502  0.18476177302E+03  0.34212547780E+03 -0.58505579138E+03  0.70248035365E+03  0.12699999809E+01 0.  1.
</event>
<event>
 5   0  0.2185750E-03  0.1097234E+04  0.7818609E-02  0.9207892E-01
        4   -1    0    0  501    0  0.00000000000E+00  0.00000000000E+00  0.52224269050E+03  0.52224423470E+03  0.12699999809E+01 0.  1.
       -4   -1    0    0    0  501  0.00000000000E+00  0.00000000000E+00 -0.57632024191E+03  0.57632164121E+03  0.12699999809E+01 0. -1.
    10030    2    1    2    0    0  0.00000000000E+00  0.00000000000E+00 -0.54077551409E+02  0.10985658759E+04  0.10972340690E+04 0.  0.
        5    1    3    3  502    0 -0.16743271180E+01  0.22125761693E+03  0.47556737759E+03  0.52454185443E+03  0.46999998093E+01 0.  1.
       -5    1    3    3    0  502  0.16743271180E+01 -0.22125761693E+03 -0.52964492900E+03  0.57402402148E+03  0.46999998093E+01 0. -1.
</event>
<event>
 5   0  0.3316784E-03  0.1108235E+04  0.7818609E-02  0.9197203E-01
        1   -1    0    0  501    0  0.00000000000E+00  0.00000000000E+00  0.14957888260E+04  0.14957888260E+04  0.50400001928E-02 0. -1.
       -1   -1    0    0    0  501  0.00000000000E+00  0.00000000000E+00 -0.20527366804E+03  0.20527366810E+03  0.50400001928E-02 0.  1.
    10030    2    1    2    0    0  0.00000000000E+00  0.00000000000E+00  0.12905151580E+04  0.17010624941E+04  0.11082347386E+04 0.  0.
        4    1    3    3  502    0  0.19556325611E+03  0.35854111677E+03  0.12200836070E+04  0.12866243976E+04  0.12699999809E+01 0. -1.
       -4    1    3    3    0  502 -0.19556325611E+03 -0.35854111677E+03  0.70431550957E+02  0.41443809649E+03  0.12699999809E+01 0.  1.
</event>
<event>
 5   0  0.5500363E-03  0.1112991E+04  0.7818609E-02  0.9192622E-01
        2   -1    0    0  501    0  0.00000000000E+00  0.00000000000E+00  0.14938210174E+04  0.14938210174E+04  0.25500000920E-02 0.  1.
       -2   -1    0    0    0  501  0.00000000000E+00  0.00000000000E+00 -0.20731201432E+03  0.20731201433E+03  0.25500000920E-02 0. -1.
    10030    2    1    2    0    0  0.00000000000E+00  0.00000000000E+00  0.12865090031E+04  0.17011330317E+04  0.11129906453E+04 0.  0.
        3    1    3    3  502    0 -0.21361766915E+03 -0.15395477701E+03  0.13925809157E+04  0.14172565748E+04  0.10100000352E+00 0.  1.
       -3    1    3    3    0  502  0.21361766915E+03  0.15395477701E+03 -0.10607191261E+03  0.28387645691E+03  0.10100000352E+00 0. -1.
</event>
<event>
 5   0  0.3215352E-03  0.1070924E+04  0.7818609E-02  0.9234004E-01
       -1   -1    0    0    0  501  0.00000000000E+00  0.00000000000E+00  0.40164068105E+03  0.40164068108E+03  0.50400001928E-02 0.  1.
        1   -1    0    0  501    0  0.00000000000E+00  0.00000000000E+00 -0.71387111513E+03  0.71387111515E+03  0.50400001928E-02 0. -1.
    10030    2    1    2    0    0  0.00000000000E+00  0.00000000000E+00 -0.31223043408E+03  0.11155117962E+04  0.10709242380E+04 0.  0.
        1    1    3    3  502    0  0.79543123628E+02  0.16253107672E+03  0.36882754021E+03  0.41082504045E+03  0.50400001928E-02 0.  1.
       -1    1    3    3    0  502 -0.79543123628E+02 -0.16253107672E+03 -0.68105797429E+03  0.70468675578E+03  0.50400001928E-02 0. -1.
</event>
<event>
 5   0  0.5941585E-03  0.1130059E+04  0.7818609E-02  0.9176380E-01
       -2   -1    0    0    0  501  0.00000000000E+00  0.00000000000E+00  0.53256080888E+03  0.53256080888E+03  0.25500000920E-02 0. -1.
        2   -1    0    0  501    0  0.00000000000E+00  0.00000000000E+00 -0.59947776207E+03  0.59947776207E+03  0.25500000920E-02 0.  1.
    10030    2    1    2    0    0  0.00000000000E+00  0.00000000000E+00 -0.66916953193E+02  0.11320385710E+04  0.11300590460E+04 0.  0.
        5    1    3    3  502    0  0.32719544381E+03 -0.11529276506E+02 -0.49475016710E+03  0.59328711473E+03  0.46999998093E+01 0.  1.
       -5    1    3    3    0  502 -0.32719544381E+03  0.11529276506E+02  0.42783321391E+03  0.53875145622E+03  0.46999998093E+01 0. -1.
</event>
<event>
 5   0  0.3320192E-03  0.1112986E+04  0.7818609E-02  0.9192626E-01
       -1   -1    0    0    0  501  0.00000000000E+00  0.00000000000E+00  0.13417931655E+04  0.13417931655E+04  0.50400001928E-02 0. -1.
        1   -1    0    0  501    0  0.00000000000E+00  0.00000000000E+00 -0.23079907088E+03  0.23079907094E+03  0.50400001928E-02 0.  1.
    10030    2    1    2    0    0  0.00000000000E+00  0.00000000000E+00  0.11109940946E+04  0.15725922364E+04  0.11129862820E+04 0.  0.
        2    1    3    3  502    0  0.24598328769E+03 -0.19949433487E+02 -0.14924965272E+03  0.28841154027E+03  0.25500000920E-02 0.  1.
       -2    1    3    3    0  502 -0.24598328769E+03  0.19949433487E+02  0.12602437473E+04  0.12841806961E+04  0.25500000920E-02 0. -1.
</event>
<event>
 5   0  0.5723194E-03  0.1098900E+04  0.7818609E-02  0.9206264E-01
       -2   -1    0    0    0  501  0.00000000000E+00  0.00000000000E+00  0.17146206843E+03  0.17146206845E+03  0.25500000920E-02 0. -1.
        2   -1    0    0  501    0  0.00000000000E+00  0.00000000000E+00 -0.17607127918E+04  0.17607127918E+04  0.25500000920E-02 0.  1.
    10030    2    1    2    0    0  0.00000000000E+00  0.00000000000E+00 -0.15892507234E+04  0.19321748603E+04  0.10989002816E+04 0.  0.
        1    1    3    3  502    0  0.46790922197E+03 -0.15122968916E+03 -0.12256228936E+04  0.13205911313E+04  0.50400001928E-02 0. -1.
       -1    1    3    3    0  502 -0.46790922197E+03  0.15122968916E+03 -0.36362782986E+03  0.61158372898E+03  0.50400001928E-02 0.  1.
</event>
<event>
 5   0  0.5627232E-03  0.1101131E+04  0.7818609E-02  0.9204090E-01
        2   -1    0    0  501    0  0.00000000000E+00  0.00000000000E+00  0.28977396618E+03  0.28977396619E+03  0.25500000920E-02 0. -1.
       -2   -1    0    0    0  501  0.00000000000E+00  0.00000000000E+00 -0.10460652457E+04  0.10460652457E+04  0.25500000920E-02 0.  1.
    10030    2    1    2    0    0  0.00000000000E+00  0.00000000000E+00 -0.75629127948E+03  0.13358392119E+04  0.11011311913E+04 0.  0.
        2    1    3    3  502    0 -0.13830778950E+03 -0.41816703214E+03  0.22616539958E+02  0.44102632494E+03  0.25500000920E-02 0. -1.
       -2    1    3    3    0  502  0.13830778950E+03  0.41816703214E+03 -0.77890781944E+03  0.89481288692E+03  0.25500000920E-02 0.  1.
</event>
<event>
 5   0  0.2185750E-03  0.1053173E+04  0.7818609E-02  0.9252074E-01
        3   -1    0    0  501    0  0.00000000000E+00  0.00000000000E+00  0.41671216404E+03  0.41671217628E+03  0.10100000352E+00 0. -1.
       -3   -1    0    0    0  501  0.00000000000E+00  0.00000000000E+00 -0.66543138858E+03  0.66543139625E+03  0.10100000352E+00 0.  1.
    10030    2    1    2    0    0  0.00000000000E+00  0.00000000000E+00 -0.24871922455E+03  0.10821435725E+04  0.10531730432E+04 0.  0.
        4    1    3    3  502    0 -0.39490756003E+03 -0.21514319577E+02  0.23287770180E+03  0.45896457795E+03  0.12699999809E+01 0. -1.
       -4    1    3    3    0  502  0.39490756003E+03  0.21514319577E+02 -0.48159692634E+03  0.62317899458E+03  0.12699999809E+01 0.  1.
</event>
<event>
 5   0  0.3316784E-03  0.1106044E+04  0.7818609E-02  0.9199321E-01
        1   -1    0    0  501    0  0.00000000000E+00  0.00000000000E+00  0.66666724913E+03  0.66666724915E+03  0.50400001928E-02 0.  1.
       -1   -1    0    0    0  501  0.00000000000E+00  0.00000000000E+00 -0.45874943901E+03  0.45874943904E+03  0.50400001928E-02 0. -1.
    10030    2    1    2    0    0  0.00000000000E+00  0.00000000000E+00  0.20791781012E+03  0.11254166882E+04  0.11060438085E+04 0.  0.
        4    1    3    3  502    0 -0.43324232789E+03  0.24949019631E+03 -0.13658687657E+03  0.51826813570E+03  0.12699999809E+01 0. -1.
       -4    1    3    3    0  502  0.43324232789E+03 -0.24949019631E+03  0.34450468669E+03  0.60714855248E+03  0.12699999809E+01 0.  1.
</event>
<event>
 5   0  0.2185750E-03  0.1089549E+04  0.7818609E-02  0.9215439E-01
       -3   -1    0    0    0  501  0.00000000000E+00  0.00000000000E+00  0.23979337667E+03  0.23979339794E+03  0.10100000352E+00 0. -1.
        3   -1    0    0  501    0  0.00000000000E+00  0.00000000000E+00 -0.12376448698E+04  0.12376448739E+04  0.10100000352E+00 0.  1.
    10030    2    1    2    0    0  0.00000000000E+00  0.00000000000E+00 -0.99785149316E+03  0.14774382719E+04  0.10895486427E+04 0.  0.
        3    1    3    3  502    0  0.18131651904E+03 -0.50136940847E+03 -0.65072667386E+03  0.84124442233E+03  0.10100000352E+00 0.  1.
       -3    1    3    3    0  502 -0.18131651904E+03  0.50136940847E+03 -0.34712481929E+03  0.63619384955E+03  0.10100000352E+00 0. -1.
</event>
<event>
 5   0  0.5946359E-03  0.1171583E+04  0.7818609E-02  0.9138100E-01
       -2   -1    0    0    0  501  0.00000000000E+00  0.00000000000E+00  0.21681566363E+03  0.21681566364E+03  0.25500000920E-02 0. -1.
        2   -1    0    0  501    0  0.00000000000E+00  0.00000000000E+00 -0.15826872888E+04  0.15826872888E+04  0.25500000920E-02 0.  1.
    10030    2    1    2    0    0  0.00000000000E+00  0.00000000000E+00 -0.13658716252E+04  0.17995029525E+04  0.11715825107E+04 0.  0.
        4    1    3    3  502    0  0.27479694120E+03 -0.26467169224E+03 -0.13656784401E+04  0.14179716775E+04  0.12699999809E+01 0.  1.
       -4    1    3    3    0  502 -0.27479694120E+03  0.26467169224E+03 -0.19318511653E+00  0.38153127498E+03  0.12699999809E+01 0. -1.
</event>
<event>
 5   0  0.5941585E-03  0.1110834E+04  0.7818609E-02  0.9194696E-01
        2   -1    0    0  501    0  0.00000000000E+00  0.00000000000E+00  0.26858790587E+04  0.26858790587E+04  0.25500000920E-02 0.  1.
       -2   -1    0    0    0  501  0.00000000000E+00  0.00000000000E+00 -0.11485552794E+03  0.11485552797E+03  0.25500000920E-02 0. -1.
    10030    2    1    2    0    0  0.00000000000E+00  0.00000000000E+00  0.25710235308E+04  0.28007345867E+04  0.11108340242E+04 0.  0.
        5    1    3    3  502    0  0.54748974261E+02 -0.54204056703E+03  0.15577706919E+04  0.16502960477E+04  0.46999998093E+01 0. -1.
       -5    1    3    3    0  502 -0.54748974261E+02  0.54204056703E+03  0.10132528389E+04  0.11504385390E+04  0.46999998093E+01 0.  1.
</event>
<event>
 5   0  0.3215352E-03  0.1106113E+04  0.7818609E-02  0.9199254E-01
        1   -1    0    0  501    0  0.00000000000E+00  0.00000000000E+00  0.14341676337E+04  0.14341676337E+04  0.50400001928E-02 0.  1.
       -1   -1    0    0    0  501  0.00000000000E+00  0.00000000000E+00 -0.21327469762E+03  0.21327469768E+03  0.50400001928E-02 0. -1.
    10030    2    1    2    0    0  0.00000000000E+00  0.00000000000E+00  0.12208929360E+04  0.16474423313E+04  0.11061133187E+04 0.  0.
        1    1    3    3  502    0  0.19312809202E+03 -0.13126663122E+02  0.13820648811E+04  0.13955551242E+04  0.50400001928E-02 0.  1.
       -1    1    3    3    0  502 -0.19312809202E+03  0.13126663122E+02 -0.16117194505E+03  0.25188720712E+03  0.50400001928E-02 0. -1.
</event>
<event>
 5   0  0.5946359E-03  0.1062093E+04  0.7818609E-02  0.9242947E-01
       -2   -1    0    0    0  501  0.00000000000E+00  0.00000000000E+00  0.36841105166E+03  0.36841105167E+03  0.25500000920E-02 0.  1.
        2   -1    0    0  501    0  0.00000000000E+00  0.00000000000E+00 -0.76547762418E+03  0.76547762418E+03  0.25500000920E-02 0. -1.
    10030    2    1    2    0    0  0.00000000000E+00  0.00000000000E+00 -0.39706657252E+03  0.11338886759E+04  0.10620930591E+04 0.  0.
        4    1    3    3  502    0  0.17330673772E+03 -0.39404817609E+03  0.13345305479E+03  0.45068894057E+03  0.12699999809E+01 0. -1.
       -4    1    3    3    0  502 -0.17330673772E+03  0.39404817609E+03 -0.53051962731E+03  0.68319973528E+03  0.12699999809E+01 0.  1.
</event>
<event>
 5   0  0.2185750E-03  0.1104973E+04  0.7818609E-02  0.9200359E-01
        3   -1    0    0  501    0  0.00000000000E+00  0.00000000000E+00  0.32127599682E+03  0.32127601270E+03  0.10100000352E+00 0. -1.
       -3   -1    0    0    0  501  0.00000000000E+00  0.00000000000E+00 -0.95008987082E+03  0.95008987618E+03  0.10100000352E+00 0.  1.
    10030    2    1    2    0    0  0.00000000000E+00  0.00000000000E+00 -0.62881387399E+03  0.12713658889E+04  0.11049725496E+04 0.  0.
        1    1    3    3  502    0  0.44812287601E+03 -0.20534551433E+03 -0.60150105324E+03  0.77767886003E+03  0.50400001928E-02 0.  1.
       -1    1    3    3    0  502 -0.44812287601E+03  0.20534551433E+03 -0.27312820753E+02  0.49368702886E+03  0.50400001928E-02 0. -1.
</event>
<event>
 5   0  0.3328741E-03  0.1030467E+04  0.7818609E-02  0.9275746E-01
        1   -1    0    0  501    0  0.00000000000E+00  0.00000000000E+00  0.12217830138E+04  0.12217830138E+04  0.50400001928E-02 0. -1.
       -1   -1    0    0    0  501  0.00000000000E+00  0.00000000000E+00 -0.21727717632E+03  0.21727717638E+03  0.50400001928E-02 0.  1.
    10030    2    1    2    0    0  0.00000000000E+00  0.00000000000E+00  0.10045058375E+04  0.14390601902E+04  0.10304670075E+04 0.  0.
        3    1    3    3  502    0 -0.60047471178E+02 -0.45181091496E+03  0.83778451813E+03  0.95374090333E+03  0.10100000352E+00 0.  1.
       -3    1    3    3    0  502  0.60047471178E+02  0.45181091496E+03  0.16672131934E+03  0.48531928685E+03  0.10100000352E+00 0. -1.
</event>
<event>
 5   0  0.3320192E-03  0.1087931E+04  0.7818609E-02  0.9217036E-01
        1   -1    0    0  501    0  0.00000000000E+00  0.00000000000E+00  0.86636502938E+03  0.86636502939E+03  0.50400001928E-02 0. -1.
       -1   -1    0    0    0  501  0.00000000000E+00  0.00000000000E+00 -0.34154011956E+03  0.34154011960E+03  0.50400001928E-02 0.  1.
    10030    2    1    2    0    0  0.00000000000E+00  0.00000000000E+00  0.52482490982E+03  0.12079051490E+04  0.10879309091E+04 0.  0.
        2    1    3    3  502    0 -0.27938278253E+03 -0.36977676349E+01 -0.25577914155E+03  0.37880256325E+03  0.25500000920E-02 0.  1.
       -2    1    3    3    0  502  0.27938278253E+03  0.36977676349E+01  0.78060405137E+03  0.82910258574E+03  0.25500000920E-02 0. -1.
</event>
<event>
 5   0  0.3320192E-03  0.1096153E+04  0.7818609E-02  0.9208949E-01
       -1   -1    0    0    0  501  0.00000000000E+00  0.00000000000E+00  0.52420928281E+03  0.52420928283E+03  0.50400001928E-02 0. -1.
        1   -1    0    0  501    0  0.00000000000E+00  0.00000000000E+00 -0.57303078302E+03  0.57303078304E+03  0.50400001928E-02 0.  1.
    10030    2    1    2    0    0  0.00000000000E+00  0.00000000000E+00 -0.48821500211E+02  0.10972400659E+04  0.10961533758E+04 0.  0.
        2    1    3    3  502    0  0.13800970066E+03 -0.18841496759E+03 -0.52072603045E+03  0.57070349244E+03  0.25500000920E-02 0.  1.
       -2    1    3    3    0  502 -0.13800970066E+03  0.18841496759E+03  0.47190453024E+03  0.52653657343E+03  0.25500000920E-02 0. -1.
</event>
<event>
 5   0  0.3215352E-03  0.1143429E+04  0.7818609E-02  0.9163867E-01
       -1   -1    0    0    0  501  0.00000000000E+00  0.00000000000E+00  0.33662694693E+03  0.33662694697E+03  0.50400001928E-02 0. -1.
        1   -1    0    0  501    0  0.00000000000E+00  0.00000000000E+00 -0.97097910164E+03  0.97097910166E+03  0.50400001928E-02 0.  1.
    10030    2    1    2    0    0  0.00000000000E+00  0.00000000000E+00 -0.63435215471E+03  0.13076060486E+04  0.11434294566E+04 0.  0.
        1    1    3    3  502    0  0.44888034824E+03  0.19960031551E+03  0.17258548642E+02  0.49156048510E+03  0.50400001928E-02 0. -1.
       -1    1    3    3    0  502 -0.44888034824E+03 -0.19960031551E+03 -0.65161070336E+03  0.81604556352E+03  0.50400001928E-02 0.  1.
</event>
<event>
 5   0  0.3241189E-03  0.1106722E+04  0.7818609E-02  0.9198665E-01
        1   -1    0    0  501    0  0.00000000000E+00  0.00000000000E+00  0.53694948092E+03  0.53694948095E+03  0.50400001928E-02 0. -1.
       -1   -1    0    0    0  501  0.00000000000E+00  0.00000000000E+00 -0.57027436980E+03  0.57027436983E+03  0.50400001928E-02 0.  1.
    10030    2    1    2    0    0  0.00000000000E+00  0.00000000000E+00 -0.33324888882E+02  0.11072238508E+04  0.11067222359E+04 0.  0.
        5    1    3    3  502    0 -0.40954487308E+03  0.14249452640E+03  0.32722979712E+03  0.54326156062E+03  0.46999998093E+01 0. -1.
       -5    1    3    3    0  502  0.40954487308E+03 -0.14249452640E+03 -0.36055468600E+03  0.56396229016E+03  0.46999998093E+01 0.  1.
</event>
<event>
 5   0  0.3320192E-03  0.1089797E+04  0.7818609E-02  0.9215194E-01
        1   -1    0    0  501    0  0.00000000000E+00  0.00000000000E+00  0.12226547888E+04  0.12226547888E+04  0.50400001928E-02 0.  1.
       -1   -1    0    0    0  501  0.00000000000E+00  0.00000000000E+00 -0.24284403753E+03  0.24284403758E+03  0.50400001928E-02 0. -1.
    10030    2    1    2    0    0  0.00000000000E+00  0.00000000000E+00  0.97981075123E+03  0.14654988264E+04  0.10897970920E+04 0.  0.
        2    1    3    3  502    0  0.46000058755E+03  0.16816884079E+03  0.81105204170E+03  0.94746330479E+03  0.25500000920E-02 0. -1.
       -2    1    3    3    0  502 -0.46000058755E+03 -0.16816884079E+03  0.16875870952E+03  0.51803552157E+03  0.25500000920E-02 0.  1.
</event>
<event>
 5   0  0.5946359E-03  0.1262428E+04  0.7818609E-02  0.9059902E-01
        2   -1    0    0  501    0  0.00000000000E+00  0.00000000000E+00  0.12718088443E+04  0.12718088443E+04  0.25500000920E-02 0.  1.
       -2   -1    0    0    0  501  0.00000000000E+00  0.00000000000E+00 -0.31327905330E+03  0.31327905331E+03  0.25500000920E-02 0. -1.
    10030    2    1    2    0    0  0.00000000000E+00  0.00000000000E+00  0.95852979098E+03  0.15850878976E+04  0.12624279318E+04 0.  0.
        4    1    3    3  502    0  0.36107396584E+03  0.50417393739E+03  0.62710292747E+03  0.88194413797E+03  0.12699999809E+01 0. -1.
       -4    1    3    3    0  502 -0.36107396584E+03 -0.50417393739E+03  0.33142686351E+03  0.70314375963E+03  0.12699999809E+01 0.  1.
</event>
<event>
 5   0  0.5946359E-03  0.1110439E+04  0.7818609E-02  0.9195076E-01
       -2   -1    0    0    0  501  0.00000000000E+00  0.00000000000E+00  0.23558076364E+03  0.23558076365E+03  0.25500000920E-02 0.  1.
        2   -1    0    0  501    0  0.00000000000E+00  0.00000000000E+00 -0.13085486580E+04  0.13085486580E+04  0.25500000920E-02 0. -1.
    10030    2    1    2    0    0  0.00000000000E+00  0.00000000000E+00 -0.10729678944E+04  0.15441294217E+04  0.11104393583E+04 0.  0.
        4    1    3    3  502    0  0.80726881874E+01 -0.48995168005E+03 -0.17347271098E+03  0.51981940271E+03  0.12699999809E+01 0.  1.
       -4    1    3    3    0  502 -0.80726881874E+01  0.48995168005E+03 -0.89949518338E+03  0.10243100189E+04  0.12699999809E+01 0. -1.
</event>
<event>
 5   0  0.5723194E-03  0.1099646E+04  0.7818609E-02  0.9205536E-01
       -2   -1    0    0    0  501  0.00000000000E+00  0.00000000000E+00  0.51725934223E+03  0.51725934224E+03  0.25500000920E-02 0.  1.
        2   -1    0    0  501    0  0.00000000000E+00  0.00000000000E+00 -0.58443720142E+03  0.58443720143E+03  0.25500000920E-02 0. -1.
    10030    2    1    2    0    0  0.00000000000E+00  0.00000000000E+00 -0.67177859195E+02  0.11016965437E+04  0.10996464930E+04 0.  0.
        1    1    3    3  502    0 -0.31159953929E+03 -0.41124107070E+03 -0.22392234338E+03  0.56245418214E+03  0.50400001928E-02 0. -1.
       -1    1    3    3    0  502  0.31159953929E+03  0.41124107070E+03  0.15674448419E+03  0.53924236153E+03  0.50400001928E-02 0.  1.
</event>
<event>
 5   0  0.3316784E-03  0.1128895E+04  0.7818609E-02  0.9177477E-01
       -1   -1    0    0    0  501  0.00000000000E+00  0.00000000000E+00  0.19928293162E+04  0.19928293162E+04  0.50400001928E-02 0. -1.
        1   -1    0    0  501    0  0.00000000000E+00  0.00000000000E+00 -0.15987375325E+03  0.15987375333E+03  0.50400001928E-02 0.  1.
    10030    2    1    2    0    0  0.00000000000E+00  0.00000000000E+00  0.18329555630E+04  0.21527030696E+04  0.11288952165E+04 0.  0.
        4    1    3    3  502    0  0.30520721992E+03 -0.11710127276E+03  0.17939374563E+04  0.18234794667E+04  0.12699999809E+01 0. -1.
       -4    1    3    3    0  502 -0.30520721992E+03  0.11710127276E+03  0.39018106647E+02  0.32922360292E+03  0.12699999809E+01 0.  1.
</event>
<event>
 5   0  0.3316784E-03  0.1096004E+04  0.7818609E-02  0.9209096E-01
       -1   -1    0    0    0  501  0.00000000000E+00  0.00000000000E+00  0.81105501282E+03  0.81105501284E+03  0.50400001928E-02 0. -1.
        1   -1    0    0  501    0  0.00000000000E+00  0.00000000000E+00 -0.37026585942E+03  0.37026585945E+03  0.50400001928E-02 0.  1.
    10030    2    1    2    0    0  0.00000000000E+00  0.00000000000E+00  0.44078915341E+03  0.11813208723E+04  0.10960036157E+04 0.  0.
        4    1    3    3  502    0 -0.20316339501E+02 -0.27870389886E+03 -0.28769853916E+03  0.40107440610E+03  0.12699999809E+01 0.  1.
       -4    1    3    3    0  502  0.20316339501E+02  0.27870389886E+03  0.72848769257E+03  0.78024646620E+03  0.12699999809E+01 0. -1.
</event>
<event>
 5   0  0.5941585E-03  0.1099276E+04  0.7818609E-02  0.9205898E-01
        2   -1    0    0  501    0  0.00000000000E+00  0.00000000000E+00  0.14384884579E+04  0.14384884579E+04  0.25500000920E-02 0.  1.
       -2   -1    0    0    0  501  0.00000000000E+00  0.00000000000E+00 -0.21001346200E+03  0.21001346201E+03  0.25500000920E-02 0. -1.
    10030    2    1    2    0    0  0.00000000000E+00  0.00000000000E+00  0.12284749959E+04  0.16485019199E+04  0.10992760183E+04 0.  0.
        5    1    3    3  502    0 -0.32809966032E+03 -0.14683317584E+03 -0.92720750605E+01  0.35960732752E+03  0.46999998093E+01 0. -1.
       -5    1    3    3    0  502  0.32809966032E+03  0.14683317584E+03  0.12377470709E+04  0.12888945924E+04  0.46999998093E+01 0.  1.
</event>
<event>
 5   0  0.3241189E-03  0.1090991E+04  0.7818609E-02  0.9214017E-01
        1   -1    0    0  501    0  0.00000000000E+00  0.00000000000E+00  0.26799372219E+03  0.26799372224E+03  0.50400001928E-02 0.  1.
       -1   -1    0    0    0  501  0.00000000000E+00  0.00000000000E+00 -0.11103447683E+04  0.11103447683E+04  0.50400001928E-02 0. -1.
    10030    2    1    2    0    0  0.00000000000E+00  0.00000000000E+00 -0.84235104607E+03  0.13783384905E+04  0.10909911593E+04 0.  0.
        5    1    3    3  502    0  0.25189268685E+03  0.67679800143E+02 -0.10264302108E+04  0.10590616359E+04  0.46999998093E+01 0. -1.
       -5    1    3    3    0  502 -0.25189268685E+03 -0.67679800143E+02  0.18407916468E+03  0.31927685463E+03  0.46999998093E+01 0.  1.
</event>
<event>
 5   0  0.3241189E-03  0.1117261E+04  0.7818609E-02  0.9188530E-01
       -1   -1    0    0    0  501  0.00000000000E+00  0.00000000000E+00  0.14788058665E+03  0.14788058673E+03  0.50400001928E-02 0. -1.
        1   -1    0    0  501    0  0.00000000000E+00  0.00000000000E+00 -0.21102692394E+04  0.21102692394E+04  0.50400001928E-02 0.  1.
    10030    2    1    2    0    0  0.00000000000E+00  0.00000000000E+00 -0.19623886527E+04  0.22581498261E+04  0.11172606736E+04 0.  0.
        5    1    3    3  502    0  0.36123731595E+02 -0.42087163173E+02  0.14226163544E+03  0.15276359581E+03  0.46999998093E+01 0. -1.
       -5    1    3    3    0  502 -0.36123731595E+02  0.42087163173E+02 -0.21046502881E+04  0.21053862303E+04  0.46999998093E+01 0.  1.
</event>
<event>
 5   0  0.5627232E-03  0.1043630E+04  0.7818609E-02  0.9261946E-01
        2   -1    0    0  501    0  0.00000000000E+00  0.00000000000E+00  0.67346568200E+03  0.67346568200E+03  0.25500000920E-02 0. -1.
       -2   -1    0    0    0  501  0.00000000000E+00  0.00000000000E+00 -0.40431281047E+03  0.40431281048E+03  0.25500000920E-02 0.  1.
    10030    2    1    2    0    0  0.00000000000E+00  0.00000000000E+00  0.26915287152E+03  0.10777784925E+04  0.10436298245E+04 0.  0.
        2    1    3    3  502    0  0.45283558048E+03  0.10142527180E+03 -0.11186044138E+03  0.47734673672E+03  0.25500000920E-02 0.  1.
       -2    1    3    3    0  502 -0.45283558048E+03 -0.10142527180E+03  0.38101331291E+03  0.60043175576E+03  0.25500000920E-02 0. -1.
</event>
<event>
 5   0  0.3328741E-03  0.1078358E+04  0.7818609E-02  0.9226546E-01
       -1   -1    0    0    0  501  0.00000000000E+00  0.00000000000E+00  0.33774938020E+03  0.33774938023E+03  0.50400001928E-02 0.  1.
        1   -1    0    0  501    0  0.00000000000E+00  0.00000000000E+00 -0.86073829027E+03  0.86073829029E+03  0.50400001928E-02 0. -1.
    10030    2    1    2    0    0  0.00000000000E+00  0.00000000000E+00 -0.52298891007E+03  0.11984876705E+04  0.10783576848E+04 0.  0.
        3    1    3    3  502    0 -0.20488053512E+03  0.57483516748E+02  0.28910729495E+03  0.35897552363E+03  0.10100000352E+00 0.  1.
       -3    1    3    3    0  502  0.20488053512E+03 -0.57483516748E+02 -0.81209620502E+03  0.83951214689E+03  0.10100000352E+00 0. -1.
</event>
<event>
 5   0  0.5500363E-03  0.9671755E+03  0.7818609E-02  0.9345297E-01
       -2   -1    0    0    0  501  0.00000000000E+00  0.00000000000E+00  0.14916152396E+03  0.14916152398E+03  0.25500000920E-02 0.  1.
        2   -1    0    0  501    0  0.00000000000E+00  0.00000000000E+00 -0.15678113171E+04  0.15678113171E+04  0.25500000920E-02 0. -1.
    10030    2    1    2    0    0  0.00000000000E+00  0.00000000000E+00 -0.14186497931E+04  0.17169728411E+04  0.96717552774E+03 0.  0.
        3    1    3    3  502    0 -0.19475455559E+03  0.17601472280E+02 -0.14944927248E+04  0.15072317882E+04  0.10100000352E+00 0. -1.
       -3    1    3    3    0  502  0.19475455559E+03 -0.17601472280E+02  0.75842931702E+02  0.20974105283E+03  0.10100000352E+00 0.  1.
</event>
<event>
 5   0  0.2185750E-03  0.1099268E+04  0.7818609E-02  0.9205906E-01
        3   -1    0    0  501    0  0.00000000000E+00  0.00000000000E+00  0.80028788976E+03  0.80028789614E+03  0.10100000352E+00 0. -1.
       -3   -1    0    0    0  501  0.00000000000E+00  0.00000000000E+00 -0.37748612166E+03  0.37748613517E+03  0.10100000352E+00 0.  1.
    10030    2    1    2    0    0  0.00000000000E+00  0.00000000000E+00  0.42280176811E+03  0.11777740313E+04  0.10992680900E+04 0.  0.
        3    1    3    3  502    0 -0.17919780215E+03 -0.32057936288E+02  0.76704995711E+03  0.78835601759E+03  0.10100000352E+00 0. -1.
       -3    1    3    3    0  502  0.17919780215E+03  0.32057936288E+02 -0.34424818900E+03  0.38941801371E+03  0.10100000352E+00 0.  1.
</event>
<event>
 5   0  0.5946359E-03  0.1088066E+04  0.7818609E-02  0.9216902E-01
        2   -1    0    0  501    0  0.00000000000E+00  0.00000000000E+00  0.81845477020E+03  0.81845477020E+03  0.25500000920E-02 0.  1.
       -2   -1    0    0    0  501  0.00000000000E+00  0.00000000000E+00 -0.36162298415E+03  0.36162298416E+03  0.25500000920E-02 0. -1.
    10030    2    1    2    0    0  0.00000000000E+00  0.00000000000E+00  0.45683178605E+03  0.11800777544E+04  0.10880662781E+04 0.  0.
        4    1    3    3  502    0  0.54194166562E+03  0.42301120822E+02  0.25218467522E+03  0.59924024987E+03  0.12699999809E+01 0.  1.
       -4    1    3    3    0  502 -0.54194166562E+03 -0.42301120822E+02  0.20464711083E+03  0.58083750449E+03  0.12699999809E+01 0. -1.
</event>
<event>
 5   0  0.5946359E-03  0.1101364E+04  0.7818609E-02  0.9203863E-01
       -2   -1    0    0    0  501  0.00000000000E+00  0.00000000000E+00  0.25308175843E+03  0.25308175844E+03  0.25500000920E-02 0.  1.
        2   -1    0    0  501    0  0.00000000000E+00  0.00000000000E+00 -0.11982329367E+04  0.11982329367E+04  0.25500000920E-02 0. -1.
    10030    2    1    2    0    0  0.00000000000E+00  0.00000000000E+00 -0.94515117823E+03  0.14513146951E+04  0.11013644240E+04 0.  0.
        4    1    3    3  502    0 -0.15575957327E+03  0.14278464643E+03  0.19753343874E+03  0.28925693119E+03  0.12699999809E+01 0.  1.
       -4    1    3    3    0  502  0.15575957327E+03 -0.14278464643E+03 -0.11426846170E+04  0.11620577639E+04  0.12699999809E+01 0. -1.
</event>
<event>
 5   0  0.3320192E-03  0.1100819E+04  0.7818609E-02  0.9204394E-01
       -1   -1    0    0    0  501  0.00000000000E+00  0.00000000000E+00  0.30231155423E+03  0.30231155427E+03  0.50400001928E-02 0.  1.
        1   -1    0    0  501    0  0.00000000000E+00  0.00000000000E+00 -0.10021145730E+04  0.10021145730E+04  0.50400001928E-02 0. -1.
    10030    2    1    2    0    0  0.00000000000E+00  0.00000000000E+00 -0.69980301879E+03  0.13044261273E+04  0.11008193569E+04 0.  0.
        2    1    3    3  502    0 -0.33711370313E+03  0.12837149261E+03 -0.84251678700E+03  0.91649300343E+03  0.25500000920E-02 0. -1.
       -2    1    3    3    0  502  0.33711370313E+03 -0.12837149261E+03  0.14271376821E+03  0.38793312387E+03  0.25500000920E-02 0.  1.
</event>
<event>
 5   0  0.5723194E-03  0.1088400E+04  0.7818609E-02  0.9216572E-01
        2   -1    0    0  501    0  0.00000000000E+00  0.00000000000E+00  0.18745968153E+04  0.18745968153E+04  0.25500000920E-02 0. -1.
       -2   -1    0    0    0  501  0.00000000000E+00  0.00000000000E+00 -0.15798258842E+03  0.15798258844E+03  0.25500000920E-02 0.  1.
    10030    2    1    2    0    0  0.00000000000E+00  0.00000000000E+00  0.17166142269E+04  0.20325794037E+04  0.10884000315E+04 0.  0.
        1    1    3    3  502    0 -0.39443081825E+03  0.26920544651E+03  0.13456705935E+04  0.14278923591E+04  0.50400001928E-02 0. -1.
       -1    1    3    3    0  502  0.39443081825E+03 -0.26920544651E+03  0.37094363334E+03  0.60468704464E+03  0.50400001928E-02 0.  1.
</event>
<event>
 5   0  0.3215352E-03  0.1099901E+04  0.7818609E-02  0.9205288E-01
        1   -1    0    0  501    0  0.00000000000E+00  0.00000000000E+00  0.15737085393E+04  0.15737085393E+04  0.50400001928E-02 0.  1.
       -1   -1    0    0    0  501  0.00000000000E+00  0.00000000000E+00 -0.19218657856E+03  0.19218657863E+03  0.50400001928E-02 0. -1.
    10030    2    1    2    0    0  0.00000000000E+00  0.00000000000E+00  0.13815219608E+04  0.17658951179E+04  0.10999011954E+04 0.  0.
        1    1    3    3  502    0  0.46627713071E+03 -0.14449839180E+03  0.10974052721E+04  0.12010797139E+04  0.50400001928E-02 0.  1.
       -1    1    3    3    0  502 -0.46627713071E+03  0.14449839180E+03  0.28411668864E+03  0.56481540405E+03  0.50400001928E-02 0. -1.
</event>
<event>
 5   0  0.3241189E-03  0.1096917E+04  0.7818609E-02  0.9208202E-01
        1   -1    0    0  501    0  0.00000000000E+00  0.00000000000E+00  0.30174337095E+03  0.30174337099E+03  0.50400001928E-02 0.  1.
       -1   -1    0    0    0  501  0.00000000000E+00  0.00000000000E+00 -0.99689622816E+03  0.99689622818E+03  0.50400001928E-02 0. -1.
    10030    2    1    2    0    0  0.00000000000E+00  0.00000000000E+00 -0.69515285722E+03  0.12986395992E+04  0.10969171863E+04 0.  0.
        5    1    3    3  502    0 -0.13092732171E+03  0.52816327171E+03 -0.42862239125E+03  0.69270314669E+03  0.46999998093E+01 0.  1.
       -5    1    3    3    0  502  0.13092732171E+03 -0.52816327171E+03 -0.26653046597E+03  0.60593645248E+03  0.46999998093E+01 0. -1.
</event>
<event>
 5   0  0.5723194E-03  0.1090107E+04  0.7818609E-02  0.9214888E-01
       -2   -1    0    0    0  501  0.00000000000E+00  0.00000000000E+00  0.65468506882E+03  0.65468506882E+03  0.25500000920E-02 0.  1.
        2   -1    0    0  501    0  0.00000000000E+00  0.00000000000E+00 -0.45378083965E+03  0.45378083966E+03  0.25500000920E-02 0. -1.
    10030    2    1    2    0    0  0.00000000000E+00  0.00000000000E+00  0.20090422917E+03  0.11084659085E+04  0.10901074080E+04 0.  0.
        1    1    3    3  502    0  0.34365078753E+03 -0.39833042964E+03  0.24540295190E+03  0.58050461133E+03  0.50400001928E-02 0.  1.
       -1    1    3    3    0  502 -0.34365078753E+03  0.39833042964E+03 -0.44498722735E+02  0.52796129716E+03  0.50400001928E-02 0. -1.
</event>
<event>
 5   0  0.3241189E-03  0.9493070E+03  0.7818609E-02  0.9365961E-01
        1   -1    0    0  501    0  0.00000000000E+00  0.00000000000E+00  0.80295774605E+03  0.80295774607E+03  0.50400001928E-02 0.  1.
       -1   -1    0    0    0  501  0.00000000000E+00  0.00000000000E+00 -0.28058255175E+03  0.28058255180E+03  0.50400001928E-02 0. -1.
    10030    2    1    2    0    0  0.00000000000E+00  0.00000000000E+00  0.52237519430E+03  0.10835402979E+04  0.94930697537E+03 0.  0.
        5    1    3    3  502    0  0.28473740047E+03 -0.11465602803E+03 -0.15201302832E+03  0.34256596849E+03  0.46999998093E+01 0. -1.
       -5    1    3    3    0  502 -0.28473740047E+03  0.11465602803E+03  0.67438822262E+03  0.74097432938E+03  0.46999998093E+01 0.  1.
</event>
<event>
 5   0  0.3328741E-03  0.1092720E+04  0.7818609E-02  0.9212316E-01
       -1   -1    0    0    0  501  0.00000000000E+00  0.00000000000E+00  0.10770088246E+04  0.10770088246E+04  0.50400001928E-02 0. -1.
        1   -1    0    0  501    0  0.00000000000E+00  0.00000000000E+00 -0.27716524912E+03  0.27716524917E+03  0.50400001928E-02 0.  1.
    10030    2    1    2    0    0  0.00000000000E+00  0.00000000000E+00  0.79984357550E+03  0.13541740738E+04  0.10927203105E+04 0.  0.
        3    1    3    3  502    0  0.33605809272E+03 -0.32129261879E+03  0.44302584103E+02  0.46704038126E+03  0.10100000352E+00 0.  1.
       -3    1    3    3    0  502 -0.33605809272E+03  0.32129261879E+03  0.75554099140E+03  0.88713369255E+03  0.10100000352E+00 0. -1.
</event>
<event>
 5   0  0.3316784E-03  0.1102912E+04  0.7818609E-02  0.9202358E-01
       -1   -1    0    0    0  501  0.00000000000E+00  0.00000000000E+00  0.40451437461E+03  0.40451437464E+03  0.50400001928E-02 0. -1.
        1   -1    0    0  501    0  0.00000000000E+00  0.00000000000E+00 -0.75177498857E+03  0.75177498859E+03  0.50400001928E-02 0.  1.
    10030    2    1    2    0    0  0.00000000000E+00  0.00000000000E+00 -0.34726061396E+03  0.11562893632E+04  0.11029121259E+04 0.  0.
        4    1    3    3  502    0 -0.47530247155E+01 -0.32682524343E+03  0.29200989325E+03  0.43830208948E+03  0.12699999809E+01 0. -1.
       -4    1    3    3    0  502  0.47530247155E+01  0.32682524343E+03 -0.63927050721E+03  0.71798727376E+03  0.12699999809E+01 0.  1.
</event>
<event>
 5   0  0.5941585E-03  0.1097107E+04  0.7818609E-02  0.9208017E-01
       -2   -1    0    0    0  501  0.00000000000E+00  0.00000000000E+00  0.59476930350E+03  0.59476930351E+03  0.25500000920E-02 0.  1.
        2   -1    0    0  501    0  0.00000000000E+00  0.00000000000E+00 -0.50592849904E+03  0.50592849904E+03  0.25500000920E-02 0. -1.
    10030    2    1    2    0    0  0.00000000000E+00  0.00000000000E+00  0.88840804463E+02  0.11006978025E+04  0.10971066329E+04 0.  0.
        5    1    3    3  502    0 -0.53668580221E+03  0.11324365069E+03  0.38667848995E+02  0.54988459449E+03  0.46999998093E+01 0. -1.
       -5    1    3    3    0  502  0.53668580221E+03 -0.11324365069E+03  0.50172955468E+02  0.55081320806E+03  0.46999998093E+01 0.  1.
</event>
<event>
 5   0  0.5723194E-03  0.1033714E+04  0.7818609E-02  0.9272322E-01
        2   -1    0    0  501    0  0.00000000000E+00  0.00000000000E+00  0.18376394646E+04  0.18376394646E+04  0.25500000920E-02 0.  1.
       -2   -1    0    0    0  501  0.00000000000E+00  0.00000000000E+00 -0.14537194082E+03  0.14537194084E+03  0.25500000920E-02 0. -1.
    10030    2    1    2    0    0  0.00000000000E+00  0.00000000000E+00  0.16922675237E+04  0.19830114054E+04  0.10337141104E+04 0.  0.
        1    1    3    3  502    0  0.26823742664E+03  0.45611927814E+02  0.16891317372E+04  0.17109055470E+04  0.50400001928E-02 0.  1.
       -1    1    3    3    0  502 -0.26823742664E+03 -0.45611927814E+02  0.31357865368E+01  0.27210585843E+03  0.50400001928E-02 0. -1.
</event>
<event>
 5   0  0.3320192E-03  0.1111234E+04  0.7818609E-02  0.9194311E-01
       -1   -1    0    0    0  501  0.00000000000E+00  0.00000000000E+00  0.38186200481E+03  0.38186200484E+03  0.50400001928E-02 0. -1.
        1   -1    0    0  501    0  0.00000000000E+00  0.00000000000E+00 -0.80843428231E+03  0.80843428232E+03  0.50400001928E-02 0.  1.
    10030    2    1    2    0    0  0.00000000000E+00  0.00000000000E+00 -0.42657227750E+03  0.11902962872E+04  0.11112341532E+04 0.  0.
        2    1    3    3  502    0  0.20024499507E+03  0.50713980493E+03 -0.32776122900E+03  0.63617313920E+03  0.25500000920E-02 0.  1.
       -2    1    3    3    0  502 -0.20024499507E+03 -0.50713980493E+03 -0.98811048502E+02  0.55412314797E+03  0.25500000920E-02 0. -1.
</event>
<event>
 5   0  0.3241189E-03  0.1101924E+04  0.7818609E-02  0.9203319E-01
        1   -1    0    0  501    0  0.00000000000E+00  0.00000000000E+00  0.50840031597E+03  0.50840031599E+03  0.50400001928E-02 0.  1.
       -1   -1    0    0    0  501  0.00000000000E+00  0.00000000000E+00 -0.59708687717E+03  0.59708687719E+03  0.50400001928E-02 0. -1.
    10030    2    1    2    0    0  0.00000000000E+00  0.00000000000E+00 -0.88686561201E+02  0.11054871932E+04  0.11019240573E+04 0.  0.
        5    1    3    3  502    0  0.11417602640E+03  0.31562812812E+02 -0.58413951863E+03  0.59604818881E+03  0.46999998093E+01 0. -1.
       -5    1    3    3    0  502 -0.11417602640E+03 -0.31562812812E+02  0.49545295743E+03  0.50943900438E+03  0.46999998093E+01 0.  1.
</event>
<event>
 5   0  0.5500363E-03  0.1100724E+04  0.7818609E-02  0.9204486E-01
       -2   -1    0    0    0  501  0.00000000000E+00  0.00000000000E+00  0.17759369242E+03  0.17759369244E+03  0.25500000920E-02 0. -1.
        2   -1    0    0  501    0  0.00000000000E+00  0.00000000000E+00 -0.17055696845E+04  0.17055696845E+04  0.25500000920E-02 0.  1.
    10030    2    1    2    0    0  0.00000000000E+00  0.00000000000E+00 -0.15279759921E+04  0.18831633769E+04  0.11007241579E+04 0.  0.
        3    1    3    3  502    0  0.11913782371E+03 -0.39680616948E+03 -0.14417846755E+03  0.43867573204E+03  0.10100000352E+00 0. -1.
       -3    1    3    3    0  502 -0.11913782371E+03  0.39680616948E+03 -0.13837975245E+04  0.14444876449E+04  0.10100000352E+00 0.  1.
</event>
<event>
 5   0  0.5723194E-03  0.1062152E+04  0.7818609E-02  0.9242887E-01
        2   -1    0    0  501    0  0.00000000000E+00  0.00000000000E+00  0.72112128012E+03  0.72112128012E+03  0.25500000920E-02 0. -1.
       -2   -1    0    0    0  501  0.00000000000E+00  0.00000000000E+00 -0.39111519993E+03  0.39111519994E+03  0.25500000920E-02 0.  1.
    10030    2    1    2    0    0  0.00000000000E+00  0.00000000000E+00  0.33000608019E+03  0.11122364801E+04  0.10621515780E+04 0.  0.
        1    1    3    3  502    0  0.63252919503E+02 -0.51942235208E+03  0.69942534809E+02  0.52791331662E+03  0.50400001928E-02 0. -1.
       -1    1    3    3    0  502 -0.63252919503E+02  0.51942235208E+03  0.26006354538E+03  0.58432316344E+03  0.50400001928E-02 0.  1.
</event>
<event>
 5   0  0.2185750E-03  0.1025758E+04  0.7818609E-02  0.9280737E-01
        3   -1    0    0  501    0  0.00000000000E+00  0.00000000000E+00  0.13954931749E+04  0.13954931786E+04  0.10100000352E+00 0. -1.
       -3   -1    0    0    0  501  0.00000000000E+00  0.00000000000E+00 -0.18849592107E+03  0.18849594813E+03  0.10100000352E+00 0.  1.
    10030    2    1    2    0    0  0.00000000000E+00  0.00000000000E+00  0.12069972539E+04  0.15839891267E+04  0.10257578577E+04 0.  0.
        2    1    3    3  502    0  0.34207129793E+03  0.37412956318E+03  0.48329677914E+03  0.70040094207E+03  0.25500000920E-02 0.  1.
       -2    1    3    3    0  502 -0.34207129793E+03 -0.37412956318E+03  0.72370047471E+03  0.88358818463E+03  0.25500000920E-02 0. -1.
</event>
<event>
 5   0  0.3320192E-03  0.1104375E+04  0.7818609E-02  0.9200939E-01
       -1   -1    0    0    0  501  0.00000000000E+00  0.00000000000E+00  0.38980762906E+03  0.38980762909E+03  0.50400001928E-02 0. -1.
        1   -1    0    0  501    0  0.00000000000E+00  0.00000000000E+00 -0.78220846771E+03  0.78220846772E+03  0.50400001928E-02 0.  1.
    10030    2    1    2    0    0  0.00000000000E+00  0.00000000000E+00 -0.39240083865E+03  0.11720160968E+04  0.11043746253E+04 0.  0.
        2    1    3    3  502    0 -0.11964876437E+03  0.53128302944E+03 -0.29307878718E+03  0.61844374011E+03  0.25500000920E-02 0.  1.
       -2    1    3    3    0  502  0.11964876437E+03 -0.53128302944E+03 -0.99322051471E+02  0.55357235670E+03  0.25500000920E-02 0. -1.
</event>
<event>
 5   0  0.3241189E-03  0.1096923E+04  0.7818609E-02  0.9208196E-01
       -1   -1    0    0    0  501  0.00000000000E+00  0.00000000000E+00  0.32198625084E+03  0.32198625088E+03  0.50400001928E-02 0.  1.
        1   -1    0    0  501    0  0.00000000000E+00  0.00000000000E+00 -0.93423310687E+03  0.93423310689E+03  0.50400001928E-02 0. -1.
    10030    2    1    2    0    0  0.00000000000E+00  0.00000000000E+00 -0.61224685603E+03  0.12562193578E+04  0.10969233620E+04 0.  0.
        5    1    3    3  502    0 -0.19834323959E+02 -0.26843293897E+03  0.24111772650E+03  0.36139935136E+03  0.46999998093E+01 0.  1.
       -5    1    3    3    0  502  0.19834323959E+02  0.26843293897E+03 -0.85336458254E+03  0.89482000640E+03  0.46999998093E+01 0. -1.
</event>
<event>
 5   0  0.3320192E-03  0.1102935E+04  0.7818609E-02  0.9202336E-01
        1   -1    0    0  501    0  0.00000000000E+00  0.00000000000E+00  0.99159920992E+03  0.99159920993E+03  0.50400001928E-02 0. -1.
       -1   -1    0    0    0  501  0.00000000000E+00  0.00000000000E+00 -0.30669283614E+03  0.30669283618E+03  0.50400001928E-02 0.  1.
    10030    2    1    2    0    0  0.00000000000E+00  0.00000000000E+00  0.68490637378E+03  0.12982920461E+04  0.11029349465E+04 0.  0.
        2    1    3    3  502    0 -0.95691513130E+02  0.53229772288E+03  0.46933523913E+03  0.71608190744E+03  0.25500000920E-02 0.  1.
       -2    1    3    3    0  502  0.95691513130E+02 -0.53229772288E+03  0.21557113466E+03  0.58221013867E+03  0.25500000920E-02 0. -1.
</event>
<event>
 5   0  0.3241189E-03  0.1112409E+04  0.7818609E-02  0.9193181E-01
        1   -1    0    0  501    0  0.00000000000E+00  0.00000000000E+00  0.10679510045E+04  0.10679510045E+04  0.50400001928E-02 0. -1.
       -1   -1    0    0    0  501  0.00000000000E+00  0.00000000000E+00 -0.28967964834E+03  0.28967964838E+03  0.50400001928E-02 0.  1.
    10030    2    1    2    0    0  0.00000000000E+00  0.00000000000E+00  0.77827135612E+03  0.13576306528E+04  0.11124094057E+04 0.  0.
        5    1    3    3  502    0 -0.50137199366E+03  0.11415652773E+03  0.13042512021E+03  0.53050767274E+03  0.46999998093E+01 0.  1.
       -5    1    3    3    0  502  0.50137199366E+03 -0.11415652773E+03  0.64784623591E+03  0.82712298011E+03  0.46999998093E+01 0. -1.
</event>
<event>
 5   0  0.3320192E-03  0.1110362E+04  0.7818609E-02  0.9195151E-01
       -1   -1    0    0    0  501  0.00000000000E+00  0.00000000000E+00  0.32741949398E+03  0.32741949402E+03  0.50400001928E-02 0.  1.
        1   -1    0    0  501    0  0.00000000000E+00  0.00000000000E+00 -0.94137921024E+03  0.94137921025E+03  0.50400001928E-02 0. -1.
    10030    2    1    2    0    0  0.00000000000E+00  0.00000000000E+00 -0.61395971626E+03  0.12687987043E+04  0.11103619314E+04 0.  0.
        2    1    3    3  502    0  0.18090313778E+03 -0.27592170887E+03  0.20323721240E+03  0.38751012786E+03  0.25500000920E-02 0. -1.
       -2    1    3    3    0  502 -0.18090313778E+03  0.27592170887E+03 -0.81719692866E+03  0.88128857640E+03  0.25500000920E-02 0.  1.
</event>
<event>
 5   0  0.5500363E-03  0.1103080E+04  0.7818609E-02  0.9202195E-01
        2   -1    0    0  501    0  0.00000000000E+00  0.00000000000E+00  0.82920741276E+03  0.82920741277E+03  0.25500000920E-02 0. -1.
       -2   -1    0    0    0  501  0.00000000000E+00  0.00000000000E+00 -0.36685188577E+03  0.36685188578E+03  0.25500000920E-02 0.  1.
    10030    2    1    2    0    0  0.00000000000E+00  0.00000000000E+00  0.46235552699E+03  0.11960592985E+04  0.11030798758E+04 0.  0.
        3    1    3    3  502    0  0.41076512532E+03  0.25628183440E+02  0.62929338788E+03  0.75192750329E+03  0.10100000352E+00 0. -1.
       -3    1    3    3    0  502 -0.41076512532E+03 -0.25628183440E+02 -0.16693786089E+03  0.44413179526E+03  0.10100000352E+00 0.  1.
</event>
<event>
 5   0  0.5627232E-03  0.1107492E+04  0.7818609E-02  0.9197920E-01
       -2   -1    0    0    0  501  0.00000000000E+00  0.00000000000E+00  0.30631087989E+03  0.30631087990E+03  0.25500000920E-02 0. -1.
        2   -1    0    0  501    0  0.00000000000E+00  0.00000000000E+00 -0.10010573388E+04  0.10010573388E+04  0.25500000920E-02 0.  1.
    10030    2    1    2    0    0  0.00000000000E+00  0.00000000000E+00 -0.69474645895E+03  0.13073682187E+04  0.11074922199E+04 0.  0.
        2    1    3    3  502    0 -0.16302133280E+03 -0.52786599499E+03 -0.39179884317E+03  0.67729225385E+03  0.25500000920E-02 0.  1.
       -2    1    3    3    0  502  0.16302133280E+03  0.52786599499E+03 -0.30294761578E+03  0.63007596489E+03  0.25500000920E-02 0. -1.
</event>
<event>
 5   0  0.5723194E-03  0.1119569E+04  0.7818609E-02  0.9186326E-01
       -2   -1    0    0    0  501  0.00000000000E+00  0.00000000000E+00  0.35922973293E+03  0.35922973294E+03  0.25500000920E-02 0.  1.
        2   -1    0    0  501    0  0.00000000000E+00  0.00000000000E+00 -0.87230680246E+03  0.87230680247E+03  0.25500000920E-02 0. -1.
    10030    2    1    2    0    0  0.00000000000E+00  0.00000000000E+00 -0.51307706953E+03  0.12315365354E+04  0.11195687378E+04 0.  0.
        1    1    3    3  502    0  0.46589903609E+03  0.30402374169E+03 -0.32493572551E+03  0.64426358975E+03  0.50400001928E-02 0. -1.
       -1    1    3    3    0  502 -0.46589903609E+03 -0.30402374169E+03 -0.18814134403E+03  0.58727294566E+03  0.50400001928E-02 0.  1.
</event>
<event>
 5   0  0.3320192E-03  0.1108262E+04  0.7818609E-02  0.9197177E-01
        1   -1    0    0  501    0  0.00000000000E+00  0.00000000000E+00  0.99697565715E+03  0.99697565716E+03  0.50400001928E-02 0. -1.
       -1   -1    0    0    0  501  0.00000000000E+00  0.00000000000E+00 -0.30799247039E+03  0.30799247043E+03  0.50400001928E-02 0.  1.
    10030    2    1    2    0    0  0.00000000000E+00  0.00000000000E+00  0.68898318676E+03  0.13049681276E+04  0.11082616940E+04 0.  0.
        2    1    3    3  502    0 -0.33490693940E+03  0.40120080231E+03  0.12757662022E+03  0.53795960431E+03  0.25500000920E-02 0.  1.
       -2    1    3    3    0  502  0.33490693940E+03 -0.40120080231E+03  0.56140656654E+03  0.76700852329E+03  0.25500000920E-02 0. -1.
</event>
<event>
 5   0  0.5946359E-03  0.1072040E+04  0.7818609E-02  0.9232880E-01
       -2   -1    0    0    0  501  0.00000000000E+00  0.00000000000E+00  0.11205655416E+03  0.11205655419E+03  0.25500000920E-02 0.  1.
        2   -1    0    0  501    0  0.00000000000E+00  0.00000000000E+00 -0.25640411558E+04  0.25640411558E+04  0.25500000920E-02 0. -1.
    10030    2    1    2    0    0  0.00000000000E+00  0.00000000000E+00 -0.24519846016E+04  0.26760977100E+04  0.10720403289E+04 0.  0.
        4    1    3    3  502    0 -0.17587640008E+03 -0.48115180292E+03 -0.16197100037E+04  0.16987941825E+04  0.12699999809E+01 0. -1.
       -4    1    3    3    0  502  0.17587640008E+03  0.48115180292E+03 -0.83227459799E+03  0.97730352753E+03  0.12699999809E+01 0.  1.
</event>
<event>
 5   0  0.3215352E-03  0.1043036E+04  0.7818609E-02  0.9262564E-01
       -1   -1    0    0    0  501  0.00000000000E+00  0.00000000000E+00  0.11151890945E+04  0.11151890945E+04  0.50400001928E-02 0. -1.
        1   -1    0    0  501    0  0.00000000000E+00  0.00000000000E+00 -0.24388770205E+03  0.24388770210E+03  0.50400001928E-02 0.  1.
    10030    2    1    2    0    0  0.00000000000E+00  0.00000000000E+00  0.87130139246E+03  0.13590767966E+04  0.10430357724E+04 0.  0.
        1    1    3    3  502    0 -0.10641379093E+03 -0.51505092879E+02  0.10974986229E+04  0.11038477689E+04  0.50400001928E-02 0. -1.
       -1    1    3    3    0  502  0.10641379093E+03  0.51505092879E+02 -0.22619723048E+03  0.25522902773E+03  0.50400001928E-02 0.  1.
</event>
<event>
 5   0  0.3316784E-03  0.1098148E+04  0.7818609E-02  0.9206999E-01
       -1   -1    0    0    0  501  0.00000000000E+00  0.00000000000E+00  0.10928694875E+04  0.10928694875E+04  0.50400001928E-02 0. -1.
        1   -1    0    0  501    0  0.00000000000E+00  0.00000000000E+00 -0.27586281982E+03  0.27586281987E+03  0.50400001928E-02 0.  1.
    10030    2    1    2    0    0  0.00000000000E+00  0.00000000000E+00  0.81700666764E+03  0.13687323073E+04  0.10981476377E+04 0.  0.
        4    1    3    3  502    0 -0.34661633616E+03 -0.25344155858E+01 -0.12225152687E+03  0.36755456258E+03  0.12699999809E+01 0.  1.
       -4    1    3    3    0  502  0.34661633616E+03  0.25344155858E+01  0.93925819451E+03  0.10011777448E+04  0.12699999809E+01 0. -1.
</event>
<event>
 5   0  0.5500363E-03  0.1090162E+04  0.7818609E-02  0.9214834E-01
       -2   -1    0    0    0  501  0.00000000000E+00  0.00000000000E+00  0.18263162077E+03  0.18263162079E+03  0.25500000920E-02 0. -1.
        2   -1    0    0  501    0  0.00000000000E+00  0.00000000000E+00 -0.16268436567E+04  0.16268436567E+04  0.25500000920E-02 0.  1.
    10030    2    1    2    0    0  0.00000000000E+00  0.00000000000E+00 -0.14442120359E+04  0.18094752775E+04  0.10901616280E+04 0.  0.
        3    1    3    3  502    0  0.39523555117E+03  0.28502119326E+03 -0.11275408737E+04  0.12283308405E+04  0.10100000352E+00 0.  1.
       -3    1    3    3    0  502 -0.39523555117E+03 -0.28502119326E+03 -0.31667116219E+03  0.58114443702E+03  0.10100000352E+00 0. -1.
</event>
<event>
 5   0  0.3241189E-03  0.1105482E+04  0.7818609E-02  0.9199865E-01
        1   -1    0    0  501    0  0.00000000000E+00  0.00000000000E+00  0.96753075053E+03  0.96753075054E+03  0.50400001928E-02 0.  1.
       -1   -1    0    0    0  501  0.00000000000E+00  0.00000000000E+00 -0.31577565342E+03  0.31577565346E+03  0.50400001928E-02 0. -1.
    10030    2    1    2    0    0  0.00000000000E+00  0.00000000000E+00  0.65175509711E+03  0.12833064040E+04  0.11054820758E+04 0.  0.
        5    1    3    3  502    0 -0.10322402499E+03 -0.24975014076E+03 -0.23383150445E+03  0.35739277359E+03  0.46999998093E+01 0. -1.
       -5    1    3    3    0  502  0.10322402499E+03  0.24975014076E+03  0.88558660155E+03  0.92591363042E+03  0.46999998093E+01 0.  1.
</event>
<event>
 5   0  0.5500363E-03  0.1121144E+04  0.7818609E-02  0.9184825E-01
       -2   -1    0    0    0  501  0.00000000000E+00  0.00000000000E+00  0.16051608331E+03  0.16051608333E+03  0.25500000920E-02 0. -1.
        2   -1    0    0  501    0  0.00000000000E+00  0.00000000000E+00 -0.19576911647E+04  0.19576911647E+04  0.25500000920E-02 0.  1.
    10030    2    1    2    0    0  0.00000000000E+00  0.00000000000E+00 -0.17971750814E+04  0.21182072481E+04  0.11211439125E+04 0.  0.
        3    1    3    3  502    0  0.46683329157E+03 -0.24525130921E+03 -0.53932033096E+03  0.75428638883E+03  0.10100000352E+00 0. -1.
       -3    1    3    3    0  502 -0.46683329157E+03  0.24525130921E+03 -0.12578547504E+04  0.13639208592E+04  0.10100000352E+00 0.  1.
</event>
<event>
 5   0  0.3316784E-03  0.1100875E+04  0.7818609E-02  0.9204339E-01
       -1   -1    0    0    0  501  0.00000000000E+00  0.00000000000E+00  0.18586029017E+03  0.18586029024E+03  0.50400001928E-02 0.  1.
        1   -1    0    0  501    0  0.00000000000E+00  0.00000000000E+00 -0.16301578424E+04  0.16301578424E+04  0.50400001928E-02 0. -1.
    10030    2    1    2    0    0  0.00000000000E+00  0.00000000000E+00 -0.14442975523E+04  0.18160181327E+04  0.11008753057E+04 0.  0.
        4    1    3    3  502    0 -0.43051818669E+03 -0.30636615508E+03 -0.97649890533E+03  0.11102962916E+04  0.12699999809E+01 0.  1.
       -4    1    3    3    0  502  0.43051818669E+03  0.30636615508E+03 -0.46779864694E+03  0.70572184112E+03  0.12699999809E+01 0. -1.
</event>
<event>
 5   0  0.3241189E-03  0.1102844E+04  0.7818609E-02  0.9202425E-01
       -1   -1    0    0    0  501  0.00000000000E+00  0.00000000000E+00  0.46387700239E+03  0.46387700242E+03  0.50400001928E-02 0.  1.
        1   -1    0    0  501    0  0.00000000000E+00  0.00000000000E+00 -0.65548848170E+03  0.65548848172E+03  0.50400001928E-02 0. -1.
    10030    2    1    2    0    0  0.00000000000E+00  0.00000000000E+00 -0.19161147931E+03  0.11193654841E+04  0.11028436553E+04 0.  0.
        5    1    3    3  502    0  0.21585726228E+03  0.69537459246E+02  0.41433120701E+03  0.47235818509E+03  0.46999998093E+01 0.  1.
       -5    1    3    3    0  502 -0.21585726228E+03 -0.69537459246E+02 -0.60594268632E+03  0.64700729905E+03  0.46999998093E+01 0. -1.
</event>
<event>
 5   0  0.5941585E-03  0.1089567E+04  0.7818609E-02  0.9215421E-01
        2   -1    0    0  501    0  0.00000000000E+00  0.00000000000E+00  0.68089406194E+03  0.68089406195E+03  0.25500000920E-02 0.  1.
       -2   -1    0    0    0  501  0.00000000000E+00  0.00000000000E+00 -0.43588105858E+03  0.43588105859E+03  0.25500000920E-02 0. -1.
    10030    2    1    2    0    0  0.00000000000E+00  0.00000000000E+00  0.24501300336E+03  0.11167751205E+04  0.10895665643E+04 0.  0.
        5    1    3    3  502    0  0.33778575928E+03 -0.29892535093E+03 -0.19059037363E+03  0.48969619676E+03  0.46999998093E+01 0. -1.
       -5    1    3    3    0  502 -0.33778575928E+03  0.29892535093E+03  0.43560337699E+03  0.62707892378E+03  0.46999998093E+01 0.  1.
</event>
<event>
 5   0  0.3215352E-03  0.1066106E+04  0.7818609E-02  0.9238872E-01
       -1   -1    0    0    0  501  0.00000000000E+00  0.00000000000E+00  0.30773443456E+03  0.30773443460E+03  0.50400001928E-02 0. -1.
        1   -1    0    0  501    0  0.00000000000E+00  0.00000000000E+00 -0.92334640616E+03  0.92334640617E+03  0.50400001928E-02 0.  1.
    10030    2    1    2    0    0  0.00000000000E+00  0.00000000000E+00 -0.61561197160E+03  0.12310808408E+04  0.10661059689E+04 0.  0.
        1    1    3    3  502    0 -0.24528528096E+03  0.36566654070E+03 -0.65474611975E+03  0.78903065174E+03  0.50400001928E-02 0.  1.
       -1    1    3    3    0  502  0.24528528096E+03 -0.36566654070E+03  0.39134148145E+02  0.44205018903E+03  0.50400001928E-02 0. -1.
</event>
<event>
 5   0  0.5941585E-03  0.1110090E+04  0.7818609E-02  0.9195413E-01
        2   -1    0    0  501    0  0.00000000000E+00  0.00000000000E+00  0.12449806096E+04  0.12449806096E+04  0.25500000920E-02 0. -1.
       -2   -1    0    0    0  501  0.00000000000E+00  0.00000000000E+00 -0.24745351545E+03  0.24745351546E+03  0.25500000920E-02 0.  1.
    10030    2    1    2    0    0  0.00000000000E+00  0.00000000000E+00  0.99752709411E+03  0.14924341250E+04  0.11100897775E+04 0.  0.
        5    1    3    3  502    0 -0.44384205695E+03  0.21287237809E+02  0.51645569913E+02  0.44736816260E+03  0.46999998093E+01 0.  1.
       -5    1    3    3    0  502  0.44384205695E+03 -0.21287237809E+02  0.94588152420E+03  0.10450659624E+04  0.46999998093E+01 0. -1.
</event>
<event>
 5   0  0.3320192E-03  0.1105426E+04  0.7818609E-02  0.9199920E-01
       -1   -1    0    0    0  501  0.00000000000E+00  0.00000000000E+00  0.47330376150E+03  0.47330376153E+03  0.50400001928E-02 0. -1.
        1   -1    0    0  501    0  0.00000000000E+00  0.00000000000E+00 -0.64544470829E+03  0.64544470831E+03  0.50400001928E-02 0.  1.
    10030    2    1    2    0    0  0.00000000000E+00  0.00000000000E+00 -0.17214094679E+03  0.11187484698E+04  0.11054255439E+04 0.  0.
        2    1    3    3  502    0 -0.55246862695E+03 -0.63786974782E+01 -0.10139017596E+03  0.56173146550E+03  0.25500000920E-02 0. -1.
       -2    1    3    3    0  502  0.55246862695E+03  0.63786974782E+01 -0.70750770826E+02  0.55701700434E+03  0.25500000920E-02 0.  1.
</event>
<event>
 5   0  0.3328741E-03  0.1100726E+04  0.7818609E-02  0.9204485E-01
        1   -1    0    0  501    0  0.00000000000E+00  0.00000000000E+00  0.34027731952E+03  0.34027731955E+03  0.50400001928E-02 0. -1.
       -1   -1    0    0    0  501  0.00000000000E+00  0.00000000000E+00 -0.89015444880E+03  0.89015444882E+03  0.50400001928E-02 0.  1.
    10030    2    1    2    0    0  0.00000000000E+00  0.00000000000E+00 -0.54987712929E+03  0.12304317684E+04  0.11007258875E+04 0.  0.
        3    1    3    3  502    0  0.87193779462E+02 -0.51561933594E+03 -0.46671616022E+03  0.70092085087E+03  0.10100000352E+00 0. -1.
       -3    1    3    3    0  502 -0.87193779462E+02  0.51561933594E+03 -0.83160969072E+02  0.52951091750E+03  0.10100000352E+00 0.  1.
</event>
<event>
 5   0  0.3241189E-03  0.1028628E+04  0.7818609E-02  0.9277692E-01
       -1   -1    0    0    0  501  0.00000000000E+00  0.00000000000E+00  0.46633176310E+03  0.46633176313E+03  0.50400001928E-02 0.  1.
        1   -1    0    0  501    0  0.00000000000E+00  0.00000000000E+00 -0.56723272402E+03  0.56723272405E+03  0.50400001928E-02 0. -1.
    10030    2    1    2    0    0  0.00000000000E+00  0.00000000000E+00 -0.10090096092E+03  0.10335644872E+04  0.10286275056E+04 0.  0.
        5    1    3    3  502    0  0.48094207861E+03 -0.18049416528E+03 -0.75330576749E+02  0.51921114440E+03  0.46999998093E+01 0. -1.
       -5    1    3    3    0  502 -0.48094207861E+03  0.18049416528E+03 -0.25570384175E+02  0.51435334277E+03  0.46999998093E+01 0.  1.
</event>
<event>
 5   0  0.5627232E-03  0.1118477E+04  0.7818609E-02  0.9187367E-01
        2   -1    0    0  501    0  0.00000000000E+00  0.00000000000E+00  0.14787036250E+04  0.14787036250E+04  0.25500000920E-02 0.  1.
       -2   -1    0    0    0  501  0.00000000000E+00  0.00000000000E+00 -0.21150139179E+03  0.21150139181E+03  0.25500000920E-02 0. -1.
    10030    2    1    2    0    0  0.00000000000E+00  0.00000000000E+00  0.12672022332E+04  0.16902050168E+04  0.11184773127E+04 0.  0.
        2    1    3    3  502    0 -0.26758535528E+03 -0.49377234488E+02 -0.10472044182E+03  0.29155857831E+03  0.25500000920E-02 0. -1.
       -2    1    3    3    0  502  0.26758535528E+03  0.49377234488E+02  0.13719226750E+04  0.13986464385E+04  0.25500000920E-02 0.  1.
</event>
<event>
 5   0  0.5723194E-03  0.1144183E+04  0.7818609E-02  0.9163167E-01
       -2   -1    0    0    0  501  0.00000000000E+00  0.00000000000E+00  0.60228144062E+03  0.60228144062E+03  0.25500000920E-02 0. -1.
        2   -1    0    0  501    0  0.00000000000E+00  0.00000000000E+00 -0.54341492212E+03  0.54341492213E+03  0.25500000920E-02 0.  1.
    10030    2    1    2    0    0  0.00000000000E+00  0.00000000000E+00  0.58866518497E+02  0.11456963628E+04  0.11441830660E+04 0.  0.
        1    1    3    3  502    0 -0.40904734271E+03  0.26432494745E+03 -0.27113255610E+03  0.55740494205E+03  0.50400001928E-02 0.  1.
       -1    1    3    3    0  502  0.40904734271E+03 -0.26432494745E+03  0.32999907459E+03  0.58829142071E+03  0.50400001928E-02 0. -1.
</event>
<event>
 5   0  0.3215352E-03  0.1093780E+04  0.7818609E-02  0.9211276E-01
        1   -1    0    0  501    0  0.00000000000E+00  0.00000000000E+00  0.48207770293E+03  0.48207770295E+03  0.50400001928E-02 0. -1.
       -1   -1    0    0    0  501  0.00000000000E+00  0.00000000000E+00 -0.62041536088E+03  0.62041536090E+03  0.50400001928E-02 0.  1.
    10030    2    1    2    0    0  0.00000000000E+00  0.00000000000E+00 -0.13833765796E+03  0.11024930639E+04  0.10937795245E+04 0.  0.
        1    1    3    3  502    0 -0.46688090768E+03  0.26134056531E+03  0.44921837752E+02  0.53693076329E+03  0.50400001928E-02 0. -1.
       -1    1    3    3    0  502  0.46688090768E+03 -0.26134056531E+03 -0.18325949571E+03  0.56556230057E+03  0.50400001928E-02 0.  1.
</event>
<event>
 5   0  0.3328741E-03  0.1117000E+04  0.7818609E-02  0.9188780E-01
        1   -1    0    0  501    0  0.00000000000E+00  0.00000000000E+00  0.72325305672E+03  0.72325305673E+03  0.50400001928E-02 0. -1.
       -1   -1    0    0    0  501  0.00000000000E+00  0.00000000000E+00 -0.43127647094E+03  0.43127647097E+03  0.50400001928E-02 0.  1.
    10030    2    1    2    0    0  0.00000000000E+00  0.00000000000E+00  0.29197658578E+03  0.11545295277E+04  0.11169995988E+04 0.  0.
        3    1    3    3  502    0 -0.12561763177E+02 -0.14425607933E+03 -0.41153689568E+03  0.43626854233E+03  0.10100000352E+00 0.  1.
       -3    1    3    3    0  502  0.12561763177E+02  0.14425607933E+03  0.70351348146E+03  0.71826098537E+03  0.10100000352E+00 0. -1.
</event>
<event>
 5   0  0.3328741E-03  0.1106605E+04  0.7818609E-02  0.9198778E-01
       -1   -1    0    0    0  501  0.00000000000E+00  0.00000000000E+00  0.28900581889E+03  0.28900581894E+03  0.50400001928E-02 0. -1.
        1   -1    0    0  501    0  0.00000000000E+00  0.00000000000E+00 -0.10592992363E+04  0.10592992363E+04  0.50400001928E-02 0.  1.
    10030    2    1    2    0    0  0.00000000000E+00  0.00000000000E+00 -0.77029341740E+03  0.13483050552E+04  0.11066049761E+04 0.  0.
        3    1    3    3  502    0  0.43254692673E+03  0.16078201344E+03 -0.13188604744E+02  0.46165100364E+03  0.10100000352E+00 0. -1.
       -3    1    3    3    0  502 -0.43254692673E+03 -0.16078201344E+03 -0.75710481266E+03  0.88665405160E+03  0.10100000352E+00 0.  1.
</event>
<event>
 5   0  0.3320192E-03  0.1084573E+04  0.7818609E-02  0.9220360E-01
        1   -1    0    0  501    0  0.00000000000E+00  0.00000000000E+00  0.87054578855E+03  0.87054578856E+03  0.50400001928E-02 0. -1.
       -1   -1    0    0    0  501  0.00000000000E+00  0.00000000000E+00 -0.33780502598E+03  0.33780502601E+03  0.50400001928E-02 0.  1.
    10030    2    1    2    0    0  0.00000000000E+00  0.00000000000E+00  0.53274076257E+03  0.12083508146E+04  0.10845731746E+04 0.  0.
        2    1    3    3  502    0 -0.47911940423E+03  0.62646706170E+02  0.54062351958E+03  0.72508882438E+03  0.25500000920E-02 0. -1.
       -2    1    3    3    0  502  0.47911940423E+03 -0.62646706170E+02 -0.78827570123E+01  0.48326199020E+03  0.25500000920E-02 0.  1.
</event>
<event>
 5   0  0.5723194E-03  0.1108506E+04  0.7818609E-02  0.9196941E-01
        2   -1    0    0  501    0  0.00000000000E+00  0.00000000000E+00  0.74241490499E+03  0.74241490500E+03  0.25500000920E-02 0.  1.
       -2   -1    0    0    0  501  0.00000000000E+00  0.00000000000E+00 -0.41377993838E+03  0.41377993839E+03  0.25500000920E-02 0. -1.
    10030    2    1    2    0    0  0.00000000000E+00  0.00000000000E+00  0.32863496662E+03  0.11561948434E+04  0.11085060102E+04 0.  0.
        1    1    3    3  502    0  0.47117701680E+03  0.24226580345E+03  0.33409581279E+03  0.62635494157E+03  0.50400001928E-02 0.  1.
       -1    1    3    3    0  502 -0.47117701680E+03 -0.24226580345E+03 -0.54608461716E+01  0.52983990181E+03  0.50400001928E-02 0. -1.
</event>
<event>
 5   0  0.5500363E-03  0.1116119E+04  0.7818609E-02  0.9189622E-01
       -2   -1    0    0    0  501  0.00000000000E+00  0.00000000000E+00  0.17427723406E+03  0.17427723407E+03  0.25500000920E-02 0.  1.
        2   -1    0    0  501    0  0.00000000000E+00  0.00000000000E+00 -0.17869825302E+04  0.17869825302E+04  0.25500000920E-02 0. -1.
    10030    2    1    2    0    0  0.00000000000E+00  0.00000000000E+00 -0.16127052962E+04  0.19612597643E+04  0.11161189411E+04 0.  0.
        3    1    3    3  502    0 -0.46502885273E+03 -0.56573230636E+02 -0.13392782901E+04  0.14188441467E+04  0.10100000352E+00 0. -1.
       -3    1    3    3    0  502  0.46502885273E+03  0.56573230636E+02 -0.27342700608E+03  0.54241561754E+03  0.10100000352E+00 0.  1.
</event>
<event>
 5   0  0.3328741E-03  0.1091219E+04  0.7818609E-02  0.9213793E-01
        1   -1    0    0  501    0  0.00000000000E+00  0.00000000000E+00  0.31548759493E+03  0.31548759497E+03  0.50400001928E-02 0.  1.
       -1   -1    0    0    0  501  0.00000000000E+00  0.00000000000E+00 -0.94358563072E+03  0.94358563073E+03  0.50400001928E-02 0. -1.
    10030    2    1    2    0    0  0.00000000000E+00  0.00000000000E+00 -0.62809803578E+03  0.12590732257E+04  0.10912186972E+04 0.  0.
        3    1    3    3  502    0 -0.50566851354E+03 -0.37996307400E+02 -0.54638091528E+03  0.74543710650E+03  0.10100000352E+00 0. -1.
       -3    1    3    3    0  502  0.50566851354E+03  0.37996307400E+02 -0.81717120503E+02  0.51363611920E+03  0.10100000352E+00 0.  1.
</event>
<event>
 5   0  0.5946359E-03  0.1108570E+04  0.7818609E-02  0.9196879E-01
       -2   -1    0    0    0  501  0.00000000000E+00  0.00000000000E+00  0.22317417512E+03  0.22317417513E+03  0.25500000920E-02 0.  1.
        2   -1    0    0  501    0  0.00000000000E+00  0.00000000000E+00 -0.13766451772E+04  0.13766451772E+04  0.25500000920E-02 0. -1.
    10030    2    1    2    0    0  0.00000000000E+00  0.00000000000E+00 -0.11534710020E+04  0.15998193523E+04  0.11085696223E+04 0.  0.
        4    1    3    3  502    0  0.41875234616E+03 -0.22105194747E+03 -0.16093994370E+03  0.50012075469E+03  0.12699999809E+01 0.  1.
       -4    1    3    3    0  502 -0.41875234616E+03  0.22105194747E+03 -0.99253105834E+03  0.10996985976E+04  0.12699999809E+01 0. -1.
</event>
<event>
 5   0  0.3328741E-03  0.1110840E+04  0.7818609E-02  0.9194691E-01
       -1   -1    0    0    0  501  0.00000000000E+00  0.00000000000E+00  0.29765255449E+03  0.29765255454E+03  0.50400001928E-02 0.  1.
        1   -1    0    0  501    0  0.00000000000E+00  0.00000000000E+00 -0.10364136329E+04  0.10364136329E+04  0.50400001928E-02 0. -1.
    10030    2    1    2    0    0  0.00000000000E+00  0.00000000000E+00 -0.73876107838E+03  0.13340661874E+04  0.11108396201E+04 0.  0.
        3    1    3    3  502    0  0.23028644649E+03 -0.37600345369E+03 -0.77501246033E+03  0.89165843713E+03  0.10100000352E+00 0. -1.
       -3    1    3    3    0  502 -0.23028644649E+03  0.37600345369E+03  0.36251381953E+02  0.44240775030E+03  0.10100000352E+00 0.  1.
</event>
<event>
 5   0  0.3328741E-03  0.1044570E+04  0.7818609E-02  0.9260968E-01
       -1   -1    0    0    0  501  0.00000000000E+00  0.00000000000E+00  0.55112104548E+03  0.55112104550E+03  0.50400001928E-02 0. -1.
        1   -1    0    0  501    0  0.00000000000E+00  0.00000000000E+00 -0.49495767048E+03  0.49495767051E+03  0.50400001928E-02 0.  1.
    10030    2    1    2    0    0  0.00000000000E+00  0.00000000000E+00  0.56163374995E+02  0.10460787160E+04  0.10445699380E+04 0.  0.
        3    1    3    3  502    0  0.42759103967E+03 -0.27698686948E+03 -0.87087708437E+02  0.51685597823E+03  0.10100000352E+00 0.  1.
       -3    1    3    3    0  502 -0.42759103967E+03  0.27698686948E+03  0.14325108343E+03  0.52922273777E+03  0.10100000352E+00 0. -1.
</event>
<event>
 5   0  0.5941585E-03  0.1056964E+04  0.7818609E-02  0.9248183E-01
       -2   -1    0    0    0  501  0.00000000000E+00  0.00000000000E+00  0.26229524751E+03  0.26229524752E+03  0.25500000920E-02 0.  1.
        2   -1    0    0  501    0  0.00000000000E+00  0.00000000000E+00 -0.10648054561E+04  0.10648054561E+04  0.25500000920E-02 0. -1.
    10030    2    1    2    0    0  0.00000000000E+00  0.00000000000E+00 -0.80251020861E+03  0.13271007037E+04  0.10569643526E+04 0.  0.
        5    1    3    3  502    0  0.14669867623E+03  0.11929928779E+03 -0.10208524065E+04  0.10382266359E+04  0.46999998093E+01 0. -1.
       -5    1    3    3    0  502 -0.14669867623E+03 -0.11929928779E+03  0.21834219784E+03  0.28887406778E+03  0.46999998093E+01 0.  1.
</event>
<event>
 5   0  0.3316784E-03  0.1103104E+04  0.7818609E-02  0.9202172E-01
       -1   -1    0    0    0  501  0.00000000000E+00  0.00000000000E+00  0.64475666951E+03  0.64475666953E+03  0.50400001928E-02 0.  1.
        1   -1    0    0  501    0  0.00000000000E+00  0.00000000000E+00 -0.47182090556E+03  0.47182090559E+03  0.50400001928E-02 0. -1.
    10030    2    1    2    0    0  0.00000000000E+00  0.00000000000E+00  0.17293576395E+03  0.11165775751E+04  0.11031041215E+04 0.  0.
        4    1    3    3  502    0  0.13823833877E+03  0.45464639007E+03 -0.19694282698E+03  0.51439407880E+03  0.12699999809E+01 0. -1.
       -4    1    3    3    0  502 -0.13823833877E+03 -0.45464639007E+03  0.36987859093E+03  0.60218349632E+03  0.12699999809E+01 0.  1.
</event>
<event>
 5   0  0.3328741E-03  0.1099178E+04  0.7818609E-02  0.9205994E-01
        1   -1    0    0  501    0  0.00000000000E+00  0.00000000000E+00  0.13008513540E+04  0.13008513540E+04  0.50400001928E-02 0. -1.
       -1   -1    0    0    0  501  0.00000000000E+00  0.00000000000E+00 -0.23219255368E+03  0.23219255373E+03  0.50400001928E-02 0.  1.
    10030    2    1    2    0    0  0.00000000000E+00  0.00000000000E+00  0.10686588003E+04  0.15330439077E+04  0.10991778707E+04 0.  0.
        3    1    3    3  502    0 -0.54706751387E+03 -0.16982410916E+02  0.60373989355E+03  0.81490682675E+03  0.10100000352E+00 0.  1.
       -3    1    3    3    0  502  0.54706751387E+03  0.16982410916E+02  0.46491890673E+03  0.71813708096E+03  0.10100000352E+00 0. -1.
</event>
<event>
 5   0  0.5627232E-03  0.1040478E+04  0.7818609E-02  0.9265230E-01
        2   -1    0    0  501    0  0.00000000000E+00  0.00000000000E+00  0.96326855293E+03  0.96326855294E+03  0.25500000920E-02 0.  1.
       -2   -1    0    0    0  501  0.00000000000E+00  0.00000000000E+00 -0.28096923979E+03  0.28096923980E+03  0.25500000920E-02 0. -1.
    10030    2    1    2    0    0  0.00000000000E+00  0.00000000000E+00  0.68229931315E+03  0.12442377927E+04  0.10404784150E+04 0.  0.
        2    1    3    3  502    0  0.21797529970E+03  0.16115518837E+03  0.87213776146E+03  0.91329540730E+03  0.25500000920E-02 0.  1.
       -2    1    3    3    0  502 -0.21797529970E+03 -0.16115518837E+03 -0.18983844831E+03  0.33094238544E+03  0.25500000920E-02 0. -1.
</event>
<event>
 5   0  0.3316784E-03  0.1084251E+04  0.7818609E-02  0.9220679E-01
        1   -1    0    0  501    0  0.00000000000E+00  0.00000000000E+00  0.82221843878E+03  0.82221843880E+03  0.50400001928E-02 0. -1.
       -1   -1    0    0    0  501  0.00000000000E+00  0.00000000000E+00 -0.35744783545E+03  0.35744783548E+03  0.50400001928E-02 0.  1.
    10030    2    1    2    0    0  0.00000000000E+00  0.00000000000E+00  0.46477060333E+03  0.11796662743E+04  0.10842512647E+04 0.  0.
        4    1    3    3  502    0  0.39160596983E+03  0.20052510894E+03 -0.11224320440E+03  0.45405473762E+03  0.12699999809E+01 0.  1.
       -4    1    3    3    0  502 -0.39160596983E+03 -0.20052510894E+03  0.57701380774E+03  0.72561153666E+03  0.12699999809E+01 0. -1.
</event>
<event>
 5   0  0.5723194E-03  0.1095894E+04  0.7818609E-02  0.9209203E-01
       -2   -1    0    0    0  501  0.00000000000E+00  0.00000000000E+00  0.47910581073E+03  0.47910581074E+03  0.25500000920E-02 0.  1.
        2   -1    0    0  501    0  0.00000000000E+00  0.00000000000E+00 -0.62667998241E+03  0.62667998241E+03  0.25500000920E-02 0. -1.
    10030    2    1    2    0    0  0.00000000000E+00  0.00000000000E+00 -0.14757417167E+03  0.11057857932E+04  0.10958941939E+04 0.  0.
        1    1    3    3  502    0  0.18293458236E+03 -0.20195614284E+03  0.40589277365E+03  0.48887655781E+03  0.50400001928E-02 0.  1.
       -1    1    3    3    0  502 -0.18293458236E+03  0.20195614284E+03 -0.55346694532E+03  0.61690923534E+03  0.50400001928E-02 0. -1.
</event>
<event>
 5   0  0.3320192E-03  0.1079398E+04  0.7818609E-02  0.9225508E-01
        1   -1    0    0  501    0  0.00000000000E+00  0.00000000000E+00  0.97776874755E+03  0.97776874757E+03  0.50400001928E-02 0. -1.
       -1   -1    0    0    0  501  0.00000000000E+00  0.00000000000E+00 -0.29789740687E+03  0.29789740691E+03  0.50400001928E-02 0.  1.
    10030    2    1    2    0    0  0.00000000000E+00  0.00000000000E+00  0.67987134068E+03  0.12756661545E+04  0.10793975624E+04 0.  0.
        2    1    3    3  502    0  0.30319875578E+03 -0.24999914211E+03  0.77712666355E+03  0.87083575246E+03  0.25500000920E-02 0. -1.
       -2    1    3    3    0  502 -0.30319875578E+03  0.24999914211E+03 -0.97255322863E+02  0.40483040202E+03  0.25500000920E-02 0.  1.
</event>
<event>
 5   0  0.3316784E-03  0.9116752E+03  0.7818609E-02  0.9411103E-01
       -1   -1    0    0    0  501  0.00000000000E+00  0.00000000000E+00  0.29769662781E+03  0.29769662785E+03  0.50400001928E-02 0. -1.
        1   -1    0    0  501    0  0.00000000000E+00  0.00000000000E+00 -0.69798540868E+03  0.69798540870E+03  0.50400001928E-02 0.  1.
    10030    2    1    2    0    0  0.00000000000E+00  0.00000000000E+00 -0.40028878087E+03  0.99568203655E+03  0.91167516684E+03 0.  0.
        4    1    3    3  502    0 -0.11068467765E+03 -0.33818806407E+03  0.11100025733E+03  0.37275318184E+03  0.12699999809E+01 0. -1.
       -4    1    3    3    0  502  0.11068467765E+03  0.33818806407E+03 -0.51128903820E+03  0.62292885471E+03  0.12699999809E+01 0.  1.
</event>
<event>
 5   0  0.5500363E-03  0.1111192E+04  0.7818609E-02  0.9194352E-01
       -2   -1    0    0    0  501  0.00000000000E+00  0.00000000000E+00  0.28343954644E+03  0.28343954645E+03  0.25500000920E-02 0. -1.
        2   -1    0    0  501    0  0.00000000000E+00  0.00000000000E+00 -0.10890749532E+04  0.10890749532E+04  0.25500000920E-02 0.  1.
    10030    2    1    2    0    0  0.00000000000E+00  0.00000000000E+00 -0.80563540674E+03  0.13725144996E+04  0.11111919920E+04 0.  0.
        3    1    3    3  502    0  0.31392146888E+03  0.29798387785E+03 -0.83308689391E+03  0.93881567046E+03  0.10100000352E+00 0.  1.
       -3    1    3    3    0  502 -0.31392146888E+03 -0.29798387785E+03  0.27451487177E+02  0.43369882918E+03  0.10100000352E+00 0. -1.
</event>
<event>
 5   0  0.3328741E-03  0.1106876E+04  0.7818609E-02  0.9198516E-01
       -1   -1    0    0    0  501  0.00000000000E+00  0.00000000000E+00  0.57975352884E+03  0.57975352886E+03  0.50400001928E-02 0.  1.
        1   -1    0    0  501    0  0.00000000000E+00  0.00000000000E+00 -0.52831660818E+03  0.52831660820E+03  0.50400001928E-02 0. -1.
    10030    2    1    2    0    0  0.00000000000E+00  0.00000000000E+00  0.51436920662E+02  0.11080701371E+04  0.11068756352E+04 0.  0.
        3    1    3    3  502    0  0.48638412736E+03 -0.16974875584E+03 -0.17676015986E+03  0.54463595527E+03  0.10100000352E+00 0. -1.
       -3    1    3    3    0  502 -0.48638412736E+03  0.16974875584E+03  0.22819708052E+03  0.56343418179E+03  0.10100000352E+00 0.  1.
</event>
<event>
 5   0  0.5627232E-03  0.9460083E+03  0.7818609E-02  0.9369828E-01
       -2   -1    0    0    0  501  0.00000000000E+00  0.00000000000E+00  0.46982361269E+03  0.46982361270E+03  0.25500000920E-02 0. -1.
        2   -1    0    0  501    0  0.00000000000E+00  0.00000000000E+00 -0.47620619181E+03  0.47620619182E+03  0.25500000920E-02 0.  1.
    10030    2    1    2    0    0  0.00000000000E+00  0.00000000000E+00 -0.63825791217E+01  0.94602980452E+03  0.94600827360E+03 0.  0.
        2    1    3    3  502    0 -0.38890776585E+03  0.32178508845E+02  0.26411276761E+03  0.47121148202E+03  0.25500000920E-02 0. -1.
       -2    1    3    3    0  502  0.38890776585E+03 -0.32178508845E+02 -0.27049534673E+03  0.47481832250E+03  0.25500000920E-02 0.  1.
</event>
<event>
 5   0  0.5500363E-03  0.1132074E+04  0.7818609E-02  0.9174482E-01
       -2   -1    0    0    0  501  0.00000000000E+00  0.00000000000E+00  0.23734066425E+03  0.23734066427E+03  0.25500000920E-02 0. -1.
        2   -1    0    0  501    0  0.00000000000E+00  0.00000000000E+00 -0.13499496133E+04  0.13499496133E+04  0.25500000920E-02 0.  1.
    10030    2    1    2    0    0  0.00000000000E+00  0.00000000000E+00 -0.11126089491E+04  0.15872902776E+04  0.11320740929E+04 0.  0.
        3    1    3    3  502    0 -0.23021478345E+03  0.11695435072E+03 -0.12625561759E+04  0.12886913029E+04  0.10100000352E+00 0.  1.
       -3    1    3    3    0  502  0.23021478345E+03 -0.11695435072E+03  0.14994722681E+03  0.29859897471E+03  0.10100000352E+00 0. -1.
</event>
<event>
 5   0  0.5627232E-03  0.1100025E+04  0.7818609E-02  0.9205168E-01
        2   -1    0    0  501    0  0.00000000000E+00  0.00000000000E+00  0.52468532213E+03  0.52468532214E+03  0.25500000920E-02 0. -1.
       -2   -1    0    0    0  501  0.00000000000E+00  0.00000000000E+00 -0.57656198743E+03  0.57656198743E+03  0.25500000920E-02 0.  1.
    10030    2    1    2    0    0  0.00000000000E+00  0.00000000000E+00 -0.51876665295E+02  0.11012473096E+04  0.11000247490E+04 0.  0.
        2    1    3    3  502    0  0.12158352697E+03 -0.90468418509E+02 -0.55524754389E+03  0.57555792391E+03  0.25500000920E-02 0.  1.
       -2    1    3    3    0  502 -0.12158352697E+03  0.90468418509E+02  0.50337087859E+03  0.52568938566E+03  0.25500000920E-02 0. -1.
</event>
<event>
 5   0  0.5627232E-03  0.1081089E+04  0.7818609E-02  0.9223823E-01
        2   -1    0    0  501    0  0.00000000000E+00  0.00000000000E+00  0.98369146790E+03  0.98369146791E+03  0.25500000920E-02 0.  1.
       -2   -1    0    0    0  501  0.00000000000E+00  0.00000000000E+00 -0.29703226146E+03  0.29703226147E+03  0.25500000920E-02 0. -1.
    10030    2    1    2    0    0  0.00000000000E+00  0.00000000000E+00  0.68665920645E+03  0.12807237294E+04  0.10810885279E+04 0.  0.
        2    1    3    3  502    0 -0.24246315948E+03  0.18394098431E+03 -0.18589113661E+03  0.35662050431E+03  0.25500000920E-02 0. -1.
       -2    1    3    3    0  502  0.24246315948E+03 -0.18394098431E+03  0.87255034305E+03  0.92410322507E+03  0.25500000920E-02 0.  1.
</event>
<event>
 5   0  0.3241189E-03  0.1082741E+04  0.7818609E-02  0.9222179E-01
       -1   -1    0    0    0  501  0.00000000000E+00  0.00000000000E+00  0.37634782315E+03  0.37634782318E+03  0.50400001928E-02 0. -1.
        1   -1    0    0  501    0  0.00000000000E+00  0.00000000000E+00 -0.77875280891E+03  0.77875280892E+03  0.50400001928E-02 0.  1.
    10030    2    1    2    0    0  0.00000000000E+00  0.00000000000E+00 -0.40240498576E+03  0.11551006321E+04  0.10827408267E+04 0.  0.
        5    1    3    3  502    0  0.27449522195E+03  0.46627553932E+03 -0.18274512811E+03  0.57112028268E+03  0.46999998093E+01 0. -1.
       -5    1    3    3    0  502 -0.27449522195E+03 -0.46627553932E+03 -0.21965985765E+03  0.58398034942E+03  0.46999998093E+01 0.  1.
</event>
<event>
 5   0  0.3316784E-03  0.1069222E+04  0.7818609E-02  0.9235721E-01
        1   -1    0    0  501    0  0.00000000000E+00  0.00000000000E+00  0.62989593812E+03  0.62989593814E+03  0.50400001928E-02 0.  1.
       -1   -1    0    0    0  501  0.00000000000E+00  0.00000000000E+00 -0.45373976043E+03  0.45373976045E+03  0.50400001928E-02 0. -1.
    10030    2    1    2    0    0  0.00000000000E+00  0.00000000000E+00  0.17615617769E+03  0.10836356986E+04  0.10692218331E+04 0.  0.
        4    1    3    3  502    0 -0.44687555424E+02 -0.53057810882E+03  0.39503786445E+02  0.53392159463E+03  0.12699999809E+01 0. -1.
       -4    1    3    3    0  502  0.44687555424E+02  0.53057810882E+03  0.13665239125E+03  0.54971410397E+03  0.12699999809E+01 0.  1.
</event>
<event>
 5   0  0.5627232E-03  0.1091291E+04  0.7818609E-02  0.9213722E-01
        2   -1    0    0  501    0  0.00000000000E+00  0.00000000000E+00  0.16940438012E+04  0.16940438012E+04  0.25500000920E-02 0.  1.
       -2   -1    0    0    0  501  0.00000000000E+00  0.00000000000E+00 -0.17575036292E+03  0.17575036294E+03  0.25500000920E-02 0. -1.
    10030    2    1    2    0    0  0.00000000000E+00  0.00000000000E+00  0.15182934383E+04  0.18697941642E+04  0.10912906357E+04 0.  0.
        2    1    3    3  502    0  0.32179159292E+02 -0.50307938335E+03  0.40136448545E+03  0.64437397094E+03  0.25500000920E-02 0. -1.
       -2    1    3    3    0  502 -0.32179159292E+02  0.50307938335E+03  0.11169289529E+04  0.12254201932E+04  0.25500000920E-02 0.  1.
</event>
<event>
 5   0  0.5627232E-03  0.1106112E+04  0.7818609E-02  0.9199255E-01
        2   -1    0    0  501    0  0.00000000000E+00  0.00000000000E+00  0.65047258969E+03  0.65047258969E+03  0.25500000920E-02 0. -1.
       -2   -1    0    0    0  501  0.00000000000E+00  0.00000000000E+00 -0.47022889600E+03  0.47022889601E+03  0.25500000920E-02 0.  1.
    10030    2    1    2    0    0  0.00000000000E+00  0.00000000000E+00  0.18024369368E+03  0.11207014857E+04  0.11061121240E+04 0.  0.
        2    1    3    3  502    0  0.11731772295E+03 -0.44490192209E+03  0.40104045132E+03  0.61035613539E+03  0.25500000920E-02 0. -1.
       -2    1    3    3    0  502 -0.11731772295E+03  0.44490192209E+03 -0.22079675764E+03  0.51034535032E+03  0.25500000920E-02 0.  1.
</event>
<event>
 5   0  0.2185750E-03  0.1090047E+04  0.7818609E-02  0.9214948E-01
       -3   -1    0    0    0  501  0.00000000000E+00  0.00000000000E+00  0.27561392631E+03  0.27561394482E+03  0.10100000352E+00 0. -1.
        3   -1    0    0  501    0  0.00000000000E+00  0.00000000000E+00 -0.10777775527E+04  0.10777775574E+04  0.10100000352E+00 0.  1.
    10030    2    1    2    0    0  0.00000000000E+00  0.00000000000E+00 -0.80216362635E+03  0.13533915022E+04  0.10900468223E+04 0.  0.
        1    1    3    3  502    0  0.33726865647E+03 -0.12618539078E+03  0.10687522840E+03  0.37562642872E+03  0.50400001928E-02 0. -1.
       -1    1    3    3    0  502 -0.33726865647E+03  0.12618539078E+03 -0.90903885474E+03  0.97776507349E+03  0.50400001928E-02 0.  1.
</event>
<event>
 5   0  0.5500363E-03  0.1101990E+04  0.7818609E-02  0.9203255E-01
       -2   -1    0    0    0  501  0.00000000000E+00  0.00000000000E+00  0.28754141275E+03  0.28754141276E+03  0.25500000920E-02 0. -1.
        2   -1    0    0  501    0  0.00000000000E+00  0.00000000000E+00 -0.10558318590E+04  0.10558318590E+04  0.25500000920E-02 0.  1.
    10030    2    1    2    0    0  0.00000000000E+00  0.00000000000E+00 -0.76829044629E+03  0.13433732718E+04  0.11019898083E+04 0.  0.
        3    1    3    3  502    0  0.14774844190E+03 -0.40807811292E+03 -0.79797051507E+03  0.90835802493E+03  0.10100000352E+00 0.  1.
       -3    1    3    3    0  502 -0.14774844190E+03  0.40807811292E+03  0.29680068780E+02  0.43501524687E+03  0.10100000352E+00 0. -1.
</event>
<event>
 5   0  0.2185750E-03  0.1098019E+04  0.7818609E-02  0.9207125E-01
       -4   -1    0    0    0  501  0.00000000000E+00  0.00000000000E+00  0.50403316203E+03  0.50403476202E+03  0.12699999809E+01 0.  1.
        4   -1    0    0  501    0  0.00000000000E+00  0.00000000000E+00 -0.59799591017E+03  0.59799725876E+03  0.12699999809E+01 0. -1.
    10030    2    1    2    0    0  0.00000000000E+00  0.00000000000E+00 -0.93962748147E+02  0.11020320208E+04  0.10980189328E+04 0.  0.
        5    1    3    3  502    0 -0.28886680773E+03 -0.41881446225E+02  0.41968166740E+03  0.51122683820E+03  0.46999998093E+01 0.  1.
       -5    1    3    3    0  502  0.28886680773E+03  0.41881446225E+02 -0.51364441555E+03  0.59080518258E+03  0.46999998093E+01 0. -1.
</event>
<event>
 5   0  0.3215352E-03  0.1117972E+04  0.7818609E-02  0.9187850E-01
       -1   -1    0    0    0  501  0.00000000000E+00  0.00000000000E+00  0.94295234243E+03  0.94295234245E+03  0.50400001928E-02 0.  1.
        1   -1    0    0  501    0  0.00000000000E+00  0.00000000000E+00 -0.33136927279E+03  0.33136927282E+03  0.50400001928E-02 0. -1.
    10030    2    1    2    0    0  0.00000000000E+00  0.00000000000E+00  0.61158306965E+03  0.12743216153E+04  0.11179721500E+04 0.  0.
        1    1    3    3  502    0 -0.39518594554E+02  0.38827830581E+02 -0.32823216333E+03  0.33287486059E+03  0.50400001928E-02 0. -1.
       -1    1    3    3    0  502  0.39518594554E+02 -0.38827830581E+02  0.93981523298E+03  0.94144675468E+03  0.50400001928E-02 0.  1.
</event>
<event>
 5   0  0.5627232E-03  0.1095760E+04  0.7818609E-02  0.9209334E-01
        2   -1    0    0  501    0  0.00000000000E+00  0.00000000000E+00  0.88788450974E+03  0.88788450975E+03  0.25500000920E-02 0. -1.
       -2   -1    0    0    0  501  0.00000000000E+00  0.00000000000E+00 -0.33807625978E+03  0.33807625979E+03  0.25500000920E-02 0.  1.
    10030    2    1    2    0    0  0.00000000000E+00  0.00000000000E+00  0.54980824997E+03  0.12259607695E+04  0.10957603281E+04 0.  0.
        2    1    3    3  502    0 -0.20658047971E+03  0.42933597326E+03 -0.27732164501E+02  0.47725668721E+03  0.25500000920E-02 0.  1.
       -2    1    3    3    0  502  0.20658047971E+03 -0.42933597326E+03  0.57754041447E+03  0.74870408232E+03  0.25500000920E-02 0. -1.
</event>
<event>
 5   0  0.5941585E-03  0.1090846E+04  0.7818609E-02  0.9214160E-01
       -2   -1    0    0    0  501  0.00000000000E+00  0.00000000000E+00  0.13711475000E+03  0.13711475003E+03  0.25500000920E-02 0.  1.
        2   -1    0    0  501    0  0.00000000000E+00  0.00000000000E+00 -0.21696161237E+04  0.21696161237E+04  0.25500000920E-02 0. -1.
    10030    2    1    2    0    0  0.00000000000E+00  0.00000000000E+00 -0.20325013737E+04  0.23067308737E+04  0.10908462264E+04 0.  0.
        5    1    3    3  502    0  0.54167326465E+03 -0.63074167267E+02 -0.10346863162E+04  0.11696093960E+04  0.46999998093E+01 0.  1.
       -5    1    3    3    0  502 -0.54167326465E+03  0.63074167267E+02 -0.99781505753E+03  0.11371214778E+04  0.46999998093E+01 0. -1.
</event>
<event>
 5   0  0.2185750E-03  0.8316548E+03  0.7818609E-02  0.9515295E-01
        4   -1    0    0  501    0  0.00000000000E+00  0.00000000000E+00  0.69782347164E+03  0.69782462730E+03  0.12699999809E+01 0.  1.
       -4   -1    0    0    0  501  0.00000000000E+00  0.00000000000E+00 -0.24778522169E+03  0.24778847630E+03  0.12699999809E+01 0. -1.
    10030    2    1    2    0    0  0.00000000000E+00  0.00000000000E+00  0.45003824995E+03  0.94561310360E+03  0.83165480536E+03 0.  0.
        5    1    3    3  502    0 -0.14766410172E+03 -0.37963294965E+03  0.13013040556E+03  0.42764690557E+03  0.46999998093E+01 0.  1.
       -5    1    3    3    0  502  0.14766410172E+03  0.37963294965E+03  0.31990784439E+03  0.51796619802E+03  0.46999998093E+01 0. -1.
</event>
<event>
 5   0  0.3241189E-03  0.1168356E+04  0.7818609E-02  0.9141014E-01
       -1   -1    0    0    0  501  0.00000000000E+00  0.00000000000E+00  0.26826822437E+03  0.26826822441E+03  0.50400001928E-02 0. -1.
        1   -1    0    0  501    0  0.00000000000E+00  0.00000000000E+00 -0.12720996709E+04  0.12720996709E+04  0.50400001928E-02 0.  1.
    10030    2    1    2    0    0  0.00000000000E+00  0.00000000000E+00 -0.10038314465E+04  0.15403678953E+04  0.11683559731E+04 0.  0.
        5    1    3    3  502    0  0.56561610908E+03  0.13619870462E+03 -0.57130649222E+03  0.81540472652E+03  0.46999998093E+01 0.  1.
       -5    1    3    3    0  502 -0.56561610908E+03 -0.13619870462E+03 -0.43252495426E+03  0.72496316875E+03  0.46999998093E+01 0. -1.
</event>
<event>
 5   0  0.5946359E-03  0.1083434E+04  0.7818609E-02  0.9221490E-01
        2   -1    0    0  501    0  0.00000000000E+00  0.00000000000E+00  0.38503201469E+03  0.38503201470E+03  0.25500000920E-02 0.  1.
       -2   -1    0    0    0  501  0.00000000000E+00  0.00000000000E+00 -0.76216385388E+03  0.76216385388E+03  0.25500000920E-02 0. -1.
    10030    2    1    2    0    0  0.00000000000E+00  0.00000000000E+00 -0.37713183919E+03  0.11471958686E+04  0.10834343251E+04 0.  0.
        4    1    3    3  502    0 -0.46136933317E+03 -0.27099016391E+03 -0.98978457307E+02  0.54414674348E+03  0.12699999809E+01 0.  1.
       -4    1    3    3    0  502  0.46136933317E+03  0.27099016391E+03 -0.27815338188E+03  0.60304912510E+03  0.12699999809E+01 0. -1.
</event>
<event>
 5   0  0.3328741E-03  0.1036908E+04  0.7818609E-02  0.9268966E-01
        1   -1    0    0  501    0  0.00000000000E+00  0.00000000000E+00  0.10645271027E+04  0.10645271027E+04  0.50400001928E-02 0.  1.
       -1   -1    0    0    0  501  0.00000000000E+00  0.00000000000E+00 -0.25250139727E+03  0.25250139732E+03  0.50400001928E-02 0. -1.
    10030    2    1    2    0    0  0.00000000000E+00  0.00000000000E+00  0.81202570539E+03  0.13170285000E+04  0.10369080594E+04 0.  0.
        3    1    3    3  502    0  0.11529741912E+02  0.41462397515E+03  0.80108576730E+03  0.90209999030E+03  0.10100000352E+00 0.  1.
       -3    1    3    3    0  502 -0.11529741912E+02 -0.41462397515E+03  0.10939938083E+02  0.41492850970E+03  0.10100000352E+00 0. -1.
</event>
<event>
 5   0  0.3320192E-03  0.1089679E+04  0.7818609E-02  0.9215310E-01
       -1   -1    0    0    0  501  0.00000000000E+00  0.00000000000E+00  0.28139018448E+03  0.28139018452E+03  0.50400001928E-02 0. -1.
        1   -1    0    0  501    0  0.00000000000E+00  0.00000000000E+00 -0.10549405545E+04  0.10549405545E+04  0.50400001928E-02 0.  1.
    10030    2    1    2    0    0  0.00000000000E+00  0.00000000000E+00 -0.77355037006E+03  0.13363307391E+04  0.10896787000E+04 0.  0.
        2    1    3    3  502    0  0.79726966973E+02 -0.81735333866E+02 -0.10401035804E+04  0.10463520019E+04  0.25500000920E-02 0.  1.
       -2    1    3    3    0  502 -0.79726966973E+02  0.81735333866E+02  0.26655321030E+03  0.28997873714E+03  0.25500000920E-02 0. -1.
</event>
<event>
 5   0  0.5627232E-03  0.1111083E+04  0.7818609E-02  0.9194456E-01
       -2   -1    0    0    0  501  0.00000000000E+00  0.00000000000E+00  0.26459825910E+03  0.26459825911E+03  0.25500000920E-02 0. -1.
        2   -1    0    0  501    0  0.00000000000E+00  0.00000000000E+00 -0.11663965094E+04  0.11663965094E+04  0.25500000920E-02 0.  1.
    10030    2    1    2    0    0  0.00000000000E+00  0.00000000000E+00 -0.90179825025E+03  0.14309947685E+04  0.11110832297E+04 0.  0.
        2    1    3    3  502    0  0.40537936827E+03 -0.11349981007E+03 -0.91778282590E+03  0.10097227118E+04  0.25500000920E-02 0.  1.
       -2    1    3    3    0  502 -0.40537936827E+03  0.11349981007E+03  0.15984575651E+02  0.42127205671E+03  0.25500000920E-02 0. -1.
</event>
<event>
 5   0  0.5941585E-03  0.1165005E+04  0.7818609E-02  0.9144051E-01
       -2   -1    0    0    0  501  0.00000000000E+00  0.00000000000E+00  0.46202058840E+03  0.46202058841E+03  0.25500000920E-02 0. -1.
        2   -1    0    0  501    0  0.00000000000E+00  0.00000000000E+00 -0.73440282840E+03  0.73440282840E+03  0.25500000920E-02 0.  1.
    10030    2    1    2    0    0  0.00000000000E+00  0.00000000000E+00 -0.27238223999E+03  0.11964234168E+04  0.11650051106E+04 0.  0.
        5    1    3    3  502    0  0.40865890140E+03 -0.54174063482E+02  0.28642878100E+03  0.50199647751E+03  0.46999998093E+01 0. -1.
       -5    1    3    3    0  502 -0.40865890140E+03  0.54174063482E+02 -0.55881102099E+03  0.69442693930E+03  0.46999998093E+01 0.  1.
</event>
<event>
 5   0  0.3316784E-03  0.1100044E+04  0.7818609E-02  0.9205149E-01
        1   -1    0    0  501    0  0.00000000000E+00  0.00000000000E+00  0.67199529686E+03  0.67199529688E+03  0.50400001928E-02 0. -1.
       -1   -1    0    0    0  501  0.00000000000E+00  0.00000000000E+00 -0.45018825232E+03  0.45018825235E+03  0.50400001928E-02 0.  1.
    10030    2    1    2    0    0  0.00000000000E+00  0.00000000000E+00  0.22180704454E+03  0.11221835492E+04  0.11000443414E+04 0.  0.
        4    1    3    3  502    0  0.54755995193E+03 -0.14049850059E+02  0.16194525800E+03  0.57118051327E+03  0.12699999809E+01 0.  1.
       -4    1    3    3    0  502 -0.54755995193E+03  0.14049850059E+02  0.59861786547E+02  0.55100303596E+03  0.12699999809E+01 0. -1.
</event>
<event>
 5   0  0.5941585E-03  0.1111025E+04  0.7818609E-02  0.9194512E-01
       -2   -1    0    0    0  501  0.00000000000E+00  0.00000000000E+00  0.16432548147E+03  0.16432548149E+03  0.25500000920E-02 0.  1.
        2   -1    0    0  501    0  0.00000000000E+00  0.00000000000E+00 -0.18779454009E+04  0.18779454009E+04  0.25500000920E-02 0. -1.
    10030    2    1    2    0    0  0.00000000000E+00  0.00000000000E+00 -0.17136199194E+04  0.20422708823E+04  0.11110252602E+04 0.  0.
        5    1    3    3  502    0 -0.27745644138E+03  0.13808174109E+03 -0.17042187043E+04  0.17321755471E+04  0.46999998093E+01 0. -1.
       -5    1    3    3    0  502  0.27745644138E+03 -0.13808174109E+03 -0.94012151243E+01  0.31009533522E+03  0.46999998093E+01 0.  1.
</event>
<event>
 5   0  0.3328741E-03  0.1125938E+04  0.7818609E-02  0.9180273E-01
       -1   -1    0    0    0  501  0.00000000000E+00  0.00000000000E+00  0.42892812445E+03  0.42892812448E+03  0.50400001928E-02 0. -1.
        1   -1    0    0  501    0  0.00000000000E+00  0.00000000000E+00 -0.73889775304E+03  0.73889775306E+03  0.50400001928E-02 0.  1.
    10030    2    1    2    0    0  0.00000000000E+00  0.00000000000E+00 -0.30996962859E+03  0.11678258775E+04  0.11259378800E+04 0.  0.
        3    1    3    3  502    0 -0.21351840790E+03  0.31398790202E+03 -0.58608639038E+03  0.69833786974E+03  0.10100000352E+00 0.  1.
       -3    1    3    3    0  502  0.21351840790E+03 -0.31398790202E+03  0.27611676179E+03  0.46948800780E+03  0.10100000352E+00 0. -1.
</event>
<event>
 5   0  0.5627232E-03  0.1122985E+04  0.7818609E-02  0.9183074E-01
        2   -1    0    0  501    0  0.00000000000E+00  0.00000000000E+00  0.14510470172E+04  0.14510470172E+04  0.25500000920E-02 0. -1.
       -2   -1    0    0    0  501  0.00000000000E+00  0.00000000000E+00 -0.21727347616E+03  0.21727347618E+03  0.25500000920E-02 0.  1.
    10030    2    1    2    0    0  0.00000000000E+00  0.00000000000E+00  0.12337735411E+04  0.16683204934E+04  0.11229853597E+04 0.  0.
        2    1    3    3  502    0 -0.61522981500E+02  0.49022137385E+03  0.10132194138E+04  0.11272602419E+04  0.25500000920E-02 0. -1.
       -2    1    3    3    0  502  0.61522981500E+02 -0.49022137385E+03  0.22055412729E+03  0.54106025145E+03  0.25500000920E-02 0.  1.
</event>
<event>
 5   0  0.5500363E-03  0.1105509E+04  0.7818609E-02  0.9199839E-01
        2   -1    0    0  501    0  0.00000000000E+00  0.00000000000E+00  0.67934837322E+03  0.67934837323E+03  0.25500000920E-02 0. -1.
       -2   -1    0    0    0  501  0.00000000000E+00  0.00000000000E+00 -0.44975120765E+03  0.44975120765E+03  0.25500000920E-02 0.  1.
    10030    2    1    2    0    0  0.00000000000E+00  0.00000000000E+00  0.22959716558E+03  0.11290995809E+04  0.11055093872E+04 0.  0.
        3    1    3    3  502    0  0.43282888807E+03  0.17821287502E+03 -0.18547686255E+03  0.50349017063E+03  0.10100000352E+00 0.  1.
       -3    1    3    3    0  502 -0.43282888807E+03 -0.17821287502E+03  0.41507402813E+03  0.62560941026E+03  0.10100000352E+00 0. -1.
</event>
<event>
 5   0  0.5723194E-03  0.1083120E+04  0.7818609E-02  0.9221802E-01
        2   -1    0    0  501    0  0.00000000000E+00  0.00000000000E+00  0.41209050388E+03  0.41209050389E+03  0.25500000920E-02 0.  1.
       -2   -1    0    0    0  501  0.00000000000E+00  0.00000000000E+00 -0.71170570199E+03  0.71170570199E+03  0.25500000920E-02 0. -1.
    10030    2    1    2    0    0  0.00000000000E+00  0.00000000000E+00 -0.29961519811E+03  0.11237962059E+04  0.10831198666E+04 0.  0.
        1    1    3    3  502    0  0.31910132472E+03  0.21241090211E+01 -0.60379798688E+03  0.68293643647E+03  0.50400001928E-02 0. -1.
       -1    1    3    3    0  502 -0.31910132472E+03 -0.21241090211E+01  0.30418278877E+03  0.44085976941E+03  0.50400001928E-02 0.  1.
</event>
<event>
 5   0  0.3215352E-03  0.1106109E+04  0.7818609E-02  0.9199258E-01
       -1   -1    0    0    0  501  0.00000000000E+00  0.00000000000E+00  0.27263860314E+03  0.27263860318E+03  0.50400001928E-02 0.  1.
        1   -1    0    0  501    0  0.00000000000E+00  0.00000000000E+00 -0.11218859073E+04  0.11218859074E+04  0.50400001928E-02 0. -1.
    10030    2    1    2    0    0  0.00000000000E+00  0.00000000000E+00 -0.84924730421E+03  0.13945245105E+04  0.11061092291E+04 0.  0.
        1    1    3    3  502    0 -0.42668822273E+03  0.10439800240E+03 -0.99066427411E+00  0.43927527106E+03  0.50400001928E-02 0.  1.
       -1    1    3    3    0  502  0.42668822273E+03 -0.10439800240E+03 -0.84825663993E+03  0.95524923948E+03  0.50400001928E-02 0. -1.
</event>
<event>
 5   0  0.5500363E-03  0.1084219E+04  0.7818609E-02  0.9220711E-01
        2   -1    0    0  501    0  0.00000000000E+00  0.00000000000E+00  0.15013900564E+04  0.15013900564E+04  0.25500000920E-02 0.  1.
       -2   -1    0    0    0  501  0.00000000000E+00  0.00000000000E+00 -0.19574050719E+03  0.19574050720E+03  0.25500000920E-02 0. -1.
    10030    2    1    2    0    0  0.00000000000E+00  0.00000000000E+00  0.13056495492E+04  0.16971305636E+04  0.10842192604E+04 0.  0.
        3    1    3    3  502    0 -0.11627763544E+03 -0.44160535472E+03  0.19553401330E+03  0.49675883322E+03  0.10100000352E+00 0. -1.
       -3    1    3    3    0  502  0.11627763544E+03  0.44160535472E+03  0.11101155359E+04  0.12003717304E+04  0.10100000352E+00 0.  1.
</event>
<event>
 5   0  0.3316784E-03  0.1113673E+04  0.7818609E-02  0.9191967E-01
        1   -1    0    0  501    0  0.00000000000E+00  0.00000000000E+00  0.77259050098E+03  0.77259050100E+03  0.50400001928E-02 0.  1.
       -1   -1    0    0    0  501  0.00000000000E+00  0.00000000000E+00 -0.40133413939E+03  0.40133413942E+03  0.50400001928E-02 0. -1.
    10030    2    1    2    0    0  0.00000000000E+00  0.00000000000E+00  0.37125636159E+03  0.11739246404E+04  0.11136731008E+04 0.  0.
        4    1    3    3  502    0 -0.26707205741E+03  0.97457932547E+02  0.69032143212E+03  0.74657271917E+03  0.12699999809E+01 0.  1.
       -4    1    3    3    0  502  0.26707205741E+03 -0.97457932547E+02 -0.31906507052E+03  0.42735192125E+03  0.12699999809E+01 0. -1.
</event>
<event>
 5   0  0.5941585E-03  0.1066239E+04  0.7818609E-02  0.9238737E-01
        2   -1    0    0  501    0  0.00000000000E+00  0.00000000000E+00  0.16404447366E+04  0.16404447366E+04  0.25500000920E-02 0.  1.
       -2   -1    0    0    0  501  0.00000000000E+00  0.00000000000E+00 -0.17325564886E+03  0.17325564888E+03  0.25500000920E-02 0. -1.
    10030    2    1    2    0    0  0.00000000000E+00  0.00000000000E+00  0.14671890877E+04  0.18137003855E+04  0.10662388424E+04 0.  0.
        5    1    3    3  502    0  0.91822311177E+02 -0.42172286060E+03  0.20132624394E+03  0.47627287817E+03  0.46999998093E+01 0. -1.
       -5    1    3    3    0  502 -0.91822311177E+02  0.42172286060E+03  0.12658628438E+04  0.13374275073E+04  0.46999998093E+01 0.  1.
</event>
<event>
 5   0  0.3316784E-03  0.1133057E+04  0.7818609E-02  0.9173558E-01
       -1   -1    0    0    0  501  0.00000000000E+00  0.00000000000E+00  0.21309969787E+03  0.21309969792E+03  0.50400001928E-02 0. -1.
        1   -1    0    0  501    0  0.00000000000E+00  0.00000000000E+00 -0.15061227684E+04  0.15061227684E+04  0.50400001928E-02 0.  1.
    10030    2    1    2    0    0  0.00000000000E+00  0.00000000000E+00 -0.12930230705E+04  0.17192224663E+04  0.11330565863E+04 0.  0.
        4    1    3    3  502    0  0.44499977973E+03 -0.27303607543E+03 -0.31277036710E+03  0.60860530550E+03  0.12699999809E+01 0. -1.
       -4    1    3    3    0  502 -0.44499977973E+03  0.27303607543E+03 -0.98025270344E+03  0.11106171608E+04  0.12699999809E+01 0.  1.
</event>
<event>
 5   0  0.3328741E-03  0.1114815E+04  0.7818609E-02  0.9190871E-01
        1   -1    0    0  501    0  0.00000000000E+00  0.00000000000E+00  0.45437471137E+03  0.45437471140E+03  0.50400001928E-02 0. -1.
       -1   -1    0    0    0  501  0.00000000000E+00  0.00000000000E+00 -0.68380423552E+03  0.68380423554E+03  0.50400001928E-02 0.  1.
    10030    2    1    2    0    0  0.00000000000E+00  0.00000000000E+00 -0.22942952416E+03  0.11381789469E+04  0.11148154146E+04 0.  0.
        3    1    3    3  502    0 -0.14263018070E+03  0.53753368196E+03 -0.15315369350E+03  0.57683783832E+03  0.10100000352E+00 0.  1.
       -3    1    3    3    0  502  0.14263018070E+03 -0.53753368196E+03 -0.76275830661E+02  0.56134110862E+03  0.10100000352E+00 0. -1.
</event>
<event>
 5   0  0.5723194E-03  0.1080476E+04  0.7818609E-02  0.9224433E-01
        2   -1    0    0  501    0  0.00000000000E+00  0.00000000000E+00  0.13358719639E+04  0.13358719639E+04  0.25500000920E-02 0. -1.
       -2   -1    0    0    0  501  0.00000000000E+00  0.00000000000E+00 -0.21847687701E+03  0.21847687703E+03  0.25500000920E-02 0.  1.
    10030    2    1    2    0    0  0.00000000000E+00  0.00000000000E+00  0.11173950869E+04  0.15543488410E+04  0.10804760706E+04 0.  0.
        1    1    3    3  502    0 -0.51724596217E+02  0.51433187623E+03  0.78453327627E+03  0.93952390835E+03  0.50400001928E-02 0.  1.
       -1    1    3    3    0  502  0.51724596217E+02 -0.51433187623E+03  0.33286181067E+03  0.61482493263E+03  0.50400001928E-02 0. -1.
</event>
<event>
 5   0  0.5946359E-03  0.1063464E+04  0.7818609E-02  0.9241553E-01
        2   -1    0    0  501    0  0.00000000000E+00  0.00000000000E+00  0.26355930174E+04  0.26355930174E+04  0.25500000920E-02 0.  1.
       -2   -1    0    0    0  501  0.00000000000E+00  0.00000000000E+00 -0.10727709408E+03  0.10727709411E+03  0.25500000920E-02 0. -1.
    10030    2    1    2    0    0  0.00000000000E+00  0.00000000000E+00  0.25283159233E+04  0.27428701115E+04  0.10634636997E+04 0.  0.
        4    1    3    3  502    0 -0.53014851768E+03 -0.11707603221E+02  0.13654588473E+04  0.14648119318E+04  0.12699999809E+01 0.  1.
       -4    1    3    3    0  502  0.53014851768E+03  0.11707603221E+02  0.11628570760E+04  0.12780581798E+04  0.12699999809E+01 0. -1.
</event>
<event>
 5   0  0.5500363E-03  0.1100469E+04  0.7818609E-02  0.9204735E-01
       -2   -1    0    0    0  501  0.00000000000E+00  0.00000000000E+00  0.17011577272E+03  0.17011577274E+03  0.25500000920E-02 0.  1.
        2   -1    0    0  501    0  0.00000000000E+00  0.00000000000E+00 -0.17797184120E+04  0.17797184120E+04  0.25500000920E-02 0. -1.
    10030    2    1    2    0    0  0.00000000000E+00  0.00000000000E+00 -0.16096026392E+04  0.19498341847E+04  0.11004693052E+04 0.  0.
        3    1    3    3  502    0  0.10061131354E+03 -0.36463634659E+02  0.15149923838E+03  0.18548386047E+03  0.10100000352E+00 0.  1.
       -3    1    3    3    0  502 -0.10061131354E+03  0.36463634659E+02 -0.17611018776E+04  0.17643503242E+04  0.10100000352E+00 0. -1.
</event>
<event>
 5   0  0.3320192E-03  0.1108062E+04  0.7818609E-02  0.9197369E-01
        1   -1    0    0  501    0  0.00000000000E+00  0.00000000000E+00  0.78921588349E+03  0.78921588351E+03  0.50400001928E-02 0.  1.
       -1   -1    0    0    0  501  0.00000000000E+00  0.00000000000E+00 -0.38893109261E+03  0.38893109265E+03  0.50400001928E-02 0. -1.
    10030    2    1    2    0    0  0.00000000000E+00  0.00000000000E+00  0.40028479088E+03  0.11781469762E+04  0.11080624457E+04 0.  0.
        2    1    3    3  502    0 -0.45129357238E+03  0.31398876261E+03  0.12728252656E+03  0.56431876904E+03  0.25500000920E-02 0.  1.
       -2    1    3    3    0  502  0.45129357238E+03 -0.31398876261E+03  0.27300226431E+03  0.61382820711E+03  0.25500000920E-02 0. -1.
</event>
<event>
 5   0  0.3320192E-03  0.1092088E+04  0.7818609E-02  0.9212938E-01
        1   -1    0    0  501    0  0.00000000000E+00  0.00000000000E+00  0.97965499236E+03  0.97965499238E+03  0.50400001928E-02 0.  1.
       -1   -1    0    0    0  501  0.00000000000E+00  0.00000000000E+00 -0.30435603385E+03  0.30435603389E+03  0.50400001928E-02 0. -1.
    10030    2    1    2    0    0  0.00000000000E+00  0.00000000000E+00  0.67529895851E+03  0.12840110263E+04  0.10920877402E+04 0.  0.
        2    1    3    3  502    0  0.17219564274E+03 -0.17204051516E+03  0.91233809442E+03  0.94425106660E+03  0.25500000920E-02 0.  1.
       -2    1    3    3    0  502 -0.17219564274E+03  0.17204051516E+03 -0.23703913591E+03  0.33975995967E+03  0.25500000920E-02 0. -1.
</event>
<event>
 5   0  0.5941585E-03  0.9540880E+03  0.7818609E-02  0.9360385E-01
       -2   -1    0    0    0  501  0.00000000000E+00  0.00000000000E+00  0.14836419882E+03  0.14836419885E+03  0.25500000920E-02 0. -1.
        2   -1    0    0  501    0  0.00000000000E+00  0.00000000000E+00 -0.15338671020E+04  0.15338671020E+04  0.25500000920E-02 0.  1.
    10030    2    1    2    0    0  0.00000000000E+00  0.00000000000E+00 -0.13855029032E+04  0.16822313008E+04  0.95408797017E+03 0.  0.
        5    1    3    3  502    0 -0.19718834838E+03  0.75375077103E+02 -0.14469819974E+04  0.14623076413E+04  0.46999998093E+01 0.  1.
       -5    1    3    3    0  502  0.19718834838E+03 -0.75375077103E+02  0.61479094265E+02  0.21992365951E+03  0.46999998093E+01 0. -1.
</event>
<event>
 5   0  0.3215352E-03  0.1107504E+04  0.7818609E-02  0.9197909E-01
       -1   -1    0    0    0  501  0.00000000000E+00  0.00000000000E+00  0.22192484932E+04  0.22192484932E+04  0.50400001928E-02 0. -1.
        1   -1    0    0  501    0  0.00000000000E+00  0.00000000000E+00 -0.13817350001E+03  0.13817350010E+03  0.50400001928E-02 0.  1.
    10030    2    1    2    0    0  0.00000000000E+00  0.00000000000E+00  0.20810749932E+04  0.23574219933E+04  0.11075040980E+04 0.  0.
        1    1    3    3  502    0  0.54536301414E+03  0.43949364306E+02  0.85880817326E+03  0.10182847550E+04  0.50400001928E-02 0.  1.
       -1    1    3    3    0  502 -0.54536301414E+03 -0.43949364306E+02  0.12222668199E+04  0.13391372383E+04  0.50400001928E-02 0. -1.
</event>
<event>
 5   0  0.5500363E-03  0.1102262E+04  0.7818609E-02  0.9202990E-01
       -2   -1    0    0    0  501  0.00000000000E+00  0.00000000000E+00  0.36762517117E+03  0.36762517118E+03  0.25500000920E-02 0. -1.
        2   -1    0    0  501    0  0.00000000000E+00  0.00000000000E+00 -0.82623676159E+03  0.82623676159E+03  0.25500000920E-02 0.  1.
    10030    2    1    2    0    0  0.00000000000E+00  0.00000000000E+00 -0.45861159042E+03  0.11938619328E+04  0.11022620939E+04 0.  0.
        3    1    3    3  502    0 -0.27830393516E+03 -0.26221633108E+03 -0.65919612168E+03  0.76206956484E+03  0.10100000352E+00 0.  1.
       -3    1    3    3    0  502  0.27830393516E+03  0.26221633108E+03  0.20058453127E+03  0.43179236792E+03  0.10100000352E+00 0. -1.
</event>
<event>
 5   0  0.3320192E-03  0.1140592E+04  0.7818609E-02  0.9166507E-01
        1   -1    0    0  501    0  0.00000000000E+00  0.00000000000E+00  0.10594562934E+04  0.10594562934E+04  0.50400001928E-02 0. -1.
       -1   -1    0    0    0  501  0.00000000000E+00  0.00000000000E+00 -0.30698506474E+03  0.30698506478E+03  0.50400001928E-02 0.  1.
    10030    2    1    2    0    0  0.00000000000E+00  0.00000000000E+00  0.75247122862E+03  0.13664413581E+04  0.11405915287E+04 0.  0.
        2    1    3    3  502    0  0.67151683595E+02 -0.46551638077E+03  0.76262422024E+03  0.89599695908E+03  0.25500000920E-02 0. -1.
       -2    1    3    3    0  502 -0.67151683595E+02  0.46551638077E+03 -0.10152991617E+02  0.47044439907E+03  0.25500000920E-02 0.  1.
</event>
<event>
 5   0  0.3316784E-03  0.1088812E+04  0.7818609E-02  0.9216166E-01
        1   -1    0    0  501    0  0.00000000000E+00  0.00000000000E+00  0.17019838948E+04  0.17019838948E+04  0.50400001928E-02 0. -1.
       -1   -1    0    0    0  501  0.00000000000E+00  0.00000000000E+00 -0.17413672087E+03  0.17413672094E+03  0.50400001928E-02 0.  1.
    10030    2    1    2    0    0  0.00000000000E+00  0.00000000000E+00  0.15278471739E+04  0.18761206158E+04  0.10888120030E+04 0.  0.
        4    1    3    3  502    0 -0.26703386818E+03  0.59214035117E+01  0.15813187304E+04  0.16037183947E+04  0.12699999809E+01 0. -1.
       -4    1    3    3    0  502  0.26703386818E+03 -0.59214035117E+01 -0.53471556403E+02  0.27240222103E+03  0.12699999809E+01 0.  1.
</event>
<event>
 5   0  0.2185750E-03  0.1096018E+04  0.7818609E-02  0.9209081E-01
       -3   -1    0    0    0  501  0.00000000000E+00  0.00000000000E+00  0.52420066091E+03  0.52420067064E+03  0.10100000352E+00 0.  1.
        3   -1    0    0  501    0  0.00000000000E+00  0.00000000000E+00 -0.57289901574E+03  0.57289902464E+03  0.10100000352E+00 0. -1.
    10030    2    1    2    0    0  0.00000000000E+00  0.00000000000E+00 -0.48698354826E+02  0.10970996953E+04  0.10960183446E+04 0.  0.
        2    1    3    3  502    0  0.37986760384E+03  0.18204024688E+03 -0.37523176143E+03  0.56412491766E+03  0.25500000920E-02 0. -1.
       -2    1    3    3    0  502 -0.37986760384E+03 -0.18204024688E+03  0.32653340661E+03  0.53297477761E+03  0.25500000920E-02 0.  1.
</event>
<event>
 5   0  0.5946359E-03  0.1074404E+04  0.7818609E-02  0.9230505E-01
        2   -1    0    0  501    0  0.00000000000E+00  0.00000000000E+00  0.13659473303E+04  0.13659473303E+04  0.25500000920E-02 0.  1.
       -2   -1    0    0    0  501  0.00000000000E+00  0.00000000000E+00 -0.21127161449E+03  0.21127161450E+03  0.25500000920E-02 0. -1.
    10030    2    1    2    0    0  0.00000000000E+00  0.00000000000E+00  0.11546757158E+04  0.15772189448E+04  0.10744038306E+04 0.  0.
        4    1    3    3  502    0  0.56451309805E+02  0.20383036158E+03  0.13022518066E+04  0.13193160907E+04  0.12699999809E+01 0.  1.
       -4    1    3    3    0  502 -0.56451309805E+02 -0.20383036158E+03 -0.14757609074E+03  0.25790285408E+03  0.12699999809E+01 0. -1.
</event>
<event>
 5   0  0.3241189E-03  0.1125050E+04  0.7818609E-02  0.9181115E-01
        1   -1    0    0  501    0  0.00000000000E+00  0.00000000000E+00  0.58187260832E+03  0.58187260835E+03  0.50400001928E-02 0.  1.
       -1   -1    0    0    0  501  0.00000000000E+00  0.00000000000E+00 -0.54382056647E+03  0.54382056649E+03  0.50400001928E-02 0. -1.
    10030    2    1    2    0    0  0.00000000000E+00  0.00000000000E+00  0.38052041854E+02  0.11256931748E+04  0.11250498504E+04 0.  0.
        5    1    3    3  502    0  0.50595657510E+03 -0.11420069555E+03  0.23681616274E+03  0.57020859314E+03  0.46999998093E+01 0.  1.
       -5    1    3    3    0  502 -0.50595657510E+03  0.11420069555E+03 -0.19876412088E+03  0.55548458170E+03  0.46999998093E+01 0. -1.
</event>
<event>
 5   0  0.5627232E-03  0.1067965E+04  0.7818609E-02  0.9236990E-01
        2   -1    0    0  501    0  0.00000000000E+00  0.00000000000E+00  0.12895403346E+04  0.12895403346E+04  0.25500000920E-02 0.  1.
       -2   -1    0    0    0  501  0.00000000000E+00  0.00000000000E+00 -0.22111565749E+03  0.22111565751E+03  0.25500000920E-02 0. -1.
    10030    2    1    2    0    0  0.00000000000E+00  0.00000000000E+00  0.10684246771E+04  0.15106559921E+04  0.10679654656E+04 0.  0.
        2    1    3    3  502    0 -0.17753541890E+03 -0.98504827138E+02  0.12328115600E+04  0.12494184121E+04  0.25500000920E-02 0.  1.
       -2    1    3    3    0  502  0.17753541890E+03  0.98504827138E+02 -0.16438688291E+03  0.26123758002E+03  0.25500000920E-02 0. -1.
</event>
<event>
 5   0  0.3320192E-03  0.1083565E+04  0.7818609E-02  0.9221361E-01
       -1   -1    0    0    0  501  0.00000000000E+00  0.00000000000E+00  0.39721403953E+03  0.39721403956E+03  0.50400001928E-02 0. -1.
        1   -1    0    0  501    0  0.00000000000E+00  0.00000000000E+00 -0.73896711446E+03  0.73896711447E+03  0.50400001928E-02 0.  1.
    10030    2    1    2    0    0  0.00000000000E+00  0.00000000000E+00 -0.34175307493E+03  0.11361811540E+04  0.10835646961E+04 0.  0.
        2    1    3    3  502    0  0.10599578595E+03 -0.24160070292E+03 -0.66705878268E+03  0.71733773485E+03  0.25500000920E-02 0.  1.
       -2    1    3    3    0  502 -0.10599578595E+03  0.24160070292E+03  0.32530570775E+03  0.41884341918E+03  0.25500000920E-02 0. -1.
</event>
<event>
 5   0  0.3215352E-03  0.1104609E+04  0.7818609E-02  0.9200712E-01
       -1   -1    0    0    0  501  0.00000000000E+00  0.00000000000E+00  0.10041186523E+04  0.10041186523E+04  0.50400001928E-02 0. -1.
        1   -1    0    0  501    0  0.00000000000E+00  0.00000000000E+00 -0.30378887286E+03  0.30378887290E+03  0.50400001928E-02 0.  1.
    10030    2    1    2    0    0  0.00000000000E+00  0.00000000000E+00  0.70032977944E+03  0.13079075252E+04  0.11046086613E+04 0.  0.
        1    1    3    3  502    0  0.15305404068E+03  0.52969745740E+03  0.31206991482E+03  0.63355549678E+03  0.50400001928E-02 0.  1.
       -1    1    3    3    0  502 -0.15305404068E+03 -0.52969745740E+03  0.38825986462E+03  0.67435202843E+03  0.50400001928E-02 0. -1.
</event>
<event>
 5   0  0.5627232E-03  0.1125786E+04  0.7818609E-02  0.9180417E-01
       -2   -1    0    0    0  501  0.00000000000E+00  0.00000000000E+00  0.36991081894E+03  0.36991081895E+03  0.25500000920E-02 0.  1.
        2   -1    0    0  501    0  0.00000000000E+00  0.00000000000E+00 -0.85655423934E+03  0.85655423934E+03  0.25500000920E-02 0. -1.
    10030    2    1    2    0    0  0.00000000000E+00  0.00000000000E+00 -0.48664342040E+03  0.12264650583E+04  0.11257862677E+04 0.  0.
        2    1    3    3  502    0  0.35476915566E+03 -0.17705353910E+02  0.23239129545E+03  0.42447655715E+03  0.25500000920E-02 0.  1.
       -2    1    3    3    0  502 -0.35476915566E+03  0.17705353910E+02 -0.71903471585E+03  0.80198850114E+03  0.25500000920E-02 0. -1.
</event>
<event>
 5   0  0.5723194E-03  0.1177124E+04  0.7818609E-02  0.9133119E-01
       -2   -1    0    0    0  501  0.00000000000E+00  0.00000000000E+00  0.10021761423E+04  0.10021761423E+04  0.25500000920E-02 0. -1.
        2   -1    0    0  501    0  0.00000000000E+00  0.00000000000E+00 -0.34565280666E+03  0.34565280667E+03  0.25500000920E-02 0.  1.
    10030    2    1    2    0    0  0.00000000000E+00  0.00000000000E+00  0.65652333562E+03  0.13478289489E+04  0.11771236067E+04 0.  0.
        1    1    3    3  502    0 -0.34226080040E+03  0.35488504883E+03 -0.39785184762E+02  0.49463998456E+03  0.50400001928E-02 0.  1.
       -1    1    3    3    0  502  0.34226080040E+03 -0.35488504883E+03  0.69630852038E+03  0.85318896439E+03  0.50400001928E-02 0. -1.
</event>
<event>
 5   0  0.3320192E-03  0.1099523E+04  0.7818609E-02  0.9205657E-01
       -1   -1    0    0    0  501  0.00000000000E+00  0.00000000000E+00  0.11224612290E+03  0.11224612301E+03  0.50400001928E-02 0. -1.
        1   -1    0    0  501    0  0.00000000000E+00  0.00000000000E+00 -0.26926339418E+04  0.26926339418E+04  0.50400001928E-02 0.  1.
    10030    2    1    2    0    0  0.00000000000E+00  0.00000000000E+00 -0.25803878189E+04  0.28048800648E+04  0.10995230248E+04 0.  0.
        2    1    3    3  502    0 -0.30929008166E+03  0.48595716496E+01 -0.24495757936E+04  0.24690292705E+04  0.25500000920E-02 0.  1.
       -2    1    3    3    0  502  0.30929008166E+03 -0.48595716496E+01 -0.13081202527E+03  0.33585079427E+03  0.25500000920E-02 0. -1.
</event>
<event>
 5   0  0.3215352E-03  0.1126477E+04  0.7818609E-02  0.9179763E-01
        1   -1    0    0  501    0  0.00000000000E+00  0.00000000000E+00  0.20241176973E+03  0.20241176979E+03  0.50400001928E-02 0. -1.
       -1   -1    0    0    0  501  0.00000000000E+00  0.00000000000E+00 -0.15672871239E+04  0.15672871239E+04  0.50400001928E-02 0.  1.
    10030    2    1    2    0    0  0.00000000000E+00  0.00000000000E+00 -0.13648753542E+04  0.17696988937E+04  0.11264765608E+04 0.  0.
        1    1    3    3  502    0 -0.35591403817E+03 -0.24267677569E+03 -0.12524989378E+04  0.13245076101E+04  0.50400001928E-02 0.  1.
       -1    1    3    3    0  502  0.35591403817E+03  0.24267677569E+03 -0.11237641641E+03  0.44519128363E+03  0.50400001928E-02 0. -1.
</event>
<event>
 5   0  0.3316784E-03  0.1095129E+04  0.7818609E-02  0.9209952E-01
        1   -1    0    0  501    0  0.00000000000E+00  0.00000000000E+00  0.43011100320E+03  0.43011100323E+03  0.50400001928E-02 0.  1.
       -1   -1    0    0    0  501  0.00000000000E+00  0.00000000000E+00 -0.69709241621E+03  0.69709241623E+03  0.50400001928E-02 0. -1.
    10030    2    1    2    0    0  0.00000000000E+00  0.00000000000E+00 -0.26698141302E+03  0.11272034195E+04  0.10951294325E+04 0.  0.
        4    1    3    3  502    0  0.35614928335E+03 -0.32786126878E+03  0.12991485787E+03  0.50121333461E+03  0.12699999809E+01 0.  1.
       -4    1    3    3    0  502 -0.35614928335E+03  0.32786126878E+03 -0.39689627088E+03  0.62599008485E+03  0.12699999809E+01 0. -1.
</event>
<event>
 5   0  0.5946359E-03  0.1098654E+04  0.7818609E-02  0.9206505E-01
       -2   -1    0    0    0  501  0.00000000000E+00  0.00000000000E+00  0.17720422565E+03  0.17720422567E+03  0.25500000920E-02 0.  1.
        2   -1    0    0  501    0  0.00000000000E+00  0.00000000000E+00 -0.17028940860E+04  0.17028940860E+04  0.25500000920E-02 0. -1.
    10030    2    1    2    0    0  0.00000000000E+00  0.00000000000E+00 -0.15256898603E+04  0.18800983116E+04  0.10986537724E+04 0.  0.
        4    1    3    3  502    0  0.40109179621E+02  0.52457209953E+03 -0.49241057738E+03  0.72059310537E+03  0.12699999809E+01 0. -1.
       -4    1    3    3    0  502 -0.40109179621E+02 -0.52457209953E+03 -0.10332792829E+04  0.11595052063E+04  0.12699999809E+01 0.  1.
</event>
<event>
 5   0  0.3328741E-03  0.1098673E+04  0.7818609E-02  0.9206486E-01
       -1   -1    0    0    0  501  0.00000000000E+00  0.00000000000E+00  0.34010950344E+03  0.34010950348E+03  0.50400001928E-02 0.  1.
        1   -1    0    0  501    0  0.00000000000E+00  0.00000000000E+00 -0.88727529398E+03  0.88727529399E+03  0.50400001928E-02 0. -1.
    10030    2    1    2    0    0  0.00000000000E+00  0.00000000000E+00 -0.54716579053E+03  0.12273847975E+04  0.10986733085E+04 0.  0.
        3    1    3    3  502    0 -0.14145689554E+02 -0.54658545112E+03 -0.21431071949E+03  0.58726897636E+03  0.10100000352E+00 0.  1.
       -3    1    3    3    0  502  0.14145689554E+02  0.54658545112E+03 -0.33285507104E+03  0.64011582111E+03  0.10100000352E+00 0. -1.
</event>
<event>
 5   0  0.3215352E-03  0.1091249E+04  0.7818609E-02  0.9213764E-01
       -1   -1    0    0    0  501  0.00000000000E+00  0.00000000000E+00  0.74712719360E+03  0.74712719361E+03  0.50400001928E-02 0. -1.
        1   -1    0    0  501    0  0.00000000000E+00  0.00000000000E+00 -0.39846751970E+03  0.39846751973E+03  0.50400001928E-02 0.  1.
    10030    2    1    2    0    0  0.00000000000E+00  0.00000000000E+00  0.34865967390E+03  0.11455947133E+04  0.10912486788E+04 0.  0.
        1    1    3    3  502    0  0.20471634586E+03  0.63529512039E+01 -0.35658008956E+03  0.41121588314E+03  0.50400001928E-02 0.  1.
       -1    1    3    3    0  502 -0.20471634586E+03 -0.63529512039E+01  0.70523976347E+03  0.73437883020E+03  0.50400001928E-02 0. -1.
</event>
<event>
 5   0  0.3215352E-03  0.1089673E+04  0.7818609E-02  0.9215316E-01
        1   -1    0    0  501    0  0.00000000000E+00  0.00000000000E+00  0.71172112979E+03  0.71172112981E+03  0.50400001928E-02 0. -1.
       -1   -1    0    0    0  501  0.00000000000E+00  0.00000000000E+00 -0.41708328418E+03  0.41708328421E+03  0.50400001928E-02 0.  1.
    10030    2    1    2    0    0  0.00000000000E+00  0.00000000000E+00  0.29463784562E+03  0.11288044140E+04  0.10896733203E+04 0.  0.
        1    1    3    3  502    0 -0.43326348502E+02 -0.53415131304E+03  0.45545289382E+02  0.53783749507E+03  0.50400001928E-02 0. -1.
       -1    1    3    3    0  502  0.43326348502E+02  0.53415131304E+03  0.24909255624E+03  0.59096691895E+03  0.50400001928E-02 0.  1.
</event>
<event>
 5   0  0.5946359E-03  0.1096931E+04  0.7818609E-02  0.9208189E-01
        2   -1    0    0  501    0  0.00000000000E+00  0.00000000000E+00  0.65225866892E+03  0.65225866893E+03  0.25500000920E-02 0.  1.
       -2   -1    0    0    0  501  0.00000000000E+00  0.00000000000E+00 -0.46118840240E+03  0.46118840240E+03  0.25500000920E-02 0. -1.
    10030    2    1    2    0    0  0.00000000000E+00  0.00000000000E+00  0.19107026653E+03  0.11134470713E+04  0.10969305055E+04 0.  0.
        4    1    3    3  502    0  0.23894698926E+03  0.29321320331E+03  0.49868390222E+03  0.62590485979E+03  0.12699999809E+01 0.  1.
       -4    1    3    3    0  502 -0.23894698926E+03 -0.29321320331E+03 -0.30761363569E+03  0.48754221154E+03  0.12699999809E+01 0. -1.
</event>
<event>
 5   0  0.5500363E-03  0.1120655E+04  0.7818609E-02  0.9185291E-01
       -2   -1    0    0    0  501  0.00000000000E+00  0.00000000000E+00  0.48331934375E+03  0.48331934376E+03  0.25500000920E-02 0. -1.
        2   -1    0    0  501    0  0.00000000000E+00  0.00000000000E+00 -0.64960518510E+03  0.64960518510E+03  0.25500000920E-02 0.  1.
    10030    2    1    2    0    0  0.00000000000E+00  0.00000000000E+00 -0.16628584135E+03  0.11329245289E+04  0.11206547225E+04 0.  0.
        3    1    3    3  502    0 -0.26884149752E+02  0.96975232271E+01  0.48258201540E+03  0.48342756568E+03  0.10100000352E+00 0. -1.
       -3    1    3    3    0  502  0.26884149752E+02 -0.96975232271E+01 -0.64886785675E+03  0.64949696319E+03  0.10100000352E+00 0.  1.
</event>
<event>
 5   0  0.5941585E-03  0.1084272E+04  0.7818609E-02  0.9220658E-01
       -2   -1    0    0    0  501  0.00000000000E+00  0.00000000000E+00  0.24478684039E+03  0.24478684041E+03  0.25500000920E-02 0. -1.
        2   -1    0    0  501    0  0.00000000000E+00  0.00000000000E+00 -0.12006839429E+04  0.12006839429E+04  0.25500000920E-02 0.  1.
    10030    2    1    2    0    0  0.00000000000E+00  0.00000000000E+00 -0.95589710253E+03  0.14454707833E+04  0.10842723435E+04 0.  0.
        5    1    3    3  502    0  0.40311729923E+03 -0.11712616180E+03 -0.93524633580E+03  0.10251487177E+04  0.46999998093E+01 0.  1.
       -5    1    3    3    0  502 -0.40311729923E+03  0.11712616180E+03 -0.20650766730E+02  0.42032206566E+03  0.46999998093E+01 0. -1.
</event>
<event>
 5   0  0.5500363E-03  0.1118163E+04  0.7818609E-02  0.9187667E-01
        2   -1    0    0  501    0  0.00000000000E+00  0.00000000000E+00  0.12199863178E+04  0.12199863178E+04  0.25500000920E-02 0.  1.
       -2   -1    0    0    0  501  0.00000000000E+00  0.00000000000E+00 -0.25620973735E+03  0.25620973736E+03  0.25500000920E-02 0. -1.
    10030    2    1    2    0    0  0.00000000000E+00  0.00000000000E+00  0.96377658042E+03  0.14761960551E+04  0.11181634479E+04 0.  0.
        3    1    3    3  502    0 -0.10219052409E+03 -0.14417090196E+03  0.11821457457E+04  0.11952810240E+04  0.10100000352E+00 0.  1.
       -3    1    3    3    0  502  0.10219052409E+03  0.14417090196E+03 -0.21836916523E+03  0.28091503112E+03  0.10100000352E+00 0. -1.
</event>
<event>
 5   0  0.3241189E-03  0.1103775E+04  0.7818609E-02  0.9201521E-01
       -1   -1    0    0    0  501  0.00000000000E+00  0.00000000000E+00  0.53243681884E+03  0.53243681886E+03  0.50400001928E-02 0.  1.
        1   -1    0    0  501    0  0.00000000000E+00  0.00000000000E+00 -0.57204835624E+03  0.57204835627E+03  0.50400001928E-02 0. -1.
    10030    2    1    2    0    0  0.00000000000E+00  0.00000000000E+00 -0.39611537405E+02  0.11044851751E+04  0.11037746274E+04 0.  0.
        5    1    3    3  502    0  0.46816941897E+03 -0.22275869010E+03 -0.20901339308E+03  0.55902837796E+03  0.46999998093E+01 0.  1.
       -5    1    3    3    0  502 -0.46816941897E+03  0.22275869010E+03  0.16940185568E+03  0.54545679717E+03  0.46999998093E+01 0. -1.
</event>
<event>
 5   0  0.5941585E-03  0.1082636E+04  0.7818609E-02  0.9222283E-01
        2   -1    0    0  501    0  0.00000000000E+00  0.00000000000E+00  0.11466487595E+04  0.11466487596E+04  0.25500000920E-02 0. -1.
       -2   -1    0    0    0  501  0.00000000000E+00  0.00000000000E+00 -0.25554911102E+03  0.25554911104E+03  0.25500000920E-02 0.  1.
    10030    2    1    2    0    0  0.00000000000E+00  0.00000000000E+00  0.89109964853E+03  0.14021978706E+04  0.10826358043E+04 0.  0.
        5    1    3    3  502    0 -0.26270100234E+03 -0.44232932559E+03  0.66356949046E+03  0.83965088434E+03  0.46999998093E+01 0. -1.
       -5    1    3    3    0  502  0.26270100234E+03  0.44232932559E+03  0.22753015807E+03  0.56254698625E+03  0.46999998093E+01 0.  1.
</event>
<event>
 5   0  0.5627232E-03  0.1094801E+04  0.7818609E-02  0.9210274E-01
        2   -1    0    0  501    0  0.00000000000E+00  0.00000000000E+00  0.87118458873E+03  0.87118458874E+03  0.25500000920E-02 0. -1.
       -2   -1    0    0    0  501  0.00000000000E+00  0.00000000000E+00 -0.34395394988E+03  0.34395394988E+03  0.25500000920E-02 0.  1.
    10030    2    1    2    0    0  0.00000000000E+00  0.00000000000E+00  0.52723063886E+03  0.12151385386E+04  0.10948011333E+04 0.  0.
        2    1    3    3  502    0  0.43429069926E+02 -0.36089161347E+03  0.71789362341E+03  0.80467390620E+03  0.25500000920E-02 0. -1.
       -2    1    3    3    0  502 -0.43429069926E+02  0.36089161347E+03 -0.19066298455E+03  0.41046463242E+03  0.25500000920E-02 0.  1.
</event>
<event>
 5   0  0.5941585E-03  0.1116897E+04  0.7818609E-02  0.9188877E-01
        2   -1    0    0  501    0  0.00000000000E+00  0.00000000000E+00  0.65783206153E+03  0.65783206154E+03  0.25500000920E-02 0. -1.
       -2   -1    0    0    0  501  0.00000000000E+00  0.00000000000E+00 -0.47407981812E+03  0.47407981813E+03  0.25500000920E-02 0.  1.
    10030    2    1    2    0    0  0.00000000000E+00  0.00000000000E+00  0.18375224341E+03  0.11319118797E+04  0.11168973168E+04 0.  0.
        5    1    3    3  502    0 -0.23415341031E+03 -0.29063909810E+03 -0.32909197805E+03  0.49761684549E+03  0.46999998093E+01 0.  1.
       -5    1    3    3    0  502  0.23415341031E+03  0.29063909810E+03  0.51284422145E+03  0.63429503418E+03  0.46999998093E+01 0. -1.
</event>
<event>
 5   0  0.3215352E-03  0.1088249E+04  0.7818609E-02  0.9216722E-01
        1   -1    0    0  501    0  0.00000000000E+00  0.00000000000E+00  0.16643512969E+04  0.16643512969E+04  0.50400001928E-02 0. -1.
       -1   -1    0    0    0  501  0.00000000000E+00  0.00000000000E+00 -0.17788989453E+03  0.17788989460E+03  0.50400001928E-02 0.  1.
    10030    2    1    2    0    0  0.00000000000E+00  0.00000000000E+00  0.14864614024E+04  0.18422411915E+04  0.10882486421E+04 0.  0.
        1    1    3    3  502    0  0.76161532865E+02  0.14766728759E+03 -0.13389583148E+03  0.21338767684E+03  0.50400001928E-02 0.  1.
       -1    1    3    3    0  502 -0.76161532865E+02 -0.14766728759E+03  0.16203572339E+04  0.16288535147E+04  0.50400001928E-02 0. -1.
</event>
<event>
 5   0  0.5627232E-03  0.1092338E+04  0.7818609E-02  0.9212692E-01
       -2   -1    0    0    0  501  0.00000000000E+00  0.00000000000E+00  0.46679322628E+03  0.46679322629E+03  0.25500000920E-02 0.  1.
        2   -1    0    0  501    0  0.00000000000E+00  0.00000000000E+00 -0.63904201799E+03  0.63904201800E+03  0.25500000920E-02 0. -1.
    10030    2    1    2    0    0  0.00000000000E+00  0.00000000000E+00 -0.17224879171E+03  0.11058352443E+04  0.10923378329E+04 0.  0.
        2    1    3    3  502    0 -0.18487813834E+03  0.32885312967E+02 -0.60533507850E+03  0.63379170641E+03  0.25500000920E-02 0. -1.
       -2    1    3    3    0  502  0.18487813834E+03 -0.32885312967E+02  0.43308628678E+03  0.47204353788E+03  0.25500000920E-02 0.  1.
</event>
<event>
 5   0  0.3241189E-03  0.1100476E+04  0.7818609E-02  0.9204728E-01
       -1   -1    0    0    0  501  0.00000000000E+00  0.00000000000E+00  0.28528132864E+03  0.28528132868E+03  0.50400001928E-02 0. -1.
        1   -1    0    0  501    0  0.00000000000E+00  0.00000000000E+00 -0.10612741277E+04  0.10612741277E+04  0.50400001928E-02 0.  1.
    10030    2    1    2    0    0  0.00000000000E+00  0.00000000000E+00 -0.77599279904E+03  0.13465554564E+04  0.11004757030E+04 0.  0.
        5    1    3    3  502    0 -0.33702348372E+03  0.42634984083E+03 -0.49311734625E+03  0.73385681337E+03  0.46999998093E+01 0. -1.
       -5    1    3    3    0  502  0.33702348372E+03 -0.42634984083E+03 -0.28287545280E+03  0.61269864301E+03  0.46999998093E+01 0.  1.
</event>
<event>
 5   0  0.3328741E-03  0.1128562E+04  0.7818609E-02  0.9177792E-01
        1   -1    0    0  501    0  0.00000000000E+00  0.00000000000E+00  0.10235774738E+04  0.10235774738E+04  0.50400001928E-02 0. -1.
       -1   -1    0    0    0  501  0.00000000000E+00  0.00000000000E+00 -0.31107835857E+03  0.31107835861E+03  0.50400001928E-02 0.  1.
    10030    2    1    2    0    0  0.00000000000E+00  0.00000000000E+00  0.71249911523E+03  0.13346558324E+04  0.11285615632E+04 0.  0.
        3    1    3    3  502    0  0.30369254362E+03 -0.34610811782E+02 -0.20469703160E+03  0.36786947997E+03  0.10100000352E+00 0.  1.
       -3    1    3    3    0  502 -0.30369254362E+03  0.34610811782E+02  0.91719614683E+03  0.96678635246E+03  0.10100000352E+00 0. -1.
</event>
<event>
 5   0  0.5946359E-03  0.1117977E+04  0.7818609E-02  0.9187845E-01
       -2   -1    0    0    0  501  0.00000000000E+00  0.00000000000E+00  0.67271105754E+03  0.67271105754E+03  0.25500000920E-02 0. -1.
        2   -1    0    0  501    0  0.00000000000E+00  0.00000000000E+00 -0.46449074609E+03  0.46449074610E+03  0.25500000920E-02 0.  1.
    10030    2    1    2    0    0  0.00000000000E+00  0.00000000000E+00  0.20822031144E+03  0.11372018036E+04  0.11179768531E+04 0.  0.
        4    1    3    3  502    0  0.43668414777E+03 -0.15758394350E+03  0.42081726514E+03  0.62658960070E+03  0.12699999809E+01 0. -1.
       -4    1    3    3    0  502 -0.43668414777E+03  0.15758394350E+03 -0.21259695370E+03  0.51061220294E+03  0.12699999809E+01 0.  1.
</event>
<event>
 5   0  0.3241189E-03  0.1095848E+04  0.7818609E-02  0.9209248E-01
        1   -1    0    0  501    0  0.00000000000E+00  0.00000000000E+00  0.56834660546E+03  0.56834660548E+03  0.50400001928E-02 0.  1.
       -1   -1    0    0    0  501  0.00000000000E+00  0.00000000000E+00 -0.52823570381E+03  0.52823570384E+03  0.50400001928E-02 0. -1.
    10030    2    1    2    0    0  0.00000000000E+00  0.00000000000E+00  0.40110901649E+02  0.10965823093E+04  0.10958484734E+04 0.  0.
        5    1    3    3  502    0  0.48480447572E+03  0.23115148232E+03  0.12844461228E+03  0.55225582467E+03  0.46999998093E+01 0.  1.
       -5    1    3    3    0  502 -0.48480447572E+03 -0.23115148232E+03 -0.88333710629E+02  0.54432648465E+03  0.46999998093E+01 0. -1.
</event>
<event>
 5   0  0.3215352E-03  0.1122989E+04  0.7818609E-02  0.9183070E-01
        1   -1    0    0  501    0  0.00000000000E+00  0.00000000000E+00  0.61752668911E+03  0.61752668913E+03  0.50400001928E-02 0.  1.
       -1   -1    0    0    0  501  0.00000000000E+00  0.00000000000E+00 -0.51054647599E+03  0.51054647601E+03  0.50400001928E-02 0. -1.
    10030    2    1    2    0    0  0.00000000000E+00  0.00000000000E+00  0.10698021312E+03  0.11280731651E+04  0.11229890026E+04 0.  0.
        1    1    3    3  502    0 -0.59431693919E+02  0.39314630605E+03  0.45174425794E+03  0.60180480125E+03  0.50400001928E-02 0.  1.
       -1    1    3    3    0  502  0.59431693919E+02 -0.39314630605E+03 -0.34476404482E+03  0.52626836389E+03  0.50400001928E-02 0. -1.
</event>
<event>
 5   0  0.3328741E-03  0.8074979E+03  0.7818609E-02  0.9549227E-01
       -1   -1    0    0    0  501  0.00000000000E+00  0.00000000000E+00  0.89560219690E+03  0.89560219691E+03  0.50400001928E-02 0.  1.
        1   -1    0    0  501    0  0.00000000000E+00  0.00000000000E+00 -0.18201522088E+03  0.18201522094E+03  0.50400001928E-02 0. -1.
    10030    2    1    2    0    0  0.00000000000E+00  0.00000000000E+00  0.71358697602E+03  0.10776174179E+04  0.80749794236E+03 0.  0.
        3    1    3    3  502    0 -0.29904982786E+03  0.55289869146E+01  0.71871965647E+03  0.77847242985E+03  0.10100000352E+00 0.  1.
       -3    1    3    3    0  502  0.29904982786E+03 -0.55289869146E+01 -0.51326804485E+01  0.29914498801E+03  0.10100000352E+00 0. -1.
</event>
<event>
 5   0  0.5941585E-03  0.1101028E+04  0.7818609E-02  0.9204191E-01
       -2   -1    0    0    0  501  0.00000000000E+00  0.00000000000E+00  0.17076010208E+03  0.17076010210E+03  0.25500000920E-02 0. -1.
        2   -1    0    0  501    0  0.00000000000E+00  0.00000000000E+00 -0.17748025085E+04  0.17748025085E+04  0.25500000920E-02 0.  1.
    10030    2    1    2    0    0  0.00000000000E+00  0.00000000000E+00 -0.16040424064E+04  0.19455626106E+04  0.11010276246E+04 0.  0.
        5    1    3    3  502    0  0.22375010349E+03  0.11904412197E+03  0.61496428521E+02  0.26084384698E+03  0.46999998093E+01 0. -1.
       -5    1    3    3    0  502 -0.22375010349E+03 -0.11904412197E+03 -0.16655388349E+04  0.16847187636E+04  0.46999998093E+01 0.  1.
</event>
<event>
 5   0  0.3316784E-03  0.1102568E+04  0.7818609E-02  0.9202692E-01
        1   -1    0    0  501    0  0.00000000000E+00  0.00000000000E+00  0.19406333482E+03  0.19406333489E+03  0.50400001928E-02 0. -1.
       -1   -1    0    0    0  501  0.00000000000E+00  0.00000000000E+00 -0.15660572186E+04  0.15660572186E+04  0.50400001928E-02 0.  1.
    10030    2    1    2    0    0  0.00000000000E+00  0.00000000000E+00 -0.13719938838E+04  0.17601205535E+04  0.11025684313E+04 0.  0.
        4    1    3    3  502    0 -0.49580385577E+03  0.22777139150E+03 -0.56018214333E+03  0.78198907715E+03  0.12699999809E+01 0. -1.
       -4    1    3    3    0  502  0.49580385577E+03 -0.22777139150E+03 -0.81181174046E+03  0.97813147635E+03  0.12699999809E+01 0.  1.
</event>
<event>
 5   0  0.3241189E-03  0.1103881E+04  0.7818609E-02  0.9201418E-01
       -1   -1    0    0    0  501  0.00000000000E+00  0.00000000000E+00  0.33308885889E+03  0.33308885893E+03  0.50400001928E-02 0. -1.
        1   -1    0    0  501    0  0.00000000000E+00  0.00000000000E+00 -0.91458502112E+03  0.91458502114E+03  0.50400001928E-02 0.  1.
    10030    2    1    2    0    0  0.00000000000E+00  0.00000000000E+00 -0.58149616223E+03  0.12476738801E+04  0.11038805752E+04 0.  0.
        5    1    3    3  502    0  0.34895705250E+03 -0.41990181305E+03 -0.38206478694E+03  0.66639638993E+03  0.46999998093E+01 0.  1.
       -5    1    3    3    0  502 -0.34895705250E+03  0.41990181305E+03 -0.19943137529E+03  0.58127749014E+03  0.46999998093E+01 0. -1.
</event>
<event>
 5   0  0.5941585E-03  0.1028228E+04  0.7818609E-02  0.9278115E-01
       -2   -1    0    0    0  501  0.00000000000E+00  0.00000000000E+00  0.13771517849E+03  0.13771517851E+03  0.25500000920E-02 0.  1.
        2   -1    0    0  501    0  0.00000000000E+00  0.00000000000E+00 -0.19192749408E+04  0.19192749408E+04  0.25500000920E-02 0. -1.
    10030    2    1    2    0    0  0.00000000000E+00  0.00000000000E+00 -0.17815597623E+04  0.20569901193E+04  0.10282281674E+04 0.  0.
        5    1    3    3  502    0  0.12820687319E+03  0.11529726034E+03 -0.18596607281E+04  0.18676430532E+04  0.46999998093E+01 0. -1.
       -5    1    3    3    0  502 -0.12820687319E+03 -0.11529726034E+03  0.78100965803E+02  0.18934706608E+03  0.46999998093E+01 0.  1.
</event>
<event>
 5   0  0.3241189E-03  0.1114691E+04  0.7818609E-02  0.9190990E-01
        1   -1    0    0  501    0  0.00000000000E+00  0.00000000000E+00  0.10671199068E+04  0.10671199068E+04  0.50400001928E-02 0. -1.
       -1   -1    0    0    0  501  0.00000000000E+00  0.00000000000E+00 -0.29109575166E+03  0.29109575170E+03  0.50400001928E-02 0.  1.
    10030    2    1    2    0    0  0.00000000000E+00  0.00000000000E+00  0.77602415513E+03  0.13582156585E+04  0.11146911167E+04 0.  0.
        5    1    3    3  502    0 -0.86301704714E+02 -0.42696652252E+03  0.81161790930E+03  0.92113740359E+03  0.46999998093E+01 0. -1.
       -5    1    3    3    0  502  0.86301704714E+02  0.42696652252E+03 -0.35593754170E+02  0.43707825492E+03  0.46999998093E+01 0.  1.
</event>
<event>
 5   0  0.5946359E-03  0.1099669E+04  0.7818609E-02  0.9205514E-01
       -2   -1    0    0    0  501  0.00000000000E+00  0.00000000000E+00  0.15069431528E+03  0.15069431530E+03  0.25500000920E-02 0.  1.
        2   -1    0    0  501    0  0.00000000000E+00  0.00000000000E+00 -0.20061686660E+04  0.20061686660E+04  0.25500000920E-02 0. -1.
    10030    2    1    2    0    0  0.00000000000E+00  0.00000000000E+00 -0.18554743507E+04  0.21568629813E+04  0.10996694294E+04 0.  0.
        4    1    3    3  502    0 -0.78234066747E+02 -0.28634982515E+02 -0.19937147246E+04  0.19954549725E+04  0.12699999809E+01 0. -1.
       -4    1    3    3    0  502  0.78234066747E+02  0.28634982515E+02  0.13824037388E+03  0.16140800877E+03  0.12699999809E+01 0.  1.
</event>
<event>
 5   0  0.3316784E-03  0.1147581E+04  0.7818609E-02  0.9160018E-01
       -1   -1    0    0    0  501  0.00000000000E+00  0.00000000000E+00  0.27011298800E+03  0.27011298805E+03  0.50400001928E-02 0.  1.
        1   -1    0    0  501    0  0.00000000000E+00  0.00000000000E+00 -0.12188801823E+04  0.12188801823E+04  0.50400001928E-02 0. -1.
    10030    2    1    2    0    0  0.00000000000E+00  0.00000000000E+00 -0.94876719431E+03  0.14889931704E+04  0.11475807041E+04 0.  0.
        4    1    3    3  502    0 -0.27765213686E+03 -0.49472753790E+03 -0.36286061642E+03  0.67343558394E+03  0.12699999809E+01 0.  1.
       -4    1    3    3    0  502  0.27765213686E+03  0.49472753790E+03 -0.58590657789E+03  0.81555758643E+03  0.12699999809E+01 0. -1.
</event>
<event>
 5   0  0.3320192E-03  0.9075239E+03  0.7818609E-02  0.9416225E-01
       -1   -1    0    0    0  501  0.00000000000E+00  0.00000000000E+00  0.12604953713E+03  0.12604953723E+03  0.50400001928E-02 0.  1.
        1   -1    0    0  501    0  0.00000000000E+00  0.00000000000E+00 -0.16334841907E+04  0.16334841907E+04  0.50400001928E-02 0. -1.
    10030    2    1    2    0    0  0.00000000000E+00  0.00000000000E+00 -0.15074346536E+04  0.17595337279E+04  0.90752394182E+03 0.  0.
        2    1    3    3  502    0  0.28875339059E+03  0.34473914471E+03 -0.63616083505E+03  0.77905340416E+03  0.25500000920E-02 0.  1.
       -2    1    3    3    0  502 -0.28875339059E+03 -0.34473914471E+03 -0.87127381852E+03  0.98048032378E+03  0.25500000920E-02 0. -1.
</event>
<event>
 5   0  0.3328741E-03  0.1108119E+04  0.7818609E-02  0.9197315E-01
        1   -1    0    0  501    0  0.00000000000E+00  0.00000000000E+00  0.10279720258E+04  0.10279720258E+04  0.50400001928E-02 0.  1.
       -1   -1    0    0    0  501  0.00000000000E+00  0.00000000000E+00 -0.29862865548E+03  0.29862865552E+03  0.50400001928E-02 0. -1.
    10030    2    1    2    0    0  0.00000000000E+00  0.00000000000E+00  0.72934337033E+03  0.13266006813E+04  0.11081189539E+04 0.  0.
        3    1    3    3  502    0  0.37452955200E+03  0.40679788866E+03  0.32277116291E+03  0.64026411843E+03  0.10100000352E+00 0.  1.
       -3    1    3    3    0  502 -0.37452955200E+03 -0.40679788866E+03  0.40657220743E+03  0.68633656292E+03  0.10100000352E+00 0. -1.
</event>
<event>
 5   0  0.5500363E-03  0.1103405E+04  0.7818609E-02  0.9201879E-01
       -2   -1    0    0    0  501  0.00000000000E+00  0.00000000000E+00  0.65913404396E+03  0.65913404396E+03  0.25500000920E-02 0.  1.
        2   -1    0    0  501    0  0.00000000000E+00  0.00000000000E+00 -0.46178128789E+03  0.46178128789E+03  0.25500000920E-02 0. -1.
    10030    2    1    2    0    0  0.00000000000E+00  0.00000000000E+00  0.19735275607E+03  0.11209153319E+04  0.11034052161E+04 0.  0.
        3    1    3    3  502    0 -0.53954816804E+03 -0.10810070708E+03  0.58324896281E+02  0.55335322556E+03  0.10100000352E+00 0.  1.
       -3    1    3    3    0  502  0.53954816804E+03  0.10810070708E+03  0.13902785979E+03  0.56756210630E+03  0.10100000352E+00 0. -1.
</event>
<event>
 5   0  0.3320192E-03  0.1109014E+04  0.7818609E-02  0.9196451E-01
       -1   -1    0    0    0  501  0.00000000000E+00  0.00000000000E+00  0.16751818643E+03  0.16751818650E+03  0.50400001928E-02 0. -1.
        1   -1    0    0  501    0  0.00000000000E+00  0.00000000000E+00 -0.18354901377E+04  0.18354901377E+04  0.50400001928E-02 0.  1.
    10030    2    1    2    0    0  0.00000000000E+00  0.00000000000E+00 -0.16679719513E+04  0.20030083242E+04  0.11090139389E+04 0.  0.
        2    1    3    3  502    0 -0.25728661613E+03  0.45332505177E+03 -0.11756141027E+04  0.12859893172E+04  0.25500000920E-02 0.  1.
       -2    1    3    3    0  502  0.25728661613E+03 -0.45332505177E+03 -0.49235784859E+03  0.71701900706E+03  0.25500000920E-02 0. -1.
</event>
<event>
 5   0  0.3320192E-03  0.1113270E+04  0.7818609E-02  0.9192354E-01
        1   -1    0    0  501    0  0.00000000000E+00  0.00000000000E+00  0.70164247053E+03  0.70164247055E+03  0.50400001928E-02 0. -1.
       -1   -1    0    0    0  501  0.00000000000E+00  0.00000000000E+00 -0.44159598090E+03  0.44159598093E+03  0.50400001928E-02 0.  1.
    10030    2    1    2    0    0  0.00000000000E+00  0.00000000000E+00  0.26004648964E+03  0.11432384515E+04  0.11132699494E+04 0.  0.
        2    1    3    3  502    0 -0.11780523996E+03 -0.20479699270E+03 -0.38755084331E+03  0.45388934658E+03  0.25500000920E-02 0.  1.
       -2    1    3    3    0  502  0.11780523996E+03  0.20479699270E+03  0.64759733295E+03  0.68934910490E+03  0.25500000920E-02 0. -1.
</event>
<event>
 5   0  0.5941585E-03  0.1058777E+04  0.7818609E-02  0.9246329E-01
        2   -1    0    0  501    0  0.00000000000E+00  0.00000000000E+00  0.54068086434E+03  0.54068086435E+03  0.25500000920E-02 0. -1.
       -2   -1    0    0    0  501  0.00000000000E+00  0.00000000000E+00 -0.51833184645E+03  0.51833184645E+03  0.25500000920E-02 0.  1.
    10030    2    1    2    0    0  0.00000000000E+00  0.00000000000E+00  0.22349017898E+02  0.10590127108E+04  0.10587768618E+04 0.  0.
        5    1    3    3  502    0 -0.37114492121E+02  0.47053835179E+03 -0.22855823925E+03  0.52444712294E+03  0.46999998093E+01 0.  1.
       -5    1    3    3    0  502  0.37114492121E+02 -0.47053835179E+03  0.25090725715E+03  0.53456558786E+03  0.46999998093E+01 0. -1.
</event>
<event>
 5   0  0.5946359E-03  0.1058943E+04  0.7818609E-02  0.9246160E-01
       -2   -1    0    0    0  501  0.00000000000E+00  0.00000000000E+00  0.38773833840E+03  0.38773833841E+03  0.25500000920E-02 0. -1.
        2   -1    0    0  501    0  0.00000000000E+00  0.00000000000E+00 -0.72301328200E+03  0.72301328200E+03  0.25500000920E-02 0.  1.
    10030    2    1    2    0    0  0.00000000000E+00  0.00000000000E+00 -0.33527494360E+03  0.11107516204E+04  0.10589428098E+04 0.  0.
        4    1    3    3  502    0  0.44872812332E+03 -0.13803234709E+03  0.89142500046E+02  0.47786803169E+03  0.12699999809E+01 0. -1.
       -4    1    3    3    0  502 -0.44872812332E+03  0.13803234709E+03 -0.42441744364E+03  0.63288358872E+03  0.12699999809E+01 0.  1.
</event>
<event>
 5   0  0.3320192E-03  0.1104991E+04  0.7818609E-02  0.9200341E-01
       -1   -1    0    0    0  501  0.00000000000E+00  0.00000000000E+00  0.33803579549E+03  0.33803579553E+03  0.50400001928E-02 0.  1.
        1   -1    0    0  501    0  0.00000000000E+00  0.00000000000E+00 -0.90301455570E+03  0.90301455572E+03  0.50400001928E-02 0. -1.
    10030    2    1    2    0    0  0.00000000000E+00  0.00000000000E+00 -0.56497876021E+03  0.12410503512E+04  0.11049909388E+04 0.  0.
        2    1    3    3  502    0 -0.14301772102E+03  0.42542694424E+03 -0.64435587828E+03  0.78526215450E+03  0.25500000920E-02 0. -1.
       -2    1    3    3    0  502  0.14301772102E+03 -0.42542694424E+03  0.79377118071E+02  0.45578819674E+03  0.25500000920E-02 0.  1.
</event>
<event>
 5   0  0.3328741E-03  0.1098500E+04  0.7818609E-02  0.9206655E-01
       -1   -1    0    0    0  501  0.00000000000E+00  0.00000000000E+00  0.34461512875E+03  0.34461512878E+03  0.50400001928E-02 0.  1.
        1   -1    0    0  501    0  0.00000000000E+00  0.00000000000E+00 -0.87539811698E+03  0.87539811700E+03  0.50400001928E-02 0. -1.
    10030    2    1    2    0    0  0.00000000000E+00  0.00000000000E+00 -0.53078298824E+03  0.12200132458E+04  0.10984997675E+04 0.  0.
        3    1    3    3  502    0 -0.20214643760E+03  0.50032048853E+03 -0.15163230251E+03  0.56051417363E+03  0.10100000352E+00 0.  1.
       -3    1    3    3    0  502  0.20214643760E+03 -0.50032048853E+03 -0.37915068573E+03  0.65949907215E+03  0.10100000352E+00 0. -1.
</event>
<event>
 5   0  0.3328741E-03  0.1115426E+04  0.7818609E-02  0.9190286E-01
        1   -1    0    0  501    0  0.00000000000E+00  0.00000000000E+00  0.67321391085E+03  0.67321391087E+03  0.50400001928E-02 0.  1.
       -1   -1    0    0    0  501  0.00000000000E+00  0.00000000000E+00 -0.46202809308E+03  0.46202809310E+03  0.50400001928E-02 0. -1.
    10030    2    1    2    0    0  0.00000000000E+00  0.00000000000E+00  0.21118581778E+03  0.11352420040E+04  0.11154259088E+04 0.  0.
        3    1    3    3  502    0  0.80232064276E+02 -0.23086835882E+03  0.61580347879E+03  0.66253401266E+03  0.10100000352E+00 0.  1.
       -3    1    3    3    0  502 -0.80232064276E+02  0.23086835882E+03 -0.40461766102E+03  0.47270799131E+03  0.10100000352E+00 0. -1.
</event>
<event>
 5   0  0.5627232E-03  0.1108300E+04  0.7818609E-02  0.9197140E-01
       -2   -1    0    0    0  501  0.00000000000E+00  0.00000000000E+00  0.70643159919E+03  0.70643159920E+03  0.25500000920E-02 0. -1.
        2   -1    0    0  501    0  0.00000000000E+00  0.00000000000E+00 -0.43469484376E+03  0.43469484377E+03  0.25500000920E-02 0.  1.
    10030    2    1    2    0    0  0.00000000000E+00  0.00000000000E+00  0.27173675543E+03  0.11411264430E+04  0.11082999118E+04 0.  0.
        2    1    3    3  502    0 -0.47301667384E+02 -0.40717696816E+03 -0.24807265805E+03  0.47913523646E+03  0.25500000920E-02 0.  1.
       -2    1    3    3    0  502  0.47301667384E+02  0.40717696816E+03  0.51980941349E+03  0.66199120651E+03  0.25500000920E-02 0. -1.
</event>
<event>
 5   0  0.3215352E-03  0.1101105E+04  0.7818609E-02  0.9204115E-01
       -1   -1    0    0    0  501  0.00000000000E+00  0.00000000000E+00  0.42004853724E+03  0.42004853727E+03  0.50400001928E-02 0. -1.
        1   -1    0    0  501    0  0.00000000000E+00  0.00000000000E+00 -0.72160253284E+03  0.72160253285E+03  0.50400001928E-02 0.  1.
    10030    2    1    2    0    0  0.00000000000E+00  0.00000000000E+00 -0.30155399560E+03  0.11416510701E+04  0.11011050602E+04 0.  0.
        1    1    3    3  502    0  0.26292989523E+03  0.44778493634E+03 -0.34044650225E+03  0.62092455253E+03  0.50400001928E-02 0. -1.
       -1    1    3    3    0  502 -0.26292989523E+03 -0.44778493634E+03  0.38892506655E+02  0.52072651759E+03  0.50400001928E-02 0.  1.
</event>
<event>
 5   0  0.5941585E-03  0.1098613E+04  0.7818609E-02  0.9206544E-01
       -2   -1    0    0    0  501  0.00000000000E+00  0.00000000000E+00  0.74410149758E+03  0.74410149758E+03  0.25500000920E-02 0. -1.
        2   -1    0    0  501    0  0.00000000000E+00  0.00000000000E+00 -0.40550627838E+03  0.40550627839E+03  0.25500000920E-02 0.  1.
    10030    2    1    2    0    0  0.00000000000E+00  0.00000000000E+00  0.33859521920E+03  0.11496077760E+04  0.10986133606E+04 0.  0.
        5    1    3    3  502    0  0.14646825754E+03  0.47501521286E+03 -0.75267177660E+02  0.50277195720E+03  0.46999998093E+01 0.  1.
       -5    1    3    3    0  502 -0.14646825754E+03 -0.47501521286E+03  0.41386239685E+03  0.64683581877E+03  0.46999998093E+01 0. -1.
</event>
<event>
 5   0  0.3328741E-03  0.1081832E+04  0.7818609E-02  0.9223082E-01
       -1   -1    0    0    0  501  0.00000000000E+00  0.00000000000E+00  0.66309712189E+03  0.66309712191E+03  0.50400001928E-02 0. -1.
        1   -1    0    0  501    0  0.00000000000E+00  0.00000000000E+00 -0.44124804333E+03  0.44124804336E+03  0.50400001928E-02 0.  1.
    10030    2    1    2    0    0  0.00000000000E+00  0.00000000000E+00  0.22184907856E+03  0.11043451653E+04  0.10818323486E+04 0.  0.
        3    1    3    3  502    0  0.51748244885E+03 -0.14977677453E+03  0.16061114721E+03  0.56215399835E+03  0.10100000352E+00 0. -1.
       -3    1    3    3    0  502 -0.51748244885E+03  0.14977677453E+03  0.61237931349E+02  0.54219116692E+03  0.10100000352E+00 0.  1.
</event>
<event>
 5   0  0.5627232E-03  0.1102563E+04  0.7818609E-02  0.9202698E-01
       -2   -1    0    0    0  501  0.00000000000E+00  0.00000000000E+00  0.62775700341E+03  0.62775700342E+03  0.25500000920E-02 0.  1.
        2   -1    0    0  501    0  0.00000000000E+00  0.00000000000E+00 -0.48412221894E+03  0.48412221895E+03  0.25500000920E-02 0. -1.
    10030    2    1    2    0    0  0.00000000000E+00  0.00000000000E+00  0.14363478447E+03  0.11118792224E+04  0.11025626757E+04 0.  0.
        2    1    3    3  502    0  0.66376687225E+02  0.21063094653E+03 -0.43756447235E+03  0.49013664188E+03  0.25500000920E-02 0. -1.
       -2    1    3    3    0  502 -0.66376687225E+02 -0.21063094653E+03  0.58119925683E+03  0.62174258048E+03  0.25500000920E-02 0.  1.
</event>
<event>
 5   0  0.2185750E-03  0.1100809E+04  0.7818609E-02  0.9204404E-01
       -3   -1    0    0    0  501  0.00000000000E+00  0.00000000000E+00  0.46809620141E+03  0.46809621231E+03  0.10100000352E+00 0. -1.
        3   -1    0    0  501    0  0.00000000000E+00  0.00000000000E+00 -0.64718551257E+03  0.64718552045E+03  0.10100000352E+00 0.  1.
    10030    2    1    2    0    0  0.00000000000E+00  0.00000000000E+00 -0.17908931116E+03  0.11152817328E+04  0.11008089580E+04 0.  0.
        1    1    3    3  502    0 -0.15183782663E+03 -0.47520990065E+02 -0.62338020221E+03  0.64336291984E+03  0.50400001928E-02 0.  1.
       -1    1    3    3    0  502  0.15183782663E+03  0.47520990065E+02  0.44429089105E+03  0.47191881292E+03  0.50400001928E-02 0. -1.
</event>
<event>
 5   0  0.5941585E-03  0.1109179E+04  0.7818609E-02  0.9196291E-01
       -2   -1    0    0    0  501  0.00000000000E+00  0.00000000000E+00  0.41007349692E+03  0.41007349693E+03  0.25500000920E-02 0. -1.
        2   -1    0    0  501    0  0.00000000000E+00  0.00000000000E+00 -0.75003524724E+03  0.75003524725E+03  0.25500000920E-02 0.  1.
    10030    2    1    2    0    0  0.00000000000E+00  0.00000000000E+00 -0.33996175032E+03  0.11601087442E+04  0.11091791139E+04 0.  0.
        5    1    3    3  502    0 -0.31911336308E+03  0.20980023882E+03  0.25059983691E+03  0.45680613718E+03  0.46999998093E+01 0. -1.
       -5    1    3    3    0  502  0.31911336308E+03 -0.20980023882E+03 -0.59056158723E+03  0.70330260700E+03  0.46999998093E+01 0.  1.
</event>
<event>
 5   0  0.3215352E-03  0.1223783E+04  0.7818609E-02  0.9092290E-01
       -1   -1    0    0    0  501  0.00000000000E+00  0.00000000000E+00  0.59542606356E+03  0.59542606358E+03  0.50400001928E-02 0. -1.
        1   -1    0    0  501    0  0.00000000000E+00  0.00000000000E+00 -0.62881248149E+03  0.62881248151E+03  0.50400001928E-02 0.  1.
    10030    2    1    2    0    0  0.00000000000E+00  0.00000000000E+00 -0.33386417930E+02  0.12242385451E+04  0.12237832171E+04 0.  0.
        1    1    3    3  502    0 -0.16987172069E+03  0.79299965404E+02  0.56598934655E+03  0.59622883731E+03  0.50400001928E-02 0. -1.
       -1    1    3    3    0  502  0.16987172069E+03 -0.79299965404E+02 -0.59937576448E+03  0.62800970779E+03  0.50400001928E-02 0.  1.
</event>
<event>
 5   0  0.3316784E-03  0.1099078E+04  0.7818609E-02  0.9206091E-01
        1   -1    0    0  501    0  0.00000000000E+00  0.00000000000E+00  0.98935698846E+03  0.98935698847E+03  0.50400001928E-02 0. -1.
       -1   -1    0    0    0  501  0.00000000000E+00  0.00000000000E+00 -0.30524155883E+03  0.30524155887E+03  0.50400001928E-02 0.  1.
    10030    2    1    2    0    0  0.00000000000E+00  0.00000000000E+00  0.68411542963E+03  0.12945985473E+04  0.10990775577E+04 0.  0.
        4    1    3    3  502    0  0.88397732319E+02 -0.67889628414E+02  0.97590134536E+03  0.98224651158E+03  0.12699999809E+01 0. -1.
       -4    1    3    3    0  502 -0.88397732319E+02  0.67889628414E+02 -0.29178591574E+03  0.31235203577E+03  0.12699999809E+01 0.  1.
</event>
<event>
 5   0  0.5500363E-03  0.1091504E+04  0.7818609E-02  0.9213512E-01
        2   -1    0    0  501    0  0.00000000000E+00  0.00000000000E+00  0.53232569645E+03  0.53232569645E+03  0.25500000920E-02 0. -1.
       -2   -1    0    0    0  501  0.00000000000E+00  0.00000000000E+00 -0.55951727950E+03  0.55951727951E+03  0.25500000920E-02 0.  1.
    10030    2    1    2    0    0  0.00000000000E+00  0.00000000000E+00 -0.27191583056E+02  0.10918429760E+04  0.10915043298E+04 0.  0.
        3    1    3    3  502    0 -0.66419214252E+02  0.48786439356E+03  0.22189652747E+03  0.54005671705E+03  0.10100000352E+00 0.  1.
       -3    1    3    3    0  502  0.66419214252E+02 -0.48786439356E+03 -0.24908811052E+03  0.55178625892E+03  0.10100000352E+00 0. -1.
</event>
<event>
 5   0  0.3241189E-03  0.1059441E+04  0.7818609E-02  0.9245651E-01
       -1   -1    0    0    0  501  0.00000000000E+00  0.00000000000E+00  0.65106451005E+03  0.65106451007E+03  0.50400001928E-02 0. -1.
        1   -1    0    0  501    0  0.00000000000E+00  0.00000000000E+00 -0.43099210543E+03  0.43099210546E+03  0.50400001928E-02 0.  1.
    10030    2    1    2    0    0  0.00000000000E+00  0.00000000000E+00  0.22007240462E+03  0.10820566155E+04  0.10594407279E+04 0.  0.
        5    1    3    3  502    0  0.85475131624E+01 -0.52261466561E+03  0.22281004277E+02  0.52318035308E+03  0.46999998093E+01 0.  1.
       -5    1    3    3    0  502 -0.85475131624E+01  0.52261466561E+03  0.19779140034E+03  0.55887626246E+03  0.46999998093E+01 0. -1.
</event>
<event>
 5   0  0.5723194E-03  0.1087145E+04  0.7818609E-02  0.9217813E-01
        2   -1    0    0  501    0  0.00000000000E+00  0.00000000000E+00  0.10930645522E+04  0.10930645522E+04  0.25500000920E-02 0. -1.
       -2   -1    0    0    0  501  0.00000000000E+00  0.00000000000E+00 -0.27031417162E+03  0.27031417163E+03  0.25500000920E-02 0.  1.
    10030    2    1    2    0    0  0.00000000000E+00  0.00000000000E+00  0.82275038057E+03  0.13633787238E+04  0.10871445883E+04 0.  0.
        1    1    3    3  502    0 -0.25747298662E+03 -0.47647403015E+03  0.46953852209E+03  0.71678885594E+03  0.50400001928E-02 0.  1.
       -1    1    3    3    0  502  0.25747298662E+03  0.47647403015E+03  0.35321185848E+03  0.64658986788E+03  0.50400001928E-02 0. -1.
</event>
<event>
 5   0  0.3215352E-03  0.1107680E+04  0.7818609E-02  0.9197738E-01
       -1   -1    0    0    0  501  0.00000000000E+00  0.00000000000E+00  0.34091585041E+03  0.34091585045E+03  0.50400001928E-02 0. -1.
        1   -1    0    0  501    0  0.00000000000E+00  0.00000000000E+00 -0.89974977554E+03  0.89974977555E+03  0.50400001928E-02 0.  1.
    10030    2    1    2    0    0  0.00000000000E+00  0.00000000000E+00 -0.55883392513E+03  0.12406656260E+04  0.11076803870E+04 0.  0.
        1    1    3    3  502    0 -0.22054085184E+03 -0.33362392450E+03 -0.70855504259E+03  0.81362979218E+03  0.50400001928E-02 0.  1.
       -1    1    3    3    0  502  0.22054085184E+03  0.33362392450E+03  0.14972111746E+03  0.42703583382E+03  0.50400001928E-02 0. -1.
</event>
<event>
 5   0  0.5627232E-03  0.1078245E+04  0.7818609E-02  0.9226659E-01
        2   -1    0    0  501    0  0.00000000000E+00  0.00000000000E+00  0.11715277851E+04  0.11715277851E+04  0.25500000920E-02 0.  1.
       -2   -1    0    0    0  501  0.00000000000E+00  0.00000000000E+00 -0.24809763950E+03  0.24809763951E+03  0.25500000920E-02 0. -1.
    10030    2    1    2    0    0  0.00000000000E+00  0.00000000000E+00  0.92343014560E+03  0.14196254246E+04  0.10782453860E+04 0.  0.
        2    1    3    3  502    0 -0.10895643281E+03  0.22295373911E+03  0.10918644264E+04  0.11197088012E+04  0.25500000920E-02 0.  1.
       -2    1    3    3    0  502  0.10895643281E+03 -0.22295373911E+03 -0.16843428075E+03  0.29991662337E+03  0.25500000920E-02 0. -1.
</event>
<event>
 5   0  0.3328741E-03  0.1094240E+04  0.7818609E-02  0.9210824E-01
       -1   -1    0    0    0  501  0.00000000000E+00  0.00000000000E+00  0.56690535221E+03  0.56690535223E+03  0.50400001928E-02 0. -1.
        1   -1    0    0  501    0  0.00000000000E+00  0.00000000000E+00 -0.52802510226E+03  0.52802510229E+03  0.50400001928E-02 0.  1.
    10030    2    1    2    0    0  0.00000000000E+00  0.00000000000E+00  0.38880249948E+02  0.10949304545E+04  0.10942399309E+04 0.  0.
        3    1    3    3  502    0  0.36949740587E+03 -0.26210044337E+03  0.32641584389E+03  0.55836573024E+03  0.10100000352E+00 0. -1.
       -3    1    3    3    0  502 -0.36949740587E+03  0.26210044337E+03 -0.28753559395E+03  0.53656472428E+03  0.10100000352E+00 0.  1.
</event>
<event>
 5   0  0.5946359E-03  0.1084774E+04  0.7818609E-02  0.9220161E-01
       -2   -1    0    0    0  501  0.00000000000E+00  0.00000000000E+00  0.95253223866E+03  0.95253223867E+03  0.25500000920E-02 0. -1.
        2   -1    0    0  501    0  0.00000000000E+00  0.00000000000E+00 -0.30884367224E+03  0.30884367225E+03  0.25500000920E-02 0.  1.
    10030    2    1    2    0    0  0.00000000000E+00  0.00000000000E+00  0.64368856643E+03  0.12613759109E+04  0.10847738096E+04 0.  0.
        4    1    3    3  502    0 -0.22820569854E+03  0.27436039843E+03  0.79678896781E+03  0.87305540557E+03  0.12699999809E+01 0. -1.
       -4    1    3    3    0  502  0.22820569854E+03 -0.27436039843E+03 -0.15310040138E+03  0.38832050535E+03  0.12699999809E+01 0.  1.
</event>
<event>
 5   0  0.5723194E-03  0.1027388E+04  0.7818609E-02  0.9279006E-01
       -2   -1    0    0    0  501  0.00000000000E+00  0.00000000000E+00  0.44919159021E+03  0.44919159022E+03  0.25500000920E-02 0.  1.
        2   -1    0    0  501    0  0.00000000000E+00  0.00000000000E+00 -0.58745850486E+03  0.58745850486E+03  0.25500000920E-02 0. -1.
    10030    2    1    2    0    0  0.00000000000E+00  0.00000000000E+00 -0.13826691465E+03  0.10366500951E+04  0.10273877943E+04 0.  0.
        1    1    3    3  502    0  0.18769161420E+03  0.35478367175E+03 -0.39261980060E+03  0.56147119572E+03  0.50400001928E-02 0. -1.
       -1    1    3    3    0  502 -0.18769161420E+03 -0.35478367175E+03  0.25435288595E+03  0.47517889936E+03  0.50400001928E-02 0.  1.
</event>
<event>
 5   0  0.3328741E-03  0.1128314E+04  0.7818609E-02  0.9178026E-01
        1   -1    0    0  501    0  0.00000000000E+00  0.00000000000E+00  0.69929360838E+03  0.69929360840E+03  0.50400001928E-02 0.  1.
       -1   -1    0    0    0  501  0.00000000000E+00  0.00000000000E+00 -0.45513525955E+03  0.45513525958E+03  0.50400001928E-02 0. -1.
    10030    2    1    2    0    0  0.00000000000E+00  0.00000000000E+00  0.24415834883E+03  0.11544288680E+04  0.11283141016E+04 0.  0.
        3    1    3    3  502    0  0.38426936618E+03  0.17262643053E+03 -0.26185293236E+03  0.49601390977E+03  0.10100000352E+00 0. -1.
       -3    1    3    3    0  502 -0.38426936618E+03 -0.17262643053E+03  0.50601128119E+03  0.65841495821E+03  0.10100000352E+00 0.  1.
</event>
<event>
 5   0  0.3241189E-03  0.1101205E+04  0.7818609E-02  0.9204018E-01
       -1   -1    0    0    0  501  0.00000000000E+00  0.00000000000E+00  0.29394286779E+03  0.29394286784E+03  0.50400001928E-02 0. -1.
        1   -1    0    0  501    0  0.00000000000E+00  0.00000000000E+00 -0.10313680586E+04  0.10313680586E+04  0.50400001928E-02 0.  1.
    10030    2    1    2    0    0  0.00000000000E+00  0.00000000000E+00 -0.73742519082E+03  0.13253109265E+04  0.11012053123E+04 0.  0.
        5    1    3    3  502    0 -0.34569690983E+03  0.40616506273E+03 -0.53313498542E+03  0.75414283416E+03  0.46999998093E+01 0.  1.
       -5    1    3    3    0  502  0.34569690983E+03 -0.40616506273E+03 -0.20429020540E+03  0.57116809230E+03  0.46999998093E+01 0. -1.
</event>
<event>
 5   0  0.3328741E-03  0.1101973E+04  0.7818609E-02  0.9203271E-01
       -1   -1    0    0    0  501  0.00000000000E+00  0.00000000000E+00  0.19762637574E+03  0.19762637580E+03  0.50400001928E-02 0. -1.
        1   -1    0    0  501    0  0.00000000000E+00  0.00000000000E+00 -0.15361623101E+04  0.15361623101E+04  0.50400001928E-02 0.  1.
    10030    2    1    2    0    0  0.00000000000E+00  0.00000000000E+00 -0.13385359343E+04  0.17337886859E+04  0.11019731212E+04 0.  0.
        3    1    3    3  502    0 -0.41684015023E+03 -0.15089998233E+03 -0.11840674495E+04  0.12643347068E+04  0.10100000352E+00 0.  1.
       -3    1    3    3    0  502  0.41684015023E+03  0.15089998233E+03 -0.15446848481E+03  0.46945397912E+03  0.10100000352E+00 0. -1.
</event>
<event>
 5   0  0.3241189E-03  0.9500462E+03  0.7818609E-02  0.9365097E-01
        1   -1    0    0  501    0  0.00000000000E+00  0.00000000000E+00  0.10549864374E+04  0.10549864374E+04  0.50400001928E-02 0. -1.
       -1   -1    0    0    0  501  0.00000000000E+00  0.00000000000E+00 -0.21388610207E+03  0.21388610213E+03  0.50400001928E-02 0.  1.
    10030    2    1    2    0    0  0.00000000000E+00  0.00000000000E+00  0.84110033533E+03  0.12688725396E+04  0.95004618179E+03 0.  0.
        5    1    3    3  502    0 -0.45493779513E+03  0.14163160069E+02  0.60199322651E+03  0.75470982987E+03  0.46999998093E+01 0.  1.
       -5    1    3    3    0  502  0.45493779513E+03 -0.14163160069E+02  0.23910710883E+03  0.51416270969E+03  0.46999998093E+01 0. -1.
</event>
<event>
 5   0  0.5627232E-03  0.1112347E+04  0.7818609E-02  0.9193241E-01
       -2   -1    0    0    0  501  0.00000000000E+00  0.00000000000E+00  0.10612927628E+03  0.10612927631E+03  0.25500000920E-02 0. -1.
        2   -1    0    0  501    0  0.00000000000E+00  0.00000000000E+00 -0.29146407491E+04  0.29146407491E+04  0.25500000920E-02 0.  1.
    10030    2    1    2    0    0  0.00000000000E+00  0.00000000000E+00 -0.28085114728E+04  0.30207700254E+04  0.11123465528E+04 0.  0.
        2    1    3    3  502    0  0.23283273926E+03 -0.17442877396E+03 -0.11698001345E+03  0.31356148553E+03  0.25500000920E-02 0. -1.
       -2    1    3    3    0  502 -0.23283273926E+03  0.17442877396E+03 -0.26915314593E+04  0.27072085399E+04  0.25500000920E-02 0.  1.
</event>
<event>
 5   0  0.3328741E-03  0.1101731E+04  0.7818609E-02  0.9203506E-01
       -1   -1    0    0    0  501  0.00000000000E+00  0.00000000000E+00  0.24485653492E+03  0.24485653497E+03  0.50400001928E-02 0.  1.
        1   -1    0    0  501    0  0.00000000000E+00  0.00000000000E+00 -0.12393083529E+04  0.12393083529E+04  0.50400001928E-02 0. -1.
    10030    2    1    2    0    0  0.00000000000E+00  0.00000000000E+00 -0.99445181796E+03  0.14841648879E+04  0.11017309091E+04 0.  0.
        3    1    3    3  502    0 -0.96686009240E+02 -0.49030712090E+03 -0.18504392216E+03  0.53290760974E+03  0.10100000352E+00 0.  1.
       -3    1    3    3    0  502  0.96686009240E+02  0.49030712090E+03 -0.80940789580E+03  0.95125727812E+03  0.10100000352E+00 0. -1.
</event>
<event>
 5   0  0.5723194E-03  0.1110781E+04  0.7818609E-02  0.9194747E-01
        2   -1    0    0  501    0  0.00000000000E+00  0.00000000000E+00  0.13832724760E+04  0.13832724760E+04  0.25500000920E-02 0. -1.
       -2   -1    0    0    0  501  0.00000000000E+00  0.00000000000E+00 -0.22299204775E+03  0.22299204776E+03  0.25500000920E-02 0.  1.
    10030    2    1    2    0    0  0.00000000000E+00  0.00000000000E+00  0.11602804283E+04  0.16062645238E+04  0.11107812783E+04 0.  0.
        1    1    3    3  502    0  0.26574086512E+03 -0.48143702597E+03  0.69270097198E+03  0.88444019243E+03  0.50400001928E-02 0.  1.
       -1    1    3    3    0  502 -0.26574086512E+03  0.48143702597E+03  0.46757945630E+03  0.72182433137E+03  0.50400001928E-02 0. -1.
</event>
<event>
 5   0  0.5946359E-03  0.1122700E+04  0.7818609E-02  0.9183345E-01
        2   -1    0    0  501    0  0.00000000000E+00  0.00000000000E+00  0.47231800313E+03  0.47231800314E+03  0.25500000920E-02 0.  1.
       -2   -1    0    0    0  501  0.00000000000E+00  0.00000000000E+00 -0.66716491355E+03  0.66716491355E+03  0.25500000920E-02 0. -1.
    10030    2    1    2    0    0  0.00000000000E+00  0.00000000000E+00 -0.19484691041E+03  0.11394829167E+04  0.11227003157E+04 0.  0.
        4    1    3    3  502    0 -0.52192930843E+03  0.18220580024E+03  0.15182972666E+01  0.55282282403E+03  0.12699999809E+01 0.  1.
       -4    1    3    3    0  502  0.52192930843E+03 -0.18220580024E+03 -0.19636520768E+03  0.58666009266E+03  0.12699999809E+01 0. -1.
</event>
<event>
 5   0  0.3328741E-03  0.1101157E+04  0.7818609E-02  0.9204065E-01
        1   -1    0    0  501    0  0.00000000000E+00  0.00000000000E+00  0.46784652258E+03  0.46784652260E+03  0.50400001928E-02 0.  1.
       -1   -1    0    0    0  501  0.00000000000E+00  0.00000000000E+00 -0.64794078382E+03  0.64794078384E+03  0.50400001928E-02 0. -1.
    10030    2    1    2    0    0  0.00000000000E+00  0.00000000000E+00 -0.18009426125E+03  0.11157873064E+04  0.11011572868E+04 0.  0.
        3    1    3    3  502    0  0.16139955552E+03  0.75347248695E+02 -0.61793882405E+03  0.64309830110E+03  0.10100000352E+00 0. -1.
       -3    1    3    3    0  502 -0.16139955552E+03 -0.75347248695E+02  0.43784456280E+03  0.47268900535E+03  0.10100000352E+00 0.  1.
</event>
<event>
 5   0  0.5500363E-03  0.1080331E+04  0.7818609E-02  0.9224577E-01
        2   -1    0    0  501    0  0.00000000000E+00  0.00000000000E+00  0.11975690918E+04  0.11975690918E+04  0.25500000920E-02 0. -1.
       -2   -1    0    0    0  501  0.00000000000E+00  0.00000000000E+00 -0.24364272619E+03  0.24364272620E+03  0.25500000920E-02 0.  1.
    10030    2    1    2    0    0  0.00000000000E+00  0.00000000000E+00  0.95392636565E+03  0.14412118180E+04  0.10803314276E+04 0.  0.
        3    1    3    3  502    0 -0.52977258946E+02 -0.37934945752E+03 -0.31142675530E+02  0.38429477921E+03  0.10100000352E+00 0.  1.
       -3    1    3    3    0  502  0.52977258946E+02  0.37934945752E+03  0.98506904118E+03  0.10569170388E+04  0.10100000352E+00 0. -1.
</event>
<event>
 5   0  0.5500363E-03  0.1095340E+04  0.7818609E-02  0.9209746E-01
        2   -1    0    0  501    0  0.00000000000E+00  0.00000000000E+00  0.12674412013E+04  0.12674412013E+04  0.25500000920E-02 0. -1.
       -2   -1    0    0    0  501  0.00000000000E+00  0.00000000000E+00 -0.23665195633E+03  0.23665195634E+03  0.25500000920E-02 0.  1.
    10030    2    1    2    0    0  0.00000000000E+00  0.00000000000E+00  0.10307892450E+04  0.15040931576E+04  0.10953400199E+04 0.  0.
        3    1    3    3  502    0 -0.30604093643E+03 -0.44173226887E+03  0.37037036124E+03  0.65265815464E+03  0.10100000352E+00 0.  1.
       -3    1    3    3    0  502  0.30604093643E+03  0.44173226887E+03  0.66041888372E+03  0.85143500299E+03  0.10100000352E+00 0. -1.
</event>
<event>
 5   0  0.3320192E-03  0.1103153E+04  0.7818609E-02  0.9202124E-01
       -1   -1    0    0    0  501  0.00000000000E+00  0.00000000000E+00  0.40335409963E+03  0.40335409966E+03  0.50400001928E-02 0. -1.
        1   -1    0    0  501    0  0.00000000000E+00  0.00000000000E+00 -0.75426670087E+03  0.75426670089E+03  0.50400001928E-02 0.  1.
    10030    2    1    2    0    0  0.00000000000E+00  0.00000000000E+00 -0.35091260124E+03  0.11576208006E+04  0.11031528743E+04 0.  0.
        2    1    3    3  502    0 -0.78519513773E+02 -0.41051768499E+03  0.20224061057E+03  0.46431815418E+03  0.25500000920E-02 0. -1.
       -2    1    3    3    0  502  0.78519513773E+02  0.41051768499E+03 -0.55315321180E+03  0.69330264637E+03  0.25500000920E-02 0.  1.
</event>
<event>
 5   0  0.3241189E-03  0.1102839E+04  0.7818609E-02  0.9202429E-01
       -1   -1    0    0    0  501  0.00000000000E+00  0.00000000000E+00  0.25164214773E+03  0.25164214778E+03  0.50400001928E-02 0.  1.
        1   -1    0    0  501    0  0.00000000000E+00  0.00000000000E+00 -0.12083180081E+04  0.12083180081E+04  0.50400001928E-02 0. -1.
    10030    2    1    2    0    0  0.00000000000E+00  0.00000000000E+00 -0.95667586041E+03  0.14599601559E+04  0.11028394965E+04 0.  0.
        5    1    3    3  502    0 -0.21248620008E+03  0.27205005749E+03  0.90873606086E+02  0.35698980557E+03  0.46999998093E+01 0.  1.
       -5    1    3    3    0  502  0.21248620008E+03 -0.27205005749E+03 -0.10475494665E+04  0.11029703504E+04  0.46999998093E+01 0. -1.
</event>
<event>
 5   0  0.3215352E-03  0.1097763E+04  0.7818609E-02  0.9207375E-01
        1   -1    0    0  501    0  0.00000000000E+00  0.00000000000E+00  0.74917809658E+03  0.74917809660E+03  0.50400001928E-02 0. -1.
       -1   -1    0    0    0  501  0.00000000000E+00  0.00000000000E+00 -0.40213518083E+03  0.40213518086E+03  0.50400001928E-02 0.  1.
    10030    2    1    2    0    0  0.00000000000E+00  0.00000000000E+00  0.34704291575E+03  0.11513132775E+04  0.10977629423E+04 0.  0.
        1    1    3    3  502    0  0.26551920145E+03 -0.47876197295E+03  0.21491041763E+03  0.58813260470E+03  0.50400001928E-02 0. -1.
       -1    1    3    3    0  502 -0.26551920145E+03  0.47876197295E+03  0.13213249812E+03  0.56318067276E+03  0.50400001928E-02 0.  1.
</event>
<event>
 5   0  0.5941585E-03  0.1110203E+04  0.7818609E-02  0.9195304E-01
        2   -1    0    0  501    0  0.00000000000E+00  0.00000000000E+00  0.14461322286E+04  0.14461322286E+04  0.25500000920E-02 0.  1.
       -2   -1    0    0    0  501  0.00000000000E+00  0.00000000000E+00 -0.21307722371E+03  0.21307722373E+03  0.25500000920E-02 0. -1.
    10030    2    1    2    0    0  0.00000000000E+00  0.00000000000E+00  0.12330550049E+04  0.16592094523E+04  0.11102032974E+04 0.  0.
        5    1    3    3  502    0 -0.53929778981E+02  0.53308245180E+02  0.14383250897E+04  0.14403302898E+04  0.46999998093E+01 0.  1.
       -5    1    3    3    0  502  0.53929778981E+02 -0.53308245180E+02 -0.20527008482E+03  0.21887916252E+03  0.46999998093E+01 0. -1.
</event>
<event>
 5   0  0.5500363E-03  0.1116057E+04  0.7818609E-02  0.9189681E-01
        2   -1    0    0  501    0  0.00000000000E+00  0.00000000000E+00  0.10962137126E+04  0.10962137126E+04  0.25500000920E-02 0.  1.
       -2   -1    0    0    0  501  0.00000000000E+00  0.00000000000E+00 -0.28406499695E+03  0.28406499696E+03  0.25500000920E-02 0. -1.
    10030    2    1    2    0    0  0.00000000000E+00  0.00000000000E+00  0.81214871568E+03  0.13802787096E+04  0.11160572475E+04 0.  0.
        3    1    3    3  502    0 -0.26446851923E+03  0.26298655691E+03 -0.10727245118E+03  0.38808879881E+03  0.10100000352E+00 0. -1.
       -3    1    3    3    0  502  0.26446851923E+03 -0.26298655691E+03  0.91942116686E+03  0.99218991078E+03  0.10100000352E+00 0.  1.
</event>
<event>
 5   0  0.5946359E-03  0.1084714E+04  0.7818609E-02  0.9220220E-01
       -2   -1    0    0    0  501  0.00000000000E+00  0.00000000000E+00  0.11218625031E+04  0.11218625031E+04  0.25500000920E-02 0. -1.
        2   -1    0    0  501    0  0.00000000000E+00  0.00000000000E+00 -0.26219897148E+03  0.26219897149E+03  0.25500000920E-02 0.  1.
    10030    2    1    2    0    0  0.00000000000E+00  0.00000000000E+00  0.85966353159E+03  0.13840614746E+04  0.10847141457E+04 0.  0.
        4    1    3    3  502    0 -0.97487573394E+02  0.15164286542E+03  0.10825122222E+04  0.10974213912E+04  0.12699999809E+01 0. -1.
       -4    1    3    3    0  502  0.97487573394E+02 -0.15164286542E+03 -0.22284869064E+03  0.28664008341E+03  0.12699999809E+01 0.  1.
</event>
<event>
 5   0  0.5500363E-03  0.1090779E+04  0.7818609E-02  0.9214226E-01
       -2   -1    0    0    0  501  0.00000000000E+00  0.00000000000E+00  0.62720616339E+03  0.62720616340E+03  0.25500000920E-02 0.  1.
        2   -1    0    0  501    0  0.00000000000E+00  0.00000000000E+00 -0.47424591984E+03  0.47424591985E+03  0.25500000920E-02 0. -1.
    10030    2    1    2    0    0  0.00000000000E+00  0.00000000000E+00  0.15296024355E+03  0.11014520832E+04  0.10907794716E+04 0.  0.
        3    1    3    3  502    0 -0.38504229029E+03 -0.20238641446E+03 -0.25572532645E+03  0.50459219065E+03  0.10100000352E+00 0. -1.
       -3    1    3    3    0  502  0.38504229029E+03  0.20238641446E+03  0.40868557000E+03  0.59685989260E+03  0.10100000352E+00 0.  1.
</event>
<event>
 5   0  0.3241189E-03  0.1107004E+04  0.7818609E-02  0.9198392E-01
       -1   -1    0    0    0  501  0.00000000000E+00  0.00000000000E+00  0.22227714137E+03  0.22227714143E+03  0.50400001928E-02 0. -1.
        1   -1    0    0  501    0  0.00000000000E+00  0.00000000000E+00 -0.13782985429E+04  0.13782985429E+04  0.50400001928E-02 0.  1.
    10030    2    1    2    0    0  0.00000000000E+00  0.00000000000E+00 -0.11560214015E+04  0.16005756843E+04  0.11070036316E+04 0.  0.
        5    1    3    3  502    0 -0.43107917768E+03 -0.23796541245E+03 -0.94346063998E+03  0.10642353425E+04  0.46999998093E+01 0.  1.
       -5    1    3    3    0  502  0.43107917768E+03  0.23796541245E+03 -0.21256076149E+03  0.53634034183E+03  0.46999998093E+01 0. -1.
</event>
<event>
 5   0  0.3316784E-03  0.1088655E+04  0.7818609E-02  0.9216320E-01
        1   -1    0    0  501    0  0.00000000000E+00  0.00000000000E+00  0.10851483445E+04  0.10851483445E+04  0.50400001928E-02 0. -1.
       -1   -1    0    0    0  501  0.00000000000E+00  0.00000000000E+00 -0.27304333902E+03  0.27304333906E+03  0.50400001928E-02 0.  1.
    10030    2    1    2    0    0  0.00000000000E+00  0.00000000000E+00  0.81210500550E+03  0.13581916836E+04  0.10886551839E+04 0.  0.
        4    1    3    3  502    0  0.25525108181E+03  0.37188074112E+03  0.78619302589E+03  0.90639367123E+03  0.12699999809E+01 0. -1.
       -4    1    3    3    0  502 -0.25525108181E+03 -0.37188074112E+03  0.25911979603E+02  0.45179801236E+03  0.12699999809E+01 0.  1.
</event>
<event>
 5   0  0.3241189E-03  0.1074393E+04  0.7818609E-02  0.9230516E-01
       -1   -1    0    0    0  501  0.00000000000E+00  0.00000000000E+00  0.19493692941E+03  0.19493692948E+03  0.50400001928E-02 0. -1.
        1   -1    0    0  501    0  0.00000000000E+00  0.00000000000E+00 -0.14803757651E+04  0.14803757652E+04  0.50400001928E-02 0.  1.
    10030    2    1    2    0    0  0.00000000000E+00  0.00000000000E+00 -0.12854388357E+04  0.16753126946E+04  0.10743926770E+04 0.  0.
        5    1    3    3  502    0 -0.29483985818E+03 -0.30590943299E+03 -0.11552721810E+04  0.12309293341E+04  0.46999998093E+01 0.  1.
       -5    1    3    3    0  502  0.29483985818E+03  0.30590943299E+03 -0.13016665469E+03  0.44438336057E+03  0.46999998093E+01 0. -1.
</event>
<event>
 5   0  0.3316784E-03  0.1099239E+04  0.7818609E-02  0.9205934E-01
       -1   -1    0    0    0  501  0.00000000000E+00  0.00000000000E+00  0.27193338343E+03  0.27193338347E+03  0.50400001928E-02 0. -1.
        1   -1    0    0  501    0  0.00000000000E+00  0.00000000000E+00 -0.11108659396E+04  0.11108659396E+04  0.50400001928E-02 0.  1.
    10030    2    1    2    0    0  0.00000000000E+00  0.00000000000E+00 -0.83893255619E+03  0.13827993231E+04  0.10992388886E+04 0.  0.
        4    1    3    3  502    0 -0.15827780401E+02 -0.35084129110E+03  0.11236967877E+03  0.36873932226E+03  0.12699999809E+01 0.  1.
       -4    1    3    3    0  502  0.15827780401E+02  0.35084129110E+03 -0.95130223496E+03  0.10140600008E+04  0.12699999809E+01 0. -1.
</event>
<event>
 5   0  0.5500363E-03  0.1132475E+04  0.7818609E-02  0.9174105E-01
       -2   -1    0    0    0  501  0.00000000000E+00  0.00000000000E+00  0.27061321232E+03  0.27061321233E+03  0.25500000920E-02 0. -1.
        2   -1    0    0  501    0  0.00000000000E+00  0.00000000000E+00 -0.11848081831E+04  0.11848081831E+04  0.25500000920E-02 0.  1.
    10030    2    1    2    0    0  0.00000000000E+00  0.00000000000E+00 -0.91419497079E+03  0.14554213954E+04  0.11324747210E+04 0.  0.
        3    1    3    3  502    0 -0.25086266378E+03  0.91497532983E+02  0.18461361191E+03  0.32463220808E+03  0.10100000352E+00 0. -1.
       -3    1    3    3    0  502  0.25086266378E+03 -0.91497532983E+02 -0.10988085827E+04  0.11307891874E+04  0.10100000352E+00 0.  1.
</event>
<event>
 5   0  0.3328741E-03  0.1108679E+04  0.7818609E-02  0.9196774E-01
       -1   -1    0    0    0  501  0.00000000000E+00  0.00000000000E+00  0.53745273215E+03  0.53745273218E+03  0.50400001928E-02 0.  1.
        1   -1    0    0  501    0  0.00000000000E+00  0.00000000000E+00 -0.57175679056E+03  0.57175679058E+03  0.50400001928E-02 0. -1.
    10030    2    1    2    0    0  0.00000000000E+00  0.00000000000E+00 -0.34304058408E+02  0.11092095228E+04  0.11086789422E+04 0.  0.
        3    1    3    3  502    0 -0.36144735923E+03  0.25123824915E+03  0.31994747438E+03  0.54417942620E+03  0.10100000352E+00 0.  1.
       -3    1    3    3    0  502  0.36144735923E+03 -0.25123824915E+03 -0.35425153279E+03  0.56503009656E+03  0.10100000352E+00 0. -1.
</event>
<event>
 5   0  0.2185750E-03  0.1104327E+04  0.7818609E-02  0.9200985E-01
       -4   -1    0    0    0  501  0.00000000000E+00  0.00000000000E+00  0.10969968573E+04  0.10969975924E+04  0.12699999809E+01 0.  1.
        4   -1    0    0  501    0  0.00000000000E+00  0.00000000000E+00 -0.27792401655E+03  0.27792691823E+03  0.12699999809E+01 0. -1.
    10030    2    1    2    0    0  0.00000000000E+00  0.00000000000E+00  0.81907284072E+03  0.13749245106E+04  0.11043265330E+04 0.  0.
        4    1    3    3  502    0  0.31838510190E+03 -0.33804939394E+03  0.37614421604E+02  0.46590012177E+03  0.12699999809E+01 0. -1.
       -4    1    3    3    0  502 -0.31838510190E+03  0.33804939394E+03  0.78145841912E+03  0.90902438887E+03  0.12699999809E+01 0.  1.
</event>
<event>
 5   0  0.5500363E-03  0.8502323E+03  0.7818609E-02  0.9490025E-01
        2   -1    0    0  501    0  0.00000000000E+00  0.00000000000E+00  0.11702045175E+04  0.11702045175E+04  0.25500000920E-02 0. -1.
       -2   -1    0    0    0  501  0.00000000000E+00  0.00000000000E+00 -0.15443773120E+03  0.15443773122E+03  0.25500000920E-02 0.  1.
    10030    2    1    2    0    0  0.00000000000E+00  0.00000000000E+00  0.10157667863E+04  0.13246422487E+04  0.85023227588E+03 0.  0.
        3    1    3    3  502    0  0.39652649626E+03 -0.15021443237E+03  0.55529513155E+03  0.69867755886E+03  0.10100000352E+00 0. -1.
       -3    1    3    3    0  502 -0.39652649626E+03  0.15021443237E+03  0.46047165477E+03  0.62596468988E+03  0.10100000352E+00 0.  1.
</event>
<event>
 5   0  0.3328741E-03  0.1042473E+04  0.7818609E-02  0.9263150E-01
       -1   -1    0    0    0  501  0.00000000000E+00  0.00000000000E+00  0.49728244962E+03  0.49728244965E+03  0.50400001928E-02 0. -1.
        1   -1    0    0  501    0  0.00000000000E+00  0.00000000000E+00 -0.54634394279E+03  0.54634394282E+03  0.50400001928E-02 0.  1.
    10030    2    1    2    0    0  0.00000000000E+00  0.00000000000E+00 -0.49061493173E+02  0.10436263925E+04  0.10424725497E+04 0.  0.
        3    1    3    3  502    0  0.41074377342E+02 -0.18721334517E+03  0.46072351086E+03  0.49900110695E+03  0.10100000352E+00 0. -1.
       -3    1    3    3    0  502 -0.41074377342E+02  0.18721334517E+03 -0.50978500403E+03  0.54462528551E+03  0.10100000352E+00 0.  1.
</event>
<event>
 5   0  0.5946359E-03  0.1092155E+04  0.7818609E-02  0.9212872E-01
       -2   -1    0    0    0  501  0.00000000000E+00  0.00000000000E+00  0.48215097891E+03  0.48215097891E+03  0.25500000920E-02 0. -1.
        2   -1    0    0  501    0  0.00000000000E+00  0.00000000000E+00 -0.61847925634E+03  0.61847925634E+03  0.25500000920E-02 0.  1.
    10030    2    1    2    0    0  0.00000000000E+00  0.00000000000E+00 -0.13632827743E+03  0.11006302353E+04  0.10921545291E+04 0.  0.
        4    1    3    3  502    0  0.29250325532E+03  0.46053527252E+03 -0.44575773584E+02  0.54739337236E+03  0.12699999809E+01 0. -1.
       -4    1    3    3    0  502 -0.29250325532E+03 -0.46053527252E+03 -0.91752503847E+02  0.55323686290E+03  0.12699999809E+01 0.  1.
</event>
<event>
 5   0  0.2185750E-03  0.1129593E+04  0.7818609E-02  0.9176819E-01
       -4   -1    0    0    0  501  0.00000000000E+00  0.00000000000E+00  0.81284581705E+03  0.81284680918E+03  0.12699999809E+01 0. -1.
        4   -1    0    0  501    0  0.00000000000E+00  0.00000000000E+00 -0.39243987052E+03  0.39244192548E+03  0.12699999809E+01 0.  1.
    10030    2    1    2    0    0  0.00000000000E+00  0.00000000000E+00  0.42040594653E+03  0.12052887347E+04  0.11295927470E+04 0.  0.
        4    1    3    3  502    0  0.26758200077E+03  0.28240194994E+03  0.64708186532E+03  0.75502817284E+03  0.12699999809E+01 0. -1.
       -4    1    3    3    0  502 -0.26758200077E+03 -0.28240194994E+03 -0.22667591879E+03  0.45026056181E+03  0.12699999809E+01 0.  1.
</event>
<event>
 5   0  0.3320192E-03  0.1020733E+04  0.7818609E-02  0.9286094E-01
        1   -1    0    0  501    0  0.00000000000E+00  0.00000000000E+00  0.53421616456E+03  0.53421616458E+03  0.50400001928E-02 0. -1.
       -1   -1    0    0    0  501  0.00000000000E+00  0.00000000000E+00 -0.48758113605E+03  0.48758113608E+03  0.50400001928E-02 0.  1.
    10030    2    1    2    0    0  0.00000000000E+00  0.00000000000E+00  0.46635028504E+02  0.10217973007E+04  0.10207325300E+04 0.  0.
        2    1    3    3  502    0  0.35421539542E+03 -0.19147307616E+03  0.33724189759E+03  0.52522622054E+03  0.25500000920E-02 0. -1.
       -2    1    3    3    0  502 -0.35421539542E+03  0.19147307616E+03 -0.29060686908E+03  0.49657108012E+03  0.25500000920E-02 0.  1.
</event>
<event>
 5   0  0.3316784E-03  0.1115222E+04  0.7818609E-02  0.9190481E-01
        1   -1    0    0  501    0  0.00000000000E+00  0.00000000000E+00  0.68941105472E+03  0.68941105474E+03  0.50400001928E-02 0. -1.
       -1   -1    0    0    0  501  0.00000000000E+00  0.00000000000E+00 -0.45100801418E+03  0.45100801420E+03  0.50400001928E-02 0.  1.
    10030    2    1    2    0    0  0.00000000000E+00  0.00000000000E+00  0.23840304055E+03  0.11404190689E+04  0.11152217910E+04 0.  0.
        4    1    3    3  502    0 -0.15633389395E+02  0.28443046273E+03  0.60938917209E+03  0.67268259005E+03  0.12699999809E+01 0. -1.
       -4    1    3    3    0  502  0.15633389395E+02 -0.28443046273E+03 -0.37098613154E+03  0.46773647890E+03  0.12699999809E+01 0.  1.
</event>
<event>
 5   0  0.3328741E-03  0.1139434E+04  0.7818609E-02  0.9167587E-01
       -1   -1    0    0    0  501  0.00000000000E+00  0.00000000000E+00  0.44894610033E+03  0.44894610036E+03  0.50400001928E-02 0. -1.
        1   -1    0    0  501    0  0.00000000000E+00  0.00000000000E+00 -0.72297607186E+03  0.72297607188E+03  0.50400001928E-02 0.  1.
    10030    2    1    2    0    0  0.00000000000E+00  0.00000000000E+00 -0.27402997153E+03  0.11719221722E+04  0.11394336982E+04 0.  0.
        3    1    3    3  502    0  0.35951588777E+03  0.25521340321E+03  0.23409393942E+03  0.49918487298E+03  0.10100000352E+00 0. -1.
       -3    1    3    3    0  502 -0.35951588777E+03 -0.25521340321E+03 -0.50812391095E+03  0.67273729926E+03  0.10100000352E+00 0.  1.
</event>
<event>
 5   0  0.3241189E-03  0.1033109E+04  0.7818609E-02  0.9272958E-01
        1   -1    0    0  501    0  0.00000000000E+00  0.00000000000E+00  0.36282819556E+03  0.36282819560E+03  0.50400001928E-02 0. -1.
       -1   -1    0    0    0  501  0.00000000000E+00  0.00000000000E+00 -0.73541351146E+03  0.73541351148E+03  0.50400001928E-02 0.  1.
    10030    2    1    2    0    0  0.00000000000E+00  0.00000000000E+00 -0.37258531590E+03  0.10982417071E+04  0.10331093986E+04 0.  0.
        5    1    3    3  502    0  0.27540528599E+03 -0.19789307352E+03  0.22788160714E+03  0.40860966333E+03  0.46999998093E+01 0. -1.
       -5    1    3    3    0  502 -0.27540528599E+03  0.19789307352E+03 -0.60046692304E+03  0.68963204375E+03  0.46999998093E+01 0.  1.
</event>
<event>
 5   0  0.5500363E-03  0.1090727E+04  0.7818609E-02  0.9214277E-01
        2   -1    0    0  501    0  0.00000000000E+00  0.00000000000E+00  0.18531803932E+04  0.18531803932E+04  0.25500000920E-02 0.  1.
       -2   -1    0    0    0  501  0.00000000000E+00  0.00000000000E+00 -0.16049237872E+03  0.16049237874E+03  0.25500000920E-02 0. -1.
    10030    2    1    2    0    0  0.00000000000E+00  0.00000000000E+00  0.16926880145E+04  0.20136727720E+04  0.10907269677E+04 0.  0.
        3    1    3    3  502    0  0.51957355300E+03 -0.14225733375E+03  0.68939206396E+03  0.87490299693E+03  0.10100000352E+00 0. -1.
       -3    1    3    3    0  502 -0.51957355300E+03  0.14225733375E+03  0.10032959506E+04  0.11387697751E+04  0.10100000352E+00 0.  1.
</event>
<event>
 5   0  0.3215352E-03  0.1101521E+04  0.7818609E-02  0.9203710E-01
        1   -1    0    0  501    0  0.00000000000E+00  0.00000000000E+00  0.65520489347E+03  0.65520489349E+03  0.50400001928E-02 0. -1.
       -1   -1    0    0    0  501  0.00000000000E+00  0.00000000000E+00 -0.46296557669E+03  0.46296557671E+03  0.50400001928E-02 0.  1.
    10030    2    1    2    0    0  0.00000000000E+00  0.00000000000E+00  0.19223931678E+03  0.11181704702E+04  0.11015213323E+04 0.  0.
        1    1    3    3  502    0  0.38300344310E+03 -0.60786061667E+02  0.49312000112E+03  0.62733875877E+03  0.50400001928E-02 0. -1.
       -1    1    3    3    0  502 -0.38300344310E+03  0.60786061667E+02 -0.30088068434E+03  0.49083171144E+03  0.50400001928E-02 0.  1.
</event>
<event>
 5   0  0.5723194E-03  0.1106353E+04  0.7818609E-02  0.9199022E-01
        2   -1    0    0  501    0  0.00000000000E+00  0.00000000000E+00  0.11583903013E+04  0.11583903013E+04  0.25500000920E-02 0.  1.
       -2   -1    0    0    0  501  0.00000000000E+00  0.00000000000E+00 -0.26416325202E+03  0.26416325203E+03  0.25500000920E-02 0. -1.
    10030    2    1    2    0    0  0.00000000000E+00  0.00000000000E+00  0.89422704925E+03  0.14225535533E+04  0.11063528354E+04 0.  0.
        1    1    3    3  502    0  0.54201781570E+03  0.10019807798E+03  0.38706243466E+03  0.67352824419E+03  0.50400001928E-02 0.  1.
       -1    1    3    3    0  502 -0.54201781570E+03 -0.10019807798E+03  0.50716461458E+03  0.74902530910E+03  0.50400001928E-02 0. -1.
</event>
<event>
 5   0  0.3328741E-03  0.1114742E+04  0.7818609E-02  0.9190941E-01
        1   -1    0    0  501    0  0.00000000000E+00  0.00000000000E+00  0.82520415666E+03  0.82520415668E+03  0.50400001928E-02 0.  1.
       -1   -1    0    0    0  501  0.00000000000E+00  0.00000000000E+00 -0.37646760801E+03  0.37646760804E+03  0.50400001928E-02 0. -1.
    10030    2    1    2    0    0  0.00000000000E+00  0.00000000000E+00  0.44873654865E+03  0.12016717647E+04  0.11147423649E+04 0.  0.
        3    1    3    3  502    0  0.49272545803E+03 -0.19132414519E+03  0.41501967354E+03  0.67203024124E+03  0.10100000352E+00 0.  1.
       -3    1    3    3    0  502 -0.49272545803E+03  0.19132414519E+03  0.33716875115E+02  0.52964152348E+03  0.10100000352E+00 0. -1.
</event>
<event>
 5   0  0.3320192E-03  0.1107116E+04  0.7818609E-02  0.9198284E-01
       -1   -1    0    0    0  501  0.00000000000E+00  0.00000000000E+00  0.59408991001E+03  0.59408991003E+03  0.50400001928E-02 0. -1.
        1   -1    0    0  501    0  0.00000000000E+00  0.00000000000E+00 -0.51579099914E+03  0.51579099916E+03  0.50400001928E-02 0.  1.
    10030    2    1    2    0    0  0.00000000000E+00  0.00000000000E+00  0.78298910875E+02  0.11098809092E+04  0.11071155826E+04 0.  0.
        2    1    3    3  502    0  0.10563945488E+03 -0.50313272256E+03 -0.16660450628E+03  0.54042510347E+03  0.25500000920E-02 0.  1.
       -2    1    3    3    0  502 -0.10563945488E+03  0.50313272256E+03  0.24490341716E+03  0.56945580573E+03  0.25500000920E-02 0. -1.
</event>
<event>
 5   0  0.3241189E-03  0.1103934E+04  0.7818609E-02  0.9201366E-01
        1   -1    0    0  501    0  0.00000000000E+00  0.00000000000E+00  0.83108069727E+03  0.83108069728E+03  0.50400001928E-02 0.  1.
       -1   -1    0    0    0  501  0.00000000000E+00  0.00000000000E+00 -0.36659198525E+03  0.36659198529E+03  0.50400001928E-02 0. -1.
    10030    2    1    2    0    0  0.00000000000E+00  0.00000000000E+00  0.46448871202E+03  0.11976726826E+04  0.11039339160E+04 0.  0.
        5    1    3    3  502    0  0.45597450075E+03 -0.29782171884E+03  0.13499525209E+03  0.56112060168E+03  0.46999998093E+01 0.  1.
       -5    1    3    3    0  502 -0.45597450075E+03  0.29782171884E+03  0.32949345992E+03  0.63655208088E+03  0.46999998093E+01 0. -1.
</event>
<event>
 5   0  0.5941585E-03  0.1068468E+04  0.7818609E-02  0.9236482E-01
       -2   -1    0    0    0  501  0.00000000000E+00  0.00000000000E+00  0.24154513297E+03  0.24154513298E+03  0.25500000920E-02 0.  1.
        2   -1    0    0  501    0  0.00000000000E+00  0.00000000000E+00 -0.11815843300E+04  0.11815843300E+04  0.25500000920E-02 0. -1.
    10030    2    1    2    0    0  0.00000000000E+00  0.00000000000E+00 -0.94003919700E+03  0.14231294629E+04  0.10684679576E+04 0.  0.
        5    1    3    3  502    0  0.11596202880E+03 -0.40666470738E+03 -0.35228156992E+02  0.42436598520E+03  0.46999998093E+01 0.  1.
       -5    1    3    3    0  502 -0.11596202880E+03  0.40666470738E+03 -0.90481104001E+03  0.99876347774E+03  0.46999998093E+01 0. -1.
</event>
<event>
 5   0  0.5941585E-03  0.1091756E+04  0.7818609E-02  0.9213264E-01
        2   -1    0    0  501    0  0.00000000000E+00  0.00000000000E+00  0.82239281057E+03  0.82239281058E+03  0.25500000920E-02 0.  1.
       -2   -1    0    0    0  501  0.00000000000E+00  0.00000000000E+00 -0.36233632640E+03  0.36233632641E+03  0.25500000920E-02 0. -1.
    10030    2    1    2    0    0  0.00000000000E+00  0.00000000000E+00  0.46005648418E+03  0.11847291370E+04  0.10917559981E+04 0.  0.
        5    1    3    3  502    0  0.34219873743E+03 -0.39935852548E+03  0.71381475465E+02  0.53075852589E+03  0.46999998093E+01 0. -1.
       -5    1    3    3    0  502 -0.34219873743E+03  0.39935852548E+03  0.38867500871E+03  0.65397061109E+03  0.46999998093E+01 0.  1.
</event>
<event>
 5   0  0.5941585E-03  0.1095737E+04  0.7818609E-02  0.9209357E-01
       -2   -1    0    0    0  501  0.00000000000E+00  0.00000000000E+00  0.16521733360E+03  0.16521733362E+03  0.25500000920E-02 0.  1.
        2   -1    0    0  501    0  0.00000000000E+00  0.00000000000E+00 -0.18167585300E+04  0.18167585300E+04  0.25500000920E-02 0. -1.
    10030    2    1    2    0    0  0.00000000000E+00  0.00000000000E+00 -0.16515411964E+04  0.19819758636E+04  0.10957371950E+04 0.  0.
        5    1    3    3  502    0 -0.75360739095E+02 -0.46623031735E+03 -0.13279804577E+04  0.14094694519E+04  0.46999998093E+01 0. -1.
       -5    1    3    3    0  502  0.75360739095E+02  0.46623031735E+03 -0.32356073863E+03  0.57250641166E+03  0.46999998093E+01 0.  1.
</event>
<event>
 5   0  0.3316784E-03  0.1074665E+04  0.7818609E-02  0.9230243E-01
        1   -1    0    0  501    0  0.00000000000E+00  0.00000000000E+00  0.31060048045E+03  0.31060048049E+03  0.50400001928E-02 0.  1.
       -1   -1    0    0    0  501  0.00000000000E+00  0.00000000000E+00 -0.92957501269E+03  0.92957501270E+03  0.50400001928E-02 0. -1.
    10030    2    1    2    0    0  0.00000000000E+00  0.00000000000E+00 -0.61897453224E+03  0.12401754932E+04  0.10746654281E+04 0.  0.
        4    1    3    3  502    0 -0.53424229574E+03  0.16954961484E+02 -0.24604257626E+03  0.58842235130E+03  0.12699999809E+01 0.  1.
       -4    1    3    3    0  502  0.53424229574E+03 -0.16954961484E+02 -0.37293195598E+03  0.65175314189E+03  0.12699999809E+01 0. -1.
</event>
<event>
 5   0  0.5627232E-03  0.1095291E+04  0.7818609E-02  0.9209793E-01
        2   -1    0    0  501    0  0.00000000000E+00  0.00000000000E+00  0.90316516927E+03  0.90316516927E+03  0.25500000920E-02 0.  1.
       -2   -1    0    0    0  501  0.00000000000E+00  0.00000000000E+00 -0.33207200094E+03  0.33207200095E+03  0.25500000920E-02 0. -1.
    10030    2    1    2    0    0  0.00000000000E+00  0.00000000000E+00  0.57109316832E+03  0.12352371702E+04  0.10952914954E+04 0.  0.
        2    1    3    3  502    0 -0.12061572532E+03  0.39965320510E+03 -0.11420784931E+03  0.43279818668E+03  0.25500000920E-02 0. -1.
       -2    1    3    3    0  502  0.12061572532E+03 -0.39965320510E+03  0.68530101763E+03  0.80243898355E+03  0.25500000920E-02 0.  1.
</event>
<event>
 5   0  0.5500363E-03  0.1089910E+04  0.7818609E-02  0.9215082E-01
        2   -1    0    0  501    0  0.00000000000E+00  0.00000000000E+00  0.64882876420E+03  0.64882876421E+03  0.25500000920E-02 0.  1.
       -2   -1    0    0    0  501  0.00000000000E+00  0.00000000000E+00 -0.45771087127E+03  0.45771087128E+03  0.25500000920E-02 0. -1.
    10030    2    1    2    0    0  0.00000000000E+00  0.00000000000E+00  0.19111789293E+03  0.11065396355E+04  0.10899100495E+04 0.  0.
        3    1    3    3  502    0 -0.33835909257E+03  0.34779960300E+03  0.34738488891E+03  0.59676436775E+03  0.10100000352E+00 0. -1.
       -3    1    3    3    0  502  0.33835909257E+03 -0.34779960300E+03 -0.15626699598E+03  0.50977526774E+03  0.10100000352E+00 0.  1.
</event>
<event>
 5   0  0.3215352E-03  0.1097667E+04  0.7818609E-02  0.9207469E-01
        1   -1    0    0  501    0  0.00000000000E+00  0.00000000000E+00  0.16435268251E+04  0.16435268251E+04  0.50400001928E-02 0.  1.
       -1   -1    0    0    0  501  0.00000000000E+00  0.00000000000E+00 -0.18327535321E+03  0.18327535328E+03  0.50400001928E-02 0. -1.
    10030    2    1    2    0    0  0.00000000000E+00  0.00000000000E+00  0.14602514719E+04  0.18268021784E+04  0.10976665422E+04 0.  0.
        1    1    3    3  502    0  0.13200417624E+03 -0.47997214948E+03  0.11147807340E+04  0.12208744619E+04  0.50400001928E-02 0.  1.
       -1    1    3    3    0  502 -0.13200417624E+03  0.47997214948E+03  0.34547073785E+03  0.60592771644E+03  0.50400001928E-02 0. -1.
</event>
<event>
 5   0  0.5500363E-03  0.1066252E+04  0.7818609E-02  0.9238724E-01
       -2   -1    0    0    0  501  0.00000000000E+00  0.00000000000E+00  0.16311048985E+03  0.16311048987E+03  0.25500000920E-02 0. -1.
        2   -1    0    0  501    0  0.00000000000E+00  0.00000000000E+00 -0.17425193561E+04  0.17425193561E+04  0.25500000920E-02 0.  1.
    10030    2    1    2    0    0  0.00000000000E+00  0.00000000000E+00 -0.15794088662E+04  0.19056298459E+04  0.10662517259E+04 0.  0.
        3    1    3    3  502    0 -0.19648225893E+03  0.17152722920E+03  0.41299223272E+02  0.26406912821E+03  0.10100000352E+00 0. -1.
       -3    1    3    3    0  502  0.19648225893E+03 -0.17152722920E+03 -0.16207080895E+04  0.16415607177E+04  0.10100000352E+00 0.  1.
</event>
<event>
 5   0  0.3316784E-03  0.1095615E+04  0.7818609E-02  0.9209477E-01
       -1   -1    0    0    0  501  0.00000000000E+00  0.00000000000E+00  0.17082962558E+03  0.17082962566E+03  0.50400001928E-02 0.  1.
        1   -1    0    0  501    0  0.00000000000E+00  0.00000000000E+00 -0.17566795417E+04  0.17566795417E+04  0.50400001928E-02 0. -1.
    10030    2    1    2    0    0  0.00000000000E+00  0.00000000000E+00 -0.15858499161E+04  0.19275091673E+04  0.10956147287E+04 0.  0.
        4    1    3    3  502    0 -0.14956645048E+03 -0.27949906528E+03 -0.15789211297E+04  0.16104295692E+04  0.12699999809E+01 0. -1.
       -4    1    3    3    0  502  0.14956645048E+03  0.27949906528E+03 -0.69287864295E+01  0.31707959818E+03  0.12699999809E+01 0.  1.
</event>
<event>
 5   0  0.5941585E-03  0.1109574E+04  0.7818609E-02  0.9195911E-01
        2   -1    0    0  501    0  0.00000000000E+00  0.00000000000E+00  0.46807173077E+03  0.46807173078E+03  0.25500000920E-02 0.  1.
       -2   -1    0    0    0  501  0.00000000000E+00  0.00000000000E+00 -0.65756680972E+03  0.65756680972E+03  0.25500000920E-02 0. -1.
    10030    2    1    2    0    0  0.00000000000E+00  0.00000000000E+00 -0.18949507895E+03  0.11256385405E+04  0.11095736744E+04 0.  0.
        5    1    3    3  502    0 -0.12609684625E+03 -0.21037046626E+03  0.41006144187E+03  0.47783744497E+03  0.46999998093E+01 0.  1.
       -5    1    3    3    0  502  0.12609684625E+03  0.21037046626E+03 -0.59955652082E+03  0.64780109553E+03  0.46999998093E+01 0. -1.
</event>
<event>
 5   0  0.3328741E-03  0.1095141E+04  0.7818609E-02  0.9209940E-01
        1   -1    0    0  501    0  0.00000000000E+00  0.00000000000E+00  0.82860363978E+03  0.82860363979E+03  0.50400001928E-02 0.  1.
       -1   -1    0    0    0  501  0.00000000000E+00  0.00000000000E+00 -0.36185413683E+03  0.36185413686E+03  0.50400001928E-02 0. -1.
    10030    2    1    2    0    0  0.00000000000E+00  0.00000000000E+00  0.46674950295E+03  0.11904577767E+04  0.10951413696E+04 0.  0.
        3    1    3    3  502    0  0.22774685708E+03 -0.79868416001E+02  0.76766806328E+03  0.80471228422E+03  0.10100000352E+00 0.  1.
       -3    1    3    3    0  502 -0.22774685708E+03  0.79868416001E+02 -0.30091856033E+03  0.38574549244E+03  0.10100000352E+00 0. -1.
</event>
<event>
 5   0  0.5627232E-03  0.1083117E+04  0.7818609E-02  0.9221805E-01
       -2   -1    0    0    0  501  0.00000000000E+00  0.00000000000E+00  0.23934360577E+03  0.23934360578E+03  0.25500000920E-02 0. -1.
        2   -1    0    0  501    0  0.00000000000E+00  0.00000000000E+00 -0.12253742964E+04  0.12253742964E+04  0.25500000920E-02 0.  1.
    10030    2    1    2    0    0  0.00000000000E+00  0.00000000000E+00 -0.98603069061E+03  0.14647179022E+04  0.10831168035E+04 0.  0.
        2    1    3    3  502    0  0.32183789645E+03 -0.30067882985E+03 -0.66878396333E+02  0.44548861962E+03  0.25500000920E-02 0. -1.
       -2    1    3    3    0  502 -0.32183789645E+03  0.30067882985E+03 -0.91915229428E+03  0.10192292825E+04  0.25500000920E-02 0.  1.
</event>
<event>
 5   0  0.3241189E-03  0.1122610E+04  0.7818609E-02  0.9183431E-01
        1   -1    0    0  501    0  0.00000000000E+00  0.00000000000E+00  0.64160569093E+03  0.64160569095E+03  0.50400001928E-02 0. -1.
       -1   -1    0    0    0  501  0.00000000000E+00  0.00000000000E+00 -0.49105426836E+03  0.49105426839E+03  0.50400001928E-02 0.  1.
    10030    2    1    2    0    0  0.00000000000E+00  0.00000000000E+00  0.15055142257E+03  0.11326599593E+04  0.11226098399E+04 0.  0.
        5    1    3    3  502    0  0.42947500004E+03  0.77534107983E+01 -0.28925119162E+03  0.51787762347E+03  0.46999998093E+01 0. -1.
       -5    1    3    3    0  502 -0.42947500004E+03 -0.77534107983E+01  0.43980261419E+03  0.61478233586E+03  0.46999998093E+01 0.  1.
</event>
<event>
 5   0  0.3320192E-03  0.1061345E+04  0.7818609E-02  0.9243709E-01
        1   -1    0    0  501    0  0.00000000000E+00  0.00000000000E+00  0.91760645137E+03  0.91760645138E+03  0.50400001928E-02 0.  1.
       -1   -1    0    0    0  501  0.00000000000E+00  0.00000000000E+00 -0.30689979431E+03  0.30689979435E+03  0.50400001928E-02 0. -1.
    10030    2    1    2    0    0  0.00000000000E+00  0.00000000000E+00  0.61070665706E+03  0.12245062457E+04  0.10613448661E+04 0.  0.
        2    1    3    3  502    0  0.20760301589E+03 -0.49434686410E+02  0.86591742394E+03  0.89182721730E+03  0.25500000920E-02 0.  1.
       -2    1    3    3    0  502 -0.20760301589E+03  0.49434686410E+02 -0.25521076688E+03  0.33267902844E+03  0.25500000920E-02 0. -1.
</event>
<event>
 5   0  0.3241189E-03  0.1097480E+04  0.7818609E-02  0.9207652E-01
       -1   -1    0    0    0  501  0.00000000000E+00  0.00000000000E+00  0.44156892812E+03  0.44156892815E+03  0.50400001928E-02 0.  1.
        1   -1    0    0  501    0  0.00000000000E+00  0.00000000000E+00 -0.68192187590E+03  0.68192187592E+03  0.50400001928E-02 0. -1.
    10030    2    1    2    0    0  0.00000000000E+00  0.00000000000E+00 -0.24035294778E+03  0.11234908041E+04  0.10974798619E+04 0.  0.
        5    1    3    3  502    0 -0.25552360079E+03  0.48185440081E+03 -0.18174717403E+03  0.57491747182E+03  0.46999998093E+01 0. -1.
       -5    1    3    3    0  502  0.25552360079E+03 -0.48185440081E+03 -0.58605773756E+02  0.54857333225E+03  0.46999998093E+01 0.  1.
</event>
<event>
 5   0  0.5941585E-03  0.1109479E+04  0.7818609E-02  0.9196002E-01
       -2   -1    0    0    0  501  0.00000000000E+00  0.00000000000E+00  0.41580948630E+03  0.41580948631E+03  0.25500000920E-02 0.  1.
        2   -1    0    0  501    0  0.00000000000E+00  0.00000000000E+00 -0.74008874352E+03  0.74008874352E+03  0.25500000920E-02 0. -1.
    10030    2    1    2    0    0  0.00000000000E+00  0.00000000000E+00 -0.32427925721E+03  0.11558982298E+04  0.11094790133E+04 0.  0.
        5    1    3    3  502    0  0.37213056482E+03  0.10548574463E+03 -0.57640048703E+03  0.69416713480E+03  0.46999998093E+01 0. -1.
       -5    1    3    3    0  502 -0.37213056482E+03 -0.10548574463E+03  0.25212122982E+03  0.46173109503E+03  0.46999998093E+01 0.  1.
</event>
<event>
 5   0  0.3241189E-03  0.1088211E+04  0.7818609E-02  0.9216759E-01
        1   -1    0    0  501    0  0.00000000000E+00  0.00000000000E+00  0.17457803897E+04  0.17457803897E+04  0.50400001928E-02 0.  1.
       -1   -1    0    0    0  501  0.00000000000E+00  0.00000000000E+00 -0.16958084916E+03  0.16958084923E+03  0.50400001928E-02 0. -1.
    10030    2    1    2    0    0  0.00000000000E+00  0.00000000000E+00  0.15761995406E+04  0.19153612390E+04  0.10882112314E+04 0.  0.
        5    1    3    3  502    0 -0.47508319150E+03  0.12300732261E+03  0.12016072681E+04  0.12979664699E+04  0.46999998093E+01 0.  1.
       -5    1    3    3    0  502  0.47508319150E+03 -0.12300732261E+03  0.37459227245E+03  0.61739476904E+03  0.46999998093E+01 0. -1.
</event>
<event>
 5   0  0.5723194E-03  0.1097849E+04  0.7818609E-02  0.9207291E-01
       -2   -1    0    0    0  501  0.00000000000E+00  0.00000000000E+00  0.36557389374E+03  0.36557389375E+03  0.25500000920E-02 0. -1.
        2   -1    0    0  501    0  0.00000000000E+00  0.00000000000E+00 -0.82423355859E+03  0.82423355859E+03  0.25500000920E-02 0.  1.
    10030    2    1    2    0    0  0.00000000000E+00  0.00000000000E+00 -0.45865966485E+03  0.11898074523E+04  0.10978493000E+04 0.  0.
        1    1    3    3  502    0 -0.23857577190E+02 -0.48998697405E+03 -0.49625639286E+03  0.69780142320E+03  0.50400001928E-02 0.  1.
       -1    1    3    3    0  502  0.23857577190E+02  0.48998697405E+03  0.37596728015E+02  0.49200602914E+03  0.50400001928E-02 0. -1.
</event>
<event>
 5   0  0.5941585E-03  0.1104370E+04  0.7818609E-02  0.9200943E-01
        2   -1    0    0  501    0  0.00000000000E+00  0.00000000000E+00  0.69039075242E+03  0.69039075243E+03  0.25500000920E-02 0. -1.
       -2   -1    0    0    0  501  0.00000000000E+00  0.00000000000E+00 -0.44164586717E+03  0.44164586718E+03  0.25500000920E-02 0.  1.
    10030    2    1    2    0    0  0.00000000000E+00  0.00000000000E+00  0.24874488525E+03  0.11320366196E+04  0.11043699064E+04 0.  0.
        5    1    3    3  502    0 -0.98963576684E+02 -0.17071145168E+03 -0.40425032370E+03  0.44986287183E+03  0.46999998093E+01 0.  1.
       -5    1    3    3    0  502  0.98963576684E+02  0.17071145168E+03  0.65299520895E+03  0.68217374777E+03  0.46999998093E+01 0. -1.
</event>
<event>
 5   0  0.5941585E-03  0.1130272E+04  0.7818609E-02  0.9176179E-01
        2   -1    0    0  501    0  0.00000000000E+00  0.00000000000E+00  0.10855163424E+04  0.10855163424E+04  0.25500000920E-02 0. -1.
       -2   -1    0    0    0  501  0.00000000000E+00  0.00000000000E+00 -0.29421818757E+03  0.29421818758E+03  0.25500000920E-02 0.  1.
    10030    2    1    2    0    0  0.00000000000E+00  0.00000000000E+00  0.79129815480E+03  0.13797345300E+04  0.11302719157E+04 0.  0.
        5    1    3    3  502    0  0.34849778982E+03 -0.40493297861E+03  0.17077604212E+03  0.56089925409E+03  0.46999998093E+01 0. -1.
       -5    1    3    3    0  502 -0.34849778982E+03  0.40493297861E+03  0.62052211268E+03  0.81883527586E+03  0.46999998093E+01 0.  1.
</event>
<event>
 5   0  0.3241189E-03  0.1107063E+04  0.7818609E-02  0.9198335E-01
        1   -1    0    0  501    0  0.00000000000E+00  0.00000000000E+00  0.18396369167E+04  0.18396369167E+04  0.50400001928E-02 0.  1.
       -1   -1    0    0    0  501  0.00000000000E+00  0.00000000000E+00 -0.16655315532E+03  0.16655315540E+03  0.50400001928E-02 0. -1.
    10030    2    1    2    0    0  0.00000000000E+00  0.00000000000E+00  0.16730837614E+04  0.20061900721E+04  0.11070633825E+04 0.  0.
        5    1    3    3  502    0 -0.30866365267E+03 -0.25252110806E+03  0.15321308341E+04  0.15831889158E+04  0.46999998093E+01 0.  1.
       -5    1    3    3    0  502  0.30866365267E+03  0.25252110806E+03  0.14095292731E+03  0.42300115627E+03  0.46999998093E+01 0. -1.
</event>
<event>
 5   0  0.3241189E-03  0.1094373E+04  0.7818609E-02  0.9210693E-01
        1   -1    0    0  501    0  0.00000000000E+00  0.00000000000E+00  0.66577097815E+03  0.66577097816E+03  0.50400001928E-02 0.  1.
       -1   -1    0    0    0  501  0.00000000000E+00  0.00000000000E+00 -0.44972409301E+03  0.44972409304E+03  0.50400001928E-02 0. -1.
    10030    2    1    2    0    0  0.00000000000E+00  0.00000000000E+00  0.21604688514E+03  0.11154950712E+04  0.10943733354E+04 0.  0.
        5    1    3    3  502    0  0.11663639726E+03 -0.76569490332E+02 -0.43126659033E+03  0.45329890575E+03  0.46999998093E+01 0. -1.
       -5    1    3    3    0  502 -0.11663639726E+03  0.76569490332E+02  0.64731347547E+03  0.66219616545E+03  0.46999998093E+01 0.  1.
</event>
<event>
 5   0  0.5941585E-03  0.9970395E+03  0.7818609E-02  0.9311798E-01
       -2   -1    0    0    0  501  0.00000000000E+00  0.00000000000E+00  0.33811010023E+03  0.33811010024E+03  0.25500000920E-02 0. -1.
        2   -1    0    0  501    0  0.00000000000E+00  0.00000000000E+00 -0.73503252599E+03  0.73503252599E+03  0.25500000920E-02 0.  1.
    10030    2    1    2    0    0  0.00000000000E+00  0.00000000000E+00 -0.39692242575E+03  0.10731426262E+04  0.99703945969E+03 0.  0.
        5    1    3    3  502    0 -0.76427077183E+02 -0.17415819235E+03 -0.69442319020E+03  0.72001238265E+03  0.46999998093E+01 0.  1.
       -5    1    3    3    0  502  0.76427077183E+02  0.17415819235E+03  0.29750076444E+03  0.35313024358E+03  0.46999998093E+01 0. -1.
</event>
<event>
 5   0  0.3316784E-03  0.1101084E+04  0.7818609E-02  0.9204136E-01
        1   -1    0    0  501    0  0.00000000000E+00  0.00000000000E+00  0.20776800671E+04  0.20776800671E+04  0.50400001928E-02 0. -1.
       -1   -1    0    0    0  501  0.00000000000E+00  0.00000000000E+00 -0.14588206532E+03  0.14588206541E+03  0.50400001928E-02 0.  1.
    10030    2    1    2    0    0  0.00000000000E+00  0.00000000000E+00  0.19317980018E+04  0.22235621325E+04  0.11010835743E+04 0.  0.
        4    1    3    3  502    0  0.12980843213E+03 -0.27396703395E+03  0.18939290591E+04  0.19180399002E+04  0.12699999809E+01 0. -1.
       -4    1    3    3    0  502 -0.12980843213E+03  0.27396703395E+03  0.37868942652E+02  0.30552223235E+03  0.12699999809E+01 0.  1.
</event>
<event>
 5   0  0.5723194E-03  0.1080512E+04  0.7818609E-02  0.9224397E-01
       -2   -1    0    0    0  501  0.00000000000E+00  0.00000000000E+00  0.20711532024E+03  0.20711532025E+03  0.25500000920E-02 0.  1.
        2   -1    0    0  501    0  0.00000000000E+00  0.00000000000E+00 -0.14092463439E+04  0.14092463439E+04  0.25500000920E-02 0. -1.
    10030    2    1    2    0    0  0.00000000000E+00  0.00000000000E+00 -0.12021310237E+04  0.16163616642E+04  0.10805119302E+04 0.  0.
        1    1    3    3  502    0  0.27527721424E+02 -0.36239173507E+03 -0.11990433405E+04  0.12529127972E+04  0.50400001928E-02 0. -1.
       -1    1    3    3    0  502 -0.27527721424E+02  0.36239173507E+03 -0.30876832361E+01  0.36344886698E+03  0.50400001928E-02 0.  1.
</event>
<event>
 5   0  0.3241189E-03  0.1115369E+04  0.7818609E-02  0.9190340E-01
        1   -1    0    0  501    0  0.00000000000E+00  0.00000000000E+00  0.46814195999E+03  0.46814196002E+03  0.50400001928E-02 0.  1.
       -1   -1    0    0    0  501  0.00000000000E+00  0.00000000000E+00 -0.66435399455E+03  0.66435399457E+03  0.50400001928E-02 0. -1.
    10030    2    1    2    0    0  0.00000000000E+00  0.00000000000E+00 -0.19621203456E+03  0.11324959546E+04  0.11153689635E+04 0.  0.
        5    1    3    3  502    0  0.97880952176E+02  0.54782523331E+03 -0.13466902357E+03  0.57258274770E+03  0.46999998093E+01 0.  1.
       -5    1    3    3    0  502 -0.97880952176E+02 -0.54782523331E+03 -0.61543010995E+02  0.55991320689E+03  0.46999998093E+01 0. -1.
</event>
<event>
 5   0  0.3215352E-03  0.1104557E+04  0.7818609E-02  0.9200762E-01
       -1   -1    0    0    0  501  0.00000000000E+00  0.00000000000E+00  0.53695516330E+03  0.53695516333E+03  0.50400001928E-02 0.  1.
        1   -1    0    0  501    0  0.00000000000E+00  0.00000000000E+00 -0.56803900044E+03  0.56803900046E+03  0.50400001928E-02 0. -1.
    10030    2    1    2    0    0  0.00000000000E+00  0.00000000000E+00 -0.31083837135E+02  0.11049941638E+04  0.11045568782E+04 0.  0.
        1    1    3    3  502    0 -0.34294001852E+03 -0.20793540751E+03  0.36430101695E+03  0.54181197936E+03  0.50400001928E-02 0.  1.
       -1    1    3    3    0  502  0.34294001852E+03  0.20793540751E+03 -0.39538485408E+03  0.56318218443E+03  0.50400001928E-02 0. -1.
</event>
<event>
 5   0  0.3215352E-03  0.1088761E+04  0.7818609E-02  0.9216216E-01
        1   -1    0    0  501    0  0.00000000000E+00  0.00000000000E+00  0.47868857652E+03  0.47868857655E+03  0.50400001928E-02 0. -1.
       -1   -1    0    0    0  501  0.00000000000E+00  0.00000000000E+00 -0.61908791416E+03  0.61908791419E+03  0.50400001928E-02 0.  1.
    10030    2    1    2    0    0  0.00000000000E+00  0.00000000000E+00 -0.14039933765E+03  0.10977764907E+04  0.10887613373E+04 0.  0.
        1    1    3    3  502    0 -0.96534443799E+02  0.40458470400E+03 -0.42430938182E+03  0.59417685336E+03  0.50400001928E-02 0.  1.
       -1    1    3    3    0  502  0.96534443799E+02 -0.40458470400E+03  0.28391004417E+03  0.50359963737E+03  0.50400001928E-02 0. -1.
</event>
<event>
 5   0  0.3316784E-03  0.1052722E+04  0.7818609E-02  0.9252539E-01
        1   -1    0    0  501    0  0.00000000000E+00  0.00000000000E+00  0.26483137084E+03  0.26483137089E+03  0.50400001928E-02 0. -1.
       -1   -1    0    0    0  501  0.00000000000E+00  0.00000000000E+00 -0.10461589942E+04  0.10461589942E+04  0.50400001928E-02 0.  1.
    10030    2    1    2    0    0  0.00000000000E+00  0.00000000000E+00 -0.78132762339E+03  0.13109903651E+04  0.10527216547E+04 0.  0.
        4    1    3    3  502    0  0.44534299016E+03  0.23391308388E+03 -0.58362392007E+03  0.77049607570E+03  0.12699999809E+01 0.  1.
       -4    1    3    3    0  502 -0.44534299016E+03 -0.23391308388E+03 -0.19770370332E+03  0.54049428942E+03  0.12699999809E+01 0. -1.
</event>
<event>
 5   0  0.5946359E-03  0.1102245E+04  0.7818609E-02  0.9203006E-01
        2   -1    0    0  501    0  0.00000000000E+00  0.00000000000E+00  0.48594180345E+03  0.48594180346E+03  0.25500000920E-02 0. -1.
       -2   -1    0    0    0  501  0.00000000000E+00  0.00000000000E+00 -0.62504618691E+03  0.62504618691E+03  0.25500000920E-02 0.  1.
    10030    2    1    2    0    0  0.00000000000E+00  0.00000000000E+00 -0.13910438346E+03  0.11109879904E+04  0.11022451112E+04 0.  0.
        4    1    3    3  502    0  0.38349652329E+02  0.44842274253E+03  0.25106016134E+03  0.51535082164E+03  0.12699999809E+01 0. -1.
       -4    1    3    3    0  502 -0.38349652329E+02 -0.44842274253E+03 -0.39016454480E+03  0.59563716873E+03  0.12699999809E+01 0.  1.
</event>
<event>
 5   0  0.5500363E-03  0.1115210E+04  0.7818609E-02  0.9190493E-01
       -2   -1    0    0    0  501  0.00000000000E+00  0.00000000000E+00  0.19713646726E+03  0.19713646728E+03  0.25500000920E-02 0. -1.
        2   -1    0    0  501    0  0.00000000000E+00  0.00000000000E+00 -0.15771976397E+04  0.15771976397E+04  0.25500000920E-02 0.  1.
    10030    2    1    2    0    0  0.00000000000E+00  0.00000000000E+00 -0.13800611724E+04  0.17743341070E+04  0.11152097038E+04 0.  0.
        3    1    3    3  502    0  0.16553689859E+03 -0.26676890090E+03  0.43148650009E+02  0.31690681198E+03  0.10100000352E+00 0. -1.
       -3    1    3    3    0  502 -0.16553689859E+03  0.26676890090E+03 -0.14232098224E+04  0.14574272950E+04  0.10100000352E+00 0.  1.
</event>
<event>
 5   0  0.3316784E-03  0.1105909E+04  0.7818609E-02  0.9199452E-01
        1   -1    0    0  501    0  0.00000000000E+00  0.00000000000E+00  0.61408433061E+03  0.61408433063E+03  0.50400001928E-02 0. -1.
       -1   -1    0    0    0  501  0.00000000000E+00  0.00000000000E+00 -0.49790956665E+03  0.49790956668E+03  0.50400001928E-02 0.  1.
    10030    2    1    2    0    0  0.00000000000E+00  0.00000000000E+00  0.11617476396E+03  0.11119938973E+04  0.11059086092E+04 0.  0.
        4    1    3    3  502    0 -0.43226393770E+03 -0.11258615915E+03  0.38580886062E+03  0.59023541481E+03  0.12699999809E+01 0. -1.
       -4    1    3    3    0  502  0.43226393770E+03  0.11258615915E+03 -0.26963409667E+03  0.52175848249E+03  0.12699999809E+01 0.  1.
</event>
<event>
 5   0  0.5941585E-03  0.1098280E+04  0.7818609E-02  0.9206870E-01
       -2   -1    0    0    0  501  0.00000000000E+00  0.00000000000E+00  0.60946537132E+03  0.60946537133E+03  0.25500000920E-02 0. -1.
        2   -1    0    0  501    0  0.00000000000E+00  0.00000000000E+00 -0.49478555358E+03  0.49478555358E+03  0.25500000920E-02 0.  1.
    10030    2    1    2    0    0  0.00000000000E+00  0.00000000000E+00  0.11467981774E+03  0.11042509249E+04  0.10982798571E+04 0.  0.
        5    1    3    3  502    0 -0.50384837595E+03  0.70957885713E+02  0.26494339678E+03  0.57368571622E+03  0.46999998093E+01 0. -1.
       -5    1    3    3    0  502  0.50384837595E+03 -0.70957885713E+02 -0.15026357904E+03  0.53056520869E+03  0.46999998093E+01 0.  1.
</event>
<event>
 5   0  0.5500363E-03  0.1110209E+04  0.7818609E-02  0.9195299E-01
       -2   -1    0    0    0  501  0.00000000000E+00  0.00000000000E+00  0.15183698359E+03  0.15183698361E+03  0.25500000920E-02 0. -1.
        2   -1    0    0  501    0  0.00000000000E+00  0.00000000000E+00 -0.20294185609E+04  0.20294185609E+04  0.25500000920E-02 0.  1.
    10030    2    1    2    0    0  0.00000000000E+00  0.00000000000E+00 -0.18775815773E+04  0.21812555446E+04  0.11102086160E+04 0.  0.
        3    1    3    3  502    0  0.48466576624E+03  0.26391396836E+03 -0.10564989365E+04  0.11919486150E+04  0.10100000352E+00 0.  1.
       -3    1    3    3    0  502 -0.48466576624E+03 -0.26391396836E+03 -0.82108264080E+03  0.98930692956E+03  0.10100000352E+00 0. -1.
</event>
<event>
 5   0  0.5946359E-03  0.1106886E+04  0.7818609E-02  0.9198506E-01
       -2   -1    0    0    0  501  0.00000000000E+00  0.00000000000E+00  0.33172721909E+03  0.33172721910E+03  0.25500000920E-02 0.  1.
        2   -1    0    0  501    0  0.00000000000E+00  0.00000000000E+00 -0.92334618876E+03  0.92334618876E+03  0.25500000920E-02 0. -1.
    10030    2    1    2    0    0  0.00000000000E+00  0.00000000000E+00 -0.59161896967E+03  0.12550734079E+04  0.11068858360E+04 0.  0.
        4    1    3    3  502    0  0.31370644377E+03  0.32893242495E+03  0.62196514362E+02  0.45877913242E+03  0.12699999809E+01 0.  1.
       -4    1    3    3    0  502 -0.31370644377E+03 -0.32893242495E+03 -0.65381548403E+03  0.79629427544E+03  0.12699999809E+01 0. -1.
</event>
<event>
 5   0  0.5627232E-03  0.1093843E+04  0.7818609E-02  0.9211213E-01
        2   -1    0    0  501    0  0.00000000000E+00  0.00000000000E+00  0.60539481984E+03  0.60539481985E+03  0.25500000920E-02 0. -1.
       -2   -1    0    0    0  501  0.00000000000E+00  0.00000000000E+00 -0.49409637158E+03  0.49409637159E+03  0.25500000920E-02 0.  1.
    10030    2    1    2    0    0  0.00000000000E+00  0.00000000000E+00  0.11129844826E+03  0.10994911914E+04  0.10938434694E+04 0.  0.
        2    1    3    3  502    0 -0.34997948130E+02 -0.54144215782E+03 -0.13546002714E+02  0.54274115454E+03  0.25500000920E-02 0. -1.
       -2    1    3    3    0  502  0.34997948130E+02  0.54144215782E+03  0.12484445098E+03  0.55675003690E+03  0.25500000920E-02 0.  1.
</event>
<event>
 5   0  0.5627232E-03  0.1101947E+04  0.7818609E-02  0.9203297E-01
        2   -1    0    0  501    0  0.00000000000E+00  0.00000000000E+00  0.14387900278E+04  0.14387900278E+04  0.25500000920E-02 0.  1.
       -2   -1    0    0    0  501  0.00000000000E+00  0.00000000000E+00 -0.21099090662E+03  0.21099090663E+03  0.25500000920E-02 0. -1.
    10030    2    1    2    0    0  0.00000000000E+00  0.00000000000E+00  0.12277991212E+04  0.16497809345E+04  0.11019466637E+04 0.  0.
        2    1    3    3  502    0  0.13592836547E+03  0.37591753935E+03  0.46202559342E+02  0.40239929600E+03  0.25500000920E-02 0. -1.
       -2    1    3    3    0  502 -0.13592836547E+03 -0.37591753935E+03  0.11815965619E+04  0.12473816385E+04  0.25500000920E-02 0.  1.
</event>
<event>
 5   0  0.5627232E-03  0.1093983E+04  0.7818609E-02  0.9211077E-01
        2   -1    0    0  501    0  0.00000000000E+00  0.00000000000E+00  0.49288734123E+03  0.49288734123E+03  0.25500000920E-02 0.  1.
       -2   -1    0    0    0  501  0.00000000000E+00  0.00000000000E+00 -0.60703413728E+03  0.60703413728E+03  0.25500000920E-02 0. -1.
    10030    2    1    2    0    0  0.00000000000E+00  0.00000000000E+00 -0.11414679605E+03  0.10999214785E+04  0.10939825263E+04 0.  0.
        2    1    3    3  502    0 -0.54006645272E+03 -0.23407882871E+01  0.30127995853E+02  0.54091122080E+03  0.25500000920E-02 0.  1.
       -2    1    3    3    0  502  0.54006645272E+03  0.23407882871E+01 -0.14427479190E+03  0.55901025772E+03  0.25500000920E-02 0. -1.
</event>
<event>
 5   0  0.5500363E-03  0.1097059E+04  0.7818609E-02  0.9208063E-01
       -2   -1    0    0    0  501  0.00000000000E+00  0.00000000000E+00  0.33254187970E+03  0.33254187971E+03  0.25500000920E-02 0.  1.
        2   -1    0    0  501    0  0.00000000000E+00  0.00000000000E+00 -0.90480201984E+03  0.90480201985E+03  0.25500000920E-02 0. -1.
    10030    2    1    2    0    0  0.00000000000E+00  0.00000000000E+00 -0.57226014015E+03  0.12373438996E+04  0.10970589126E+04 0.  0.
        3    1    3    3  502    0 -0.25487219925E+03 -0.43137986793E+03 -0.53791666713E+03  0.73512092841E+03  0.10100000352E+00 0. -1.
       -3    1    3    3    0  502  0.25487219925E+03  0.43137986793E+03 -0.34343473015E+02  0.50222297114E+03  0.10100000352E+00 0.  1.
</event>
<event>
 5   0  0.5946359E-03  0.1095792E+04  0.7818609E-02  0.9209303E-01
       -2   -1    0    0    0  501  0.00000000000E+00  0.00000000000E+00  0.10553268698E+04  0.10553268698E+04  0.25500000920E-02 0. -1.
        2   -1    0    0  501    0  0.00000000000E+00  0.00000000000E+00 -0.28445238084E+03  0.28445238085E+03  0.25500000920E-02 0.  1.
    10030    2    1    2    0    0  0.00000000000E+00  0.00000000000E+00  0.77087448900E+03  0.13397792507E+04  0.10957923904E+04 0.  0.
        4    1    3    3  502    0  0.18432060213E+02  0.20533478043E+02  0.10544750169E+04  0.10548367356E+04  0.12699999809E+01 0. -1.
       -4    1    3    3    0  502 -0.18432060213E+02 -0.20533478043E+02 -0.28360052793E+03  0.28494251509E+03  0.12699999809E+01 0.  1.
</event>
<event>
 5   0  0.5723194E-03  0.1101884E+04  0.7818609E-02  0.9203358E-01
        2   -1    0    0  501    0  0.00000000000E+00  0.00000000000E+00  0.12168205045E+04  0.12168205045E+04  0.25500000920E-02 0.  1.
       -2   -1    0    0    0  501  0.00000000000E+00  0.00000000000E+00 -0.24945096217E+03  0.24945096218E+03  0.25500000920E-02 0. -1.
    10030    2    1    2    0    0  0.00000000000E+00  0.00000000000E+00  0.96736954233E+03  0.14662714667E+04  0.11018839243E+04 0.  0.
        1    1    3    3  502    0  0.59500134812E+02 -0.24863183532E+03 -0.16574210996E+03  0.30467770286E+03  0.50400001928E-02 0. -1.
       -1    1    3    3    0  502 -0.59500134812E+02  0.24863183532E+03  0.11331116523E+04  0.11615937638E+04  0.50400001928E-02 0.  1.
</event>
<event>
 5   0  0.3215352E-03  0.9983012E+03  0.7818609E-02  0.9310410E-01
        1   -1    0    0  501    0  0.00000000000E+00  0.00000000000E+00  0.91637490912E+03  0.91637490914E+03  0.50400001928E-02 0. -1.
       -1   -1    0    0    0  501  0.00000000000E+00  0.00000000000E+00 -0.27188795989E+03  0.27188795994E+03  0.50400001928E-02 0.  1.
    10030    2    1    2    0    0  0.00000000000E+00  0.00000000000E+00  0.64448694923E+03  0.11882628691E+04  0.99830116613E+03 0.  0.
        1    1    3    3  502    0  0.27924129062E+03 -0.41364966208E+03  0.33217099520E+03  0.59951589754E+03  0.50400001928E-02 0. -1.
       -1    1    3    3    0  502 -0.27924129062E+03  0.41364966208E+03  0.31231595403E+03  0.58874697154E+03  0.50400001928E-02 0.  1.
</event>
<event>
 5   0  0.3328741E-03  0.1121882E+04  0.7818609E-02  0.9184123E-01
       -1   -1    0    0    0  501  0.00000000000E+00  0.00000000000E+00  0.69697351072E+03  0.69697351074E+03  0.50400001928E-02 0. -1.
        1   -1    0    0  501    0  0.00000000000E+00  0.00000000000E+00 -0.45145880002E+03  0.45145880005E+03  0.50400001928E-02 0.  1.
    10030    2    1    2    0    0  0.00000000000E+00  0.00000000000E+00  0.24551471070E+03  0.11484323108E+04  0.11218820345E+04 0.  0.
        3    1    3    3  502    0  0.35033570690E+02 -0.39160525954E+02 -0.44893404772E+03  0.45199854787E+03  0.10100000352E+00 0.  1.
       -3    1    3    3    0  502 -0.35033570690E+02  0.39160525954E+02  0.69444875842E+03  0.69643376292E+03  0.10100000352E+00 0. -1.
</event>
<event>
 5   0  0.3215352E-03  0.1132302E+04  0.7818609E-02  0.9174268E-01
       -1   -1    0    0    0  501  0.00000000000E+00  0.00000000000E+00  0.16032567731E+03  0.16032567739E+03  0.50400001928E-02 0. -1.
        1   -1    0    0  501    0  0.00000000000E+00  0.00000000000E+00 -0.19992232260E+04  0.19992232260E+04  0.50400001928E-02 0.  1.
    10030    2    1    2    0    0  0.00000000000E+00  0.00000000000E+00 -0.18388975487E+04  0.21595489034E+04  0.11323017582E+04 0.  0.
        1    1    3    3  502    0 -0.31912457524E+03  0.21571643266E+03 -0.12811839943E+03  0.40594137278E+03  0.50400001928E-02 0. -1.
       -1    1    3    3    0  502  0.31912457524E+03 -0.21571643266E+03 -0.17107791493E+04  0.17536075306E+04  0.50400001928E-02 0.  1.
</event>
<event>
 5   0  0.5946359E-03  0.1113890E+04  0.7818609E-02  0.9191759E-01
        2   -1    0    0  501    0  0.00000000000E+00  0.00000000000E+00  0.41322546929E+03  0.41322546930E+03  0.25500000920E-02 0.  1.
       -2   -1    0    0    0  501  0.00000000000E+00  0.00000000000E+00 -0.75064963966E+03  0.75064963966E+03  0.25500000920E-02 0. -1.
    10030    2    1    2    0    0  0.00000000000E+00  0.00000000000E+00 -0.33742417037E+03  0.11638751090E+04  0.11138896707E+04 0.  0.
        4    1    3    3  502    0 -0.21572525415E+03  0.22183417180E+03  0.31514291257E+03  0.44166101627E+03  0.12699999809E+01 0.  1.
       -4    1    3    3    0  502  0.21572525415E+03 -0.22183417180E+03 -0.65256708293E+03  0.72221409269E+03  0.12699999809E+01 0. -1.
</event>
<event>
 5   0  0.5627232E-03  0.1123510E+04  0.7818609E-02  0.9182576E-01
        2   -1    0    0  501    0  0.00000000000E+00  0.00000000000E+00  0.65999586942E+03  0.65999586942E+03  0.25500000920E-02 0.  1.
       -2   -1    0    0    0  501  0.00000000000E+00  0.00000000000E+00 -0.47813719035E+03  0.47813719035E+03  0.25500000920E-02 0. -1.
    10030    2    1    2    0    0  0.00000000000E+00  0.00000000000E+00  0.18185867907E+03  0.11381330598E+04  0.11235098053E+04 0.  0.
        2    1    3    3  502    0 -0.40072801889E+03 -0.33236974339E+03 -0.12280491807E+03  0.53491460940E+03  0.25500000920E-02 0. -1.
       -2    1    3    3    0  502  0.40072801889E+03  0.33236974339E+03  0.30466359714E+03  0.60321845037E+03  0.25500000920E-02 0.  1.
</event>
<event>
 5   0  0.5627232E-03  0.1114324E+04  0.7818609E-02  0.9191342E-01
       -2   -1    0    0    0  501  0.00000000000E+00  0.00000000000E+00  0.16185064049E+03  0.16185064051E+03  0.25500000920E-02 0.  1.
        2   -1    0    0  501    0  0.00000000000E+00  0.00000000000E+00 -0.19180007577E+04  0.19180007578E+04  0.25500000920E-02 0. -1.
    10030    2    1    2    0    0  0.00000000000E+00  0.00000000000E+00 -0.17561501173E+04  0.20798513983E+04  0.11143242816E+04 0.  0.
        2    1    3    3  502    0  0.25958407915E+03 -0.49208468050E+03 -0.93402007785E+03  0.10871636182E+04  0.25500000920E-02 0. -1.
       -2    1    3    3    0  502 -0.25958407915E+03  0.49208468050E+03 -0.82213003941E+03  0.99268778005E+03  0.25500000920E-02 0.  1.
</event>
<event>
 5   0  0.5723194E-03  0.1114142E+04  0.7818609E-02  0.9191517E-01
       -2   -1    0    0    0  501  0.00000000000E+00  0.00000000000E+00  0.36836269650E+03  0.36836269651E+03  0.25500000920E-02 0. -1.
        2   -1    0    0  501    0  0.00000000000E+00  0.00000000000E+00 -0.84245225734E+03  0.84245225735E+03  0.25500000920E-02 0.  1.
    10030    2    1    2    0    0  0.00000000000E+00  0.00000000000E+00 -0.47408956084E+03  0.12108149539E+04  0.11141417956E+04 0.  0.
        1    1    3    3  502    0  0.54533144786E+03  0.33900518376E+02 -0.11902969463E+03  0.55919916077E+03  0.50400001928E-02 0. -1.
       -1    1    3    3    0  502 -0.54533144786E+03 -0.33900518376E+02 -0.35505986621E+03  0.65161579308E+03  0.50400001928E-02 0.  1.
</event>
<event>
 5   0  0.5941585E-03  0.1094938E+04  0.7818609E-02  0.9210140E-01
        2   -1    0    0  501    0  0.00000000000E+00  0.00000000000E+00  0.66147389133E+03  0.66147389133E+03  0.25500000920E-02 0.  1.
       -2   -1    0    0    0  501  0.00000000000E+00  0.00000000000E+00 -0.45311293912E+03  0.45311293912E+03  0.25500000920E-02 0. -1.
    10030    2    1    2    0    0  0.00000000000E+00  0.00000000000E+00  0.20836095221E+03  0.11145868305E+04  0.10949381335E+04 0.  0.
        5    1    3    3  502    0  0.52280166431E+03 -0.12648273372E+03  0.46577953261E+00  0.53790498146E+03  0.46999998093E+01 0. -1.
       -5    1    3    3    0  502 -0.52280166431E+03  0.12648273372E+03  0.20789517268E+03  0.57668184899E+03  0.46999998093E+01 0.  1.
</event>
<event>
 5   0  0.3320192E-03  0.1115397E+04  0.7818609E-02  0.9190314E-01
       -1   -1    0    0    0  501  0.00000000000E+00  0.00000000000E+00  0.33415343723E+03  0.33415343727E+03  0.50400001928E-02 0.  1.
        1   -1    0    0  501    0  0.00000000000E+00  0.00000000000E+00 -0.93079211590E+03  0.93079211591E+03  0.50400001928E-02 0. -1.
    10030    2    1    2    0    0  0.00000000000E+00  0.00000000000E+00 -0.59663867867E+03  0.12649455532E+04  0.11153965840E+04 0.  0.
        2    1    3    3  502    0  0.27809005027E+03  0.10051446130E+03 -0.83457125677E+03  0.88540748563E+03  0.25500000920E-02 0. -1.
       -2    1    3    3    0  502 -0.27809005027E+03 -0.10051446130E+03  0.23793257810E+03  0.37953806755E+03  0.25500000920E-02 0.  1.
</event>
<event>
 5   0  0.3328741E-03  0.1048974E+04  0.7818609E-02  0.9256404E-01
       -1   -1    0    0    0  501  0.00000000000E+00  0.00000000000E+00  0.71424489090E+03  0.71424489092E+03  0.50400001928E-02 0. -1.
        1   -1    0    0  501    0  0.00000000000E+00  0.00000000000E+00 -0.38514323468E+03  0.38514323471E+03  0.50400001928E-02 0.  1.
    10030    2    1    2    0    0  0.00000000000E+00  0.00000000000E+00  0.32910165623E+03  0.10993881256E+04  0.10489739514E+04 0.  0.
        3    1    3    3  502    0  0.51372598519E+03  0.10528048204E+03  0.15470744214E+03  0.54674744683E+03  0.10100000352E+00 0.  1.
       -3    1    3    3    0  502 -0.51372598519E+03 -0.10528048204E+03  0.17439421408E+03  0.55264067880E+03  0.10100000352E+00 0. -1.
</event>
<event>
 5   0  0.3215352E-03  0.1107841E+04  0.7818609E-02  0.9197583E-01
       -1   -1    0    0    0  501  0.00000000000E+00  0.00000000000E+00  0.12643788133E+04  0.12643788133E+04  0.50400001928E-02 0.  1.
        1   -1    0    0  501    0  0.00000000000E+00  0.00000000000E+00 -0.24267091385E+03  0.24267091391E+03  0.50400001928E-02 0. -1.
    10030    2    1    2    0    0  0.00000000000E+00  0.00000000000E+00  0.10217078994E+04  0.15070497272E+04  0.11078410755E+04 0.  0.
        1    1    3    3  502    0 -0.33211147457E+03  0.29228665674E+03  0.57430370013E+02  0.44612528361E+03  0.50400001928E-02 0. -1.
       -1    1    3    3    0  502  0.33211147457E+03 -0.29228665674E+03  0.96427752941E+03  0.10609244436E+04  0.50400001928E-02 0.  1.
</event>
<event>
 5   0  0.3320192E-03  0.1101970E+04  0.7818609E-02  0.9203274E-01
       -1   -1    0    0    0  501  0.00000000000E+00  0.00000000000E+00  0.35543380355E+03  0.35543380359E+03  0.50400001928E-02 0.  1.
        1   -1    0    0  501    0  0.00000000000E+00  0.00000000000E+00 -0.85412391242E+03  0.85412391244E+03  0.50400001928E-02 0. -1.
    10030    2    1    2    0    0  0.00000000000E+00  0.00000000000E+00 -0.49869010887E+03  0.12095577160E+04  0.11019700739E+04 0.  0.
        2    1    3    3  502    0 -0.77032942607E+02  0.53537727260E+03 -0.36457871758E+03  0.65228869343E+03  0.25500000920E-02 0. -1.
       -2    1    3    3    0  502  0.77032942607E+02 -0.53537727260E+03 -0.13411139129E+03  0.55726902259E+03  0.25500000920E-02 0.  1.
</event>
<event>
 5   0  0.5500363E-03  0.1087927E+04  0.7818609E-02  0.9217039E-01
       -2   -1    0    0    0  501  0.00000000000E+00  0.00000000000E+00  0.21086883983E+03  0.21086883985E+03  0.25500000920E-02 0.  1.
        2   -1    0    0  501    0  0.00000000000E+00  0.00000000000E+00 -0.14032245144E+04  0.14032245144E+04  0.25500000920E-02 0. -1.
    10030    2    1    2    0    0  0.00000000000E+00  0.00000000000E+00 -0.11923556746E+04  0.16140933543E+04  0.10879270663E+04 0.  0.
        3    1    3    3  502    0 -0.30320859360E+03 -0.14590295678E+03 -0.12302902807E+04  0.12754753267E+04  0.10100000352E+00 0. -1.
       -3    1    3    3    0  502  0.30320859360E+03  0.14590295678E+03  0.37934606150E+02  0.33861802754E+03  0.10100000352E+00 0.  1.
</event>
<event>
 5   0  0.3320192E-03  0.1083300E+04  0.7818609E-02  0.9221623E-01
        1   -1    0    0  501    0  0.00000000000E+00  0.00000000000E+00  0.90199078869E+03  0.90199078870E+03  0.50400001928E-02 0. -1.
       -1   -1    0    0    0  501  0.00000000000E+00  0.00000000000E+00 -0.32526376229E+03  0.32526376233E+03  0.50400001928E-02 0.  1.
    10030    2    1    2    0    0  0.00000000000E+00  0.00000000000E+00  0.57672702640E+03  0.12272545510E+04  0.10833003600E+04 0.  0.
        2    1    3    3  502    0 -0.50780076675E+03 -0.17341224205E+03  0.37200918957E+03  0.65293511280E+03  0.25500000920E-02 0. -1.
       -2    1    3    3    0  502  0.50780076675E+03  0.17341224205E+03  0.20471783684E+03  0.57431943823E+03  0.25500000920E-02 0.  1.
</event>
<event>
 5   0  0.5941585E-03  0.1114812E+04  0.7818609E-02  0.9190874E-01
        2   -1    0    0  501    0  0.00000000000E+00  0.00000000000E+00  0.16796885521E+04  0.16796885521E+04  0.25500000920E-02 0.  1.
       -2   -1    0    0    0  501  0.00000000000E+00  0.00000000000E+00 -0.18497562881E+03  0.18497562883E+03  0.25500000920E-02 0. -1.
    10030    2    1    2    0    0  0.00000000000E+00  0.00000000000E+00  0.14947129233E+04  0.18646641809E+04  0.11148119952E+04 0.  0.
        5    1    3    3  502    0 -0.30479717761E+03  0.14520799166E+03  0.14891671552E+04  0.15269667929E+04  0.46999998093E+01 0.  1.
       -5    1    3    3    0  502  0.30479717761E+03 -0.14520799166E+03  0.55457680005E+01  0.33769738800E+03  0.46999998093E+01 0. -1.
</event>
<event>
 5   0  0.5723194E-03  0.1113486E+04  0.7818609E-02  0.9192146E-01
        2   -1    0    0  501    0  0.00000000000E+00  0.00000000000E+00  0.95748528040E+03  0.95748528041E+03  0.25500000920E-02 0.  1.
       -2   -1    0    0    0  501  0.00000000000E+00  0.00000000000E+00 -0.32372597122E+03  0.32372597123E+03  0.25500000920E-02 0. -1.
    10030    2    1    2    0    0  0.00000000000E+00  0.00000000000E+00  0.63375930919E+03  0.12812112516E+04  0.11134861514E+04 0.  0.
        1    1    3    3  502    0  0.44726528265E+03 -0.29506722723E+03  0.14294041674E+03  0.55456547351E+03  0.50400001928E-02 0. -1.
       -1    1    3    3    0  502 -0.44726528265E+03  0.29506722723E+03  0.49081889245E+03  0.72664577812E+03  0.50400001928E-02 0.  1.
</event>
<event>
 5   0  0.3241189E-03  0.1102030E+04  0.7818609E-02  0.9203216E-01
       -1   -1    0    0    0  501  0.00000000000E+00  0.00000000000E+00  0.39948637350E+03  0.39948637353E+03  0.50400001928E-02 0. -1.
        1   -1    0    0  501    0  0.00000000000E+00  0.00000000000E+00 -0.76001929863E+03  0.76001929865E+03  0.50400001928E-02 0.  1.
    10030    2    1    2    0    0  0.00000000000E+00  0.00000000000E+00 -0.36053292513E+03  0.11595056722E+04  0.11020296791E+04 0.  0.
        5    1    3    3  502    0  0.28059679110E+03  0.47153613689E+03 -0.23302523550E+03  0.59615747747E+03  0.46999998093E+01 0. -1.
       -5    1    3    3    0  502 -0.28059679110E+03 -0.47153613689E+03 -0.12750768963E+03  0.56334819471E+03  0.46999998093E+01 0.  1.
</event>
<event>
 5   0  0.3328741E-03  0.1107556E+04  0.7818609E-02  0.9197858E-01
       -1   -1    0    0    0  501  0.00000000000E+00  0.00000000000E+00  0.45881030086E+03  0.45881030089E+03  0.50400001928E-02 0.  1.
        1   -1    0    0  501    0  0.00000000000E+00  0.00000000000E+00 -0.66840282391E+03  0.66840282392E+03  0.50400001928E-02 0. -1.
    10030    2    1    2    0    0  0.00000000000E+00  0.00000000000E+00 -0.20959252305E+03  0.11272131248E+04  0.11075560496E+04 0.  0.
        3    1    3    3  502    0 -0.17847841957E+03  0.67056695282E+02 -0.63394597380E+03  0.66199596262E+03  0.10100000352E+00 0. -1.
       -3    1    3    3    0  502  0.17847841957E+03 -0.67056695282E+02  0.42435345075E+03  0.46521716219E+03  0.10100000352E+00 0.  1.
</event>
<event>
 5   0  0.3316784E-03  0.1090926E+04  0.7818609E-02  0.9214081E-01
       -1   -1    0    0    0  501  0.00000000000E+00  0.00000000000E+00  0.44649291715E+03  0.44649291718E+03  0.50400001928E-02 0. -1.
        1   -1    0    0  501    0  0.00000000000E+00  0.00000000000E+00 -0.66637123907E+03  0.66637123909E+03  0.50400001928E-02 0.  1.
    10030    2    1    2    0    0  0.00000000000E+00  0.00000000000E+00 -0.21987832192E+03  0.11128641563E+04  0.10909262825E+04 0.  0.
        4    1    3    3  502    0  0.17467847240E+03  0.37657215159E+03  0.25102575624E+03  0.48511307679E+03  0.12699999809E+01 0. -1.
       -4    1    3    3    0  502 -0.17467847240E+03 -0.37657215159E+03 -0.47090407816E+03  0.62775107949E+03  0.12699999809E+01 0.  1.
</event>
<event>
 5   0  0.3241189E-03  0.1097035E+04  0.7818609E-02  0.9208087E-01
        1   -1    0    0  501    0  0.00000000000E+00  0.00000000000E+00  0.10638541901E+04  0.10638541901E+04  0.50400001928E-02 0. -1.
       -1   -1    0    0    0  501  0.00000000000E+00  0.00000000000E+00 -0.28281245208E+03  0.28281245213E+03  0.50400001928E-02 0.  1.
    10030    2    1    2    0    0  0.00000000000E+00  0.00000000000E+00  0.78104173799E+03  0.13466666422E+04  0.10970345705E+04 0.  0.
        5    1    3    3  502    0 -0.64904063092E+01  0.24578058897E+03 -0.21135374512E+03  0.32425718012E+03  0.46999998093E+01 0.  1.
       -5    1    3    3    0  502  0.64904063092E+01 -0.24578058897E+03  0.99239548311E+03  0.10224094621E+04  0.46999998093E+01 0. -1.
</event>
<event>
 5   0  0.5627232E-03  0.1105104E+04  0.7818609E-02  0.9200231E-01
        2   -1    0    0  501    0  0.00000000000E+00  0.00000000000E+00  0.14168385073E+04  0.14168385073E+04  0.25500000920E-02 0. -1.
       -2   -1    0    0    0  501  0.00000000000E+00  0.00000000000E+00 -0.21548956251E+03  0.21548956252E+03  0.25500000920E-02 0.  1.
    10030    2    1    2    0    0  0.00000000000E+00  0.00000000000E+00  0.12013489448E+04  0.16323280698E+04  0.11051043572E+04 0.  0.
        2    1    3    3  502    0 -0.12139230002E+03  0.13236083044E+03  0.13725227728E+04  0.13842233352E+04  0.25500000920E-02 0. -1.
       -2    1    3    3    0  502  0.12139230002E+03 -0.13236083044E+03 -0.17117382800E+03  0.24810473461E+03  0.25500000920E-02 0.  1.
</event>
<event>
 5   0  0.3320192E-03  0.1104400E+04  0.7818609E-02  0.9200914E-01
        1   -1    0    0  501    0  0.00000000000E+00  0.00000000000E+00  0.81158943960E+03  0.81158943961E+03  0.50400001928E-02 0. -1.
       -1   -1    0    0    0  501  0.00000000000E+00  0.00000000000E+00 -0.37571311938E+03  0.37571311941E+03  0.50400001928E-02 0.  1.
    10030    2    1    2    0    0  0.00000000000E+00  0.00000000000E+00  0.43587632022E+03  0.11873025590E+04  0.11043999276E+04 0.  0.
        2    1    3    3  502    0 -0.86743062370E+02 -0.46253271997E+03  0.52852598987E+03  0.70767266295E+03  0.25500000920E-02 0. -1.
       -2    1    3    3    0  502  0.86743062370E+02  0.46253271997E+03 -0.92649669655E+02  0.47962989607E+03  0.25500000920E-02 0.  1.
</event>
<event>
 5   0  0.5941585E-03  0.1089730E+04  0.7818609E-02  0.9215260E-01
       -2   -1    0    0    0  501  0.00000000000E+00  0.00000000000E+00  0.49254000710E+03  0.49254000711E+03  0.25500000920E-02 0.  1.
        2   -1    0    0  501    0  0.00000000000E+00  0.00000000000E+00 -0.60274888639E+03  0.60274888640E+03  0.25500000920E-02 0. -1.
    10030    2    1    2    0    0  0.00000000000E+00  0.00000000000E+00 -0.11020887929E+03  0.10952888935E+04  0.10897301332E+04 0.  0.
        5    1    3    3  502    0  0.40759635344E+03  0.30587241545E+03 -0.24886521320E+03  0.56714081692E+03  0.46999998093E+01 0.  1.
       -5    1    3    3    0  502 -0.40759635344E+03 -0.30587241545E+03  0.13865633391E+03  0.52814807659E+03  0.46999998093E+01 0. -1.
</event>
<event>
 5   0  0.3215352E-03  0.1092592E+04  0.7818609E-02  0.9212443E-01
       -1   -1    0    0    0  501  0.00000000000E+00  0.00000000000E+00  0.31515745763E+03  0.31515745767E+03  0.50400001928E-02 0.  1.
        1   -1    0    0  501    0  0.00000000000E+00  0.00000000000E+00 -0.94695249427E+03  0.94695249428E+03  0.50400001928E-02 0. -1.
    10030    2    1    2    0    0  0.00000000000E+00  0.00000000000E+00 -0.63179503664E+03  0.12621099520E+04  0.10925916723E+04 0.  0.
        1    1    3    3  502    0 -0.40374536974E+03 -0.34762505154E+03 -0.17638857203E+03  0.56121869927E+03  0.50400001928E-02 0. -1.
       -1    1    3    3    0  502  0.40374536974E+03  0.34762505154E+03 -0.45540646461E+03  0.70089125268E+03  0.50400001928E-02 0.  1.
</event>
<event>
 5   0  0.5500363E-03  0.1099719E+04  0.7818609E-02  0.9205466E-01
       -2   -1    0    0    0  501  0.00000000000E+00  0.00000000000E+00  0.26530647359E+03  0.26530647360E+03  0.25500000920E-02 0. -1.
        2   -1    0    0  501    0  0.00000000000E+00  0.00000000000E+00 -0.11396074718E+04  0.11396074718E+04  0.25500000920E-02 0.  1.
    10030    2    1    2    0    0  0.00000000000E+00  0.00000000000E+00 -0.87430099826E+03  0.14049139454E+04  0.10997185815E+04 0.  0.
        3    1    3    3  502    0  0.42121043754E+03 -0.35344275649E+03 -0.44006779069E+03  0.70427245113E+03  0.10100000352E+00 0.  1.
       -3    1    3    3    0  502 -0.42121043754E+03  0.35344275649E+03 -0.43423320756E+03  0.70064149432E+03  0.10100000352E+00 0. -1.
</event>
<event>
 5   0  0.5941585E-03  0.1096025E+04  0.7818609E-02  0.9209075E-01
        2   -1    0    0  501    0  0.00000000000E+00  0.00000000000E+00  0.94871456524E+03  0.94871456525E+03  0.25500000920E-02 0. -1.
       -2   -1    0    0    0  501  0.00000000000E+00  0.00000000000E+00 -0.31655199598E+03  0.31655199599E+03  0.25500000920E-02 0.  1.
    10030    2    1    2    0    0  0.00000000000E+00  0.00000000000E+00  0.63216256926E+03  0.12652665612E+04  0.10960246151E+04 0.  0.
        5    1    3    3  502    0 -0.16943577344E+02 -0.15574104704E+03  0.92228958381E+03  0.93551190530E+03  0.46999998093E+01 0. -1.
       -5    1    3    3    0  502  0.16943577344E+02  0.15574104704E+03 -0.29012701455E+03  0.32975465594E+03  0.46999998093E+01 0.  1.
</event>
<event>
 5   0  0.5941585E-03  0.1057401E+04  0.7818609E-02  0.9247736E-01
       -2   -1    0    0    0  501  0.00000000000E+00  0.00000000000E+00  0.42245397594E+03  0.42245397595E+03  0.25500000920E-02 0.  1.
        2   -1    0    0  501    0  0.00000000000E+00  0.00000000000E+00 -0.66166804004E+03  0.66166804004E+03  0.25500000920E-02 0. -1.
    10030    2    1    2    0    0  0.00000000000E+00  0.00000000000E+00 -0.23921406409E+03  0.10841220160E+04  0.10574011429E+04 0.  0.
        5    1    3    3  502    0 -0.44253932069E+03 -0.27455941902E+03 -0.21289130420E+03  0.56264440131E+03  0.46999998093E+01 0.  1.
       -5    1    3    3    0  502  0.44253932069E+03  0.27455941902E+03 -0.26322759895E+02  0.52147761468E+03  0.46999998093E+01 0. -1.
</event>
<event>
 5   0  0.5500363E-03  0.1095562E+04  0.7818609E-02  0.9209528E-01
       -2   -1    0    0    0  501  0.00000000000E+00  0.00000000000E+00  0.65610050924E+03  0.65610050925E+03  0.25500000920E-02 0. -1.
        2   -1    0    0  501    0  0.00000000000E+00  0.00000000000E+00 -0.45734478555E+03  0.45734478556E+03  0.25500000920E-02 0.  1.
    10030    2    1    2    0    0  0.00000000000E+00  0.00000000000E+00  0.19875572369E+03  0.11134452948E+04  0.10955622241E+04 0.  0.
        3    1    3    3  502    0  0.11404988427E+03  0.45165364139E+03 -0.19353795756E+03  0.50443566398E+03  0.10100000352E+00 0.  1.
       -3    1    3    3    0  502 -0.11404988427E+03 -0.45165364139E+03  0.39229368125E+03  0.60900963082E+03  0.10100000352E+00 0. -1.
</event>
<event>
 5   0  0.3215352E-03  0.1118593E+04  0.7818609E-02  0.9187257E-01
        1   -1    0    0  501    0  0.00000000000E+00  0.00000000000E+00  0.15213232820E+04  0.15213232820E+04  0.50400001928E-02 0. -1.
       -1   -1    0    0    0  501  0.00000000000E+00  0.00000000000E+00 -0.20561864041E+03  0.20561864048E+03  0.50400001928E-02 0.  1.
    10030    2    1    2    0    0  0.00000000000E+00  0.00000000000E+00  0.13157046416E+04  0.17269419225E+04  0.11185927318E+04 0.  0.
        1    1    3    3  502    0  0.76244566729E+02  0.54517055077E+03  0.50511030374E+03  0.74710145386E+03  0.50400001928E-02 0.  1.
       -1    1    3    3    0  502 -0.76244566729E+02 -0.54517055077E+03  0.81059433782E+03  0.97984046860E+03  0.50400001928E-02 0. -1.
</event>
<event>
 5   0  0.3316784E-03  0.1102774E+04  0.7818609E-02  0.9202492E-01
       -1   -1    0    0    0  501  0.00000000000E+00  0.00000000000E+00  0.50573183597E+03  0.50573183599E+03  0.50400001928E-02 0.  1.
        1   -1    0    0  501    0  0.00000000000E+00  0.00000000000E+00 -0.60116396910E+03  0.60116396912E+03  0.50400001928E-02 0. -1.
    10030    2    1    2    0    0  0.00000000000E+00  0.00000000000E+00 -0.95432133130E+02  0.11068958051E+04  0.11027742431E+04 0.  0.
        4    1    3    3  502    0 -0.25833618866E+03  0.46746544467E+03  0.89779905354E+02  0.54159354930E+03  0.12699999809E+01 0. -1.
       -4    1    3    3    0  502  0.25833618866E+03 -0.46746544467E+03 -0.18521203848E+03  0.56530225582E+03  0.12699999809E+01 0.  1.
</event>
<event>
 5   0  0.3241189E-03  0.1100298E+04  0.7818609E-02  0.9204902E-01
        1   -1    0    0  501    0  0.00000000000E+00  0.00000000000E+00  0.62830272030E+03  0.62830272032E+03  0.50400001928E-02 0.  1.
       -1   -1    0    0    0  501  0.00000000000E+00  0.00000000000E+00 -0.48171663215E+03  0.48171663218E+03  0.50400001928E-02 0. -1.
    10030    2    1    2    0    0  0.00000000000E+00  0.00000000000E+00  0.14658608814E+03  0.11100193525E+04  0.11002979059E+04 0.  0.
        5    1    3    3  502    0 -0.33222189744E+03 -0.43553927514E+03  0.12449509825E+03  0.56177127803E+03  0.46999998093E+01 0. -1.
       -5    1    3    3    0  502  0.33222189744E+03  0.43553927514E+03  0.22090989896E+02  0.54824807447E+03  0.46999998093E+01 0.  1.
</event>
<event>
 5   0  0.5627232E-03  0.1096652E+04  0.7818609E-02  0.9208461E-01
       -2   -1    0    0    0  501  0.00000000000E+00  0.00000000000E+00  0.28952146447E+03  0.28952146448E+03  0.25500000920E-02 0. -1.
        2   -1    0    0  501    0  0.00000000000E+00  0.00000000000E+00 -0.10384771236E+04  0.10384771236E+04  0.25500000920E-02 0.  1.
    10030    2    1    2    0    0  0.00000000000E+00  0.00000000000E+00 -0.74895565917E+03  0.13279985881E+04  0.10966520281E+04 0.  0.
        2    1    3    3  502    0 -0.37967210571E+03  0.37030485065E+03 -0.20587698873E+03  0.56891293250E+03  0.25500000920E-02 0. -1.
       -2    1    3    3    0  502  0.37967210571E+03 -0.37030485065E+03 -0.54307867044E+03  0.75908565562E+03  0.25500000920E-02 0.  1.
</event>
<event>
 5   0  0.3328741E-03  0.1099976E+04  0.7818609E-02  0.9205216E-01
        1   -1    0    0  501    0  0.00000000000E+00  0.00000000000E+00  0.44345259985E+03  0.44345259988E+03  0.50400001928E-02 0.  1.
       -1   -1    0    0    0  501  0.00000000000E+00  0.00000000000E+00 -0.68211701095E+03  0.68211701097E+03  0.50400001928E-02 0. -1.
    10030    2    1    2    0    0  0.00000000000E+00  0.00000000000E+00 -0.23866441110E+03  0.11255696108E+04  0.10999755669E+04 0.  0.
        3    1    3    3  502    0  0.51958024963E+03  0.11554856199E+03  0.22350471142E+02  0.53274258300E+03  0.10100000352E+00 0.  1.
       -3    1    3    3    0  502 -0.51958024963E+03 -0.11554856199E+03 -0.26101488224E+03  0.59282702784E+03  0.10100000352E+00 0. -1.
</event>
<event>
 5   0  0.3316784E-03  0.1204540E+04  0.7818609E-02  0.9108892E-01
       -1   -1    0    0    0  501  0.00000000000E+00  0.00000000000E+00  0.83157498483E+03  0.83157498484E+03  0.50400001928E-02 0. -1.
        1   -1    0    0  501    0  0.00000000000E+00  0.00000000000E+00 -0.43619550764E+03  0.43619550767E+03  0.50400001928E-02 0.  1.
    10030    2    1    2    0    0  0.00000000000E+00  0.00000000000E+00  0.39537947719E+03  0.12677704925E+04  0.12045401989E+04 0.  0.
        4    1    3    3  502    0 -0.27352656352E+03 -0.44289409137E+01  0.76241027816E+03  0.81000459357E+03  0.12699999809E+01 0. -1.
       -4    1    3    3    0  502  0.27352656352E+03  0.44289409137E+01 -0.36703080097E+03  0.45776589894E+03  0.12699999809E+01 0.  1.
</event>
<event>
 5   0  0.5946359E-03  0.1096471E+04  0.7818609E-02  0.9208638E-01
       -2   -1    0    0    0  501  0.00000000000E+00  0.00000000000E+00  0.19518467764E+03  0.19518467766E+03  0.25500000920E-02 0. -1.
        2   -1    0    0  501    0  0.00000000000E+00  0.00000000000E+00 -0.15398868464E+04  0.15398868464E+04  0.25500000920E-02 0.  1.
    10030    2    1    2    0    0  0.00000000000E+00  0.00000000000E+00 -0.13447021688E+04  0.17350715241E+04  0.10964712814E+04 0.  0.
        4    1    3    3  502    0 -0.45026436242E+03  0.31115985540E+03 -0.62225441680E+03  0.82871021703E+03  0.12699999809E+01 0. -1.
       -4    1    3    3    0  502  0.45026436242E+03 -0.31115985540E+03 -0.72244775197E+03  0.90636130704E+03  0.12699999809E+01 0.  1.
</event>
<event>
 5   0  0.3316784E-03  0.1116724E+04  0.7818609E-02  0.9189043E-01
       -1   -1    0    0    0  501  0.00000000000E+00  0.00000000000E+00  0.38828634195E+03  0.38828634199E+03  0.50400001928E-02 0.  1.
        1   -1    0    0  501    0  0.00000000000E+00  0.00000000000E+00 -0.80293370924E+03  0.80293370926E+03  0.50400001928E-02 0. -1.
    10030    2    1    2    0    0  0.00000000000E+00  0.00000000000E+00 -0.41464736729E+03  0.11912200512E+04  0.11167241250E+04 0.  0.
        4    1    3    3  502    0 -0.28409906749E+03 -0.19708698163E+02  0.30499213265E+03  0.41727991422E+03  0.12699999809E+01 0.  1.
       -4    1    3    3    0  502  0.28409906749E+03  0.19708698163E+02 -0.71963949994E+03  0.77394013703E+03  0.12699999809E+01 0. -1.
</event>
<event>
 5   0  0.3316784E-03  0.1117016E+04  0.7818609E-02  0.9188764E-01
       -1   -1    0    0    0  501  0.00000000000E+00  0.00000000000E+00  0.70975043034E+03  0.70975043036E+03  0.50400001928E-02 0. -1.
        1   -1    0    0  501    0  0.00000000000E+00  0.00000000000E+00 -0.43949428142E+03  0.43949428145E+03  0.50400001928E-02 0.  1.
    10030    2    1    2    0    0  0.00000000000E+00  0.00000000000E+00  0.27025614893E+03  0.11492447118E+04  0.11170161241E+04 0.  0.
        4    1    3    3  502    0  0.26972084692E+03  0.64186728192E+02  0.63394683697E+03  0.69192447301E+03  0.12699999809E+01 0. -1.
       -4    1    3    3    0  502 -0.26972084692E+03 -0.64186728192E+02 -0.36369068805E+03  0.45732023880E+03  0.12699999809E+01 0.  1.
</event>
<event>
 5   0  0.3215352E-03  0.1140907E+04  0.7818609E-02  0.9166213E-01
       -1   -1    0    0    0  501  0.00000000000E+00  0.00000000000E+00  0.52717931502E+03  0.52717931504E+03  0.50400001928E-02 0. -1.
        1   -1    0    0  501    0  0.00000000000E+00  0.00000000000E+00 -0.61728028343E+03  0.61728028345E+03  0.50400001928E-02 0.  1.
    10030    2    1    2    0    0  0.00000000000E+00  0.00000000000E+00 -0.90100968413E+02  0.11444595985E+04  0.11409073530E+04 0.  0.
        1    1    3    3  502    0 -0.48384215896E+03  0.54225036348E+02 -0.34325338956E+03  0.59570670537E+03  0.50400001928E-02 0.  1.
       -1    1    3    3    0  502  0.48384215896E+03 -0.54225036348E+02  0.25315242115E+03  0.54875289312E+03  0.50400001928E-02 0. -1.
</event>
<event>
 5   0  0.5723194E-03  0.1108149E+04  0.7818609E-02  0.9197285E-01
        2   -1    0    0  501    0  0.00000000000E+00  0.00000000000E+00  0.40846649088E+03  0.40846649089E+03  0.25500000920E-02 0. -1.
       -2   -1    0    0    0  501  0.00000000000E+00  0.00000000000E+00 -0.75158853236E+03  0.75158853236E+03  0.25500000920E-02 0.  1.
    10030    2    1    2    0    0  0.00000000000E+00  0.00000000000E+00 -0.34312204148E+03  0.11600550233E+04  0.11081493228E+04 0.  0.
        1    1    3    3  502    0  0.15405344570E+03  0.19840812679E+03  0.34543432387E+03  0.42711019777E+03  0.50400001928E-02 0. -1.
       -1    1    3    3    0  502 -0.15405344570E+03 -0.19840812679E+03 -0.68855636535E+03  0.73294482548E+03  0.50400001928E-02 0.  1.
</event>
<event>
 5   0  0.3328741E-03  0.1056215E+04  0.7818609E-02  0.9248950E-01
        1   -1    0    0  501    0  0.00000000000E+00  0.00000000000E+00  0.17601468713E+04  0.17601468713E+04  0.50400001928E-02 0.  1.
       -1   -1    0    0    0  501  0.00000000000E+00  0.00000000000E+00 -0.15845139884E+03  0.15845139892E+03  0.50400001928E-02 0. -1.
    10030    2    1    2    0    0  0.00000000000E+00  0.00000000000E+00  0.16016954725E+04  0.19185982702E+04  0.10562153833E+04 0.  0.
        3    1    3    3  502    0 -0.29571591313E+03  0.41414514885E+03  0.54438478955E+03  0.74519723221E+03  0.10100000352E+00 0. -1.
       -3    1    3    3    0  502  0.29571591313E+03 -0.41414514885E+03  0.10573106829E+04  0.11734010380E+04  0.10100000352E+00 0.  1.
</event>
<event>
 5   0  0.5627232E-03  0.1034661E+04  0.7818609E-02  0.9271326E-01
       -2   -1    0    0    0  501  0.00000000000E+00  0.00000000000E+00  0.25502486785E+03  0.25502486786E+03  0.25500000920E-02 0. -1.
        2   -1    0    0  501    0  0.00000000000E+00  0.00000000000E+00 -0.10494298475E+04  0.10494298475E+04  0.25500000920E-02 0.  1.
    10030    2    1    2    0    0  0.00000000000E+00  0.00000000000E+00 -0.79440497964E+03  0.13044547153E+04  0.10346607331E+04 0.  0.
        2    1    3    3  502    0 -0.19611406488E+03 -0.82255850161E+02 -0.99177153438E+03  0.10143162859E+04  0.25500000920E-02 0.  1.
       -2    1    3    3    0  502  0.19611406488E+03  0.82255850161E+02  0.19736655475E+03  0.29013842949E+03  0.25500000920E-02 0. -1.
</event>
<event>
 5   0  0.5500363E-03  0.1093587E+04  0.7818609E-02  0.9211465E-01
       -2   -1    0    0    0  501  0.00000000000E+00  0.00000000000E+00  0.38664867039E+03  0.38664867040E+03  0.25500000920E-02 0.  1.
        2   -1    0    0  501    0  0.00000000000E+00  0.00000000000E+00 -0.77326885495E+03  0.77326885496E+03  0.25500000920E-02 0. -1.
    10030    2    1    2    0    0  0.00000000000E+00  0.00000000000E+00 -0.38662018456E+03  0.11599175254E+04  0.10935874444E+04 0.  0.
        3    1    3    3  502    0  0.22603765733E+03 -0.77852428012E+02  0.32827850851E+03  0.40610443538E+03  0.10100000352E+00 0.  1.
       -3    1    3    3    0  502 -0.22603765733E+03  0.77852428012E+02 -0.71489869307E+03  0.75381308999E+03  0.10100000352E+00 0. -1.
</event>
<event>
 5   0  0.2185750E-03  0.1098473E+04  0.7818609E-02  0.9206682E-01
       -3   -1    0    0    0  501  0.00000000000E+00  0.00000000000E+00  0.54287271190E+03  0.54287272129E+03  0.10100000352E+00 0.  1.
        3   -1    0    0  501    0  0.00000000000E+00  0.00000000000E+00 -0.55567437719E+03  0.55567438637E+03  0.10100000352E+00 0. -1.
    10030    2    1    2    0    0  0.00000000000E+00  0.00000000000E+00 -0.12801665291E+02  0.10985471077E+04  0.10984725145E+04 0.  0.
        1    1    3    3  502    0 -0.35340268687E+03  0.19589887258E+03  0.36563335222E+03  0.54493813928E+03  0.50400001928E-02 0.  1.
       -1    1    3    3    0  502  0.35340268687E+03 -0.19589887258E+03 -0.37843501751E+03  0.55360896838E+03  0.50400001928E-02 0. -1.
</event>
<event>
 5   0  0.3241189E-03  0.1112899E+04  0.7818609E-02  0.9192710E-01
        1   -1    0    0  501    0  0.00000000000E+00  0.00000000000E+00  0.55827603867E+03  0.55827603870E+03  0.50400001928E-02 0. -1.
       -1   -1    0    0    0  501  0.00000000000E+00  0.00000000000E+00 -0.55462847702E+03  0.55462847705E+03  0.50400001928E-02 0.  1.
    10030    2    1    2    0    0  0.00000000000E+00  0.00000000000E+00  0.36475616499E+01  0.11129045157E+04  0.11128985383E+04 0.  0.
        5    1    3    3  502    0 -0.52415993597E+03  0.18259643704E+03  0.40921328525E+02  0.55658040068E+03  0.46999998093E+01 0. -1.
       -5    1    3    3    0  502  0.52415993597E+03 -0.18259643704E+03 -0.37273766875E+02  0.55632411506E+03  0.46999998093E+01 0.  1.
</event>
<event>
 5   0  0.5946359E-03  0.1088978E+04  0.7818609E-02  0.9216002E-01
       -2   -1    0    0    0  501  0.00000000000E+00  0.00000000000E+00  0.12094390542E+04  0.12094390542E+04  0.25500000920E-02 0. -1.
        2   -1    0    0  501    0  0.00000000000E+00  0.00000000000E+00 -0.24512863199E+03  0.24512863201E+03  0.25500000920E-02 0.  1.
    10030    2    1    2    0    0  0.00000000000E+00  0.00000000000E+00  0.96431042216E+03  0.14545676862E+04  0.10889777607E+04 0.  0.
        4    1    3    3  502    0 -0.13159959548E+03 -0.43365432064E+03  0.79015988122E+02  0.46002137192E+03  0.12699999809E+01 0.  1.
       -4    1    3    3    0  502  0.13159959548E+03  0.43365432064E+03  0.88529443404E+03  0.99454631425E+03  0.12699999809E+01 0. -1.
</event>
<event>
 5   0  0.5946359E-03  0.1100272E+04  0.7818609E-02  0.9204926E-01
       -2   -1    0    0    0  501  0.00000000000E+00  0.00000000000E+00  0.37359499489E+03  0.37359499490E+03  0.25500000920E-02 0.  1.
        2   -1    0    0  501    0  0.00000000000E+00  0.00000000000E+00 -0.81010133076E+03  0.81010133076E+03  0.25500000920E-02 0. -1.
    10030    2    1    2    0    0  0.00000000000E+00  0.00000000000E+00 -0.43650633587E+03  0.11836963257E+04  0.11002723345E+04 0.  0.
        4    1    3    3  502    0  0.54224604607E+03 -0.24455892390E+02 -0.31459369094E+03  0.62737522140E+03  0.12699999809E+01 0. -1.
       -4    1    3    3    0  502 -0.54224604607E+03  0.24455892390E+02 -0.12191264493E+03  0.55632110426E+03  0.12699999809E+01 0.  1.
</event>
<event>
 5   0  0.5627232E-03  0.1050501E+04  0.7818609E-02  0.9254827E-01
        2   -1    0    0  501    0  0.00000000000E+00  0.00000000000E+00  0.10693570441E+04  0.10693570441E+04  0.25500000920E-02 0.  1.
       -2   -1    0    0    0  501  0.00000000000E+00  0.00000000000E+00 -0.25799441624E+03  0.25799441625E+03  0.25500000920E-02 0. -1.
    10030    2    1    2    0    0  0.00000000000E+00  0.00000000000E+00  0.81136262783E+03  0.13273514603E+04  0.10505011116E+04 0.  0.
        2    1    3    3  502    0 -0.61909027837E+02 -0.21338899589E+03  0.10070533428E+04  0.10312730126E+04  0.25500000920E-02 0.  1.
       -2    1    3    3    0  502  0.61909027837E+02  0.21338899589E+03 -0.19569071494E+03  0.29607844774E+03  0.25500000920E-02 0. -1.
</event>
<event>
 5   0  0.3241189E-03  0.1063701E+04  0.7818609E-02  0.9241311E-01
       -1   -1    0    0    0  501  0.00000000000E+00  0.00000000000E+00  0.27196278427E+03  0.27196278432E+03  0.50400001928E-02 0. -1.
        1   -1    0    0  501    0  0.00000000000E+00  0.00000000000E+00 -0.10400876539E+04  0.10400876539E+04  0.50400001928E-02 0.  1.
    10030    2    1    2    0    0  0.00000000000E+00  0.00000000000E+00 -0.76812486963E+03  0.13120504382E+04  0.10637013383E+04 0.  0.
        5    1    3    3  502    0  0.35610530344E+02 -0.83840273996E+02 -0.10303684262E+04  0.10343976436E+04  0.46999998093E+01 0.  1.
       -5    1    3    3    0  502 -0.35610530344E+02  0.83840273996E+02  0.26224355655E+03  0.27765279463E+03  0.46999998093E+01 0. -1.
</event>
<event>
 5   0  0.5500363E-03  0.1098368E+04  0.7818609E-02  0.9206784E-01
       -2   -1    0    0    0  501  0.00000000000E+00  0.00000000000E+00  0.64352366424E+03  0.64352366424E+03  0.25500000920E-02 0. -1.
        2   -1    0    0  501    0  0.00000000000E+00  0.00000000000E+00 -0.46867441581E+03  0.46867441582E+03  0.25500000920E-02 0.  1.
    10030    2    1    2    0    0  0.00000000000E+00  0.00000000000E+00  0.17484924842E+03  0.11121980801E+04  0.10983680210E+04 0.  0.
        3    1    3    3  502    0 -0.21019086451E+03  0.42315221954E+03  0.37088706028E+03  0.60066231953E+03  0.10100000352E+00 0. -1.
       -3    1    3    3    0  502  0.21019086451E+03 -0.42315221954E+03 -0.19603781186E+03  0.51153576053E+03  0.10100000352E+00 0.  1.
</event>
<event>
 5   0  0.2185750E-03  0.1118722E+04  0.7818609E-02  0.9187134E-01
       -3   -1    0    0    0  501  0.00000000000E+00  0.00000000000E+00  0.52687593498E+03  0.52687594466E+03  0.10100000352E+00 0.  1.
        3   -1    0    0  501    0  0.00000000000E+00  0.00000000000E+00 -0.59384930784E+03  0.59384931643E+03  0.10100000352E+00 0. -1.
    10030    2    1    2    0    0  0.00000000000E+00  0.00000000000E+00 -0.66973372866E+02  0.11207252611E+04  0.11187223419E+04 0.  0.
        2    1    3    3  502    0 -0.29934950358E+03 -0.15051760138E+03 -0.48219399815E+03  0.58717691156E+03  0.25500000920E-02 0. -1.
       -2    1    3    3    0  502  0.29934950358E+03  0.15051760138E+03  0.41522062528E+03  0.53354834953E+03  0.25500000920E-02 0.  1.
</event>
<event>
 5   0  0.3328741E-03  0.1109633E+04  0.7818609E-02  0.9195854E-01
        1   -1    0    0  501    0  0.00000000000E+00  0.00000000000E+00  0.71081717157E+03  0.71081717159E+03  0.50400001928E-02 0. -1.
       -1   -1    0    0    0  501  0.00000000000E+00  0.00000000000E+00 -0.43305246800E+03  0.43305246803E+03  0.50400001928E-02 0.  1.
    10030    2    1    2    0    0  0.00000000000E+00  0.00000000000E+00  0.27776470358E+03  0.11438696396E+04  0.11096326067E+04 0.  0.
        3    1    3    3  502    0  0.91877177763E+02 -0.40495774446E+03  0.51818764260E+03  0.66404113859E+03  0.10100000352E+00 0. -1.
       -3    1    3    3    0  502 -0.91877177763E+02  0.40495774446E+03 -0.24042293903E+03  0.47982850103E+03  0.10100000352E+00 0.  1.
</event>
<event>
 5   0  0.2185750E-03  0.1096438E+04  0.7818609E-02  0.9208671E-01
        3   -1    0    0  501    0  0.00000000000E+00  0.00000000000E+00  0.12952325349E+04  0.12952325388E+04  0.10100000352E+00 0. -1.
       -3   -1    0    0    0  501  0.00000000000E+00  0.00000000000E+00 -0.23203848680E+03  0.23203850878E+03  0.10100000352E+00 0.  1.
    10030    2    1    2    0    0  0.00000000000E+00  0.00000000000E+00  0.10631940481E+04  0.15272710476E+04  0.10964375354E+04 0.  0.
        4    1    3    3  502    0 -0.24315220051E+03  0.53987615129E+02  0.12118658317E+04  0.12371976649E+04  0.12699999809E+01 0. -1.
       -4    1    3    3    0  502  0.24315220051E+03 -0.53987615129E+02 -0.14867178360E+03  0.29007338268E+03  0.12699999809E+01 0.  1.
</event>
<event>
 5   0  0.5946359E-03  0.1089748E+04  0.7818609E-02  0.9215242E-01
        2   -1    0    0  501    0  0.00000000000E+00  0.00000000000E+00  0.37641509989E+03  0.37641509990E+03  0.25500000920E-02 0. -1.
       -2   -1    0    0    0  501  0.00000000000E+00  0.00000000000E+00 -0.78872366158E+03  0.78872366159E+03  0.25500000920E-02 0.  1.
    10030    2    1    2    0    0  0.00000000000E+00  0.00000000000E+00 -0.41230856170E+03  0.11651387615E+04  0.10897476696E+04 0.  0.
        4    1    3    3  502    0 -0.29731985567E+03  0.18777762690E+03 -0.65115291483E+03  0.74004139421E+03  0.12699999809E+01 0.  1.
       -4    1    3    3    0  502  0.29731985567E+03 -0.18777762690E+03  0.23884435314E+03  0.42509736728E+03  0.12699999809E+01 0. -1.
</event>
<event>
 5   0  0.3316784E-03  0.1118063E+04  0.7818609E-02  0.9187763E-01
        1   -1    0    0  501    0  0.00000000000E+00  0.00000000000E+00  0.16065196916E+04  0.16065196916E+04  0.50400001928E-02 0. -1.
       -1   -1    0    0    0  501  0.00000000000E+00  0.00000000000E+00 -0.19453003745E+03  0.19453003752E+03  0.50400001928E-02 0.  1.
    10030    2    1    2    0    0  0.00000000000E+00  0.00000000000E+00  0.14119896541E+04  0.18010497291E+04  0.11180632108E+04 0.  0.
        4    1    3    3  502    0  0.12065316073E+03 -0.45772354792E+03  0.11850661145E+04  0.12761078873E+04  0.12699999809E+01 0. -1.
       -4    1    3    3    0  502 -0.12065316073E+03  0.45772354792E+03  0.22692353967E+03  0.52494184180E+03  0.12699999809E+01 0.  1.
</event>
<event>
 5   0  0.3328741E-03  0.1100899E+04  0.7818609E-02  0.9204316E-01
       -1   -1    0    0    0  501  0.00000000000E+00  0.00000000000E+00  0.79798750560E+03  0.79798750562E+03  0.50400001928E-02 0.  1.
        1   -1    0    0  501    0  0.00000000000E+00  0.00000000000E+00 -0.37969873326E+03  0.37969873329E+03  0.50400001928E-02 0. -1.
    10030    2    1    2    0    0  0.00000000000E+00  0.00000000000E+00  0.41828877234E+03  0.11776862389E+04  0.11008993506E+04 0.  0.
        3    1    3    3  502    0 -0.51191041196E+03 -0.14208606823E+03  0.36325554494E+03  0.64358008188E+03  0.10100000352E+00 0.  1.
       -3    1    3    3    0  502  0.51191041196E+03  0.14208606823E+03  0.55033227396E+02  0.53410615703E+03  0.10100000352E+00 0. -1.
</event>
<event>
 5   0  0.5627232E-03  0.9314243E+03  0.7818609E-02  0.9387130E-01
       -2   -1    0    0    0  501  0.00000000000E+00  0.00000000000E+00  0.40170650450E+03  0.40170650451E+03  0.25500000920E-02 0.  1.
        2   -1    0    0  501    0  0.00000000000E+00  0.00000000000E+00 -0.53991613245E+03  0.53991613245E+03  0.25500000920E-02 0. -1.
    10030    2    1    2    0    0  0.00000000000E+00  0.00000000000E+00 -0.13820962795E+03  0.94162263696E+03  0.93142433358E+03 0.  0.
        2    1    3    3  502    0  0.10628186505E+03  0.33283341004E+03 -0.38039493333E+03  0.51650190608E+03  0.25500000920E-02 0. -1.
       -2    1    3    3    0  502 -0.10628186505E+03 -0.33283341004E+03  0.24218530538E+03  0.42512073088E+03  0.25500000920E-02 0.  1.
</event>
<event>
 5   0  0.3328741E-03  0.1035826E+04  0.7818609E-02  0.9270102E-01
        1   -1    0    0  501    0  0.00000000000E+00  0.00000000000E+00  0.10042455416E+04  0.10042455416E+04  0.50400001928E-02 0. -1.
       -1   -1    0    0    0  501  0.00000000000E+00  0.00000000000E+00 -0.26709970057E+03  0.26709970062E+03  0.50400001928E-02 0.  1.
    10030    2    1    2    0    0  0.00000000000E+00  0.00000000000E+00  0.73714584105E+03  0.12713452422E+04  0.10358256292E+04 0.  0.
        3    1    3    3  502    0 -0.19208826911E+03  0.39597614729E+03  0.70366768539E+03  0.82996580292E+03  0.10100000352E+00 0. -1.
       -3    1    3    3    0  502  0.19208826911E+03 -0.39597614729E+03  0.33478155660E+02  0.44137943933E+03  0.10100000352E+00 0.  1.
</event>
<event>
 5   0  0.5723194E-03  0.1092315E+04  0.7818609E-02  0.9212715E-01
       -2   -1    0    0    0  501  0.00000000000E+00  0.00000000000E+00  0.17804466700E+03  0.17804466702E+03  0.25500000920E-02 0. -1.
        2   -1    0    0  501    0  0.00000000000E+00  0.00000000000E+00 -0.16753555217E+04  0.16753555217E+04  0.25500000920E-02 0.  1.
    10030    2    1    2    0    0  0.00000000000E+00  0.00000000000E+00 -0.14973108547E+04  0.18534001887E+04  0.10923151853E+04 0.  0.
        1    1    3    3  502    0  0.26402624711E+03  0.19308236127E+03 -0.65325292936E+01  0.32715948918E+03  0.50400001928E-02 0. -1.
       -1    1    3    3    0  502 -0.26402624711E+03 -0.19308236127E+03 -0.14907783254E+04  0.15262406996E+04  0.50400001928E-02 0.  1.
</event>
<event>
 5   0  0.5723194E-03  0.1087689E+04  0.7818609E-02  0.9217275E-01
        2   -1    0    0  501    0  0.00000000000E+00  0.00000000000E+00  0.38994859408E+03  0.38994859409E+03  0.25500000920E-02 0.  1.
       -2   -1    0    0    0  501  0.00000000000E+00  0.00000000000E+00 -0.75847584837E+03  0.75847584837E+03  0.25500000920E-02 0. -1.
    10030    2    1    2    0    0  0.00000000000E+00  0.00000000000E+00 -0.36852725429E+03  0.11484244425E+04  0.10876885413E+04 0.  0.
        1    1    3    3  502    0 -0.23599246978E+03 -0.11991146976E+03 -0.68586557307E+03  0.73517534692E+03  0.50400001928E-02 0. -1.
       -1    1    3    3    0  502  0.23599246978E+03  0.11991146976E+03  0.31733831878E+03  0.41324909554E+03  0.50400001928E-02 0.  1.
</event>
<event>
 5   0  0.5500363E-03  0.1091432E+04  0.7818609E-02  0.9213583E-01
       -2   -1    0    0    0  501  0.00000000000E+00  0.00000000000E+00  0.26070872159E+03  0.26070872160E+03  0.25500000920E-02 0.  1.
        2   -1    0    0  501    0  0.00000000000E+00  0.00000000000E+00 -0.11422934467E+04  0.11422934467E+04  0.25500000920E-02 0. -1.
    10030    2    1    2    0    0  0.00000000000E+00  0.00000000000E+00 -0.88158472515E+03  0.14030021683E+04  0.10914318379E+04 0.  0.
        3    1    3    3  502    0 -0.40760682733E+03  0.31826587420E+03 -0.21677609582E+03  0.56073913568E+03  0.10100000352E+00 0.  1.
       -3    1    3    3    0  502  0.40760682733E+03 -0.31826587420E+03 -0.66480862933E+03  0.84226303267E+03  0.10100000352E+00 0. -1.
</event>
<event>
 5   0  0.5500363E-03  0.1055038E+04  0.7818609E-02  0.9250158E-01
        2   -1    0    0  501    0  0.00000000000E+00  0.00000000000E+00  0.43070603008E+03  0.43070603009E+03  0.25500000920E-02 0. -1.
       -2   -1    0    0    0  501  0.00000000000E+00  0.00000000000E+00 -0.64609302592E+03  0.64609302593E+03  0.25500000920E-02 0.  1.
    10030    2    1    2    0    0  0.00000000000E+00  0.00000000000E+00 -0.21538699584E+03  0.10767990560E+04  0.10550377477E+04 0.  0.
        3    1    3    3  502    0 -0.35461297375E+03 -0.21478467871E+03 -0.44060122404E+03  0.60498947775E+03  0.10100000352E+00 0.  1.
       -3    1    3    3    0  502  0.35461297375E+03  0.21478467871E+03  0.22521422820E+03  0.47180957827E+03  0.10100000352E+00 0. -1.
</event>
<event>
 5   0  0.5941585E-03  0.1095537E+04  0.7818609E-02  0.9209553E-01
        2   -1    0    0  501    0  0.00000000000E+00  0.00000000000E+00  0.16203540845E+04  0.16203540845E+04  0.25500000920E-02 0.  1.
       -2   -1    0    0    0  501  0.00000000000E+00  0.00000000000E+00 -0.18517582412E+03  0.18517582414E+03  0.25500000920E-02 0. -1.
    10030    2    1    2    0    0  0.00000000000E+00  0.00000000000E+00  0.14351782604E+04  0.18055299087E+04  0.10955371340E+04 0.  0.
        5    1    3    3  502    0 -0.15589286462E+03 -0.46418344852E+03  0.11221558738E+04  0.12243466642E+04  0.46999998093E+01 0.  1.
       -5    1    3    3    0  502  0.15589286462E+03  0.46418344852E+03  0.31302238668E+03  0.58118324449E+03  0.46999998093E+01 0. -1.
</event>
<event>
 5   0  0.3328741E-03  0.1088296E+04  0.7818609E-02  0.9216675E-01
       -1   -1    0    0    0  501  0.00000000000E+00  0.00000000000E+00  0.22757084328E+03  0.22757084334E+03  0.50400001928E-02 0. -1.
        1   -1    0    0  501    0  0.00000000000E+00  0.00000000000E+00 -0.13011208670E+04  0.13011208671E+04  0.50400001928E-02 0.  1.
    10030    2    1    2    0    0  0.00000000000E+00  0.00000000000E+00 -0.10735500238E+04  0.15286917104E+04  0.10882962335E+04 0.  0.
        3    1    3    3  502    0  0.28011174523E+03 -0.24972766352E+03 -0.10902748444E+04  0.11530506243E+04  0.10100000352E+00 0.  1.
       -3    1    3    3    0  502 -0.28011174523E+03  0.24972766352E+03  0.16724820594E+02  0.37564108610E+03  0.10100000352E+00 0. -1.
</event>
<event>
 5   0  0.3316784E-03  0.1094831E+04  0.7818609E-02  0.9210244E-01
       -1   -1    0    0    0  501  0.00000000000E+00  0.00000000000E+00  0.19621110338E+03  0.19621110345E+03  0.50400001928E-02 0. -1.
        1   -1    0    0  501    0  0.00000000000E+00  0.00000000000E+00 -0.15272523297E+04  0.15272523297E+04  0.50400001928E-02 0.  1.
    10030    2    1    2    0    0  0.00000000000E+00  0.00000000000E+00 -0.13310412264E+04  0.17234634332E+04  0.10948312469E+04 0.  0.
        4    1    3    3  502    0  0.31087340226E+03  0.34271136581E+03 -0.20503839674E+03  0.50609851761E+03  0.12699999809E+01 0. -1.
       -4    1    3    3    0  502 -0.31087340226E+03 -0.34271136581E+03 -0.11260028296E+04  0.12173649156E+04  0.12699999809E+01 0.  1.
</event>
<event>
 5   0  0.5946359E-03  0.1075875E+04  0.7818609E-02  0.9229030E-01
        2   -1    0    0  501    0  0.00000000000E+00  0.00000000000E+00  0.90322309723E+03  0.90322309723E+03  0.25500000920E-02 0.  1.
       -2   -1    0    0    0  501  0.00000000000E+00  0.00000000000E+00 -0.32038225444E+03  0.32038225445E+03  0.25500000920E-02 0. -1.
    10030    2    1    2    0    0  0.00000000000E+00  0.00000000000E+00  0.58284084279E+03  0.12236053517E+04  0.10758748109E+04 0.  0.
        4    1    3    3  502    0  0.37919699721E+03 -0.32539005893E+03  0.64795523528E+02  0.50385427051E+03  0.12699999809E+01 0. -1.
       -4    1    3    3    0  502 -0.37919699721E+03  0.32539005893E+03  0.51804531926E+03  0.71975108117E+03  0.12699999809E+01 0.  1.
</event>
<event>
 5   0  0.3328741E-03  0.1100957E+04  0.7818609E-02  0.9204260E-01
        1   -1    0    0  501    0  0.00000000000E+00  0.00000000000E+00  0.11186597984E+04  0.11186597984E+04  0.50400001928E-02 0. -1.
       -1   -1    0    0    0  501  0.00000000000E+00  0.00000000000E+00 -0.27088352874E+03  0.27088352879E+03  0.50400001928E-02 0.  1.
    10030    2    1    2    0    0  0.00000000000E+00  0.00000000000E+00  0.84777626965E+03  0.13895433272E+04  0.11009568814E+04 0.  0.
        3    1    3    3  502    0  0.44248340696E+03 -0.32743347786E+03  0.41793395733E+03  0.69113895184E+03  0.10100000352E+00 0. -1.
       -3    1    3    3    0  502 -0.44248340696E+03  0.32743347786E+03  0.42984231232E+03  0.69840437536E+03  0.10100000352E+00 0.  1.
</event>
<event>
 5   0  0.3320192E-03  0.1042307E+04  0.7818609E-02  0.9263323E-01
       -1   -1    0    0    0  501  0.00000000000E+00  0.00000000000E+00  0.38451596122E+03  0.38451596126E+03  0.50400001928E-02 0. -1.
        1   -1    0    0  501    0  0.00000000000E+00  0.00000000000E+00 -0.70634464737E+03  0.70634464739E+03  0.50400001928E-02 0.  1.
    10030    2    1    2    0    0  0.00000000000E+00  0.00000000000E+00 -0.32182868615E+03  0.10908606086E+04  0.10423066556E+04 0.  0.
        2    1    3    3  502    0  0.24126024927E+03  0.27729397011E+02  0.32167895158E+03  0.40305430804E+03  0.25500000920E-02 0. -1.
       -2    1    3    3    0  502 -0.24126024927E+03 -0.27729397011E+02 -0.64350763772E+03  0.68780630061E+03  0.25500000920E-02 0.  1.
</event>
<event>
 5   0  0.3328741E-03  0.1084058E+04  0.7818609E-02  0.9220871E-01
        1   -1    0    0  501    0  0.00000000000E+00  0.00000000000E+00  0.45078510044E+03  0.45078510047E+03  0.50400001928E-02 0.  1.
       -1   -1    0    0    0  501  0.00000000000E+00  0.00000000000E+00 -0.65174113899E+03  0.65174113901E+03  0.50400001928E-02 0. -1.
    10030    2    1    2    0    0  0.00000000000E+00  0.00000000000E+00 -0.20095603854E+03  0.11025262395E+04  0.10840575535E+04 0.  0.
        3    1    3    3  502    0  0.23951821149E+03  0.24358457432E+03 -0.52847135348E+03  0.62927291387E+03  0.10100000352E+00 0. -1.
       -3    1    3    3    0  502 -0.23951821149E+03 -0.24358457432E+03  0.32751531493E+03  0.47325332561E+03  0.10100000352E+00 0.  1.
</event>
<event>
 5   0  0.3328741E-03  0.1100606E+04  0.7818609E-02  0.9204601E-01
       -1   -1    0    0    0  501  0.00000000000E+00  0.00000000000E+00  0.29742198865E+03  0.29742198870E+03  0.50400001928E-02 0.  1.
        1   -1    0    0  501    0  0.00000000000E+00  0.00000000000E+00 -0.10181948899E+04  0.10181948899E+04  0.50400001928E-02 0. -1.
    10030    2    1    2    0    0  0.00000000000E+00  0.00000000000E+00 -0.72077290121E+03  0.13156168786E+04  0.11006062857E+04 0.  0.
        3    1    3    3  502    0  0.10103617306E+02  0.22940651657E+03  0.23741623057E+03  0.33029669945E+03  0.10100000352E+00 0.  1.
       -3    1    3    3    0  502 -0.10103617306E+02 -0.22940651657E+03 -0.95818913178E+03  0.98532017912E+03  0.10100000352E+00 0. -1.
</event>
<event>
 5   0  0.3241189E-03  0.1067565E+04  0.7818609E-02  0.9237395E-01
       -1   -1    0    0    0  501  0.00000000000E+00  0.00000000000E+00  0.45960752707E+03  0.45960752710E+03  0.50400001928E-02 0. -1.
        1   -1    0    0  501    0  0.00000000000E+00  0.00000000000E+00 -0.61992859474E+03  0.61992859476E+03  0.50400001928E-02 0.  1.
    10030    2    1    2    0    0  0.00000000000E+00  0.00000000000E+00 -0.16032106767E+03  0.10795361219E+04  0.10675651707E+04 0.  0.
        5    1    3    3  502    0  0.45609215696E+03 -0.12527550750E+03  0.16997478843E+03  0.50262065927E+03  0.46999998093E+01 0.  1.
       -5    1    3    3    0  502 -0.45609215696E+03  0.12527550750E+03 -0.33029585611E+03  0.57691546259E+03  0.46999998093E+01 0. -1.
</event>
<event>
 5   0  0.3320192E-03  0.1244269E+04  0.7818609E-02  0.9074967E-01
       -1   -1    0    0    0  501  0.00000000000E+00  0.00000000000E+00  0.88665074955E+03  0.88665074957E+03  0.50400001928E-02 0.  1.
        1   -1    0    0  501    0  0.00000000000E+00  0.00000000000E+00 -0.43653156833E+03  0.43653156836E+03  0.50400001928E-02 0. -1.
    10030    2    1    2    0    0  0.00000000000E+00  0.00000000000E+00  0.45011918122E+03  0.13231823179E+04  0.12442685278E+04 0.  0.
        2    1    3    3  502    0 -0.40220027470E+03  0.47045913189E+03  0.15818915560E+03  0.63884322389E+03  0.25500000920E-02 0.  1.
       -2    1    3    3    0  502  0.40220027470E+03 -0.47045913189E+03  0.29193002563E+03  0.68433909403E+03  0.25500000920E-02 0. -1.
</event>
<event>
 5   0  0.2185750E-03  0.1095939E+04  0.7818609E-02  0.9209159E-01
       -3   -1    0    0    0  501  0.00000000000E+00  0.00000000000E+00  0.29938920529E+03  0.29938922232E+03  0.10100000352E+00 0.  1.
        3   -1    0    0  501    0  0.00000000000E+00  0.00000000000E+00 -0.10029436393E+04  0.10029436444E+04  0.10100000352E+00 0. -1.
    10030    2    1    2    0    0  0.00000000000E+00  0.00000000000E+00 -0.70355443403E+03  0.13023328667E+04  0.10959388916E+04 0.  0.
        3    1    3    3  502    0  0.90164624906E+02 -0.41261129368E+03  0.63104813109E+02  0.42703625947E+03  0.10100000352E+00 0.  1.
       -3    1    3    3    0  502 -0.90164624906E+02  0.41261129368E+03 -0.76665924713E+03  0.87529660726E+03  0.10100000352E+00 0. -1.
</event>
<event>
 5   0  0.3320192E-03  0.1097297E+04  0.7818609E-02  0.9207831E-01
        1   -1    0    0  501    0  0.00000000000E+00  0.00000000000E+00  0.49585893192E+03  0.49585893195E+03  0.50400001928E-02 0.  1.
       -1   -1    0    0    0  501  0.00000000000E+00  0.00000000000E+00 -0.60705758971E+03  0.60705758973E+03  0.50400001928E-02 0. -1.
    10030    2    1    2    0    0  0.00000000000E+00  0.00000000000E+00 -0.11119865779E+03  0.11029165217E+04  0.10972965471E+04 0.  0.
        2    1    3    3  502    0 -0.41292793727E+03  0.31260552222E+03  0.12638941516E+03  0.53310972432E+03  0.25500000920E-02 0.  1.
       -2    1    3    3    0  502  0.41292793727E+03 -0.31260552222E+03 -0.23758807295E+03  0.56980679735E+03  0.25500000920E-02 0. -1.
</event>
<event>
 5   0  0.5941585E-03  0.1098735E+04  0.7818609E-02  0.9206426E-01
        2   -1    0    0  501    0  0.00000000000E+00  0.00000000000E+00  0.48799405950E+03  0.48799405950E+03  0.25500000920E-02 0.  1.
       -2   -1    0    0    0  501  0.00000000000E+00  0.00000000000E+00 -0.61845939849E+03  0.61845939850E+03  0.25500000920E-02 0. -1.
    10030    2    1    2    0    0  0.00000000000E+00  0.00000000000E+00 -0.13046533900E+03  0.11064534580E+04  0.10987347496E+04 0.  0.
        5    1    3    3  502    0  0.24586343042E+03  0.40323390300E+03 -0.34780329116E+03  0.58654550231E+03  0.46999998093E+01 0. -1.
       -5    1    3    3    0  502 -0.24586343042E+03 -0.40323390300E+03  0.21733795216E+03  0.51990795569E+03  0.46999998093E+01 0.  1.
</event>
<event>
 5   0  0.3328741E-03  0.1099930E+04  0.7818609E-02  0.9205260E-01
        1   -1    0    0  501    0  0.00000000000E+00  0.00000000000E+00  0.51736630743E+03  0.51736630746E+03  0.50400001928E-02 0. -1.
       -1   -1    0    0    0  501  0.00000000000E+00  0.00000000000E+00 -0.58461757474E+03  0.58461757476E+03  0.50400001928E-02 0.  1.
    10030    2    1    2    0    0  0.00000000000E+00  0.00000000000E+00 -0.67251267304E+02  0.11019838822E+04  0.10999298813E+04 0.  0.
        3    1    3    3  502    0 -0.93083714858E+02 -0.27018074967E+03 -0.50439587258E+03  0.57972184877E+03  0.10100000352E+00 0.  1.
       -3    1    3    3    0  502  0.93083714858E+02  0.27018074967E+03  0.43714460527E+03  0.52226203345E+03  0.10100000352E+00 0. -1.
</event>
<event>
 5   0  0.5941585E-03  0.1103951E+04  0.7818609E-02  0.9201349E-01
        2   -1    0    0  501    0  0.00000000000E+00  0.00000000000E+00  0.15589715573E+04  0.15589715573E+04  0.25500000920E-02 0.  1.
       -2   -1    0    0    0  501  0.00000000000E+00  0.00000000000E+00 -0.19543465950E+03  0.19543465952E+03  0.25500000920E-02 0. -1.
    10030    2    1    2    0    0  0.00000000000E+00  0.00000000000E+00  0.13635368978E+04  0.17544062168E+04  0.11039512226E+04 0.  0.
        5    1    3    3  502    0  0.41279722128E+03 -0.18933946630E+03  0.18324377001E+03  0.48974620840E+03  0.46999998093E+01 0. -1.
       -5    1    3    3    0  502 -0.41279722128E+03  0.18933946630E+03  0.11802931278E+04  0.12646600084E+04  0.46999998093E+01 0.  1.
</event>
<event>
 5   0  0.3328741E-03  0.1140915E+04  0.7818609E-02  0.9166206E-01
        1   -1    0    0  501    0  0.00000000000E+00  0.00000000000E+00  0.12865102180E+04  0.12865102180E+04  0.50400001928E-02 0.  1.
       -1   -1    0    0    0  501  0.00000000000E+00  0.00000000000E+00 -0.25294921583E+03  0.25294921588E+03  0.50400001928E-02 0. -1.
    10030    2    1    2    0    0  0.00000000000E+00  0.00000000000E+00  0.10335610021E+04  0.15394594338E+04  0.11409149851E+04 0.  0.
        3    1    3    3  502    0  0.12704554464E+03 -0.40363103476E+03  0.56522677817E+00  0.42315353279E+03  0.10100000352E+00 0. -1.
       -3    1    3    3    0  502 -0.12704554464E+03  0.40363103476E+03  0.10329957754E+04  0.11163059011E+04  0.10100000352E+00 0.  1.
</event>
<event>
 5   0  0.5946359E-03  0.1107209E+04  0.7818609E-02  0.9198194E-01
       -2   -1    0    0    0  501  0.00000000000E+00  0.00000000000E+00  0.46535156854E+03  0.46535156855E+03  0.25500000920E-02 0.  1.
        2   -1    0    0  501    0  0.00000000000E+00  0.00000000000E+00 -0.65859462214E+03  0.65859462215E+03  0.25500000920E-02 0. -1.
    10030    2    1    2    0    0  0.00000000000E+00  0.00000000000E+00 -0.19324305360E+03  0.11239461907E+04  0.11072091771E+04 0.  0.
        4    1    3    3  502    0 -0.27020890841E+03 -0.11390181470E+03  0.38004015660E+03  0.48001938618E+03  0.12699999809E+01 0.  1.
       -4    1    3    3    0  502  0.27020890841E+03  0.11390181470E+03 -0.57328321020E+03  0.64392680452E+03  0.12699999809E+01 0. -1.
</event>
<event>
 5   0  0.3316784E-03  0.1099393E+04  0.7818609E-02  0.9205783E-01
        1   -1    0    0  501    0  0.00000000000E+00  0.00000000000E+00  0.22967017248E+03  0.22967017254E+03  0.50400001928E-02 0.  1.
       -1   -1    0    0    0  501  0.00000000000E+00  0.00000000000E+00 -0.13156538325E+04  0.13156538325E+04  0.50400001928E-02 0. -1.
    10030    2    1    2    0    0  0.00000000000E+00  0.00000000000E+00 -0.10859836600E+04  0.15453240050E+04  0.10993933649E+04 0.  0.
        4    1    3    3  502    0 -0.20243416879E+03 -0.45308923506E+03 -0.87531024235E+03  0.10062003185E+04  0.12699999809E+01 0. -1.
       -4    1    3    3    0  502  0.20243416879E+03  0.45308923506E+03 -0.21067341766E+03  0.53912368658E+03  0.12699999809E+01 0.  1.
</event>
<event>
 5   0  0.5946359E-03  0.1147127E+04  0.7818609E-02  0.9160438E-01
        2   -1    0    0  501    0  0.00000000000E+00  0.00000000000E+00  0.11836724268E+04  0.11836724268E+04  0.25500000920E-02 0.  1.
       -2   -1    0    0    0  501  0.00000000000E+00  0.00000000000E+00 -0.27792736397E+03  0.27792736398E+03  0.25500000920E-02 0. -1.
    10030    2    1    2    0    0  0.00000000000E+00  0.00000000000E+00  0.90574506285E+03  0.14615997908E+04  0.11471267714E+04 0.  0.
        4    1    3    3  502    0  0.85634657911E+02  0.57865175272E+02 -0.26596326222E+03  0.28534144966E+03  0.12699999809E+01 0. -1.
       -4    1    3    3    0  502 -0.85634657911E+02 -0.57865175272E+02  0.11717083251E+04  0.11762583411E+04  0.12699999809E+01 0.  1.
</event>
<event>
 5   0  0.5627232E-03  0.1037216E+04  0.7818609E-02  0.9268644E-01
        2   -1    0    0  501    0  0.00000000000E+00  0.00000000000E+00  0.13139691336E+04  0.13139691336E+04  0.25500000920E-02 0.  1.
       -2   -1    0    0    0  501  0.00000000000E+00  0.00000000000E+00 -0.20468822593E+03  0.20468822594E+03  0.25500000920E-02 0. -1.
    10030    2    1    2    0    0  0.00000000000E+00  0.00000000000E+00  0.11092809076E+04  0.15186573595E+04  0.10372155242E+04 0.  0.
        2    1    3    3  502    0  0.17743761042E+03  0.11914202066E+03 -0.13720791562E+03  0.25397822504E+03  0.25500000920E-02 0. -1.
       -2    1    3    3    0  502 -0.17743761042E+03 -0.11914202066E+03  0.12464888232E+04  0.12646791345E+04  0.25500000920E-02 0.  1.
</event>
<event>
 5   0  0.3215352E-03  0.1098528E+04  0.7818609E-02  0.9206628E-01
        1   -1    0    0  501    0  0.00000000000E+00  0.00000000000E+00  0.84344765967E+03  0.84344765968E+03  0.50400001928E-02 0. -1.
       -1   -1    0    0    0  501  0.00000000000E+00  0.00000000000E+00 -0.35768750477E+03  0.35768750481E+03  0.50400001928E-02 0.  1.
    10030    2    1    2    0    0  0.00000000000E+00  0.00000000000E+00  0.48576015490E+03  0.12011351645E+04  0.10985275396E+04 0.  0.
        1    1    3    3  502    0 -0.22789328558E+03 -0.41542610073E+03 -0.60874936496E+02  0.47772372005E+03  0.50400001928E-02 0.  1.
       -1    1    3    3    0  502  0.22789328558E+03  0.41542610073E+03  0.54663509139E+03  0.72341144444E+03  0.50400001928E-02 0. -1.
</event>
<event>
 5   0  0.2185750E-03  0.1103627E+04  0.7818609E-02  0.9201664E-01
       -3   -1    0    0    0  501  0.00000000000E+00  0.00000000000E+00  0.45750957813E+03  0.45750958928E+03  0.10100000352E+00 0.  1.
        3   -1    0    0  501    0  0.00000000000E+00  0.00000000000E+00 -0.66555605852E+03  0.66555606618E+03  0.10100000352E+00 0. -1.
    10030    2    1    2    0    0  0.00000000000E+00  0.00000000000E+00 -0.20804648039E+03  0.11230656555E+04  0.11036272598E+04 0.  0.
        4    1    3    3  502    0  0.12001708439E+03 -0.46204245374E+03 -0.38568221003E+03  0.61370979269E+03  0.12699999809E+01 0. -1.
       -4    1    3    3    0  502 -0.12001708439E+03  0.46204245374E+03  0.17763572965E+03  0.50935586278E+03  0.12699999809E+01 0.  1.
</event>
<event>
 5   0  0.3215352E-03  0.1099596E+04  0.7818609E-02  0.9205586E-01
       -1   -1    0    0    0  501  0.00000000000E+00  0.00000000000E+00  0.21215831791E+03  0.21215831797E+03  0.50400001928E-02 0.  1.
        1   -1    0    0  501    0  0.00000000000E+00  0.00000000000E+00 -0.14247737241E+04  0.14247737241E+04  0.50400001928E-02 0. -1.
    10030    2    1    2    0    0  0.00000000000E+00  0.00000000000E+00 -0.12126154062E+04  0.16369320421E+04  0.10995955561E+04 0.  0.
        1    1    3    3  502    0 -0.33425244268E+03 -0.36243055581E+03 -0.96850691336E+03  0.10867779187E+04  0.50400001928E-02 0.  1.
       -1    1    3    3    0  502  0.33425244268E+03  0.36243055581E+03 -0.24410849282E+03  0.55015412342E+03  0.50400001928E-02 0. -1.
</event>
<event>
 5   0  0.5941585E-03  0.1100689E+04  0.7818609E-02  0.9204520E-01
       -2   -1    0    0    0  501  0.00000000000E+00  0.00000000000E+00  0.28656999904E+03  0.28656999905E+03  0.25500000920E-02 0. -1.
        2   -1    0    0  501    0  0.00000000000E+00  0.00000000000E+00 -0.10569121666E+04  0.10569121666E+04  0.25500000920E-02 0.  1.
    10030    2    1    2    0    0  0.00000000000E+00  0.00000000000E+00 -0.77034216754E+03  0.13434821656E+04  0.11006894541E+04 0.  0.
        5    1    3    3  502    0  0.48998519674E+03  0.22254882377E+03 -0.24470460510E+03  0.59119870242E+03  0.46999998093E+01 0. -1.
       -5    1    3    3    0  502 -0.48998519674E+03 -0.22254882377E+03 -0.52563756244E+03  0.75228346322E+03  0.46999998093E+01 0.  1.
</event>
<event>
 5   0  0.5500363E-03  0.1090751E+04  0.7818609E-02  0.9214254E-01
        2   -1    0    0  501    0  0.00000000000E+00  0.00000000000E+00  0.15000677671E+04  0.15000677671E+04  0.25500000920E-02 0. -1.
       -2   -1    0    0    0  501  0.00000000000E+00  0.00000000000E+00 -0.19828052967E+03  0.19828052969E+03  0.25500000920E-02 0.  1.
    10030    2    1    2    0    0  0.00000000000E+00  0.00000000000E+00  0.13017872374E+04  0.16983482968E+04  0.10907506249E+04 0.  0.
        3    1    3    3  502    0  0.29951868008E+03 -0.34695103647E+03  0.11110730204E+04  0.12019025453E+04  0.10100000352E+00 0. -1.
       -3    1    3    3    0  502 -0.29951868008E+03  0.34695103647E+03  0.19071421699E+03  0.49644575151E+03  0.10100000352E+00 0.  1.
</event>
<event>
 5   0  0.5941585E-03  0.1101017E+04  0.7818609E-02  0.9204201E-01
        2   -1    0    0  501    0  0.00000000000E+00  0.00000000000E+00  0.88851730889E+03  0.88851730890E+03  0.25500000920E-02 0. -1.
       -2   -1    0    0    0  501  0.00000000000E+00  0.00000000000E+00 -0.34108452216E+03  0.34108452217E+03  0.25500000920E-02 0.  1.
    10030    2    1    2    0    0  0.00000000000E+00  0.00000000000E+00  0.54743278673E+03  0.12296018311E+04  0.11010168059E+04 0.  0.
        5    1    3    3  502    0 -0.50703315683E+03 -0.61397905519E+02  0.44339309715E+02  0.51267961663E+03  0.46999998093E+01 0.  1.
       -5    1    3    3    0  502  0.50703315683E+03  0.61397905519E+02  0.50309347702E+03  0.71692221443E+03  0.46999998093E+01 0. -1.
</event>
<event>
 5   0  0.3320192E-03  0.1107221E+04  0.7818609E-02  0.9198182E-01
       -1   -1    0    0    0  501  0.00000000000E+00  0.00000000000E+00  0.30665174469E+03  0.30665174473E+03  0.50400001928E-02 0.  1.
        1   -1    0    0  501    0  0.00000000000E+00  0.00000000000E+00 -0.99945542799E+03  0.99945542800E+03  0.50400001928E-02 0. -1.
    10030    2    1    2    0    0  0.00000000000E+00  0.00000000000E+00 -0.69280368330E+03  0.13061071727E+04  0.11072212981E+04 0.  0.
        2    1    3    3  502    0  0.20024336884E+03  0.49193341411E+03 -0.53062326538E+03  0.75077089744E+03  0.25500000920E-02 0. -1.
       -2    1    3    3    0  502 -0.20024336884E+03 -0.49193341411E+03 -0.16218041792E+03  0.55533627528E+03  0.25500000920E-02 0.  1.
</event>
<event>
 5   0  0.5946359E-03  0.1119722E+04  0.7818609E-02  0.9186180E-01
        2   -1    0    0  501    0  0.00000000000E+00  0.00000000000E+00  0.35921909130E+03  0.35921909131E+03  0.25500000920E-02 0.  1.
       -2   -1    0    0    0  501  0.00000000000E+00  0.00000000000E+00 -0.87257126692E+03  0.87257126693E+03  0.25500000920E-02 0. -1.
    10030    2    1    2    0    0  0.00000000000E+00  0.00000000000E+00 -0.51335217562E+03  0.12317903582E+04  0.11197218540E+04 0.  0.
        4    1    3    3  502    0  0.84224406515E+02  0.54650100611E+03 -0.16023458640E+03  0.57570290595E+03  0.12699999809E+01 0.  1.
       -4    1    3    3    0  502 -0.84224406515E+02 -0.54650100611E+03 -0.35311758922E+03  0.65608745229E+03  0.12699999809E+01 0. -1.
</event>
<event>
 5   0  0.3215352E-03  0.1134727E+04  0.7818609E-02  0.9171990E-01
        1   -1    0    0  501    0  0.00000000000E+00  0.00000000000E+00  0.54659804984E+03  0.54659804986E+03  0.50400001928E-02 0.  1.
       -1   -1    0    0    0  501  0.00000000000E+00  0.00000000000E+00 -0.58891804548E+03  0.58891804550E+03  0.50400001928E-02 0. -1.
    10030    2    1    2    0    0  0.00000000000E+00  0.00000000000E+00 -0.42319995641E+02  0.11355160954E+04  0.11347272010E+04 0.  0.
        1    1    3    3  502    0 -0.18508394349E+03 -0.26750605627E+03 -0.48633357977E+03  0.58509478473E+03  0.50400001928E-02 0. -1.
       -1    1    3    3    0  502  0.18508394349E+03  0.26750605627E+03  0.44401358413E+03  0.55042131063E+03  0.50400001928E-02 0.  1.
</event>
<event>
 5   0  0.5500363E-03  0.9942639E+03  0.7818609E-02  0.9314858E-01
        2   -1    0    0  501    0  0.00000000000E+00  0.00000000000E+00  0.25793042959E+04  0.25793042959E+04  0.25500000920E-02 0.  1.
       -2   -1    0    0    0  501  0.00000000000E+00  0.00000000000E+00 -0.95816607854E+02  0.95816607888E+02  0.25500000920E-02 0. -1.
    10030    2    1    2    0    0  0.00000000000E+00  0.00000000000E+00  0.24834876881E+04  0.26751209038E+04  0.99426392533E+03 0.  0.
        3    1    3    3  502    0  0.55721207490E+02  0.55955877755E+02 -0.78833910094E+02  0.11158274419E+03  0.10100000352E+00 0. -1.
       -3    1    3    3    0  502 -0.55721207490E+02 -0.55955877755E+02  0.25623215982E+04  0.25635381596E+04  0.10100000352E+00 0.  1.
</event>
<event>
 5   0  0.3215352E-03  0.1108762E+04  0.7818609E-02  0.9196693E-01
        1   -1    0    0  501    0  0.00000000000E+00  0.00000000000E+00  0.19178694476E+04  0.19178694476E+04  0.50400001928E-02 0.  1.
       -1   -1    0    0    0  501  0.00000000000E+00  0.00000000000E+00 -0.16024999523E+03  0.16024999531E+03  0.50400001928E-02 0. -1.
    10030    2    1    2    0    0  0.00000000000E+00  0.00000000000E+00  0.17576194523E+04  0.20781194429E+04  0.11087624992E+04 0.  0.
        1    1    3    3  502    0  0.47266341318E+03  0.14579661444E+03  0.13480184021E+04  0.14359042334E+04  0.50400001928E-02 0.  1.
       -1    1    3    3    0  502 -0.47266341318E+03 -0.14579661444E+03  0.40960105019E+03  0.64221520948E+03  0.50400001928E-02 0. -1.
</event>
<event>
 5   0  0.5941585E-03  0.1084433E+04  0.7818609E-02  0.9220498E-01
        2   -1    0    0  501    0  0.00000000000E+00  0.00000000000E+00  0.12935582567E+04  0.12935582567E+04  0.25500000920E-02 0. -1.
       -2   -1    0    0    0  501  0.00000000000E+00  0.00000000000E+00 -0.22727918989E+03  0.22727918990E+03  0.25500000920E-02 0.  1.
    10030    2    1    2    0    0  0.00000000000E+00  0.00000000000E+00  0.10662790669E+04  0.15208374466E+04  0.10844332578E+04 0.  0.
        5    1    3    3  502    0  0.41886551238E+03 -0.13376506132E+03  0.97803225493E+03  0.10723388414E+04  0.46999998093E+01 0. -1.
       -5    1    3    3    0  502 -0.41886551238E+03  0.13376506132E+03  0.88246811920E+02  0.44849860524E+03  0.46999998093E+01 0.  1.
</event>
<event>
 5   0  0.2185750E-03  0.1099669E+04  0.7818609E-02  0.9205515E-01
       -3   -1    0    0    0  501  0.00000000000E+00  0.00000000000E+00  0.51701950152E+03  0.51701951138E+03  0.10100000352E+00 0. -1.
        3   -1    0    0  501    0  0.00000000000E+00  0.00000000000E+00 -0.58473226091E+03  0.58473226963E+03  0.10100000352E+00 0.  1.
    10030    2    1    2    0    0  0.00000000000E+00  0.00000000000E+00 -0.67712759391E+02  0.11017517810E+04  0.10996690271E+04 0.  0.
        1    1    3    3  502    0 -0.88195871503E+02  0.15078588707E+03 -0.55619118842E+03  0.58297815876E+03  0.50400001928E-02 0.  1.
       -1    1    3    3    0  502  0.88195871503E+02 -0.15078588707E+03  0.48847842903E+03  0.51877362225E+03  0.50400001928E-02 0. -1.
</event>
<event>
 5   0  0.3316784E-03  0.1102507E+04  0.7818609E-02  0.9202752E-01
        1   -1    0    0  501    0  0.00000000000E+00  0.00000000000E+00  0.31200843896E+03  0.31200843900E+03  0.50400001928E-02 0. -1.
       -1   -1    0    0    0  501  0.00000000000E+00  0.00000000000E+00 -0.97394889136E+03  0.97394889137E+03  0.50400001928E-02 0.  1.
    10030    2    1    2    0    0  0.00000000000E+00  0.00000000000E+00 -0.66194045240E+03  0.12859573304E+04  0.11025067315E+04 0.  0.
        4    1    3    3  502    0  0.12487432975E+03 -0.46109000636E+02  0.29297868354E+03  0.32180391558E+03  0.12699999809E+01 0. -1.
       -4    1    3    3    0  502 -0.12487432975E+03  0.46109000636E+02 -0.95491913595E+03  0.96415341480E+03  0.12699999809E+01 0.  1.
</event>
<event>
 5   0  0.5627232E-03  0.1071671E+04  0.7818609E-02  0.9233251E-01
        2   -1    0    0  501    0  0.00000000000E+00  0.00000000000E+00  0.13445569053E+04  0.13445569053E+04  0.25500000920E-02 0. -1.
       -2   -1    0    0    0  501  0.00000000000E+00  0.00000000000E+00 -0.21354233728E+03  0.21354233729E+03  0.25500000920E-02 0.  1.
    10030    2    1    2    0    0  0.00000000000E+00  0.00000000000E+00  0.11310145680E+04  0.15580992426E+04  0.10716712633E+04 0.  0.
        2    1    3    3  502    0  0.52264120072E+02  0.38881443529E+03  0.10961529083E+04  0.11642419858E+04  0.25500000920E-02 0. -1.
       -2    1    3    3    0  502 -0.52264120072E+02 -0.38881443529E+03  0.34861659731E+02  0.39385725671E+03  0.25500000920E-02 0.  1.
</event>
<event>
 5   0  0.5500363E-03  0.1135110E+04  0.7818609E-02  0.9171631E-01
        2   -1    0    0  501    0  0.00000000000E+00  0.00000000000E+00  0.10742569680E+04  0.10742569680E+04  0.25500000920E-02 0.  1.
       -2   -1    0    0    0  501  0.00000000000E+00  0.00000000000E+00 -0.29985260786E+03  0.29985260787E+03  0.25500000920E-02 0. -1.
    10030    2    1    2    0    0  0.00000000000E+00  0.00000000000E+00  0.77440436014E+03  0.13741095759E+04  0.11351101328E+04 0.  0.
        3    1    3    3  502    0 -0.56030725064E+03  0.52162762542E+02  0.47659939339E+03  0.73743620802E+03  0.10100000352E+00 0.  1.
       -3    1    3    3    0  502  0.56030725064E+03 -0.52162762542E+02  0.29780496675E+03  0.63667336786E+03  0.10100000352E+00 0. -1.
</event>
<event>
 5   0  0.3241189E-03  0.1120783E+04  0.7818609E-02  0.9185168E-01
        1   -1    0    0  501    0  0.00000000000E+00  0.00000000000E+00  0.10676471313E+04  0.10676471314E+04  0.50400001928E-02 0. -1.
       -1   -1    0    0    0  501  0.00000000000E+00  0.00000000000E+00 -0.29414108405E+03  0.29414108410E+03  0.50400001928E-02 0.  1.
    10030    2    1    2    0    0  0.00000000000E+00  0.00000000000E+00  0.77350604729E+03  0.13617882155E+04  0.11207834486E+04 0.  0.
        5    1    3    3  502    0 -0.22261019436E+03 -0.38804106787E+03 -0.23283288502E+02  0.44799036876E+03  0.46999998093E+01 0.  1.
       -5    1    3    3    0  502  0.22261019436E+03  0.38804106787E+03  0.79678933579E+03  0.91379784669E+03  0.46999998093E+01 0. -1.
</event>
<event>
 5   0  0.2185750E-03  0.8578169E+03  0.7818609E-02  0.9479905E-01
       -4   -1    0    0    0  501  0.00000000000E+00  0.00000000000E+00  0.87622539626E+03  0.87622631663E+03  0.12699999809E+01 0. -1.
        4   -1    0    0  501    0  0.00000000000E+00  0.00000000000E+00 -0.20994582718E+03  0.20994966837E+03  0.12699999809E+01 0.  1.
    10030    2    1    2    0    0  0.00000000000E+00  0.00000000000E+00  0.66627956908E+03  0.10861759850E+04  0.85781688385E+03 0.  0.
        1    1    3    3  502    0  0.36522250399E+03 -0.19137985368E+03  0.18359444822E+03  0.45135423700E+03  0.50400001928E-02 0.  1.
       -1    1    3    3    0  502 -0.36522250399E+03  0.19137985368E+03  0.48268512086E+03  0.63482174800E+03  0.50400001928E-02 0. -1.
</event>
<event>
 5   0  0.5723194E-03  0.1113380E+04  0.7818609E-02  0.9192248E-01
       -2   -1    0    0    0  501  0.00000000000E+00  0.00000000000E+00  0.56868285789E+03  0.56868285789E+03  0.25500000920E-02 0. -1.
        2   -1    0    0  501    0  0.00000000000E+00  0.00000000000E+00 -0.54495009625E+03  0.54495009626E+03  0.25500000920E-02 0.  1.
    10030    2    1    2    0    0  0.00000000000E+00  0.00000000000E+00  0.23732761638E+02  0.11136329542E+04  0.11133800396E+04 0.  0.
        1    1    3    3  502    0  0.75552454674E+02  0.54472193370E+03  0.98336117998E+02  0.55865924372E+03  0.50400001928E-02 0. -1.
       -1    1    3    3    0  502 -0.75552454674E+02 -0.54472193370E+03 -0.74603356360E+02  0.55497371043E+03  0.50400001928E-02 0.  1.
</event>
<event>
 5   0  0.5627232E-03  0.1144499E+04  0.7818609E-02  0.9162873E-01
       -2   -1    0    0    0  501  0.00000000000E+00  0.00000000000E+00  0.56500072554E+03  0.56500072554E+03  0.25500000920E-02 0.  1.
        2   -1    0    0  501    0  0.00000000000E+00  0.00000000000E+00 -0.57959160275E+03  0.57959160275E+03  0.25500000920E-02 0. -1.
    10030    2    1    2    0    0  0.00000000000E+00  0.00000000000E+00 -0.14590877211E+02  0.11445923283E+04  0.11444993247E+04 0.  0.
        2    1    3    3  502    0 -0.53578485289E+03 -0.19900902466E+03  0.20985395053E+02  0.57193564961E+03  0.25500000920E-02 0.  1.
       -2    1    3    3    0  502  0.53578485289E+03  0.19900902466E+03 -0.35576272264E+02  0.57265667868E+03  0.25500000920E-02 0. -1.
</event>
<event>
 5   0  0.3320192E-03  0.1115746E+04  0.7818609E-02  0.9189979E-01
       -1   -1    0    0    0  501  0.00000000000E+00  0.00000000000E+00  0.21743120547E+03  0.21743120553E+03  0.50400001928E-02 0.  1.
        1   -1    0    0  501    0  0.00000000000E+00  0.00000000000E+00 -0.14313595361E+04  0.14313595361E+04  0.50400001928E-02 0. -1.
    10030    2    1    2    0    0  0.00000000000E+00  0.00000000000E+00 -0.12139283307E+04  0.16487907417E+04  0.11157459020E+04 0.  0.
        2    1    3    3  502    0 -0.43063601363E+03 -0.32319918076E+03 -0.39120724392E+03  0.66554353304E+03  0.25500000920E-02 0. -1.
       -2    1    3    3    0  502  0.43063601363E+03  0.32319918076E+03 -0.82272108673E+03  0.98324720861E+03  0.25500000920E-02 0.  1.
</event>
<event>
 5   0  0.5627232E-03  0.1088427E+04  0.7818609E-02  0.9216546E-01
       -2   -1    0    0    0  501  0.00000000000E+00  0.00000000000E+00  0.27172268955E+03  0.27172268956E+03  0.25500000920E-02 0.  1.
        2   -1    0    0  501    0  0.00000000000E+00  0.00000000000E+00 -0.10899652272E+04  0.10899652272E+04  0.25500000920E-02 0. -1.
    10030    2    1    2    0    0  0.00000000000E+00  0.00000000000E+00 -0.81824253769E+03  0.13616879168E+04  0.10884269072E+04 0.  0.
        2    1    3    3  502    0 -0.94629393046E+02  0.35009902679E+03  0.98513751356E+02  0.37580448347E+03  0.25500000920E-02 0.  1.
       -2    1    3    3    0  502  0.94629393046E+02 -0.35009902679E+03 -0.91675628904E+03  0.98588343332E+03  0.25500000920E-02 0. -1.
</event>
<event>
 5   0  0.5941585E-03  0.1084436E+04  0.7818609E-02  0.9220496E-01
        2   -1    0    0  501    0  0.00000000000E+00  0.00000000000E+00  0.96718140879E+03  0.96718140879E+03  0.25500000920E-02 0. -1.
       -2   -1    0    0    0  501  0.00000000000E+00  0.00000000000E+00 -0.30397634975E+03  0.30397634976E+03  0.25500000920E-02 0.  1.
    10030    2    1    2    0    0  0.00000000000E+00  0.00000000000E+00  0.66320505904E+03  0.12711577586E+04  0.10844358426E+04 0.  0.
        5    1    3    3  502    0  0.16211942221E+03  0.50064318020E+03  0.48466959793E+03  0.71543903311E+03  0.46999998093E+01 0. -1.
       -5    1    3    3    0  502 -0.16211942221E+03 -0.50064318020E+03  0.17853546111E+03  0.55571872545E+03  0.46999998093E+01 0.  1.
</event>
<event>
 5   0  0.5946359E-03  0.1103198E+04  0.7818609E-02  0.9202081E-01
        2   -1    0    0  501    0  0.00000000000E+00  0.00000000000E+00  0.77352076444E+03  0.77352076444E+03  0.25500000920E-02 0.  1.
       -2   -1    0    0    0  501  0.00000000000E+00  0.00000000000E+00 -0.39334615827E+03  0.39334615828E+03  0.25500000920E-02 0. -1.
    10030    2    1    2    0    0  0.00000000000E+00  0.00000000000E+00  0.38017460616E+03  0.11668669227E+04  0.11031979352E+04 0.  0.
        4    1    3    3  502    0 -0.66961921525E+02 -0.39787651821E+03 -0.20774528051E+03  0.45381641349E+03  0.12699999809E+01 0. -1.
       -4    1    3    3    0  502  0.66961921525E+02  0.39787651821E+03  0.58791988667E+03  0.71305050923E+03  0.12699999809E+01 0.  1.
</event>
<event>
 5   0  0.5627232E-03  0.1096476E+04  0.7818609E-02  0.9208634E-01
       -2   -1    0    0    0  501  0.00000000000E+00  0.00000000000E+00  0.39237581345E+03  0.39237581346E+03  0.25500000920E-02 0.  1.
        2   -1    0    0  501    0  0.00000000000E+00  0.00000000000E+00 -0.76601220694E+03  0.76601220694E+03  0.25500000920E-02 0. -1.
    10030    2    1    2    0    0  0.00000000000E+00  0.00000000000E+00 -0.37363639349E+03  0.11583880204E+04  0.10964755589E+04 0.  0.
        2    1    3    3  502    0 -0.39789417729E+03  0.19376560697E+03 -0.52866221001E+03  0.68945530607E+03  0.25500000920E-02 0.  1.
       -2    1    3    3    0  502  0.39789417729E+03 -0.19376560697E+03  0.15502581653E+03  0.46893271432E+03  0.25500000920E-02 0. -1.
</event>
<event>
 5   0  0.2185750E-03  0.1092782E+04  0.7818609E-02  0.9212256E-01
        4   -1    0    0  501    0  0.00000000000E+00  0.00000000000E+00  0.13843625141E+04  0.13843630967E+04  0.12699999809E+01 0. -1.
       -4   -1    0    0    0  501  0.00000000000E+00  0.00000000000E+00 -0.21565121427E+03  0.21565495384E+03  0.12699999809E+01 0.  1.
    10030    2    1    2    0    0  0.00000000000E+00  0.00000000000E+00  0.11687112999E+04  0.16000180505E+04  0.10927816157E+04 0.  0.
        2    1    3    3  502    0  0.26466167276E+03 -0.47622713636E+03  0.52390070327E+03  0.75585053637E+03  0.25500000920E-02 0.  1.
       -2    1    3    3    0  502 -0.26466167276E+03  0.47622713636E+03  0.64481059658E+03  0.84416751413E+03  0.25500000920E-02 0. -1.
</event>
<event>
 5   0  0.3215352E-03  0.1175990E+04  0.7818609E-02  0.9134136E-01
       -1   -1    0    0    0  501  0.00000000000E+00  0.00000000000E+00  0.14080882614E+03  0.14080882624E+03  0.50400001928E-02 0.  1.
        1   -1    0    0  501    0  0.00000000000E+00  0.00000000000E+00 -0.24553741142E+04  0.24553741142E+04  0.50400001928E-02 0. -1.
    10030    2    1    2    0    0  0.00000000000E+00  0.00000000000E+00 -0.23145652880E+04  0.25961829404E+04  0.11759903858E+04 0.  0.
        1    1    3    3  502    0 -0.17099634136E+03 -0.19452634492E+03 -0.23226620946E+04  0.23370578626E+04  0.50400001928E-02 0. -1.
       -1    1    3    3    0  502  0.17099634136E+03  0.19452634492E+03  0.80968065729E+01  0.25912507777E+03  0.50400001928E-02 0.  1.
</event>
<event>
 5   0  0.5500363E-03  0.1129208E+04  0.7818609E-02  0.9177182E-01
        2   -1    0    0  501    0  0.00000000000E+00  0.00000000000E+00  0.42950329584E+03  0.42950329585E+03  0.25500000920E-02 0.  1.
       -2   -1    0    0    0  501  0.00000000000E+00  0.00000000000E+00 -0.74220055760E+03  0.74220055761E+03  0.25500000920E-02 0. -1.
    10030    2    1    2    0    0  0.00000000000E+00  0.00000000000E+00 -0.31269726176E+03  0.11717038535E+04  0.11292078386E+04 0.  0.
        3    1    3    3  502    0  0.50538967680E+03 -0.14353851685E+03  0.58207136685E+02  0.52859257675E+03  0.10100000352E+00 0.  1.
       -3    1    3    3    0  502 -0.50538967680E+03  0.14353851685E+03 -0.37090439844E+03  0.64311127670E+03  0.10100000352E+00 0. -1.
</event>
<event>
 5   0  0.3215352E-03  0.1088289E+04  0.7818609E-02  0.9216682E-01
        1   -1    0    0  501    0  0.00000000000E+00  0.00000000000E+00  0.62423264218E+03  0.62423264220E+03  0.50400001928E-02 0.  1.
       -1   -1    0    0    0  501  0.00000000000E+00  0.00000000000E+00 -0.47433149964E+03  0.47433149967E+03  0.50400001928E-02 0. -1.
    10030    2    1    2    0    0  0.00000000000E+00  0.00000000000E+00  0.14990114254E+03  0.10985641419E+04  0.10882889420E+04 0.  0.
        1    1    3    3  502    0 -0.45984700942E+03  0.25732334331E+03 -0.62046053359E+02  0.53058862394E+03  0.50400001928E-02 0. -1.
       -1    1    3    3    0  502  0.45984700942E+03 -0.25732334331E+03  0.21194719590E+03  0.56797551793E+03  0.50400001928E-02 0.  1.
</event>
<event>
 5   0  0.5627232E-03  0.1124021E+04  0.7818609E-02  0.9182090E-01
        2   -1    0    0  501    0  0.00000000000E+00  0.00000000000E+00  0.94605898746E+03  0.94605898746E+03  0.25500000920E-02 0.  1.
       -2   -1    0    0    0  501  0.00000000000E+00  0.00000000000E+00 -0.33386496402E+03  0.33386496403E+03  0.25500000920E-02 0. -1.
    10030    2    1    2    0    0  0.00000000000E+00  0.00000000000E+00  0.61219402344E+03  0.12799239515E+04  0.11240212628E+04 0.  0.
        2    1    3    3  502    0 -0.50105857800E+03  0.21136684396E+03  0.46761725392E+03  0.71721791492E+03  0.25500000920E-02 0.  1.
       -2    1    3    3    0  502  0.50105857800E+03 -0.21136684396E+03  0.14457676951E+03  0.56270603658E+03  0.25500000920E-02 0. -1.
</event>
<event>
 5   0  0.5941585E-03  0.1094534E+04  0.7818609E-02  0.9210535E-01
        2   -1    0    0  501    0  0.00000000000E+00  0.00000000000E+00  0.36971928888E+03  0.36971928889E+03  0.25500000920E-02 0. -1.
       -2   -1    0    0    0  501  0.00000000000E+00  0.00000000000E+00 -0.81007776711E+03  0.81007776712E+03  0.25500000920E-02 0.  1.
    10030    2    1    2    0    0  0.00000000000E+00  0.00000000000E+00 -0.44035847823E+03  0.11797970560E+04  0.10945343777E+04 0.  0.
        5    1    3    3  502    0 -0.15382711187E+03  0.51972101670E+03 -0.13875279055E+03  0.55950615942E+03  0.46999998093E+01 0.  1.
       -5    1    3    3    0  502  0.15382711187E+03 -0.51972101670E+03 -0.30160568769E+03  0.62029089659E+03  0.46999998093E+01 0. -1.
</event>
<event>
 5   0  0.3215352E-03  0.1099404E+04  0.7818609E-02  0.9205773E-01
       -1   -1    0    0    0  501  0.00000000000E+00  0.00000000000E+00  0.25088418027E+03  0.25088418032E+03  0.50400001928E-02 0.  1.
        1   -1    0    0  501    0  0.00000000000E+00  0.00000000000E+00 -0.12044303000E+04  0.12044303000E+04  0.50400001928E-02 0. -1.
    10030    2    1    2    0    0  0.00000000000E+00  0.00000000000E+00 -0.95354611974E+03  0.14553144803E+04  0.10994043998E+04 0.  0.
        1    1    3    3  502    0 -0.25762627224E+03  0.32126502638E+03  0.52355072618E+01  0.41183725412E+03  0.50400001928E-02 0.  1.
       -1    1    3    3    0  502  0.25762627224E+03 -0.32126502638E+03 -0.95878162700E+03  0.10434772262E+04  0.50400001928E-02 0. -1.
</event>
<event>
 5   0  0.3316784E-03  0.1098969E+04  0.7818609E-02  0.9206198E-01
       -1   -1    0    0    0  501  0.00000000000E+00  0.00000000000E+00  0.30194489835E+03  0.30194489840E+03  0.50400001928E-02 0. -1.
        1   -1    0    0  501    0  0.00000000000E+00  0.00000000000E+00 -0.99996042283E+03  0.99996042284E+03  0.50400001928E-02 0.  1.
    10030    2    1    2    0    0  0.00000000000E+00  0.00000000000E+00 -0.69801552448E+03  0.13019053212E+04  0.10989685132E+04 0.  0.
        4    1    3    3  502    0  0.50580454194E+03 -0.11708198928E+02 -0.60296778172E+03  0.78711312736E+03  0.12699999809E+01 0.  1.
       -4    1    3    3    0  502 -0.50580454194E+03  0.11708198928E+02 -0.95047742757E+02  0.51479219388E+03  0.12699999809E+01 0. -1.
</event>
<event>
 5   0  0.3241189E-03  0.1160219E+04  0.7818609E-02  0.9148407E-01
        1   -1    0    0  501    0  0.00000000000E+00  0.00000000000E+00  0.52396397750E+03  0.52396397753E+03  0.50400001928E-02 0. -1.
       -1   -1    0    0    0  501  0.00000000000E+00  0.00000000000E+00 -0.64227177400E+03  0.64227177402E+03  0.50400001928E-02 0.  1.
    10030    2    1    2    0    0  0.00000000000E+00  0.00000000000E+00 -0.11830779650E+03  0.11662357515E+04  0.11602194161E+04 0.  0.
        5    1    3    3  502    0 -0.16078003990E+03  0.55540745902E+03 -0.12248053768E+02  0.57835955217E+03  0.46999998093E+01 0. -1.
       -5    1    3    3    0  502  0.16078003990E+03 -0.55540745902E+03 -0.10605974273E+03  0.58787619938E+03  0.46999998093E+01 0.  1.
</event>
<event>
 5   0  0.2185750E-03  0.1107336E+04  0.7818609E-02  0.9198071E-01
       -3   -1    0    0    0  501  0.00000000000E+00  0.00000000000E+00  0.19416281825E+03  0.19416284452E+03  0.10100000352E+00 0.  1.
        3   -1    0    0  501    0  0.00000000000E+00  0.00000000000E+00 -0.15788216433E+04  0.15788216465E+04  0.10100000352E+00 0. -1.
    10030    2    1    2    0    0  0.00000000000E+00  0.00000000000E+00 -0.13846588250E+04  0.17729844910E+04  0.11073364185E+04 0.  0.
        1    1    3    3  502    0 -0.25904552563E+03 -0.93984687278E+02  0.76562257259E+02  0.28600609268E+03  0.50400001928E-02 0.  1.
       -1    1    3    3    0  502  0.25904552563E+03  0.93984687278E+02 -0.14612210823E+04  0.14869783984E+04  0.50400001928E-02 0. -1.
</event>
<event>
 5   0  0.2185750E-03  0.1109235E+04  0.7818609E-02  0.9196237E-01
       -3   -1    0    0    0  501  0.00000000000E+00  0.00000000000E+00  0.37631366882E+03  0.37631368238E+03  0.10100000352E+00 0. -1.
        3   -1    0    0  501    0  0.00000000000E+00  0.00000000000E+00 -0.81740515154E+03  0.81740515778E+03  0.10100000352E+00 0.  1.
    10030    2    1    2    0    0  0.00000000000E+00  0.00000000000E+00 -0.44109148272E+03  0.11937188402E+04  0.11092353101E+04 0.  0.
        2    1    3    3  502    0  0.31215433801E+03 -0.44225392063E+03 -0.35045382877E+03  0.64486180470E+03  0.25500000920E-02 0.  1.
       -2    1    3    3    0  502 -0.31215433801E+03  0.44225392063E+03 -0.90637653942E+02  0.54885703546E+03  0.25500000920E-02 0. -1.
</event>
<event>
 5   0  0.3328741E-03  0.1086051E+04  0.7818609E-02  0.9218895E-01
        1   -1    0    0  501    0  0.00000000000E+00  0.00000000000E+00  0.41977154113E+03  0.41977154116E+03  0.50400001928E-02 0. -1.
       -1   -1    0    0    0  501  0.00000000000E+00  0.00000000000E+00 -0.70246943354E+03  0.70246943356E+03  0.50400001928E-02 0.  1.
    10030    2    1    2    0    0  0.00000000000E+00  0.00000000000E+00 -0.28269789241E+03  0.11222409747E+04  0.10860509689E+04 0.  0.
        3    1    3    3  502    0 -0.85406392610E+02 -0.15152247789E+03 -0.67290613792E+03  0.69502229738E+03  0.10100000352E+00 0.  1.
       -3    1    3    3    0  502  0.85406392610E+02  0.15152247789E+03  0.39020824550E+03  0.42721867734E+03  0.10100000352E+00 0. -1.
</event>
<event>
 5   0  0.5941585E-03  0.1091111E+04  0.7818609E-02  0.9213899E-01
       -2   -1    0    0    0  501  0.00000000000E+00  0.00000000000E+00  0.94627541866E+02  0.94627541900E+02  0.25500000920E-02 0. -1.
        2   -1    0    0  501    0  0.00000000000E+00  0.00000000000E+00 -0.31452865290E+04  0.31452865291E+04  0.25500000920E-02 0.  1.
    10030    2    1    2    0    0  0.00000000000E+00  0.00000000000E+00 -0.30506589872E+04  0.32399140710E+04  0.10911108702E+04 0.  0.
        5    1    3    3  502    0  0.32988832504E+03  0.37067939475E+02 -0.28107908468E+04  0.28303299479E+04  0.46999998093E+01 0.  1.
       -5    1    3    3    0  502 -0.32988832504E+03 -0.37067939475E+02 -0.23986814035E+03  0.40958412309E+03  0.46999998093E+01 0. -1.
</event>
<event>
 5   0  0.2185750E-03  0.1102569E+04  0.7818609E-02  0.9202692E-01
       -3   -1    0    0    0  501  0.00000000000E+00  0.00000000000E+00  0.22027058664E+03  0.22027060979E+03  0.10100000352E+00 0. -1.
        3   -1    0    0  501    0  0.00000000000E+00  0.00000000000E+00 -0.13797321409E+04  0.13797321446E+04  0.10100000352E+00 0.  1.
    10030    2    1    2    0    0  0.00000000000E+00  0.00000000000E+00 -0.11594615543E+04  0.16000027544E+04  0.11025686909E+04 0.  0.
        2    1    3    3  502    0 -0.43211636024E+03  0.33887096664E+03 -0.65017329285E+03  0.85104840730E+03  0.25500000920E-02 0. -1.
       -2    1    3    3    0  502  0.43211636024E+03 -0.33887096664E+03 -0.50928826141E+03  0.74895434710E+03  0.25500000920E-02 0.  1.
</event>
<event>
 5   0  0.5941585E-03  0.1139885E+04  0.7818609E-02  0.9167166E-01
        2   -1    0    0  501    0  0.00000000000E+00  0.00000000000E+00  0.10409281502E+04  0.10409281502E+04  0.25500000920E-02 0. -1.
       -2   -1    0    0    0  501  0.00000000000E+00  0.00000000000E+00 -0.31206245230E+03  0.31206245231E+03  0.25500000920E-02 0.  1.
    10030    2    1    2    0    0  0.00000000000E+00  0.00000000000E+00  0.72886569791E+03  0.13529906025E+04  0.11398852420E+04 0.  0.
        5    1    3    3  502    0 -0.35524994224E+03 -0.28551869631E+03  0.77058784286E+03  0.89529389642E+03  0.46999998093E+01 0. -1.
       -5    1    3    3    0  502  0.35524994224E+03  0.28551869631E+03 -0.41722144951E+02  0.45769670611E+03  0.46999998093E+01 0.  1.
</event>
<event>
 5   0  0.3215352E-03  0.1096379E+04  0.7818609E-02  0.9208728E-01
        1   -1    0    0  501    0  0.00000000000E+00  0.00000000000E+00  0.14860663748E+04  0.14860663749E+04  0.50400001928E-02 0.  1.
       -1   -1    0    0    0  501  0.00000000000E+00  0.00000000000E+00 -0.20221968105E+03  0.20221968111E+03  0.50400001928E-02 0. -1.
    10030    2    1    2    0    0  0.00000000000E+00  0.00000000000E+00  0.12838466938E+04  0.16882860560E+04  0.10963792563E+04 0.  0.
        1    1    3    3  502    0  0.44464350534E+03 -0.31299301538E+03  0.74904584893E+03  0.92560367239E+03  0.50400001928E-02 0.  1.
       -1    1    3    3    0  502 -0.44464350534E+03  0.31299301538E+03  0.53480084487E+03  0.76268238358E+03  0.50400001928E-02 0. -1.
</event>
<event>
 5   0  0.3241189E-03  0.1089838E+04  0.7818609E-02  0.9215153E-01
       -1   -1    0    0    0  501  0.00000000000E+00  0.00000000000E+00  0.29323464285E+03  0.29323464289E+03  0.50400001928E-02 0.  1.
        1   -1    0    0  501    0  0.00000000000E+00  0.00000000000E+00 -0.10126257566E+04  0.10126257567E+04  0.50400001928E-02 0. -1.
    10030    2    1    2    0    0  0.00000000000E+00  0.00000000000E+00 -0.71939111380E+03  0.13058603996E+04  0.10898384323E+04 0.  0.
        5    1    3    3  502    0 -0.50333668488E+03  0.20864538200E+03 -0.36669751529E+03  0.65678753908E+03  0.46999998093E+01 0. -1.
       -5    1    3    3    0  502  0.50333668488E+03 -0.20864538200E+03 -0.35269359851E+03  0.64907286048E+03  0.46999998093E+01 0.  1.
</event>
<event>
 5   0  0.5500363E-03  0.1097884E+04  0.7818609E-02  0.9207256E-01
       -2   -1    0    0    0  501  0.00000000000E+00  0.00000000000E+00  0.80545049551E+03  0.80545049551E+03  0.25500000920E-02 0.  1.
        2   -1    0    0  501    0  0.00000000000E+00  0.00000000000E+00 -0.37412304656E+03  0.37412304657E+03  0.25500000920E-02 0. -1.
    10030    2    1    2    0    0  0.00000000000E+00  0.00000000000E+00  0.43132744894E+03  0.11795735421E+04  0.10978844989E+04 0.  0.
        3    1    3    3  502    0 -0.25424578249E+03  0.12316930279E+03 -0.29002201961E+03  0.40487575517E+03  0.10100000352E+00 0. -1.
       -3    1    3    3    0  502  0.25424578249E+03 -0.12316930279E+03  0.72134946855E+03  0.77469778691E+03  0.10100000352E+00 0.  1.
</event>
<event>
 5   0  0.5941585E-03  0.1108640E+04  0.7818609E-02  0.9196811E-01
        2   -1    0    0  501    0  0.00000000000E+00  0.00000000000E+00  0.13946829797E+04  0.13946829797E+04  0.25500000920E-02 0.  1.
       -2   -1    0    0    0  501  0.00000000000E+00  0.00000000000E+00 -0.22031580453E+03  0.22031580455E+03  0.25500000920E-02 0. -1.
    10030    2    1    2    0    0  0.00000000000E+00  0.00000000000E+00  0.11743671752E+04  0.16149987842E+04  0.11086400728E+04 0.  0.
        5    1    3    3  502    0  0.41405358864E+03 -0.36709048117E+03  0.63445059385E+03  0.84187020476E+03  0.46999998093E+01 0.  1.
       -5    1    3    3    0  502 -0.41405358864E+03  0.36709048117E+03  0.53991658131E+03  0.77312857947E+03  0.46999998093E+01 0. -1.
</event>
<event>
 5   0  0.2185750E-03  0.1071253E+04  0.7818609E-02  0.9233673E-01
       -3   -1    0    0    0  501  0.00000000000E+00  0.00000000000E+00  0.51682559691E+03  0.51682560678E+03  0.10100000352E+00 0.  1.
        3   -1    0    0  501    0  0.00000000000E+00  0.00000000000E+00 -0.55511091209E+03  0.55511092128E+03  0.10100000352E+00 0. -1.
    10030    2    1    2    0    0  0.00000000000E+00  0.00000000000E+00 -0.38285315177E+02  0.10719365281E+04  0.10712526102E+04 0.  0.
        4    1    3    3  502    0 -0.28214092491E+03  0.95239321218E+02  0.42636051314E+03  0.52005666026E+03  0.12699999809E+01 0.  1.
       -4    1    3    3    0  502  0.28214092491E+03 -0.95239321218E+02 -0.46464582831E+03  0.55187986780E+03  0.12699999809E+01 0. -1.
</event>
<event>
 5   0  0.5946359E-03  0.1097583E+04  0.7818609E-02  0.9207551E-01
        2   -1    0    0  501    0  0.00000000000E+00  0.00000000000E+00  0.84733982461E+03  0.84733982461E+03  0.25500000920E-02 0. -1.
       -2   -1    0    0    0  501  0.00000000000E+00  0.00000000000E+00 -0.35543271367E+03  0.35543271368E+03  0.25500000920E-02 0.  1.
    10030    2    1    2    0    0  0.00000000000E+00  0.00000000000E+00  0.49190711094E+03  0.12027725383E+04  0.10975833331E+04 0.  0.
        4    1    3    3  502    0 -0.33365605635E+03 -0.31813337705E+03 -0.80295886973E+02  0.46795753215E+03  0.12699999809E+01 0.  1.
       -4    1    3    3    0  502  0.33365605635E+03  0.31813337705E+03  0.57220299791E+03  0.73481500614E+03  0.12699999809E+01 0. -1.
</event>
<event>
 5   0  0.3215352E-03  0.8373215E+03  0.7818609E-02  0.9507513E-01
       -1   -1    0    0    0  501  0.00000000000E+00  0.00000000000E+00  0.28770123889E+03  0.28770123893E+03  0.50400001928E-02 0.  1.
        1   -1    0    0  501    0  0.00000000000E+00  0.00000000000E+00 -0.60923209756E+03  0.60923209758E+03  0.50400001928E-02 0. -1.
    10030    2    1    2    0    0  0.00000000000E+00  0.00000000000E+00 -0.32153085867E+03  0.89693333652E+03  0.83732151357E+03 0.  0.
        1    1    3    3  502    0  0.54945050013E+01 -0.11335376197E+03  0.27091033996E+03  0.29372040661E+03  0.50400001928E-02 0.  1.
       -1    1    3    3    0  502 -0.54945050013E+01  0.11335376197E+03 -0.59244119864E+03  0.60321292990E+03  0.50400001928E-02 0. -1.
</event>
<event>
 5   0  0.3316784E-03  0.1057838E+04  0.7818609E-02  0.9247288E-01
        1   -1    0    0  501    0  0.00000000000E+00  0.00000000000E+00  0.12862464537E+04  0.12862464537E+04  0.50400001928E-02 0.  1.
       -1   -1    0    0    0  501  0.00000000000E+00  0.00000000000E+00 -0.21749764259E+03  0.21749764265E+03  0.50400001928E-02 0. -1.
    10030    2    1    2    0    0  0.00000000000E+00  0.00000000000E+00  0.10687488111E+04  0.15037440964E+04  0.10578384972E+04 0.  0.
        4    1    3    3  502    0  0.40895294405E+02 -0.32544236343E+03  0.11242111117E+04  0.11710838542E+04  0.12699999809E+01 0.  1.
       -4    1    3    3    0  502 -0.40895294405E+02  0.32544236343E+03 -0.55462300600E+02  0.33266024215E+03  0.12699999809E+01 0. -1.
</event>
<event>
 5   0  0.3316784E-03  0.1110946E+04  0.7818609E-02  0.9194589E-01
       -1   -1    0    0    0  501  0.00000000000E+00  0.00000000000E+00  0.28096397777E+03  0.28096397781E+03  0.50400001928E-02 0.  1.
        1   -1    0    0  501    0  0.00000000000E+00  0.00000000000E+00 -0.10981834853E+04  0.10981834853E+04  0.50400001928E-02 0. -1.
    10030    2    1    2    0    0  0.00000000000E+00  0.00000000000E+00 -0.81721950749E+03  0.13791474631E+04  0.11109455439E+04 0.  0.
        4    1    3    3  502    0  0.33256009701E+03  0.33410169707E+02  0.14216004991E+03  0.36321281675E+03  0.12699999809E+01 0.  1.
       -4    1    3    3    0  502 -0.33256009701E+03 -0.33410169707E+02 -0.95937955740E+03  0.10159346463E+04  0.12699999809E+01 0. -1.
</event>
<event>
 5   0  0.3316784E-03  0.1089226E+04  0.7818609E-02  0.9215757E-01
        1   -1    0    0  501    0  0.00000000000E+00  0.00000000000E+00  0.30786697808E+03  0.30786697812E+03  0.50400001928E-02 0.  1.
       -1   -1    0    0    0  501  0.00000000000E+00  0.00000000000E+00 -0.96341305392E+03  0.96341305393E+03  0.50400001928E-02 0. -1.
    10030    2    1    2    0    0  0.00000000000E+00  0.00000000000E+00 -0.65554607584E+03  0.12712800321E+04  0.10892255333E+04 0.  0.
        4    1    3    3  502    0 -0.86079373391E+02  0.53776542101E+03 -0.32732688042E+03  0.63540995122E+03  0.12699999809E+01 0. -1.
       -4    1    3    3    0  502  0.86079373391E+02 -0.53776542101E+03 -0.32821919542E+03  0.63587008084E+03  0.12699999809E+01 0.  1.
</event>
<event>
 5   0  0.3215352E-03  0.1137352E+04  0.7818609E-02  0.9169532E-01
       -1   -1    0    0    0  501  0.00000000000E+00  0.00000000000E+00  0.33161923289E+03  0.33161923293E+03  0.50400001928E-02 0. -1.
        1   -1    0    0  501    0  0.00000000000E+00  0.00000000000E+00 -0.97519194578E+03  0.97519194579E+03  0.50400001928E-02 0.  1.
    10030    2    1    2    0    0  0.00000000000E+00  0.00000000000E+00 -0.64357271289E+03  0.13068111787E+04  0.11373520212E+04 0.  0.
        1    1    3    3  502    0 -0.14014659301E+01  0.35651052595E+02 -0.97390468551E+03  0.97455800143E+03  0.50400001928E-02 0.  1.
       -1    1    3    3    0  502  0.14014659301E+01 -0.35651052595E+02  0.33033197262E+03  0.33225317729E+03  0.50400001928E-02 0. -1.
</event>
<event>
 5   0  0.3241189E-03  0.1121387E+04  0.7818609E-02  0.9184594E-01
       -1   -1    0    0    0  501  0.00000000000E+00  0.00000000000E+00  0.23272853351E+03  0.23272853356E+03  0.50400001928E-02 0.  1.
        1   -1    0    0  501    0  0.00000000000E+00  0.00000000000E+00 -0.13508310162E+04  0.13508310162E+04  0.50400001928E-02 0. -1.
    10030    2    1    2    0    0  0.00000000000E+00  0.00000000000E+00 -0.11181024827E+04  0.15835595497E+04  0.11213865015E+04 0.  0.
        5    1    3    3  502    0 -0.43063493823E+03 -0.40682770065E+02 -0.55302943668E+02  0.43609866244E+03  0.46999998093E+01 0.  1.
       -5    1    3    3    0  502  0.43063493823E+03  0.40682770065E+02 -0.10627995390E+04  0.11474608873E+04  0.46999998093E+01 0. -1.
</event>
<event>
 5   0  0.5946359E-03  0.1113930E+04  0.7818609E-02  0.9191720E-01
       -2   -1    0    0    0  501  0.00000000000E+00  0.00000000000E+00  0.22205724417E+03  0.22205724419E+03  0.25500000920E-02 0.  1.
        2   -1    0    0  501    0  0.00000000000E+00  0.00000000000E+00 -0.13969822073E+04  0.13969822073E+04  0.25500000920E-02 0. -1.
    10030    2    1    2    0    0  0.00000000000E+00  0.00000000000E+00 -0.11749249632E+04  0.16190394515E+04  0.11139300142E+04 0.  0.
        4    1    3    3  502    0  0.14398249858E+03  0.30400359773E+03 -0.12326678141E+04  0.12777404667E+04  0.12699999809E+01 0. -1.
       -4    1    3    3    0  502 -0.14398249858E+03 -0.30400359773E+03  0.57742850939E+02  0.34129898486E+03  0.12699999809E+01 0.  1.
</event>
<event>
 5   0  0.3241189E-03  0.1117281E+04  0.7818609E-02  0.9188511E-01
       -1   -1    0    0    0  501  0.00000000000E+00  0.00000000000E+00  0.97486010334E+03  0.97486010335E+03  0.50400001928E-02 0. -1.
        1   -1    0    0  501    0  0.00000000000E+00  0.00000000000E+00 -0.32012702952E+03  0.32012702956E+03  0.50400001928E-02 0.  1.
    10030    2    1    2    0    0  0.00000000000E+00  0.00000000000E+00  0.65473307382E+03  0.12949871329E+04  0.11172807509E+04 0.  0.
        5    1    3    3  502    0  0.23831607598E+03 -0.21090111477E+03  0.85950062284E+03  0.91653545645E+03  0.46999998093E+01 0. -1.
       -5    1    3    3    0  502 -0.23831607598E+03  0.21090111477E+03 -0.20476754902E+03  0.37845167645E+03  0.46999998093E+01 0.  1.
</event>
<event>
 5   0  0.5946359E-03  0.1214657E+04  0.7818609E-02  0.9100123E-01
       -2   -1    0    0    0  501  0.00000000000E+00  0.00000000000E+00  0.71410681658E+03  0.71410681659E+03  0.25500000920E-02 0.  1.
        2   -1    0    0  501    0  0.00000000000E+00  0.00000000000E+00 -0.51651628714E+03  0.51651628715E+03  0.25500000920E-02 0. -1.
    10030    2    1    2    0    0  0.00000000000E+00  0.00000000000E+00  0.19759052944E+03  0.12306231037E+04  0.12146568265E+04 0.  0.
        4    1    3    3  502    0 -0.15386884872E+03 -0.37320932379E+03  0.55850553790E+03  0.68912326237E+03  0.12699999809E+01 0.  1.
       -4    1    3    3    0  502  0.15386884872E+03  0.37320932379E+03 -0.36091500846E+03  0.54149984137E+03  0.12699999809E+01 0. -1.
</event>
<event>
 5   0  0.3215352E-03  0.1121997E+04  0.7818609E-02  0.9184013E-01
        1   -1    0    0  501    0  0.00000000000E+00  0.00000000000E+00  0.52241544598E+03  0.52241544600E+03  0.50400001928E-02 0. -1.
       -1   -1    0    0    0  501  0.00000000000E+00  0.00000000000E+00 -0.60243133771E+03  0.60243133773E+03  0.50400001928E-02 0.  1.
    10030    2    1    2    0    0  0.00000000000E+00  0.00000000000E+00 -0.80015891725E+02  0.11248467837E+04  0.11219972121E+04 0.  0.
        1    1    3    3  502    0  0.43929693016E+03 -0.10142717732E+03 -0.37469734920E+03  0.58623149751E+03  0.50400001928E-02 0.  1.
       -1    1    3    3    0  502 -0.43929693016E+03  0.10142717732E+03  0.29468145747E+03  0.53861528622E+03  0.50400001928E-02 0. -1.
</event>
<event>
 5   0  0.5723194E-03  0.1106901E+04  0.7818609E-02  0.9198491E-01
       -2   -1    0    0    0  501  0.00000000000E+00  0.00000000000E+00  0.40791913613E+03  0.40791913614E+03  0.25500000920E-02 0. -1.
        2   -1    0    0  501    0  0.00000000000E+00  0.00000000000E+00 -0.75090291899E+03  0.75090291900E+03  0.25500000920E-02 0.  1.
    10030    2    1    2    0    0  0.00000000000E+00  0.00000000000E+00 -0.34298378286E+03  0.11588220551E+04  0.11069013868E+04 0.  0.
        1    1    3    3  502    0  0.39643615133E+03  0.38276796121E+03 -0.22522925527E+03  0.59531600992E+03  0.50400001928E-02 0.  1.
       -1    1    3    3    0  502 -0.39643615133E+03 -0.38276796121E+03 -0.11775452758E+03  0.56350604522E+03  0.50400001928E-02 0. -1.
</event>
<event>
 5   0  0.3328741E-03  0.1024197E+04  0.7818609E-02  0.9282397E-01
       -1   -1    0    0    0  501  0.00000000000E+00  0.00000000000E+00  0.78565996633E+03  0.78565996634E+03  0.50400001928E-02 0.  1.
        1   -1    0    0  501    0  0.00000000000E+00  0.00000000000E+00 -0.33378947748E+03  0.33378947752E+03  0.50400001928E-02 0. -1.
    10030    2    1    2    0    0  0.00000000000E+00  0.00000000000E+00  0.45187048885E+03  0.11194494439E+04  0.10241973046E+04 0.  0.
        3    1    3    3  502    0 -0.27668643033E+02  0.25501710808E+03  0.71037766376E+03  0.75527194744E+03  0.10100000352E+00 0.  1.
       -3    1    3    3    0  502  0.27668643033E+02 -0.25501710808E+03 -0.25850717491E+03  0.36417749642E+03  0.10100000352E+00 0. -1.
</event>
<event>
 5   0  0.5627232E-03  0.1356135E+04  0.7818609E-02  0.8986197E-01
        2   -1    0    0  501    0  0.00000000000E+00  0.00000000000E+00  0.12644889377E+04  0.12644889377E+04  0.25500000920E-02 0. -1.
       -2   -1    0    0    0  501  0.00000000000E+00  0.00000000000E+00 -0.36360569747E+03  0.36360569747E+03  0.25500000920E-02 0.  1.
    10030    2    1    2    0    0  0.00000000000E+00  0.00000000000E+00  0.90088324027E+03  0.16280946352E+04  0.13561347752E+04 0.  0.
        2    1    3    3  502    0  0.51856266695E+03  0.15783853240E+03  0.93951288514E+03  0.10846680152E+04  0.25500000920E-02 0. -1.
       -2    1    3    3    0  502 -0.51856266695E+03 -0.15783853240E+03 -0.38629644871E+02  0.54342662001E+03  0.25500000920E-02 0.  1.
</event>
<event>
 5   0  0.3215352E-03  0.1105145E+04  0.7818609E-02  0.9200192E-01
        1   -1    0    0  501    0  0.00000000000E+00  0.00000000000E+00  0.17315198368E+04  0.17315198368E+04  0.50400001928E-02 0. -1.
       -1   -1    0    0    0  501  0.00000000000E+00  0.00000000000E+00 -0.17633996234E+03  0.17633996242E+03  0.50400001928E-02 0.  1.
    10030    2    1    2    0    0  0.00000000000E+00  0.00000000000E+00  0.15551798744E+04  0.19078597992E+04  0.11051445931E+04 0.  0.
        1    1    3    3  502    0 -0.43437934709E+03 -0.46578340308E+02  0.13616996256E+04  0.14300632257E+04  0.50400001928E-02 0. -1.
       -1    1    3    3    0  502  0.43437934709E+03  0.46578340308E+02  0.19348024880E+03  0.47779657352E+03  0.50400001928E-02 0.  1.
</event>
<event>
 5   0  0.3328741E-03  0.1089727E+04  0.7818609E-02  0.9215263E-01
        1   -1    0    0  501    0  0.00000000000E+00  0.00000000000E+00  0.48412579801E+03  0.48412579803E+03  0.50400001928E-02 0. -1.
       -1   -1    0    0    0  501  0.00000000000E+00  0.00000000000E+00 -0.61322149583E+03  0.61322149585E+03  0.50400001928E-02 0.  1.
    10030    2    1    2    0    0  0.00000000000E+00  0.00000000000E+00 -0.12909569782E+03  0.10973472939E+04  0.10897272063E+04 0.  0.
        3    1    3    3  502    0  0.44316423290E+02 -0.41349521050E+03 -0.41905231785E+03  0.59037876806E+03  0.10100000352E+00 0.  1.
       -3    1    3    3    0  502 -0.44316423290E+02  0.41349521050E+03  0.28995662003E+03  0.50696852583E+03  0.10100000352E+00 0. -1.
</event>
<event>
 5   0  0.3215352E-03  0.1121447E+04  0.7818609E-02  0.9184537E-01
       -1   -1    0    0    0  501  0.00000000000E+00  0.00000000000E+00  0.49391438946E+03  0.49391438949E+03  0.50400001928E-02 0. -1.
        1   -1    0    0  501    0  0.00000000000E+00  0.00000000000E+00 -0.63656916678E+03  0.63656916680E+03  0.50400001928E-02 0.  1.
    10030    2    1    2    0    0  0.00000000000E+00  0.00000000000E+00 -0.14265477732E+03  0.11304835563E+04  0.11214466931E+04 0.  0.
        1    1    3    3  502    0  0.28215432436E+03 -0.51654990384E+02  0.41435519790E+03  0.50395389753E+03  0.50400001928E-02 0. -1.
       -1    1    3    3    0  502 -0.28215432436E+03  0.51654990384E+02 -0.55700997521E+03  0.62652965876E+03  0.50400001928E-02 0.  1.
</event>
<event>
 5   0  0.5941585E-03  0.1123082E+04  0.7818609E-02  0.9182982E-01
        2   -1    0    0  501    0  0.00000000000E+00  0.00000000000E+00  0.90694550708E+03  0.90694550708E+03  0.25500000920E-02 0. -1.
       -2   -1    0    0    0  501  0.00000000000E+00  0.00000000000E+00 -0.34768143344E+03  0.34768143345E+03  0.25500000920E-02 0.  1.
    10030    2    1    2    0    0  0.00000000000E+00  0.00000000000E+00  0.55926407363E+03  0.12546269405E+04  0.11230816782E+04 0.  0.
        5    1    3    3  502    0  0.14914723531E+03  0.20858664717E+02  0.88394199851E+03  0.89669143434E+03  0.46999998093E+01 0. -1.
       -5    1    3    3    0  502 -0.14914723531E+03 -0.20858664717E+02 -0.32467792487E+03  0.35793550619E+03  0.46999998093E+01 0.  1.
</event>
<event>
 5   0  0.5500363E-03  0.1023294E+04  0.7818609E-02  0.9283359E-01
        2   -1    0    0  501    0  0.00000000000E+00  0.00000000000E+00  0.52604260323E+03  0.52604260324E+03  0.25500000920E-02 0.  1.
       -2   -1    0    0    0  501  0.00000000000E+00  0.00000000000E+00 -0.49764491411E+03  0.49764491411E+03  0.25500000920E-02 0. -1.
    10030    2    1    2    0    0  0.00000000000E+00  0.00000000000E+00  0.28397689123E+02  0.10236875173E+04  0.10232935573E+04 0.  0.
        3    1    3    3  502    0 -0.20704805209E+03 -0.17435845550E+03  0.44854643436E+03  0.52389281429E+03  0.10100000352E+00 0.  1.
       -3    1    3    3    0  502  0.20704805209E+03  0.17435845550E+03 -0.42014874524E+03  0.49979470306E+03  0.10100000352E+00 0. -1.
</event>
<event>
 5   0  0.5723194E-03  0.1108327E+04  0.7818609E-02  0.9197114E-01
        2   -1    0    0  501    0  0.00000000000E+00  0.00000000000E+00  0.12043339832E+04  0.12043339832E+04  0.25500000920E-02 0. -1.
       -2   -1    0    0    0  501  0.00000000000E+00  0.00000000000E+00 -0.25499317358E+03  0.25499317359E+03  0.25500000920E-02 0.  1.
    10030    2    1    2    0    0  0.00000000000E+00  0.00000000000E+00  0.94934080963E+03  0.14593271568E+04  0.11083265664E+04 0.  0.
        1    1    3    3  502    0  0.29454181430E+03 -0.46839445038E+03  0.43411487929E+03  0.70328086137E+03  0.50400001928E-02 0. -1.
       -1    1    3    3    0  502 -0.29454181430E+03  0.46839445038E+03  0.51522593034E+03  0.75604629543E+03  0.50400001928E-02 0.  1.
</event>
<event>
 5   0  0.3320192E-03  0.1128677E+04  0.7818609E-02  0.9177684E-01
        1   -1    0    0  501    0  0.00000000000E+00  0.00000000000E+00  0.10899689147E+04  0.10899689147E+04  0.50400001928E-02 0.  1.
       -1   -1    0    0    0  501  0.00000000000E+00  0.00000000000E+00 -0.29218967898E+03  0.29218967902E+03  0.50400001928E-02 0. -1.
    10030    2    1    2    0    0  0.00000000000E+00  0.00000000000E+00  0.79777923570E+03  0.13821585937E+04  0.11286765122E+04 0.  0.
        2    1    3    3  502    0  0.30035314266E+03  0.24052169178E+03 -0.10663494892E+03  0.39929150612E+03  0.25500000920E-02 0. -1.
       -2    1    3    3    0  502 -0.30035314266E+03 -0.24052169178E+03  0.90441418462E+03  0.98286708759E+03  0.25500000920E-02 0.  1.
</event>
<event>
 5   0  0.3215352E-03  0.1090922E+04  0.7818609E-02  0.9214085E-01
        1   -1    0    0  501    0  0.00000000000E+00  0.00000000000E+00  0.34084635916E+03  0.34084635920E+03  0.50400001928E-02 0. -1.
       -1   -1    0    0    0  501  0.00000000000E+00  0.00000000000E+00 -0.87290907816E+03  0.87290907817E+03  0.50400001928E-02 0.  1.
    10030    2    1    2    0    0  0.00000000000E+00  0.00000000000E+00 -0.53206271900E+03  0.12137554374E+04  0.10909223276E+04 0.  0.
        1    1    3    3  502    0 -0.28600112727E+02 -0.23012789671E+03 -0.81533265058E+03  0.84766983337E+03  0.50400001928E-02 0.  1.
       -1    1    3    3    0  502  0.28600112727E+02  0.23012789671E+03  0.28326993158E+03  0.36608560400E+03  0.50400001928E-02 0. -1.
</event>
<event>
 5   0  0.5941585E-03  0.1089943E+04  0.7818609E-02  0.9215050E-01
       -2   -1    0    0    0  501  0.00000000000E+00  0.00000000000E+00  0.25240331254E+03  0.25240331256E+03  0.25500000920E-02 0. -1.
        2   -1    0    0  501    0  0.00000000000E+00  0.00000000000E+00 -0.11766637177E+04  0.11766637177E+04  0.25500000920E-02 0.  1.
    10030    2    1    2    0    0  0.00000000000E+00  0.00000000000E+00 -0.92426040512E+03  0.14290670302E+04  0.10899427877E+04 0.  0.
        5    1    3    3  502    0  0.76149501620E+02  0.38333429806E+03 -0.96006604238E+03  0.10365774580E+04  0.46999998093E+01 0. -1.
       -5    1    3    3    0  502 -0.76149501620E+02 -0.38333429806E+03  0.35805637258E+02  0.39248957224E+03  0.46999998093E+01 0.  1.
</event>
<event>
 5   0  0.3241189E-03  0.1127703E+04  0.7818609E-02  0.9178604E-01
       -1   -1    0    0    0  501  0.00000000000E+00  0.00000000000E+00  0.13257825846E+04  0.13257825846E+04  0.50400001928E-02 0.  1.
        1   -1    0    0  501    0  0.00000000000E+00  0.00000000000E+00 -0.23980425024E+03  0.23980425029E+03  0.50400001928E-02 0. -1.
    10030    2    1    2    0    0  0.00000000000E+00  0.00000000000E+00  0.10859783344E+04  0.15655868349E+04  0.11277026181E+04 0.  0.
        5    1    3    3  502    0  0.10009952787E+03 -0.44001181895E+03  0.10122992477E+04  0.11083330606E+04  0.46999998093E+01 0.  1.
       -5    1    3    3    0  502 -0.10009952787E+03  0.44001181895E+03  0.73679086621E+02  0.45725377428E+03  0.46999998093E+01 0. -1.
</event>
<event>
 5   0  0.3316784E-03  0.1111084E+04  0.7818609E-02  0.9194455E-01
       -1   -1    0    0    0  501  0.00000000000E+00  0.00000000000E+00  0.26440859882E+03  0.26440859887E+03  0.50400001928E-02 0. -1.
        1   -1    0    0  501    0  0.00000000000E+00  0.00000000000E+00 -0.11672352805E+04  0.11672352805E+04  0.50400001928E-02 0.  1.
    10030    2    1    2    0    0  0.00000000000E+00  0.00000000000E+00 -0.90282668165E+03  0.14316438794E+04  0.11110842363E+04 0.  0.
        4    1    3    3  502    0  0.62205256992E+02 -0.44297677107E+03 -0.87589404317E+03  0.98350897376E+03  0.12699999809E+01 0.  1.
       -4    1    3    3    0  502 -0.62205256992E+02  0.44297677107E+03 -0.26932638485E+02  0.44813490560E+03  0.12699999809E+01 0. -1.
</event>
<event>
 5   0  0.5941585E-03  0.1105116E+04  0.7818609E-02  0.9200220E-01
        2   -1    0    0  501    0  0.00000000000E+00  0.00000000000E+00  0.55344879095E+03  0.55344879095E+03  0.25500000920E-02 0.  1.
       -2   -1    0    0    0  501  0.00000000000E+00  0.00000000000E+00 -0.55166875114E+03  0.55166875115E+03  0.25500000920E-02 0. -1.
    10030    2    1    2    0    0  0.00000000000E+00  0.00000000000E+00  0.17800398034E+01  0.11051175421E+04  0.11051161085E+04 0.  0.
        5    1    3    3  502    0  0.18257681323E+03  0.46965103747E+03 -0.22580814273E+03  0.55219362279E+03  0.46999998093E+01 0. -1.
       -5    1    3    3    0  502 -0.18257681323E+03 -0.46965103747E+03  0.22758818253E+03  0.55292391931E+03  0.46999998093E+01 0.  1.
</event>
<event>
 5   0  0.3241189E-03  0.1089979E+04  0.7818609E-02  0.9215014E-01
        1   -1    0    0  501    0  0.00000000000E+00  0.00000000000E+00  0.48455161016E+03  0.48455161018E+03  0.50400001928E-02 0.  1.
       -1   -1    0    0    0  501  0.00000000000E+00  0.00000000000E+00 -0.61296632608E+03  0.61296632610E+03  0.50400001928E-02 0. -1.
    10030    2    1    2    0    0  0.00000000000E+00  0.00000000000E+00 -0.12841471592E+03  0.10975179363E+04  0.10899794866E+04 0.  0.
        5    1    3    3  502    0 -0.22365143614E+03 -0.11605140305E+03 -0.55077173855E+03  0.60568926936E+03  0.46999998093E+01 0. -1.
       -5    1    3    3    0  502  0.22365143614E+03  0.11605140305E+03  0.42235702263E+03  0.49182866692E+03  0.46999998093E+01 0.  1.
</event>
<event>
 5   0  0.5941585E-03  0.1087041E+04  0.7818609E-02  0.9217916E-01
       -2   -1    0    0    0  501  0.00000000000E+00  0.00000000000E+00  0.67844169640E+03  0.67844169640E+03  0.25500000920E-02 0.  1.
        2   -1    0    0  501    0  0.00000000000E+00  0.00000000000E+00 -0.43543078432E+03  0.43543078433E+03  0.25500000920E-02 0. -1.
    10030    2    1    2    0    0  0.00000000000E+00  0.00000000000E+00  0.24301091207E+03  0.11138724807E+04  0.10870407536E+04 0.  0.
        5    1    3    3  502    0  0.38115475203E+03  0.72911994300E+00  0.51851281717E+03  0.64355039288E+03  0.46999998093E+01 0.  1.
       -5    1    3    3    0  502 -0.38115475203E+03 -0.72911994300E+00 -0.27550190510E+03  0.47032208785E+03  0.46999998093E+01 0. -1.
</event>
<event>
 5   0  0.5946359E-03  0.1097784E+04  0.7818609E-02  0.9207354E-01
       -2   -1    0    0    0  501  0.00000000000E+00  0.00000000000E+00  0.38994499548E+03  0.38994499549E+03  0.25500000920E-02 0. -1.
        2   -1    0    0  501    0  0.00000000000E+00  0.00000000000E+00 -0.77262855488E+03  0.77262855489E+03  0.25500000920E-02 0.  1.
    10030    2    1    2    0    0  0.00000000000E+00  0.00000000000E+00 -0.38268355940E+03  0.11625735504E+04  0.10977843838E+04 0.  0.
        4    1    3    3  502    0 -0.33293623906E+03  0.40404567452E+03 -0.36594036920E+03  0.63875927633E+03  0.12699999809E+01 0.  1.
       -4    1    3    3    0  502  0.33293623906E+03 -0.40404567452E+03 -0.16743190199E+02  0.52381427405E+03  0.12699999809E+01 0. -1.
</event>
<event>
 5   0  0.5723194E-03  0.1103988E+04  0.7818609E-02  0.9201314E-01
        2   -1    0    0  501    0  0.00000000000E+00  0.00000000000E+00  0.67598136156E+03  0.67598136156E+03  0.25500000920E-02 0.  1.
       -2   -1    0    0    0  501  0.00000000000E+00  0.00000000000E+00 -0.45074819495E+03  0.45074819495E+03  0.25500000920E-02 0. -1.
    10030    2    1    2    0    0  0.00000000000E+00  0.00000000000E+00  0.22523316661E+03  0.11267295565E+04  0.11039880045E+04 0.  0.
        1    1    3    3  502    0 -0.46964924824E+03 -0.25260443652E+03 -0.32860770065E+02  0.53428386458E+03  0.50400001928E-02 0. -1.
       -1    1    3    3    0  502  0.46964924824E+03  0.25260443652E+03  0.25809393668E+03  0.59244569194E+03  0.50400001928E-02 0.  1.
</event>
<event>
 5   0  0.5723194E-03  0.1113462E+04  0.7818609E-02  0.9192169E-01
        2   -1    0    0  501    0  0.00000000000E+00  0.00000000000E+00  0.81884136329E+03  0.81884136330E+03  0.25500000920E-02 0. -1.
       -2   -1    0    0    0  501  0.00000000000E+00  0.00000000000E+00 -0.37852205777E+03  0.37852205777E+03  0.25500000920E-02 0.  1.
    10030    2    1    2    0    0  0.00000000000E+00  0.00000000000E+00  0.44031930553E+03  0.11973634211E+04  0.11134622002E+04 0.  0.
        1    1    3    3  502    0  0.87960442749E+02 -0.54847007267E+03  0.26029574266E+03  0.61344138577E+03  0.50400001928E-02 0.  1.
       -1    1    3    3    0  502 -0.87960442749E+02  0.54847007267E+03  0.18002356287E+03  0.58392203530E+03  0.50400001928E-02 0. -1.
</event>
<event>
 5   0  0.3320192E-03  0.1092038E+04  0.7818609E-02  0.9212987E-01
        1   -1    0    0  501    0  0.00000000000E+00  0.00000000000E+00  0.13944378708E+04  0.13944378708E+04  0.50400001928E-02 0. -1.
       -1   -1    0    0    0  501  0.00000000000E+00  0.00000000000E+00 -0.21380426225E+03  0.21380426231E+03  0.50400001928E-02 0.  1.
    10030    2    1    2    0    0  0.00000000000E+00  0.00000000000E+00  0.11806336086E+04  0.16082421331E+04  0.10920380218E+04 0.  0.
        2    1    3    3  502    0 -0.50729050408E+03 -0.18483680562E+03  0.47041657958E+03  0.71610059251E+03  0.25500000920E-02 0.  1.
       -2    1    3    3    0  502  0.50729050408E+03  0.18483680562E+03  0.71021702899E+03  0.89214154062E+03  0.25500000920E-02 0. -1.
</event>
<event>
 5   0  0.5723194E-03  0.1190974E+04  0.7818609E-02  0.9120794E-01
        2   -1    0    0  501    0  0.00000000000E+00  0.00000000000E+00  0.31419129308E+03  0.31419129309E+03  0.25500000920E-02 0.  1.
       -2   -1    0    0    0  501  0.00000000000E+00  0.00000000000E+00 -0.11286271462E+04  0.11286271462E+04  0.25500000920E-02 0. -1.
    10030    2    1    2    0    0  0.00000000000E+00  0.00000000000E+00 -0.81443585310E+03  0.14428184393E+04  0.11909740929E+04 0.  0.
        1    1    3    3  502    0 -0.16635195504E+03 -0.47307094411E+03 -0.18160288554E+02  0.50179566281E+03  0.50400001928E-02 0.  1.
       -1    1    3    3    0  502  0.16635195504E+03  0.47307094411E+03 -0.79627556455E+03  0.94102277647E+03  0.50400001928E-02 0. -1.
</event>
<event>
 5   0  0.3241189E-03  0.1125826E+04  0.7818609E-02  0.9180379E-01
       -1   -1    0    0    0  501  0.00000000000E+00  0.00000000000E+00  0.61794486216E+03  0.61794486218E+03  0.50400001928E-02 0. -1.
        1   -1    0    0  501    0  0.00000000000E+00  0.00000000000E+00 -0.51278219912E+03  0.51278219915E+03  0.50400001928E-02 0.  1.
    10030    2    1    2    0    0  0.00000000000E+00  0.00000000000E+00  0.10516266304E+03  0.11307270613E+04  0.11258261418E+04 0.  0.
        5    1    3    3  502    0 -0.21646593314E+03  0.17629415473E+03  0.54349525965E+03  0.61102071688E+03  0.46999998093E+01 0. -1.
       -5    1    3    3    0  502  0.21646593314E+03 -0.17629415473E+03 -0.43833259661E+03  0.51970634444E+03  0.46999998093E+01 0.  1.
</event>
<event>
 5   0  0.3328741E-03  0.1096377E+04  0.7818609E-02  0.9208731E-01
        1   -1    0    0  501    0  0.00000000000E+00  0.00000000000E+00  0.15352126171E+04  0.15352126171E+04  0.50400001928E-02 0.  1.
       -1   -1    0    0    0  501  0.00000000000E+00  0.00000000000E+00 -0.19574512574E+03  0.19574512580E+03  0.50400001928E-02 0. -1.
    10030    2    1    2    0    0  0.00000000000E+00  0.00000000000E+00  0.13394674914E+04  0.17309577429E+04  0.10963765536E+04 0.  0.
        3    1    3    3  502    0  0.30301236291E+03 -0.39010122319E+03  0.10450594306E+04  0.11559172462E+04  0.10100000352E+00 0.  1.
       -3    1    3    3    0  502 -0.30301236291E+03  0.39010122319E+03  0.29440806081E+03  0.57504049673E+03  0.10100000352E+00 0. -1.
</event>
<event>
 5   0  0.5946359E-03  0.9744110E+03  0.7818609E-02  0.9337064E-01
        2   -1    0    0  501    0  0.00000000000E+00  0.00000000000E+00  0.11639802652E+04  0.11639802652E+04  0.25500000920E-02 0.  1.
       -2   -1    0    0    0  501  0.00000000000E+00  0.00000000000E+00 -0.20392887687E+03  0.20392887688E+03  0.25500000920E-02 0. -1.
    10030    2    1    2    0    0  0.00000000000E+00  0.00000000000E+00  0.96005138835E+03  0.13679091421E+04  0.97441097735E+03 0.  0.
        4    1    3    3  502    0 -0.39974911438E+03 -0.27009702851E+03  0.38464964464E+03  0.61701598138E+03  0.12699999809E+01 0.  1.
       -4    1    3    3    0  502  0.39974911438E+03  0.27009702851E+03  0.57540174371E+03  0.75089316073E+03  0.12699999809E+01 0. -1.
</event>
<event>
 5   0  0.3316784E-03  0.1089788E+04  0.7818609E-02  0.9215202E-01
        1   -1    0    0  501    0  0.00000000000E+00  0.00000000000E+00  0.19975053772E+03  0.19975053778E+03  0.50400001928E-02 0.  1.
       -1   -1    0    0    0  501  0.00000000000E+00  0.00000000000E+00 -0.14864025145E+04  0.14864025145E+04  0.50400001928E-02 0. -1.
    10030    2    1    2    0    0  0.00000000000E+00  0.00000000000E+00 -0.12866519768E+04  0.16861530523E+04  0.10897884228E+04 0.  0.
        4    1    3    3  502    0 -0.30101682697E+03 -0.32354887232E+03 -0.11365334330E+04  0.12194280873E+04  0.12699999809E+01 0. -1.
       -4    1    3    3    0  502  0.30101682697E+03  0.32354887232E+03 -0.15011854387E+03  0.46672496506E+03  0.12699999809E+01 0.  1.
</event>
<event>
 5   0  0.5500363E-03  0.1102969E+04  0.7818609E-02  0.9202302E-01
       -2   -1    0    0    0  501  0.00000000000E+00  0.00000000000E+00  0.29119001835E+03  0.29119001836E+03  0.25500000920E-02 0.  1.
        2   -1    0    0  501    0  0.00000000000E+00  0.00000000000E+00 -0.10444567841E+04  0.10444567841E+04  0.25500000920E-02 0. -1.
    10030    2    1    2    0    0  0.00000000000E+00  0.00000000000E+00 -0.75326676575E+03  0.13356468025E+04  0.11029694286E+04 0.  0.
        3    1    3    3  502    0  0.20707705113E+03 -0.12700853125E+03  0.22290978448E+03  0.32969812607E+03  0.10100000352E+00 0.  1.
       -3    1    3    3    0  502 -0.20707705113E+03  0.12700853125E+03 -0.97617655022E+03  0.10059486764E+04  0.10100000352E+00 0. -1.
</event>
<event>
 5   0  0.5500363E-03  0.1109819E+04  0.7818609E-02  0.9195674E-01
        2   -1    0    0  501    0  0.00000000000E+00  0.00000000000E+00  0.11745342953E+04  0.11745342953E+04  0.25500000920E-02 0. -1.
       -2   -1    0    0    0  501  0.00000000000E+00  0.00000000000E+00 -0.26216752062E+03  0.26216752063E+03  0.25500000920E-02 0.  1.
    10030    2    1    2    0    0  0.00000000000E+00  0.00000000000E+00  0.91236677471E+03  0.14367018160E+04  0.11098193440E+04 0.  0.
        3    1    3    3  502    0 -0.20313096571E+03  0.24825525796E+02 -0.21153434761E+03  0.29432173957E+03  0.10100000352E+00 0.  1.
       -3    1    3    3    0  502  0.20313096571E+03 -0.24825525796E+02  0.11239011223E+04  0.11423800764E+04  0.10100000352E+00 0. -1.
</event>
<event>
 5   0  0.5500363E-03  0.1197792E+04  0.7818609E-02  0.9114791E-01
        2   -1    0    0  501    0  0.00000000000E+00  0.00000000000E+00  0.15854542483E+04  0.15854542483E+04  0.25500000920E-02 0.  1.
       -2   -1    0    0    0  501  0.00000000000E+00  0.00000000000E+00 -0.22622943204E+03  0.22622943206E+03  0.25500000920E-02 0. -1.
    10030    2    1    2    0    0  0.00000000000E+00  0.00000000000E+00  0.13592248163E+04  0.18116836804E+04  0.11977919922E+04 0.  0.
        3    1    3    3  502    0  0.37839376053E+03 -0.17859809896E+03  0.31524237857E+02  0.41961042257E+03  0.10100000352E+00 0. -1.
       -3    1    3    3    0  502 -0.37839376053E+03  0.17859809896E+03  0.13277005784E+04  0.13920732578E+04  0.10100000352E+00 0.  1.
</event>
<event>
 5   0  0.3320192E-03  0.1064813E+04  0.7818609E-02  0.9240183E-01
        1   -1    0    0  501    0  0.00000000000E+00  0.00000000000E+00  0.17354279402E+03  0.17354279410E+03  0.50400001928E-02 0. -1.
       -1   -1    0    0    0  501  0.00000000000E+00  0.00000000000E+00 -0.16333530177E+04  0.16333530177E+04  0.50400001928E-02 0.  1.
    10030    2    1    2    0    0  0.00000000000E+00  0.00000000000E+00 -0.14598102237E+04  0.18068958118E+04  0.10648129345E+04 0.  0.
        2    1    3    3  502    0 -0.14958539070E+03  0.41930636622E+03 -0.23440909167E+03  0.50313143425E+03  0.25500000920E-02 0. -1.
       -2    1    3    3    0  502  0.14958539070E+03 -0.41930636622E+03 -0.12254011320E+04  0.13037643776E+04  0.25500000920E-02 0.  1.
</event>
<event>
 5   0  0.5941585E-03  0.1091256E+04  0.7818609E-02  0.9213756E-01
        2   -1    0    0  501    0  0.00000000000E+00  0.00000000000E+00  0.10612977505E+04  0.10612977505E+04  0.25500000920E-02 0.  1.
       -2   -1    0    0    0  501  0.00000000000E+00  0.00000000000E+00 -0.28051500894E+03  0.28051500895E+03  0.25500000920E-02 0. -1.
    10030    2    1    2    0    0  0.00000000000E+00  0.00000000000E+00  0.78078274156E+03  0.13418127595E+04  0.10912560616E+04 0.  0.
        5    1    3    3  502    0  0.35149003383E+03 -0.14993640518E+03 -0.88462708700E+02  0.39226765137E+03  0.46999998093E+01 0. -1.
       -5    1    3    3    0  502 -0.35149003383E+03  0.14993640518E+03  0.86924545026E+03  0.94954510808E+03  0.46999998093E+01 0.  1.
</event>
<event>
 5   0  0.5941585E-03  0.9785749E+03  0.7818609E-02  0.9332361E-01
        2   -1    0    0  501    0  0.00000000000E+00  0.00000000000E+00  0.19408914450E+04  0.19408914450E+04  0.25500000920E-02 0.  1.
       -2   -1    0    0    0  501  0.00000000000E+00  0.00000000000E+00 -0.12334651427E+03  0.12334651429E+03  0.25500000920E-02 0. -1.
    10030    2    1    2    0    0  0.00000000000E+00  0.00000000000E+00  0.18175449307E+04  0.20642379593E+04  0.97857487059E+03 0.  0.
        5    1    3    3  502    0  0.23935796737E+03 -0.26365534814E+03  0.20101538978E+03  0.40894456358E+03  0.46999998093E+01 0. -1.
       -5    1    3    3    0  502 -0.23935796737E+03  0.26365534814E+03  0.16165295409E+04  0.16552933957E+04  0.46999998093E+01 0.  1.
</event>
<event>
 5   0  0.5946359E-03  0.1092691E+04  0.7818609E-02  0.9212345E-01
       -2   -1    0    0    0  501  0.00000000000E+00  0.00000000000E+00  0.25889454748E+03  0.25889454749E+03  0.25500000920E-02 0.  1.
        2   -1    0    0  501    0  0.00000000000E+00  0.00000000000E+00 -0.11529539502E+04  0.11529539502E+04  0.25500000920E-02 0. -1.
    10030    2    1    2    0    0  0.00000000000E+00  0.00000000000E+00 -0.89405940273E+03  0.14118484977E+04  0.10926911571E+04 0.  0.
        4    1    3    3  502    0  0.29621541759E+03 -0.36414175203E+03 -0.85825637557E+02  0.47719015303E+03  0.12699999809E+01 0.  1.
       -4    1    3    3    0  502 -0.29621541759E+03  0.36414175203E+03 -0.80823376517E+03  0.93465834466E+03  0.12699999809E+01 0. -1.
</event>
<event>
 5   0  0.5946359E-03  0.1108930E+04  0.7818609E-02  0.9196532E-01
       -2   -1    0    0    0  501  0.00000000000E+00  0.00000000000E+00  0.50076371717E+03  0.50076371717E+03  0.25500000920E-02 0. -1.
        2   -1    0    0  501    0  0.00000000000E+00  0.00000000000E+00 -0.61392481638E+03  0.61392481639E+03  0.25500000920E-02 0.  1.
    10030    2    1    2    0    0  0.00000000000E+00  0.00000000000E+00 -0.11316109921E+03  0.11146885336E+04  0.11089297058E+04 0.  0.
        4    1    3    3  502    0  0.25431629648E+03 -0.47137016441E+03 -0.20072345730E+03  0.57197738571E+03  0.12699999809E+01 0. -1.
       -4    1    3    3    0  502 -0.25431629648E+03  0.47137016441E+03  0.87562358085E+02  0.54271114785E+03  0.12699999809E+01 0.  1.
</event>
<event>
 5   0  0.3320192E-03  0.1111463E+04  0.7818609E-02  0.9194090E-01
        1   -1    0    0  501    0  0.00000000000E+00  0.00000000000E+00  0.12469076922E+04  0.12469076922E+04  0.50400001928E-02 0. -1.
       -1   -1    0    0    0  501  0.00000000000E+00  0.00000000000E+00 -0.24768289696E+03  0.24768289701E+03  0.50400001928E-02 0.  1.
    10030    2    1    2    0    0  0.00000000000E+00  0.00000000000E+00  0.99922479528E+03  0.14945905893E+04  0.11114633768E+04 0.  0.
        2    1    3    3  502    0 -0.21580553695E+03  0.11476295387E+03 -0.17152233805E+03  0.29860086707E+03  0.25500000920E-02 0.  1.
       -2    1    3    3    0  502  0.21580553695E+03 -0.11476295387E+03  0.11707471333E+04  0.11959897222E+04  0.25500000920E-02 0. -1.
</event>
<event>
 5   0  0.5500363E-03  0.1097508E+04  0.7818609E-02  0.9207625E-01
        2   -1    0    0  501    0  0.00000000000E+00  0.00000000000E+00  0.42844389525E+03  0.42844389526E+03  0.25500000920E-02 0. -1.
       -2   -1    0    0    0  501  0.00000000000E+00  0.00000000000E+00 -0.70284745681E+03  0.70284745681E+03  0.25500000920E-02 0.  1.
    10030    2    1    2    0    0  0.00000000000E+00  0.00000000000E+00 -0.27440356156E+03  0.11312913521E+04  0.10975075438E+04 0.  0.
        3    1    3    3  502    0  0.16898224183E+03 -0.22644869399E+03 -0.62210426076E+03  0.68326256339E+03  0.10100000352E+00 0.  1.
       -3    1    3    3    0  502 -0.16898224183E+03  0.22644869399E+03  0.34770069920E+03  0.44802878869E+03  0.10100000352E+00 0. -1.
</event>
<event>
 5   0  0.3316784E-03  0.1097402E+04  0.7818609E-02  0.9207728E-01
        1   -1    0    0  501    0  0.00000000000E+00  0.00000000000E+00  0.89176444407E+03  0.89176444408E+03  0.50400001928E-02 0.  1.
       -1   -1    0    0    0  501  0.00000000000E+00  0.00000000000E+00 -0.33761446014E+03  0.33761446017E+03  0.50400001928E-02 0. -1.
    10030    2    1    2    0    0  0.00000000000E+00  0.00000000000E+00  0.55414998393E+03  0.12293789043E+04  0.10974016063E+04 0.  0.
        4    1    3    3  502    0  0.44149497843E+03  0.36690796354E+01  0.64204657615E+03  0.77920260329E+03  0.12699999809E+01 0. -1.
       -4    1    3    3    0  502 -0.44149497843E+03 -0.36690796354E+01 -0.87896592220E+02  0.45017630097E+03  0.12699999809E+01 0.  1.
</event>
<event>
 5   0  0.5723194E-03  0.1113205E+04  0.7818609E-02  0.9192416E-01
        2   -1    0    0  501    0  0.00000000000E+00  0.00000000000E+00  0.11622195229E+04  0.11622195229E+04  0.25500000920E-02 0. -1.
       -2   -1    0    0    0  501  0.00000000000E+00  0.00000000000E+00 -0.26656462845E+03  0.26656462847E+03  0.25500000920E-02 0.  1.
    10030    2    1    2    0    0  0.00000000000E+00  0.00000000000E+00  0.89565489448E+03  0.14287841514E+04  0.11132054892E+04 0.  0.
        1    1    3    3  502    0  0.42461981828E+03  0.35556203591E+03  0.51906110481E+03  0.75904596831E+03  0.50400001928E-02 0. -1.
       -1    1    3    3    0  502 -0.42461981828E+03 -0.35556203591E+03  0.37659378967E+03  0.66973818310E+03  0.50400001928E-02 0.  1.
</event>
<event>
 5   0  0.5627232E-03  0.1096155E+04  0.7818609E-02  0.9208948E-01
       -2   -1    0    0    0  501  0.00000000000E+00  0.00000000000E+00  0.53285890300E+03  0.53285890301E+03  0.25500000920E-02 0.  1.
        2   -1    0    0  501    0  0.00000000000E+00  0.00000000000E+00 -0.56373050668E+03  0.56373050668E+03  0.25500000920E-02 0. -1.
    10030    2    1    2    0    0  0.00000000000E+00  0.00000000000E+00 -0.30871603677E+02  0.10965894097E+04  0.10961547690E+04 0.  0.
        2    1    3    3  502    0  0.28380761463E+03 -0.39522741039E+01 -0.48447823048E+03  0.56149936635E+03  0.25500000920E-02 0. -1.
       -2    1    3    3    0  502 -0.28380761463E+03  0.39522741039E+01  0.45360662681E+03  0.53509004334E+03  0.25500000920E-02 0.  1.
</event>
<event>
 5   0  0.3316784E-03  0.1102448E+04  0.7818609E-02  0.9202809E-01
        1   -1    0    0  501    0  0.00000000000E+00  0.00000000000E+00  0.23727036458E+03  0.23727036463E+03  0.50400001928E-02 0. -1.
       -1   -1    0    0    0  501  0.00000000000E+00  0.00000000000E+00 -0.12805978591E+04  0.12805978591E+04  0.50400001928E-02 0.  1.
    10030    2    1    2    0    0  0.00000000000E+00  0.00000000000E+00 -0.10433274945E+04  0.15178682238E+04  0.11024480413E+04 0.  0.
        4    1    3    3  502    0 -0.49543379021E+03 -0.24153436733E+03 -0.51165769593E+03  0.75205631557E+03  0.12699999809E+01 0. -1.
       -4    1    3    3    0  502  0.49543379021E+03  0.24153436733E+03 -0.53166979862E+03  0.76581190820E+03  0.12699999809E+01 0.  1.
</event>
<event>
 5   0  0.3320192E-03  0.1109210E+04  0.7818609E-02  0.9196261E-01
        1   -1    0    0  501    0  0.00000000000E+00  0.00000000000E+00  0.15540778733E+04  0.15540778733E+04  0.50400001928E-02 0.  1.
       -1   -1    0    0    0  501  0.00000000000E+00  0.00000000000E+00 -0.19792241224E+03  0.19792241230E+03  0.50400001928E-02 0. -1.
    10030    2    1    2    0    0  0.00000000000E+00  0.00000000000E+00  0.13561554610E+04  0.17520002856E+04  0.11092102444E+04 0.  0.
        2    1    3    3  502    0 -0.14646741928E+03  0.53483004244E+03  0.69314210503E+03  0.88766089075E+03  0.25500000920E-02 0. -1.
       -2    1    3    3    0  502  0.14646741928E+03 -0.53483004244E+03  0.66301335602E+03  0.86433939484E+03  0.25500000920E-02 0.  1.
</event>
<event>
 5   0  0.5946359E-03  0.1085248E+04  0.7818609E-02  0.9219690E-01
       -2   -1    0    0    0  501  0.00000000000E+00  0.00000000000E+00  0.12582436894E+04  0.12582436894E+04  0.25500000920E-02 0. -1.
        2   -1    0    0  501    0  0.00000000000E+00  0.00000000000E+00 -0.23400950522E+03  0.23400950523E+03  0.25500000920E-02 0.  1.
    10030    2    1    2    0    0  0.00000000000E+00  0.00000000000E+00  0.10242341842E+04  0.14922531946E+04  0.10852483277E+04 0.  0.
        4    1    3    3  502    0 -0.49548066704E+03 -0.21968215613E+03  0.54792158946E+03  0.77070164281E+03  0.12699999809E+01 0.  1.
       -4    1    3    3    0  502  0.49548066704E+03  0.21968215613E+03  0.47631259470E+03  0.72155155180E+03  0.12699999809E+01 0. -1.
</event>
<event>
 5   0  0.5946359E-03  0.1082633E+04  0.7818609E-02  0.9222286E-01
       -2   -1    0    0    0  501  0.00000000000E+00  0.00000000000E+00  0.19537169807E+03  0.19537169808E+03  0.25500000920E-02 0.  1.
        2   -1    0    0  501    0  0.00000000000E+00  0.00000000000E+00 -0.14998257913E+04  0.14998257913E+04  0.25500000920E-02 0. -1.
    10030    2    1    2    0    0  0.00000000000E+00  0.00000000000E+00 -0.13044540933E+04  0.16951974894E+04  0.10826329233E+04 0.  0.
        4    1    3    3  502    0  0.16630851113E+03 -0.41235412455E+03 -0.11356731534E+04  0.12196104170E+04  0.12699999809E+01 0. -1.
       -4    1    3    3    0  502 -0.16630851113E+03  0.41235412455E+03 -0.16878093983E+03  0.47558707243E+03  0.12699999809E+01 0.  1.
</event>
<event>
 5   0  0.3316784E-03  0.1035622E+04  0.7818609E-02  0.9270316E-01
        1   -1    0    0  501    0  0.00000000000E+00  0.00000000000E+00  0.38026532614E+03  0.38026532617E+03  0.50400001928E-02 0. -1.
       -1   -1    0    0    0  501  0.00000000000E+00  0.00000000000E+00 -0.70510831403E+03  0.70510831405E+03  0.50400001928E-02 0.  1.
    10030    2    1    2    0    0  0.00000000000E+00  0.00000000000E+00 -0.32484298789E+03  0.10853736402E+04  0.10356220218E+04 0.  0.
        4    1    3    3  502    0  0.24112553948E+02  0.29148010135E+03  0.28540524824E+03  0.40865613095E+03  0.12699999809E+01 0. -1.
       -4    1    3    3    0  502 -0.24112553948E+02 -0.29148010135E+03 -0.61024823613E+03  0.67671750927E+03  0.12699999809E+01 0.  1.
</event>
<event>
 5   0  0.3320192E-03  0.1113854E+04  0.7818609E-02  0.9191793E-01
        1   -1    0    0  501    0  0.00000000000E+00  0.00000000000E+00  0.10875234644E+04  0.10875234644E+04  0.50400001928E-02 0. -1.
       -1   -1    0    0    0  501  0.00000000000E+00  0.00000000000E+00 -0.28520532666E+03  0.28520532671E+03  0.50400001928E-02 0.  1.
    10030    2    1    2    0    0  0.00000000000E+00  0.00000000000E+00  0.80231813771E+03  0.13727287911E+04  0.11138536438E+04 0.  0.
        2    1    3    3  502    0 -0.33000753974E+03  0.39760241876E+03  0.14508128256E+03  0.53669473469E+03  0.25500000920E-02 0. -1.
       -2    1    3    3    0  502  0.33000753974E+03 -0.39760241876E+03  0.65723685515E+03  0.83603405640E+03  0.25500000920E-02 0.  1.
</event>
<event>
 5   0  0.5941585E-03  0.1172240E+04  0.7818609E-02  0.9137508E-01
       -2   -1    0    0    0  501  0.00000000000E+00  0.00000000000E+00  0.39649014346E+03  0.39649014347E+03  0.25500000920E-02 0. -1.
        2   -1    0    0  501    0  0.00000000000E+00  0.00000000000E+00 -0.86644480295E+03  0.86644480295E+03  0.25500000920E-02 0.  1.
    10030    2    1    2    0    0  0.00000000000E+00  0.00000000000E+00 -0.46995465949E+03  0.12629349464E+04  0.11722402897E+04 0.  0.
        5    1    3    3  502    0 -0.10467160416E+03  0.20357051864E+03  0.34632035447E+03  0.41515898003E+03  0.46999998093E+01 0. -1.
       -5    1    3    3    0  502  0.10467160416E+03 -0.20357051864E+03 -0.81627501396E+03  0.84777596639E+03  0.46999998093E+01 0.  1.
</event>
<event>
 5   0  0.2185750E-03  0.1105237E+04  0.7818609E-02  0.9200103E-01
       -4   -1    0    0    0  501  0.00000000000E+00  0.00000000000E+00  0.12351428030E+04  0.12351434559E+04  0.12699999809E+01 0.  1.
        4   -1    0    0  501    0  0.00000000000E+00  0.00000000000E+00 -0.24724604776E+03  0.24724930947E+03  0.12699999809E+01 0. -1.
    10030    2    1    2    0    0  0.00000000000E+00  0.00000000000E+00  0.98789675524E+03  0.14823927654E+04  0.11052367673E+04 0.  0.
        4    1    3    3  502    0  0.38112147566E+03 -0.21123902085E+03  0.94979388951E+03  0.10449811236E+04  0.12699999809E+01 0.  1.
       -4    1    3    3    0  502 -0.38112147566E+03  0.21123902085E+03  0.38102865729E+02  0.43741164184E+03  0.12699999809E+01 0. -1.
</event>
<event>
 5   0  0.3241189E-03  0.1096889E+04  0.7818609E-02  0.9208230E-01
        1   -1    0    0  501    0  0.00000000000E+00  0.00000000000E+00  0.48287579590E+03  0.48287579593E+03  0.50400001928E-02 0.  1.
       -1   -1    0    0    0  501  0.00000000000E+00  0.00000000000E+00 -0.62291615355E+03  0.62291615357E+03  0.50400001928E-02 0. -1.
    10030    2    1    2    0    0  0.00000000000E+00  0.00000000000E+00 -0.14004035765E+03  0.11057919495E+04  0.10968885695E+04 0.  0.
        5    1    3    3  502    0 -0.17233201932E+03 -0.43189067388E+03 -0.36313989103E+03  0.59001741459E+03  0.46999998093E+01 0. -1.
       -5    1    3    3    0  502  0.17233201932E+03  0.43189067388E+03  0.22309953338E+03  0.51577453491E+03  0.46999998093E+01 0.  1.
</event>
<event>
 5   0  0.5627232E-03  0.9203450E+03  0.7818609E-02  0.9400501E-01
        2   -1    0    0  501    0  0.00000000000E+00  0.00000000000E+00  0.68557883311E+03  0.68557883311E+03  0.25500000920E-02 0.  1.
       -2   -1    0    0    0  501  0.00000000000E+00  0.00000000000E+00 -0.30887582116E+03  0.30887582117E+03  0.25500000920E-02 0. -1.
    10030    2    1    2    0    0  0.00000000000E+00  0.00000000000E+00  0.37670301195E+03  0.99445465429E+03  0.92034498978E+03 0.  0.
        2    1    3    3  502    0  0.34070922833E+03 -0.29959150954E+03  0.27149480423E+03  0.52872230858E+03  0.25500000920E-02 0.  1.
       -2    1    3    3    0  502 -0.34070922833E+03  0.29959150954E+03  0.10520820772E+03  0.46573234571E+03  0.25500000920E-02 0. -1.
</event>
<event>
 5   0  0.3316784E-03  0.1083704E+04  0.7818609E-02  0.9221222E-01
        1   -1    0    0  501    0  0.00000000000E+00  0.00000000000E+00  0.16649823824E+04  0.16649823824E+04  0.50400001928E-02 0.  1.
       -1   -1    0    0    0  501  0.00000000000E+00  0.00000000000E+00 -0.17634049275E+03  0.17634049282E+03  0.50400001928E-02 0. -1.
    10030    2    1    2    0    0  0.00000000000E+00  0.00000000000E+00  0.14886418896E+04  0.18413228752E+04  0.10837044132E+04 0.  0.
        4    1    3    3  502    0  0.37254623075E+03 -0.26110825563E+03  0.24421357551E+03  0.51634300477E+03  0.12699999809E+01 0. -1.
       -4    1    3    3    0  502 -0.37254623075E+03  0.26110825563E+03  0.12444283141E+04  0.13249798704E+04  0.12699999809E+01 0.  1.
</event>
<event>
 5   0  0.5500363E-03  0.1100850E+04  0.7818609E-02  0.9204364E-01
        2   -1    0    0  501    0  0.00000000000E+00  0.00000000000E+00  0.21882322477E+04  0.21882322477E+04  0.25500000920E-02 0. -1.
       -2   -1    0    0    0  501  0.00000000000E+00  0.00000000000E+00 -0.13845307290E+03  0.13845307293E+03  0.25500000920E-02 0.  1.
    10030    2    1    2    0    0  0.00000000000E+00  0.00000000000E+00  0.20497791748E+04  0.23266853206E+04  0.11008496336E+04 0.  0.
        3    1    3    3  502    0  0.19111265749E+03 -0.48126146774E+03  0.63044000498E+03  0.81583776467E+03  0.10100000352E+00 0. -1.
       -3    1    3    3    0  502 -0.19111265749E+03  0.48126146774E+03  0.14193391698E+04  0.15108475560E+04  0.10100000352E+00 0.  1.
</event>
<event>
 5   0  0.2185750E-03  0.1099959E+04  0.7818609E-02  0.9205232E-01
        4   -1    0    0  501    0  0.00000000000E+00  0.00000000000E+00  0.63209187273E+03  0.63209314858E+03  0.12699999809E+01 0. -1.
       -4   -1    0    0    0  501  0.00000000000E+00  0.00000000000E+00 -0.47853130908E+03  0.47853299433E+03  0.12699999809E+01 0.  1.
    10030    2    1    2    0    0  0.00000000000E+00  0.00000000000E+00  0.15356056366E+03  0.11106261429E+04  0.10999589004E+04 0.  0.
        1    1    3    3  502    0  0.14277309643E+03  0.13801027570E+03 -0.44107405432E+03  0.48371201627E+03  0.50400001928E-02 0.  1.
       -1    1    3    3    0  502 -0.14277309643E+03 -0.13801027570E+03  0.59463461798E+03  0.62691412664E+03  0.50400001928E-02 0. -1.
</event>
<event>
 5   0  0.5627232E-03  0.1103935E+04  0.7818609E-02  0.9201365E-01
        2   -1    0    0  501    0  0.00000000000E+00  0.00000000000E+00  0.33244645287E+03  0.33244645288E+03  0.25500000920E-02 0. -1.
       -2   -1    0    0    0  501  0.00000000000E+00  0.00000000000E+00 -0.91644232833E+03  0.91644232834E+03  0.25500000920E-02 0.  1.
    10030    2    1    2    0    0  0.00000000000E+00  0.00000000000E+00 -0.58399587547E+03  0.12488887812E+04  0.11039347831E+04 0.  0.
        2    1    3    3  502    0  0.25167148043E+03 -0.71834429880E+02 -0.84178188050E+03  0.88153017743E+03  0.25500000920E-02 0.  1.
       -2    1    3    3    0  502 -0.25167148043E+03  0.71834429880E+02  0.25778600503E+03  0.36735860378E+03  0.25500000920E-02 0. -1.
</event>
<event>
 5   0  0.3328741E-03  0.1102991E+04  0.7818609E-02  0.9202281E-01
       -1   -1    0    0    0  501  0.00000000000E+00  0.00000000000E+00  0.91042338673E+03  0.91042338674E+03  0.50400001928E-02 0. -1.
        1   -1    0    0  501    0  0.00000000000E+00  0.00000000000E+00 -0.33407258105E+03  0.33407258109E+03  0.50400001928E-02 0.  1.
    10030    2    1    2    0    0  0.00000000000E+00  0.00000000000E+00  0.57635080567E+03  0.12444959678E+04  0.11029913702E+04 0.  0.
        3    1    3    3  502    0 -0.33073172081E+03 -0.26714359714E+03 -0.10817196780E+03  0.43869164280E+03  0.10100000352E+00 0. -1.
       -3    1    3    3    0  502  0.33073172081E+03  0.26714359714E+03  0.68452277347E+03  0.80580432504E+03  0.10100000352E+00 0.  1.
</event>
<event>
 5   0  0.5627232E-03  0.1110978E+04  0.7818609E-02  0.9194558E-01
        2   -1    0    0  501    0  0.00000000000E+00  0.00000000000E+00  0.74731001366E+03  0.74731001367E+03  0.25500000920E-02 0. -1.
       -2   -1    0    0    0  501  0.00000000000E+00  0.00000000000E+00 -0.41290484087E+03  0.41290484087E+03  0.25500000920E-02 0.  1.
    10030    2    1    2    0    0  0.00000000000E+00  0.00000000000E+00  0.33440517280E+03  0.11602148545E+04  0.11109778077E+04 0.  0.
        2    1    3    3  502    0  0.83672802414E+02 -0.26873866035E+03  0.66732799913E+03  0.72425704267E+03  0.25500000920E-02 0. -1.
       -2    1    3    3    0  502 -0.83672802414E+02  0.26873866035E+03 -0.33292282633E+03  0.43595781187E+03  0.25500000920E-02 0.  1.
</event>
<event>
 5   0  0.3241189E-03  0.1097295E+04  0.7818609E-02  0.9207833E-01
       -1   -1    0    0    0  501  0.00000000000E+00  0.00000000000E+00  0.31540441566E+03  0.31540441570E+03  0.50400001928E-02 0.  1.
        1   -1    0    0  501    0  0.00000000000E+00  0.00000000000E+00 -0.95437469969E+03  0.95437469970E+03  0.50400001928E-02 0. -1.
    10030    2    1    2    0    0  0.00000000000E+00  0.00000000000E+00 -0.63897028403E+03  0.12697791154E+04  0.10972948455E+04 0.  0.
        5    1    3    3  502    0 -0.42856461695E+03  0.48034457333E+02  0.72966175563E+02  0.43740266662E+03  0.46999998093E+01 0.  1.
       -5    1    3    3    0  502  0.42856461695E+03 -0.48034457333E+02 -0.71193645959E+03  0.83237644878E+03  0.46999998093E+01 0. -1.
</event>
<event>
 5   0  0.3316784E-03  0.1128393E+04  0.7818609E-02  0.9177952E-01
        1   -1    0    0  501    0  0.00000000000E+00  0.00000000000E+00  0.69903446405E+03  0.69903446407E+03  0.50400001928E-02 0. -1.
       -1   -1    0    0    0  501  0.00000000000E+00  0.00000000000E+00 -0.45536769154E+03  0.45536769157E+03  0.50400001928E-02 0.  1.
    10030    2    1    2    0    0  0.00000000000E+00  0.00000000000E+00  0.24366677251E+03  0.11544021556E+04  0.11283930348E+04 0.  0.
        4    1    3    3  502    0  0.51873033417E+03 -0.20732266944E+03  0.40939658869E+02  0.56012634059E+03  0.12699999809E+01 0.  1.
       -4    1    3    3    0  502 -0.51873033417E+03  0.20732266944E+03  0.20272711364E+03  0.59427581505E+03  0.12699999809E+01 0. -1.
</event>
<event>
 5   0  0.5500363E-03  0.1274674E+04  0.7818609E-02  0.9049894E-01
        2   -1    0    0  501    0  0.00000000000E+00  0.00000000000E+00  0.67019565010E+03  0.67019565010E+03  0.25500000920E-02 0.  1.
       -2   -1    0    0    0  501  0.00000000000E+00  0.00000000000E+00 -0.60608914936E+03  0.60608914936E+03  0.25500000920E-02 0. -1.
    10030    2    1    2    0    0  0.00000000000E+00  0.00000000000E+00  0.64106500740E+02  0.12762847995E+04  0.12746737802E+04 0.  0.
        3    1    3    3  502    0  0.47429849950E+03 -0.36007854527E+02 -0.39267937613E+03  0.61680850745E+03  0.10100000352E+00 0.  1.
       -3    1    3    3    0  502 -0.47429849950E+03  0.36007854527E+02  0.45678587687E+03  0.65947629201E+03  0.10100000352E+00 0. -1.
</event>
<event>
 5   0  0.3328741E-03  0.1101765E+04  0.7818609E-02  0.9203473E-01
        1   -1    0    0  501    0  0.00000000000E+00  0.00000000000E+00  0.64788805760E+03  0.64788805762E+03  0.50400001928E-02 0. -1.
       -1   -1    0    0    0  501  0.00000000000E+00  0.00000000000E+00 -0.46840101694E+03  0.46840101696E+03  0.50400001928E-02 0.  1.
    10030    2    1    2    0    0  0.00000000000E+00  0.00000000000E+00  0.17948704066E+03  0.11162890746E+04  0.11017648117E+04 0.  0.
        3    1    3    3  502    0  0.30827733821E+02 -0.22849307321E+03  0.59665087839E+03  0.63964968113E+03  0.10100000352E+00 0. -1.
       -3    1    3    3    0  502 -0.30827733821E+02  0.22849307321E+03 -0.41716383773E+03  0.47663939345E+03  0.10100000352E+00 0.  1.
</event>
<event>
 5   0  0.3320192E-03  0.1082161E+04  0.7818609E-02  0.9222756E-01
        1   -1    0    0  501    0  0.00000000000E+00  0.00000000000E+00  0.64752447096E+03  0.64752447098E+03  0.50400001928E-02 0.  1.
       -1   -1    0    0    0  501  0.00000000000E+00  0.00000000000E+00 -0.45213415509E+03  0.45213415511E+03  0.50400001928E-02 0. -1.
    10030    2    1    2    0    0  0.00000000000E+00  0.00000000000E+00  0.19539031588E+03  0.10996586261E+04  0.10821606713E+04 0.  0.
        2    1    3    3  502    0 -0.93203260952E+02 -0.51003339491E+03  0.25494559370E+03  0.57776999535E+03  0.25500000920E-02 0.  1.
       -2    1    3    3    0  502  0.93203260952E+02  0.51003339491E+03 -0.59555277817E+02  0.52188863074E+03  0.25500000920E-02 0. -1.
</event>
<event>
 5   0  0.3320192E-03  0.1120060E+04  0.7818609E-02  0.9185857E-01
        1   -1    0    0  501    0  0.00000000000E+00  0.00000000000E+00  0.16621193489E+04  0.16621193490E+04  0.50400001928E-02 0.  1.
       -1   -1    0    0    0  501  0.00000000000E+00  0.00000000000E+00 -0.18869504466E+03  0.18869504473E+03  0.50400001928E-02 0. -1.
    10030    2    1    2    0    0  0.00000000000E+00  0.00000000000E+00  0.14734243043E+04  0.18508143937E+04  0.11200601499E+04 0.  0.
        2    1    3    3  502    0  0.42784430447E+03 -0.18481047742E+03  0.12498371288E+04  0.13339034860E+04  0.25500000920E-02 0.  1.
       -2    1    3    3    0  502 -0.42784430447E+03  0.18481047742E+03  0.22358717548E+03  0.51691090768E+03  0.25500000920E-02 0. -1.
</event>
<event>
 5   0  0.5946359E-03  0.1086777E+04  0.7818609E-02  0.9218176E-01
       -2   -1    0    0    0  501  0.00000000000E+00  0.00000000000E+00  0.93503349241E+03  0.93503349241E+03  0.25500000920E-02 0.  1.
        2   -1    0    0  501    0  0.00000000000E+00  0.00000000000E+00 -0.31578684155E+03  0.31578684156E+03  0.25500000920E-02 0. -1.
    10030    2    1    2    0    0  0.00000000000E+00  0.00000000000E+00  0.61924665087E+03  0.12508203340E+04  0.10867773890E+04 0.  0.
        4    1    3    3  502    0 -0.44458027963E+02  0.36073291875E+03 -0.15528541969E+03  0.39524666904E+03  0.12699999809E+01 0. -1.
       -4    1    3    3    0  502  0.44458027963E+02 -0.36073291875E+03  0.77453207055E+03  0.85557366493E+03  0.12699999809E+01 0.  1.
</event>
<event>
 5   0  0.3215352E-03  0.1117573E+04  0.7818609E-02  0.9188231E-01
        1   -1    0    0  501    0  0.00000000000E+00  0.00000000000E+00  0.47586857506E+03  0.47586857508E+03  0.50400001928E-02 0.  1.
       -1   -1    0    0    0  501  0.00000000000E+00  0.00000000000E+00 -0.65615291573E+03  0.65615291575E+03  0.50400001928E-02 0. -1.
    10030    2    1    2    0    0  0.00000000000E+00  0.00000000000E+00 -0.18028434067E+03  0.11320214908E+04  0.11175733588E+04 0.  0.
        1    1    3    3  502    0 -0.23669839905E+03  0.45253992625E+02  0.42052682610E+03  0.48468223349E+03  0.50400001928E-02 0.  1.
       -1    1    3    3    0  502  0.23669839905E+03 -0.45253992625E+02 -0.60081116677E+03  0.64733925735E+03  0.50400001928E-02 0. -1.
</event>
<event>
 5   0  0.3215352E-03  0.1095340E+04  0.7818609E-02  0.9209746E-01
        1   -1    0    0  501    0  0.00000000000E+00  0.00000000000E+00  0.41022128563E+03  0.41022128566E+03  0.50400001928E-02 0. -1.
       -1   -1    0    0    0  501  0.00000000000E+00  0.00000000000E+00 -0.73117247505E+03  0.73117247507E+03  0.50400001928E-02 0.  1.
    10030    2    1    2    0    0  0.00000000000E+00  0.00000000000E+00 -0.32095118942E+03  0.11413937607E+04  0.10953401531E+04 0.  0.
        1    1    3    3  502    0 -0.47248755860E+03  0.15822285971E+03 -0.39732843279E+03  0.63729808559E+03  0.50400001928E-02 0.  1.
       -1    1    3    3    0  502  0.47248755860E+03 -0.15822285971E+03  0.76377243365E+02  0.50409567514E+03  0.50400001928E-02 0. -1.
</event>
<event>
 5   0  0.5941585E-03  0.1088499E+04  0.7818609E-02  0.9216474E-01
       -2   -1    0    0    0  501  0.00000000000E+00  0.00000000000E+00  0.13355134863E+03  0.13355134866E+03  0.25500000920E-02 0.  1.
        2   -1    0    0  501    0  0.00000000000E+00  0.00000000000E+00 -0.22179307397E+04  0.22179307397E+04  0.25500000920E-02 0. -1.
    10030    2    1    2    0    0  0.00000000000E+00  0.00000000000E+00 -0.20843793911E+04  0.23514820884E+04  0.10884992264E+04 0.  0.
        5    1    3    3  502    0  0.55473981890E+02  0.52922906851E+03 -0.12887361604E+04  0.13942825218E+04  0.46999998093E+01 0.  1.
       -5    1    3    3    0  502 -0.55473981890E+02 -0.52922906851E+03 -0.79564323068E+03  0.95719956652E+03  0.46999998093E+01 0. -1.
</event>
<event>
 5   0  0.5723194E-03  0.1119597E+04  0.7818609E-02  0.9186299E-01
       -2   -1    0    0    0  501  0.00000000000E+00  0.00000000000E+00  0.27959068235E+03  0.27959068236E+03  0.25500000920E-02 0.  1.
        2   -1    0    0  501    0  0.00000000000E+00  0.00000000000E+00 -0.11208336001E+04  0.11208336001E+04  0.25500000920E-02 0. -1.
    10030    2    1    2    0    0  0.00000000000E+00  0.00000000000E+00 -0.84124291777E+03  0.14004242825E+04  0.11195974831E+04 0.  0.
        1    1    3    3  502    0  0.12674934404E+03 -0.51274200003E+03 -0.18861091669E+03  0.56084207468E+03  0.50400001928E-02 0.  1.
       -1    1    3    3    0  502 -0.12674934404E+03  0.51274200003E+03 -0.65263200108E+03  0.83958220781E+03  0.50400001928E-02 0. -1.
</event>
<event>
 5   0  0.5723194E-03  0.1091102E+04  0.7818609E-02  0.9213908E-01
       -2   -1    0    0    0  501  0.00000000000E+00  0.00000000000E+00  0.28902106048E+03  0.28902106049E+03  0.25500000920E-02 0.  1.
        2   -1    0    0  501    0  0.00000000000E+00  0.00000000000E+00 -0.10297718431E+04  0.10297718431E+04  0.25500000920E-02 0. -1.
    10030    2    1    2    0    0  0.00000000000E+00  0.00000000000E+00 -0.74075078260E+03  0.13187929036E+04  0.10911017371E+04 0.  0.
        1    1    3    3  502    0  0.27063196346E+03  0.23770786965E+03  0.12485765590E+03  0.38122975383E+03  0.50400001928E-02 0.  1.
       -1    1    3    3    0  502 -0.27063196346E+03 -0.23770786965E+03 -0.86560843850E+03  0.93756314975E+03  0.50400001928E-02 0. -1.
</event>
<event>
 5   0  0.3328741E-03  0.1101501E+04  0.7818609E-02  0.9203730E-01
       -1   -1    0    0    0  501  0.00000000000E+00  0.00000000000E+00  0.26050622431E+03  0.26050622435E+03  0.50400001928E-02 0.  1.
        1   -1    0    0  501    0  0.00000000000E+00  0.00000000000E+00 -0.11643727552E+04  0.11643727552E+04  0.50400001928E-02 0. -1.
    10030    2    1    2    0    0  0.00000000000E+00  0.00000000000E+00 -0.90386653090E+03  0.14248789796E+04  0.11015014302E+04 0.  0.
        3    1    3    3  502    0  0.50657541209E+03  0.18890830606E+02 -0.73043099844E+03  0.88910346153E+03  0.10100000352E+00 0.  1.
       -3    1    3    3    0  502 -0.50657541209E+03 -0.18890830606E+02 -0.17343553246E+03  0.53577551804E+03  0.10100000352E+00 0. -1.
</event>
<event>
 5   0  0.5941585E-03  0.1104498E+04  0.7818609E-02  0.9200819E-01
       -2   -1    0    0    0  501  0.00000000000E+00  0.00000000000E+00  0.22497220204E+03  0.22497220206E+03  0.25500000920E-02 0. -1.
        2   -1    0    0  501    0  0.00000000000E+00  0.00000000000E+00 -0.13556286120E+04  0.13556286120E+04  0.25500000920E-02 0.  1.
    10030    2    1    2    0    0  0.00000000000E+00  0.00000000000E+00 -0.11306564100E+04  0.15806008141E+04  0.11044976306E+04 0.  0.
        5    1    3    3  502    0 -0.15010844207E+03  0.31071814569E+03  0.51652839280E+02  0.34895331528E+03  0.46999998093E+01 0. -1.
       -5    1    3    3    0  502  0.15010844207E+03 -0.31071814569E+03 -0.11823092493E+04  0.12316474988E+04  0.46999998093E+01 0.  1.
</event>
<event>
 5   0  0.5627232E-03  0.1093081E+04  0.7818609E-02  0.9211962E-01
       -2   -1    0    0    0  501  0.00000000000E+00  0.00000000000E+00  0.19559260192E+03  0.19559260193E+03  0.25500000920E-02 0. -1.
        2   -1    0    0  501    0  0.00000000000E+00  0.00000000000E+00 -0.15271879084E+04  0.15271879084E+04  0.25500000920E-02 0.  1.
    10030    2    1    2    0    0  0.00000000000E+00  0.00000000000E+00 -0.13315953064E+04  0.17227805103E+04  0.10930812534E+04 0.  0.
        2    1    3    3  502    0  0.36671914636E+03  0.39516537689E+03 -0.80736456993E+03  0.97081211168E+03  0.25500000920E-02 0.  1.
       -2    1    3    3    0  502 -0.36671914636E+03 -0.39516537689E+03 -0.52423073650E+03  0.75196839861E+03  0.25500000920E-02 0. -1.
</event>
<event>
 5   0  0.3241189E-03  0.1110381E+04  0.7818609E-02  0.9195132E-01
        1   -1    0    0  501    0  0.00000000000E+00  0.00000000000E+00  0.31544210294E+03  0.31544210298E+03  0.50400001928E-02 0. -1.
       -1   -1    0    0    0  501  0.00000000000E+00  0.00000000000E+00 -0.97715757153E+03  0.97715757154E+03  0.50400001928E-02 0.  1.
    10030    2    1    2    0    0  0.00000000000E+00  0.00000000000E+00 -0.66171546859E+03  0.12925996745E+04  0.11103812666E+04 0.  0.
        5    1    3    3  502    0  0.18584695136E+03  0.43543535266E+03 -0.66839081973E+03  0.81909182243E+03  0.46999998093E+01 0.  1.
       -5    1    3    3    0  502 -0.18584695136E+03 -0.43543535266E+03  0.66753511391E+01  0.47350785209E+03  0.46999998093E+01 0. -1.
</event>
<event>
 5   0  0.5723194E-03  0.1091351E+04  0.7818609E-02  0.9213663E-01
        2   -1    0    0  501    0  0.00000000000E+00  0.00000000000E+00  0.35711769644E+03  0.35711769645E+03  0.25500000920E-02 0.  1.
       -2   -1    0    0    0  501  0.00000000000E+00  0.00000000000E+00 -0.83379145303E+03  0.83379145303E+03  0.25500000920E-02 0. -1.
    10030    2    1    2    0    0  0.00000000000E+00  0.00000000000E+00 -0.47667375659E+03  0.11909091495E+04  0.10913508749E+04 0.  0.
        1    1    3    3  502    0 -0.97836846331E+02  0.84370719296E+02 -0.81686225977E+03  0.82701536759E+03  0.50400001928E-02 0. -1.
       -1    1    3    3    0  502  0.97836846331E+02 -0.84370719296E+02  0.34018850318E+03  0.36389378188E+03  0.50400001928E-02 0.  1.
</event>
<event>
 5   0  0.5946359E-03  0.1055717E+04  0.7818609E-02  0.9249461E-01
        2   -1    0    0  501    0  0.00000000000E+00  0.00000000000E+00  0.20209995454E+03  0.20209995456E+03  0.25500000920E-02 0.  1.
       -2   -1    0    0    0  501  0.00000000000E+00  0.00000000000E+00 -0.13786977140E+04  0.13786977140E+04  0.25500000920E-02 0. -1.
    10030    2    1    2    0    0  0.00000000000E+00  0.00000000000E+00 -0.11765977594E+04  0.15807976685E+04  0.10557172829E+04 0.  0.
        4    1    3    3  502    0 -0.36364550329E+03 -0.38003283900E+03 -0.65476115094E+03  0.83986712548E+03  0.12699999809E+01 0.  1.
       -4    1    3    3    0  502  0.36364550329E+03  0.38003283900E+03 -0.52183660848E+03  0.74093054305E+03  0.12699999809E+01 0. -1.
</event>
<event>
 5   0  0.5723194E-03  0.1075761E+04  0.7818609E-02  0.9229145E-01
        2   -1    0    0  501    0  0.00000000000E+00  0.00000000000E+00  0.88238983201E+03  0.88238983201E+03  0.25500000920E-02 0.  1.
       -2   -1    0    0    0  501  0.00000000000E+00  0.00000000000E+00 -0.32787683664E+03  0.32787683665E+03  0.25500000920E-02 0. -1.
    10030    2    1    2    0    0  0.00000000000E+00  0.00000000000E+00  0.55451299537E+03  0.12102666687E+04  0.10757605436E+04 0.  0.
        1    1    3    3  502    0  0.34909571592E+03 -0.17963720249E+03  0.69089239147E+03  0.79465064022E+03  0.50400001928E-02 0.  1.
       -1    1    3    3    0  502 -0.34909571592E+03  0.17963720249E+03 -0.13637939610E+03  0.41561602844E+03  0.50400001928E-02 0. -1.
</event>
<event>
 5   0  0.5627232E-03  0.1110915E+04  0.7818609E-02  0.9194618E-01
        2   -1    0    0  501    0  0.00000000000E+00  0.00000000000E+00  0.10308118320E+04  0.10308118321E+04  0.25500000920E-02 0.  1.
       -2   -1    0    0    0  501  0.00000000000E+00  0.00000000000E+00 -0.29931094863E+03  0.29931094864E+03  0.25500000920E-02 0. -1.
    10030    2    1    2    0    0  0.00000000000E+00  0.00000000000E+00  0.73150088342E+03  0.13301227807E+04  0.11109154195E+04 0.  0.
        2    1    3    3  502    0  0.46197579691E+03  0.20906153792E+03  0.63721492164E+03  0.81435325255E+03  0.25500000920E-02 0. -1.
       -2    1    3    3    0  502 -0.46197579691E+03 -0.20906153792E+03  0.94285961782E+02  0.51576952815E+03  0.25500000920E-02 0.  1.
</event>
<event>
 5   0  0.3320192E-03  0.1092010E+04  0.7818609E-02  0.9213014E-01
       -1   -1    0    0    0  501  0.00000000000E+00  0.00000000000E+00  0.16640096085E+03  0.16640096093E+03  0.50400001928E-02 0. -1.
        1   -1    0    0  501    0  0.00000000000E+00  0.00000000000E+00 -0.17915865329E+04  0.17915865329E+04  0.50400001928E-02 0.  1.
    10030    2    1    2    0    0  0.00000000000E+00  0.00000000000E+00 -0.16251855720E+04  0.19579874938E+04  0.10920104772E+04 0.  0.
        2    1    3    3  502    0 -0.44909633172E+03  0.30001967207E+03 -0.95628453950E+03  0.10982620085E+04  0.25500000920E-02 0.  1.
       -2    1    3    3    0  502  0.44909633172E+03 -0.30001967207E+03 -0.66890103251E+03  0.85972548531E+03  0.25500000920E-02 0. -1.
</event>
<event>
 5   0  0.3320192E-03  0.1092368E+04  0.7818609E-02  0.9212662E-01
        1   -1    0    0  501    0  0.00000000000E+00  0.00000000000E+00  0.22181259797E+04  0.22181259797E+04  0.50400001928E-02 0. -1.
       -1   -1    0    0    0  501  0.00000000000E+00  0.00000000000E+00 -0.13449058433E+03  0.13449058443E+03  0.50400001928E-02 0.  1.
    10030    2    1    2    0    0  0.00000000000E+00  0.00000000000E+00  0.20836353953E+04  0.23526165641E+04  0.10923681783E+04 0.  0.
        2    1    3    3  502    0  0.33060105836E+03 -0.57990114916E+02  0.19697962637E+04  0.19981884880E+04  0.25500000920E-02 0. -1.
       -2    1    3    3    0  502 -0.33060105836E+03  0.57990114916E+02  0.11383913166E+03  0.35442807609E+03  0.25500000920E-02 0.  1.
</event>
<event>
 5   0  0.5723194E-03  0.1089431E+04  0.7818609E-02  0.9215555E-01
       -2   -1    0    0    0  501  0.00000000000E+00  0.00000000000E+00  0.91195703158E+03  0.91195703158E+03  0.25500000920E-02 0. -1.
        2   -1    0    0  501    0  0.00000000000E+00  0.00000000000E+00 -0.32536044808E+03  0.32536044809E+03  0.25500000920E-02 0.  1.
    10030    2    1    2    0    0  0.00000000000E+00  0.00000000000E+00  0.58659658350E+03  0.12373174797E+04  0.10894305823E+04 0.  0.
        1    1    3    3  502    0 -0.13993225586E+03  0.46516565265E+03  0.13354224619E+02  0.48594079472E+03  0.50400001928E-02 0.  1.
       -1    1    3    3    0  502  0.13993225586E+03 -0.46516565265E+03  0.57324235888E+03  0.75137668494E+03  0.50400001928E-02 0. -1.
</event>
<event>
 5   0  0.3215352E-03  0.1075726E+04  0.7818609E-02  0.9229179E-01
       -1   -1    0    0    0  501  0.00000000000E+00  0.00000000000E+00  0.54992471567E+03  0.54992471569E+03  0.50400001928E-02 0. -1.
        1   -1    0    0  501    0  0.00000000000E+00  0.00000000000E+00 -0.52606618078E+03  0.52606618080E+03  0.50400001928E-02 0.  1.
    10030    2    1    2    0    0  0.00000000000E+00  0.00000000000E+00  0.23858534891E+02  0.10759908965E+04  0.10757263498E+04 0.  0.
        1    1    3    3  502    0  0.47330476124E+03  0.20108960783E+03  0.16958264563E+03  0.54149118286E+03  0.50400001928E-02 0.  1.
       -1    1    3    3    0  502 -0.47330476124E+03 -0.20108960783E+03 -0.14572411074E+03  0.53449971363E+03  0.50400001928E-02 0. -1.
</event>
<event>
 5   0  0.3241189E-03  0.1125721E+04  0.7818609E-02  0.9180479E-01
        1   -1    0    0  501    0  0.00000000000E+00  0.00000000000E+00  0.79566185156E+03  0.79566185158E+03  0.50400001928E-02 0.  1.
       -1   -1    0    0    0  501  0.00000000000E+00  0.00000000000E+00 -0.39817406136E+03  0.39817406139E+03  0.50400001928E-02 0. -1.
    10030    2    1    2    0    0  0.00000000000E+00  0.00000000000E+00  0.39748779021E+03  0.11938359130E+04  0.11257209440E+04 0.  0.
        5    1    3    3  502    0  0.28006533429E+03  0.33374443429E+03 -0.17914212944E+03  0.47110076568E+03  0.46999998093E+01 0. -1.
       -5    1    3    3    0  502 -0.28006533429E+03 -0.33374443429E+03  0.57662991965E+03  0.72273514728E+03  0.46999998093E+01 0.  1.
</event>
<event>
 5   0  0.5500363E-03  0.1099109E+04  0.7818609E-02  0.9206061E-01
        2   -1    0    0  501    0  0.00000000000E+00  0.00000000000E+00  0.13759896589E+04  0.13759896589E+04  0.25500000920E-02 0.  1.
       -2   -1    0    0    0  501  0.00000000000E+00  0.00000000000E+00 -0.21948585961E+03  0.21948585963E+03  0.25500000920E-02 0. -1.
    10030    2    1    2    0    0  0.00000000000E+00  0.00000000000E+00  0.11565037993E+04  0.15954755185E+04  0.10991092268E+04 0.  0.
        3    1    3    3  502    0  0.22398187770E+03 -0.13634210733E+03  0.12793246815E+04  0.13059206341E+04  0.10100000352E+00 0.  1.
       -3    1    3    3    0  502 -0.22398187770E+03  0.13634210733E+03 -0.12282088221E+03  0.28955488439E+03  0.10100000352E+00 0. -1.
</event>
<event>
 5   0  0.3316784E-03  0.1082039E+04  0.7818609E-02  0.9222877E-01
        1   -1    0    0  501    0  0.00000000000E+00  0.00000000000E+00  0.14939191973E+04  0.14939191973E+04  0.50400001928E-02 0.  1.
       -1   -1    0    0    0  501  0.00000000000E+00  0.00000000000E+00 -0.19592889222E+03  0.19592889229E+03  0.50400001928E-02 0. -1.
    10030    2    1    2    0    0  0.00000000000E+00  0.00000000000E+00  0.12979903050E+04  0.16898480896E+04  0.10820386933E+04 0.  0.
        4    1    3    3  502    0 -0.13347000052E+03  0.49783646374E+03  0.39216391529E+03  0.64764923764E+03  0.12699999809E+01 0. -1.
       -4    1    3    3    0  502  0.13347000052E+03 -0.49783646374E+03  0.90582638976E+03  0.10421988519E+04  0.12699999809E+01 0.  1.
</event>
<event>
 5   0  0.5627232E-03  0.1095028E+04  0.7818609E-02  0.9210052E-01
       -2   -1    0    0    0  501  0.00000000000E+00  0.00000000000E+00  0.67389311466E+03  0.67389311466E+03  0.25500000920E-02 0. -1.
        2   -1    0    0  501    0  0.00000000000E+00  0.00000000000E+00 -0.44483540754E+03  0.44483540755E+03  0.25500000920E-02 0.  1.
    10030    2    1    2    0    0  0.00000000000E+00  0.00000000000E+00  0.22905770711E+03  0.11187285222E+04  0.10950278870E+04 0.  0.
        2    1    3    3  502    0  0.12172377420E+03  0.26610505027E+03  0.58730049163E+03  0.65616342664E+03  0.25500000920E-02 0. -1.
       -2    1    3    3    0  502 -0.12172377420E+03 -0.26610505027E+03 -0.35824278451E+03  0.46256509558E+03  0.25500000920E-02 0.  1.
</event>
<event>
 5   0  0.3316784E-03  0.1146785E+04  0.7818609E-02  0.9160754E-01
        1   -1    0    0  501    0  0.00000000000E+00  0.00000000000E+00  0.50000584978E+03  0.50000584980E+03  0.50400001928E-02 0.  1.
       -1   -1    0    0    0  501  0.00000000000E+00  0.00000000000E+00 -0.65755077528E+03  0.65755077530E+03  0.50400001928E-02 0. -1.
    10030    2    1    2    0    0  0.00000000000E+00  0.00000000000E+00 -0.15754492550E+03  0.11575566251E+04  0.11467854798E+04 0.  0.
        4    1    3    3  502    0 -0.53416510054E+02  0.56648328482E+03 -0.15029691731E+03  0.58851288157E+03  0.12699999809E+01 0.  1.
       -4    1    3    3    0  502  0.53416510054E+02 -0.56648328482E+03 -0.72480081890E+01  0.56904374353E+03  0.12699999809E+01 0. -1.
</event>
<event>
 5   0  0.3215352E-03  0.1107171E+04  0.7818609E-02  0.9198231E-01
        1   -1    0    0  501    0  0.00000000000E+00  0.00000000000E+00  0.11507374270E+04  0.11507374270E+04  0.50400001928E-02 0. -1.
       -1   -1    0    0    0  501  0.00000000000E+00  0.00000000000E+00 -0.26631337850E+03  0.26631337855E+03  0.50400001928E-02 0.  1.
    10030    2    1    2    0    0  0.00000000000E+00  0.00000000000E+00  0.88442404846E+03  0.14170508055E+04  0.11071707583E+04 0.  0.
        1    1    3    3  502    0 -0.47857048955E+03 -0.14979664686E+03  0.14208516226E+03  0.52120719704E+03  0.50400001928E-02 0.  1.
       -1    1    3    3    0  502  0.47857048955E+03  0.14979664686E+03  0.74233888620E+03  0.89584360849E+03  0.50400001928E-02 0. -1.
</event>
<event>
 5   0  0.5941585E-03  0.1069532E+04  0.7818609E-02  0.9235408E-01
        2   -1    0    0  501    0  0.00000000000E+00  0.00000000000E+00  0.75643524849E+03  0.75643524850E+03  0.25500000920E-02 0.  1.
       -2   -1    0    0    0  501  0.00000000000E+00  0.00000000000E+00 -0.37805577758E+03  0.37805577759E+03  0.25500000920E-02 0. -1.
    10030    2    1    2    0    0  0.00000000000E+00  0.00000000000E+00  0.37837947091E+03  0.11344910261E+04  0.10695320773E+04 0.  0.
        5    1    3    3  502    0  0.20580327757E+03  0.37606149473E+03  0.52825273590E+03  0.68033100756E+03  0.46999998093E+01 0.  1.
       -5    1    3    3    0  502 -0.20580327757E+03 -0.37606149473E+03 -0.14987326499E+03  0.45416001853E+03  0.46999998093E+01 0. -1.
</event>
<event>
 5   0  0.3328741E-03  0.1092809E+04  0.7818609E-02  0.9212229E-01
       -1   -1    0    0    0  501  0.00000000000E+00  0.00000000000E+00  0.19277789579E+03  0.19277789586E+03  0.50400001928E-02 0. -1.
        1   -1    0    0  501    0  0.00000000000E+00  0.00000000000E+00 -0.15487153168E+04  0.15487153168E+04  0.50400001928E-02 0.  1.
    10030    2    1    2    0    0  0.00000000000E+00  0.00000000000E+00 -0.13559374210E+04  0.17414932127E+04  0.10928093704E+04 0.  0.
        3    1    3    3  502    0  0.30936372112E+03  0.28333343904E+03 -0.12358953812E+04  0.13051517740E+04  0.10100000352E+00 0.  1.
       -3    1    3    3    0  502 -0.30936372112E+03 -0.28333343904E+03 -0.12004203983E+03  0.43634143873E+03  0.10100000352E+00 0. -1.
</event>
<event>
 5   0  0.3328741E-03  0.1080125E+04  0.7818609E-02  0.9224782E-01
       -1   -1    0    0    0  501  0.00000000000E+00  0.00000000000E+00  0.78700708975E+03  0.78700708977E+03  0.50400001928E-02 0. -1.
        1   -1    0    0  501    0  0.00000000000E+00  0.00000000000E+00 -0.37060371931E+03  0.37060371934E+03  0.50400001928E-02 0.  1.
    10030    2    1    2    0    0  0.00000000000E+00  0.00000000000E+00  0.41640337045E+03  0.11576108091E+04  0.10801254642E+04 0.  0.
        3    1    3    3  502    0 -0.35075520385E+03  0.34710135292E+03  0.44339659605E+03  0.66340720061E+03  0.10100000352E+00 0. -1.
       -3    1    3    3    0  502  0.35075520385E+03 -0.34710135292E+03 -0.26993225602E+02  0.49420360850E+03  0.10100000352E+00 0.  1.
</event>
<event>
 5   0  0.5627232E-03  0.1093754E+04  0.7818609E-02  0.9211301E-01
        2   -1    0    0  501    0  0.00000000000E+00  0.00000000000E+00  0.23049263042E+04  0.23049263042E+04  0.25500000920E-02 0. -1.
       -2   -1    0    0    0  501  0.00000000000E+00  0.00000000000E+00 -0.12975440637E+03  0.12975440639E+03  0.25500000920E-02 0.  1.
    10030    2    1    2    0    0  0.00000000000E+00  0.00000000000E+00  0.21751718978E+04  0.24346807106E+04  0.10937538011E+04 0.  0.
        2    1    3    3  502    0 -0.31520008064E+03 -0.36949586026E+03  0.52799916301E+03  0.71739905055E+03  0.25500000920E-02 0.  1.
       -2    1    3    3    0  502  0.31520008064E+03  0.36949586026E+03  0.16471727348E+04  0.17172816601E+04  0.25500000920E-02 0. -1.
</event>
<event>
 5   0  0.5946359E-03  0.1105479E+04  0.7818609E-02  0.9199868E-01
        2   -1    0    0  501    0  0.00000000000E+00  0.00000000000E+00  0.96981502035E+03  0.96981502035E+03  0.25500000920E-02 0.  1.
       -2   -1    0    0    0  501  0.00000000000E+00  0.00000000000E+00 -0.31502998790E+03  0.31502998791E+03  0.25500000920E-02 0. -1.
    10030    2    1    2    0    0  0.00000000000E+00  0.00000000000E+00  0.65478503244E+03  0.12848450083E+04  0.11054787454E+04 0.  0.
        4    1    3    3  502    0  0.50613692406E+03 -0.14525503091E+03  0.13205948918E+03  0.54287653429E+03  0.12699999809E+01 0.  1.
       -4    1    3    3    0  502 -0.50613692406E+03  0.14525503091E+03  0.52272554326E+03  0.74196847398E+03  0.12699999809E+01 0. -1.
</event>
<event>
 5   0  0.3328741E-03  0.1124971E+04  0.7818609E-02  0.9181190E-01
       -1   -1    0    0    0  501  0.00000000000E+00  0.00000000000E+00  0.24931023210E+03  0.24931023215E+03  0.50400001928E-02 0. -1.
        1   -1    0    0  501    0  0.00000000000E+00  0.00000000000E+00 -0.12690611431E+04  0.12690611431E+04  0.50400001928E-02 0.  1.
    10030    2    1    2    0    0  0.00000000000E+00  0.00000000000E+00 -0.10197509110E+04  0.15183713752E+04  0.11249709830E+04 0.  0.
        3    1    3    3  502    0  0.50031894869E+03  0.25565579267E+03 -0.47388673851E+03  0.73501536439E+03  0.10100000352E+00 0.  1.
       -3    1    3    3    0  502 -0.50031894869E+03 -0.25565579267E+03 -0.54586417246E+03  0.78335601084E+03  0.10100000352E+00 0. -1.
</event>
<event>
 5   0  0.5627232E-03  0.1103407E+04  0.7818609E-02  0.9201878E-01
        2   -1    0    0  501    0  0.00000000000E+00  0.00000000000E+00  0.22440643248E+03  0.22440643250E+03  0.25500000920E-02 0.  1.
       -2   -1    0    0    0  501  0.00000000000E+00  0.00000000000E+00 -0.13563635434E+04  0.13563635434E+04  0.25500000920E-02 0. -1.
    10030    2    1    2    0    0  0.00000000000E+00  0.00000000000E+00 -0.11319571109E+04  0.15807699759E+04  0.11034069130E+04 0.  0.
        2    1    3    3  502    0  0.50115251710E+03  0.19583647589E+03 -0.39127486061E+03  0.66528323835E+03  0.25500000920E-02 0.  1.
       -2    1    3    3    0  502 -0.50115251710E+03 -0.19583647589E+03 -0.74068225027E+03  0.91548673751E+03  0.25500000920E-02 0. -1.
</event>
<event>
 5   0  0.5946359E-03  0.1115794E+04  0.7818609E-02  0.9189933E-01
       -2   -1    0    0    0  501  0.00000000000E+00  0.00000000000E+00  0.21632353304E+03  0.21632353306E+03  0.25500000920E-02 0. -1.
        2   -1    0    0  501    0  0.00000000000E+00  0.00000000000E+00 -0.14388132217E+04  0.14388132217E+04  0.25500000920E-02 0.  1.
    10030    2    1    2    0    0  0.00000000000E+00  0.00000000000E+00 -0.12224896886E+04  0.16551367547E+04  0.11157941737E+04 0.  0.
        4    1    3    3  502    0  0.49052729648E+03 -0.23363038569E+03 -0.42333410399E+03  0.68877685952E+03  0.12699999809E+01 0. -1.
       -4    1    3    3    0  502 -0.49052729648E+03  0.23363038569E+03 -0.79915558462E+03  0.96635989520E+03  0.12699999809E+01 0.  1.
</event>
<event>
 5   0  0.5500363E-03  0.1103681E+04  0.7818609E-02  0.9201612E-01
        2   -1    0    0  501    0  0.00000000000E+00  0.00000000000E+00  0.51438278469E+03  0.51438278470E+03  0.25500000920E-02 0. -1.
       -2   -1    0    0    0  501  0.00000000000E+00  0.00000000000E+00 -0.59202592277E+03  0.59202592278E+03  0.25500000920E-02 0.  1.
    10030    2    1    2    0    0  0.00000000000E+00  0.00000000000E+00 -0.77643138081E+02  0.11064087075E+04  0.11036810097E+04 0.  0.
        3    1    3    3  502    0 -0.33859549528E+03 -0.40845596486E+03  0.11335857679E+03  0.54252498725E+03  0.10100000352E+00 0. -1.
       -3    1    3    3    0  502  0.33859549528E+03  0.40845596486E+03 -0.19100171487E+03  0.56388372023E+03  0.10100000352E+00 0.  1.
</event>
<event>
 5   0  0.3328741E-03  0.1098921E+04  0.7818609E-02  0.9206244E-01
        1   -1    0    0  501    0  0.00000000000E+00  0.00000000000E+00  0.23852323405E+04  0.23852323405E+04  0.50400001928E-02 0. -1.
       -1   -1    0    0    0  501  0.00000000000E+00  0.00000000000E+00 -0.12657344703E+03  0.12657344713E+03  0.50400001928E-02 0.  1.
    10030    2    1    2    0    0  0.00000000000E+00  0.00000000000E+00  0.22586588935E+04  0.25118057876E+04  0.10989214338E+04 0.  0.
        3    1    3    3  502    0 -0.23534124318E+03 -0.37162675241E+03  0.37672920953E+03  0.57915183791E+03  0.10100000352E+00 0.  1.
       -3    1    3    3    0  502  0.23534124318E+03  0.37162675241E+03  0.18819296840E+04  0.19326539497E+04  0.10100000352E+00 0. -1.
</event>
<event>
 5   0  0.5627232E-03  0.1102280E+04  0.7818609E-02  0.9202973E-01
       -2   -1    0    0    0  501  0.00000000000E+00  0.00000000000E+00  0.33502083498E+03  0.33502083499E+03  0.25500000920E-02 0.  1.
        2   -1    0    0  501    0  0.00000000000E+00  0.00000000000E+00 -0.90667570527E+03  0.90667570528E+03  0.25500000920E-02 0. -1.
    10030    2    1    2    0    0  0.00000000000E+00  0.00000000000E+00 -0.57165487029E+03  0.12416965403E+04  0.11022799134E+04 0.  0.
        2    1    3    3  502    0  0.46388291463E+03 -0.25213272892E+03 -0.10772602744E+03  0.53885356868E+03  0.25500000920E-02 0.  1.
       -2    1    3    3    0  502 -0.46388291463E+03  0.25213272892E+03 -0.46392884285E+03  0.70284297159E+03  0.25500000920E-02 0. -1.
</event>
<event>
 5   0  0.2185750E-03  0.1092946E+04  0.7818609E-02  0.9212094E-01
       -3   -1    0    0    0  501  0.00000000000E+00  0.00000000000E+00  0.11130544352E+04  0.11130544398E+04  0.10100000352E+00 0.  1.
        3   -1    0    0  501    0  0.00000000000E+00  0.00000000000E+00 -0.26830028367E+03  0.26830030268E+03  0.10100000352E+00 0. -1.
    10030    2    1    2    0    0  0.00000000000E+00  0.00000000000E+00  0.84475415150E+03  0.13813547424E+04  0.10929461780E+04 0.  0.
        2    1    3    3  502    0  0.24189670925E+02 -0.52891079939E+03  0.25139735379E+03  0.58611637359E+03  0.25500000920E-02 0. -1.
       -2    1    3    3    0  502 -0.24189670925E+02  0.52891079939E+03  0.59335679772E+03  0.79523836885E+03  0.25500000920E-02 0.  1.
</event>
<event>
 5   0  0.3316784E-03  0.1124606E+04  0.7818609E-02  0.9181536E-01
        1   -1    0    0  501    0  0.00000000000E+00  0.00000000000E+00  0.10873569997E+04  0.10873569997E+04  0.50400001928E-02 0. -1.
       -1   -1    0    0    0  501  0.00000000000E+00  0.00000000000E+00 -0.29078255158E+03  0.29078255163E+03  0.50400001928E-02 0.  1.
    10030    2    1    2    0    0  0.00000000000E+00  0.00000000000E+00  0.79657444808E+03  0.13781395513E+04  0.11246056071E+04 0.  0.
        4    1    3    3  502    0  0.55156923723E+03  0.92856868950E+02  0.32755245137E+03  0.64818457470E+03  0.12699999809E+01 0.  1.
       -4    1    3    3    0  502 -0.55156923723E+03 -0.92856868950E+02  0.46902199670E+03  0.72995497660E+03  0.12699999809E+01 0. -1.
</event>
<event>
 5   0  0.5627232E-03  0.1097628E+04  0.7818609E-02  0.9207507E-01
       -2   -1    0    0    0  501  0.00000000000E+00  0.00000000000E+00  0.15971808830E+03  0.15971808832E+03  0.25500000920E-02 0. -1.
        2   -1    0    0  501    0  0.00000000000E+00  0.00000000000E+00 -0.18858018766E+04  0.18858018766E+04  0.25500000920E-02 0.  1.
    10030    2    1    2    0    0  0.00000000000E+00  0.00000000000E+00 -0.17260837883E+04  0.20455199649E+04  0.10976277523E+04 0.  0.
        2    1    3    3  502    0 -0.39222158539E+03  0.36088607668E+03 -0.11068803938E+04  0.12285197347E+04  0.25500000920E-02 0. -1.
       -2    1    3    3    0  502  0.39222158539E+03 -0.36088607668E+03 -0.61920339446E+03  0.81700023018E+03  0.25500000920E-02 0.  1.
</event>
<event>
 5   0  0.3241189E-03  0.1092586E+04  0.7818609E-02  0.9212448E-01
        1   -1    0    0  501    0  0.00000000000E+00  0.00000000000E+00  0.85176851717E+03  0.85176851719E+03  0.50400001928E-02 0. -1.
       -1   -1    0    0    0  501  0.00000000000E+00  0.00000000000E+00 -0.35037249063E+03  0.35037249066E+03  0.50400001928E-02 0.  1.
    10030    2    1    2    0    0  0.00000000000E+00  0.00000000000E+00  0.50139602655E+03  0.12021410079E+04  0.10925863935E+04 0.  0.
        5    1    3    3  502    0  0.41165580393E+03 -0.27171489105E+03 -0.76306998635E+01  0.49332524820E+03  0.46999998093E+01 0.  1.
       -5    1    3    3    0  502 -0.41165580393E+03  0.27171489105E+03  0.50902672641E+03  0.70881575965E+03  0.46999998093E+01 0. -1.
</event>
<event>
 5   0  0.3241189E-03  0.1098312E+04  0.7818609E-02  0.9206839E-01
       -1   -1    0    0    0  501  0.00000000000E+00  0.00000000000E+00  0.11620367702E+04  0.11620367702E+04  0.50400001928E-02 0. -1.
        1   -1    0    0  501    0  0.00000000000E+00  0.00000000000E+00 -0.25952053350E+03  0.25952053355E+03  0.50400001928E-02 0.  1.
    10030    2    1    2    0    0  0.00000000000E+00  0.00000000000E+00  0.90251623668E+03  0.14215573037E+04  0.10983121643E+04 0.  0.
        5    1    3    3  502    0  0.77344424779E+01 -0.54906058582E+03  0.45746056728E+03  0.71471645364E+03  0.46999998093E+01 0.  1.
       -5    1    3    3    0  502 -0.77344424779E+01  0.54906058582E+03  0.44505566940E+03  0.70684085009E+03  0.46999998093E+01 0. -1.
</event>
<event>
 5   0  0.3328741E-03  0.1085090E+04  0.7818609E-02  0.9219847E-01
        1   -1    0    0  501    0  0.00000000000E+00  0.00000000000E+00  0.25662577665E+03  0.25662577670E+03  0.50400001928E-02 0.  1.
       -1   -1    0    0    0  501  0.00000000000E+00  0.00000000000E+00 -0.11470215032E+04  0.11470215032E+04  0.50400001928E-02 0. -1.
    10030    2    1    2    0    0  0.00000000000E+00  0.00000000000E+00 -0.89039572652E+03  0.14036472799E+04  0.10850903817E+04 0.  0.
        3    1    3    3  502    0 -0.16306805082E+03 -0.25212890723E+03  0.13934280457E+03  0.33102356781E+03  0.10100000352E+00 0.  1.
       -3    1    3    3    0  502  0.16306805082E+03  0.25212890723E+03 -0.10297385311E+04  0.10726237121E+04  0.10100000352E+00 0. -1.
</event>
<event>
 5   0  0.3320192E-03  0.1087271E+04  0.7818609E-02  0.9217688E-01
        1   -1    0    0  501    0  0.00000000000E+00  0.00000000000E+00  0.78651323062E+03  0.78651323064E+03  0.50400001928E-02 0.  1.
       -1   -1    0    0    0  501  0.00000000000E+00  0.00000000000E+00 -0.37575934559E+03  0.37575934562E+03  0.50400001928E-02 0. -1.
    10030    2    1    2    0    0  0.00000000000E+00  0.00000000000E+00  0.41075388503E+03  0.11622725763E+04  0.10872712575E+04 0.  0.
        2    1    3    3  502    0 -0.55862410739E+02 -0.42372739326E+03  0.56451993371E+03  0.70805950901E+03  0.25500000920E-02 0.  1.
       -2    1    3    3    0  502  0.55862410739E+02  0.42372739326E+03 -0.15376604868E+03  0.45421306725E+03  0.25500000920E-02 0. -1.
</event>
<event>
 5   0  0.5941585E-03  0.1097551E+04  0.7818609E-02  0.9207582E-01
        2   -1    0    0  501    0  0.00000000000E+00  0.00000000000E+00  0.88460151580E+03  0.88460151580E+03  0.25500000920E-02 0.  1.
       -2   -1    0    0    0  501  0.00000000000E+00  0.00000000000E+00 -0.34044098803E+03  0.34044098803E+03  0.25500000920E-02 0. -1.
    10030    2    1    2    0    0  0.00000000000E+00  0.00000000000E+00  0.54416052777E+03  0.12250425038E+04  0.10975511178E+04 0.  0.
        5    1    3    3  502    0 -0.54691260179E+03  0.43548068984E+02  0.25971677201E+03  0.60702942266E+03  0.46999998093E+01 0. -1.
       -5    1    3    3    0  502  0.54691260179E+03 -0.43548068984E+02  0.28444375576E+03  0.61801308117E+03  0.46999998093E+01 0.  1.
</event>
<event>
 5   0  0.3316784E-03  0.9440539E+03  0.7818609E-02  0.9372128E-01
       -1   -1    0    0    0  501  0.00000000000E+00  0.00000000000E+00  0.62918202450E+03  0.62918202452E+03  0.50400001928E-02 0.  1.
        1   -1    0    0  501    0  0.00000000000E+00  0.00000000000E+00 -0.35412553379E+03  0.35412553382E+03  0.50400001928E-02 0. -1.
    10030    2    1    2    0    0  0.00000000000E+00  0.00000000000E+00  0.27505649071E+03  0.98330755835E+03  0.94405385504E+03 0.  0.
        4    1    3    3  502    0  0.34166867838E+03  0.15292909115E+03 -0.16197446641E+03  0.40787514434E+03  0.12699999809E+01 0. -1.
       -4    1    3    3    0  502 -0.34166867838E+03 -0.15292909115E+03  0.43703095712E+03  0.57543241401E+03  0.12699999809E+01 0.  1.
</event>
<event>
 5   0  0.3241189E-03  0.1083675E+04  0.7818609E-02  0.9221251E-01
        1   -1    0    0  501    0  0.00000000000E+00  0.00000000000E+00  0.15789008902E+04  0.15789008902E+04  0.50400001928E-02 0.  1.
       -1   -1    0    0    0  501  0.00000000000E+00  0.00000000000E+00 -0.18594436139E+03  0.18594436146E+03  0.50400001928E-02 0. -1.
    10030    2    1    2    0    0  0.00000000000E+00  0.00000000000E+00  0.13929565288E+04  0.17648452517E+04  0.10836747073E+04 0.  0.
        5    1    3    3  502    0  0.32295578655E+03  0.22188090317E+03  0.13059092371E+04  0.13634341205E+04  0.46999998093E+01 0.  1.
       -5    1    3    3    0  502 -0.32295578655E+03 -0.22188090317E+03  0.87047291687E+02  0.40141113119E+03  0.46999998093E+01 0. -1.
</event>
<event>
 5   0  0.5627232E-03  0.1351815E+04  0.7818609E-02  0.8989455E-01
       -2   -1    0    0    0  501  0.00000000000E+00  0.00000000000E+00  0.42664933896E+03  0.42664933896E+03  0.25500000920E-02 0. -1.
        2   -1    0    0  501    0  0.00000000000E+00  0.00000000000E+00 -0.10707885791E+04  0.10707885791E+04  0.25500000920E-02 0.  1.
    10030    2    1    2    0    0  0.00000000000E+00  0.00000000000E+00 -0.64413924013E+03  0.14974379181E+04  0.13518154304E+04 0.  0.
        2    1    3    3  502    0  0.32649093004E+03  0.43920974134E+03  0.11733478579E+03  0.55970436504E+03  0.25500000920E-02 0. -1.
       -2    1    3    3    0  502 -0.32649093004E+03 -0.43920974134E+03 -0.76147402592E+03  0.93773355301E+03  0.25500000920E-02 0.  1.
</event>
<event>
 5   0  0.3320192E-03  0.1031733E+04  0.7818609E-02  0.9274410E-01
       -1   -1    0    0    0  501  0.00000000000E+00  0.00000000000E+00  0.32525579921E+03  0.32525579925E+03  0.50400001928E-02 0.  1.
        1   -1    0    0  501    0  0.00000000000E+00  0.00000000000E+00 -0.81818073456E+03  0.81818073457E+03  0.50400001928E-02 0. -1.
    10030    2    1    2    0    0  0.00000000000E+00  0.00000000000E+00 -0.49292493534E+03  0.11434365338E+04  0.10317325792E+04 0.  0.
        2    1    3    3  502    0  0.50784280236E+03 -0.60091282945E+02 -0.17127355102E+03  0.53930501897E+03  0.25500000920E-02 0. -1.
       -2    1    3    3    0  502 -0.50784280236E+03  0.60091282945E+02 -0.32165138433E+03  0.60413151486E+03  0.25500000920E-02 0.  1.
</event>
<event>
 5   0  0.5941585E-03  0.1092643E+04  0.7818609E-02  0.9212392E-01
       -2   -1    0    0    0  501  0.00000000000E+00  0.00000000000E+00  0.47850601979E+03  0.47850601979E+03  0.25500000920E-02 0. -1.
        2   -1    0    0  501    0  0.00000000000E+00  0.00000000000E+00 -0.62374814273E+03  0.62374814273E+03  0.25500000920E-02 0.  1.
    10030    2    1    2    0    0  0.00000000000E+00  0.00000000000E+00 -0.14524212294E+03  0.11022541625E+04  0.10926431094E+04 0.  0.
        5    1    3    3  502    0  0.32963103369E+03 -0.43501471629E+03 -0.96295110299E+02  0.55424656970E+03  0.46999998093E+01 0.  1.
       -5    1    3    3    0  502 -0.32963103369E+03  0.43501471629E+03 -0.48947012643E+02  0.54800759283E+03  0.46999998093E+01 0. -1.
</event>
<event>
 5   0  0.3215352E-03  0.1090401E+04  0.7818609E-02  0.9214599E-01
       -1   -1    0    0    0  501  0.00000000000E+00  0.00000000000E+00  0.31698882149E+03  0.31698882153E+03  0.50400001928E-02 0.  1.
        1   -1    0    0  501    0  0.00000000000E+00  0.00000000000E+00 -0.93770948086E+03  0.93770948087E+03  0.50400001928E-02 0. -1.
    10030    2    1    2    0    0  0.00000000000E+00  0.00000000000E+00 -0.62072065937E+03  0.12546983024E+04  0.10904007030E+04 0.  0.
        1    1    3    3  502    0 -0.51772903457E+03  0.33603734865E+02 -0.11757186756E+03  0.53197340940E+03  0.50400001928E-02 0.  1.
       -1    1    3    3    0  502  0.51772903457E+03 -0.33603734865E+02 -0.50314879181E+03  0.72272489300E+03  0.50400001928E-02 0. -1.
</event>
<event>
 5   0  0.5500363E-03  0.1090903E+04  0.7818609E-02  0.9214104E-01
        2   -1    0    0  501    0  0.00000000000E+00  0.00000000000E+00  0.35014996618E+03  0.35014996619E+03  0.25500000920E-02 0. -1.
       -2   -1    0    0    0  501  0.00000000000E+00  0.00000000000E+00 -0.84968508417E+03  0.84968508418E+03  0.25500000920E-02 0.  1.
    10030    2    1    2    0    0  0.00000000000E+00  0.00000000000E+00 -0.49953511799E+03  0.11998350504E+04  0.10909027518E+04 0.  0.
        3    1    3    3  502    0  0.16873318266E+03 -0.12396347751E+03  0.30419201971E+03  0.36928393649E+03  0.10100000352E+00 0. -1.
       -3    1    3    3    0  502 -0.16873318266E+03  0.12396347751E+03 -0.80372713771E+03  0.83055111388E+03  0.10100000352E+00 0.  1.
</event>
<event>
 5   0  0.5941585E-03  0.1119170E+04  0.7818609E-02  0.9186707E-01
        2   -1    0    0  501    0  0.00000000000E+00  0.00000000000E+00  0.51168573483E+03  0.51168573484E+03  0.25500000920E-02 0. -1.
       -2   -1    0    0    0  501  0.00000000000E+00  0.00000000000E+00 -0.61196778111E+03  0.61196778111E+03  0.25500000920E-02 0.  1.
    10030    2    1    2    0    0  0.00000000000E+00  0.00000000000E+00 -0.10028204627E+03  0.11236535160E+04  0.11191696632E+04 0.  0.
        5    1    3    3  502    0 -0.15759090434E+03  0.18490949248E+03 -0.55623064918E+03  0.60699344199E+03  0.46999998093E+01 0.  1.
       -5    1    3    3    0  502  0.15759090434E+03 -0.18490949248E+03  0.45594860290E+03  0.51666007396E+03  0.46999998093E+01 0. -1.
</event>
<event>
 5   0  0.3215352E-03  0.1078372E+04  0.7818609E-02  0.9226532E-01
        1   -1    0    0  501    0  0.00000000000E+00  0.00000000000E+00  0.60933000676E+03  0.60933000678E+03  0.50400001928E-02 0.  1.
       -1   -1    0    0    0  501  0.00000000000E+00  0.00000000000E+00 -0.47711701803E+03  0.47711701805E+03  0.50400001928E-02 0. -1.
    10030    2    1    2    0    0  0.00000000000E+00  0.00000000000E+00  0.13221298874E+03  0.10864470248E+04  0.10783723213E+04 0.  0.
        1    1    3    3  502    0  0.35714931574E+03 -0.31462936769E+03 -0.18911713307E+03  0.51216458565E+03  0.50400001928E-02 0. -1.
       -1    1    3    3    0  502 -0.35714931574E+03  0.31462936769E+03  0.32133012181E+03  0.57428243918E+03  0.50400001928E-02 0.  1.
</event>
<event>
 5   0  0.5627232E-03  0.1122833E+04  0.7818609E-02  0.9183218E-01
        2   -1    0    0  501    0  0.00000000000E+00  0.00000000000E+00  0.22993956991E+03  0.22993956993E+03  0.25500000920E-02 0.  1.
       -2   -1    0    0    0  501  0.00000000000E+00  0.00000000000E+00 -0.13707454529E+04  0.13707454529E+04  0.25500000920E-02 0. -1.
    10030    2    1    2    0    0  0.00000000000E+00  0.00000000000E+00 -0.11408058830E+04  0.16006850228E+04  0.11228332377E+04 0.  0.
        2    1    3    3  502    0 -0.62838078833E+02 -0.28313697110E+03 -0.12556791385E+04  0.12887378584E+04  0.25500000920E-02 0. -1.
       -2    1    3    3    0  502  0.62838078833E+02  0.28313697110E+03  0.11487325558E+03  0.31194716446E+03  0.25500000920E-02 0.  1.
</event>
<event>
 5   0  0.5941585E-03  0.1106536E+04  0.7818609E-02  0.9198845E-01
       -2   -1    0    0    0  501  0.00000000000E+00  0.00000000000E+00  0.39784017924E+03  0.39784017925E+03  0.25500000920E-02 0. -1.
        2   -1    0    0  501    0  0.00000000000E+00  0.00000000000E+00 -0.76941782521E+03  0.76941782521E+03  0.25500000920E-02 0.  1.
    10030    2    1    2    0    0  0.00000000000E+00  0.00000000000E+00 -0.37157764596E+03  0.11672580045E+04  0.11065357211E+04 0.  0.
        5    1    3    3  502    0  0.24560884454E+03  0.26683188679E+03  0.25494271744E+03  0.44332926758E+03  0.46999998093E+01 0. -1.
       -5    1    3    3    0  502 -0.24560884454E+03 -0.26683188679E+03 -0.62652036341E+03  0.72392873688E+03  0.46999998093E+01 0.  1.
</event>
<event>
 5   0  0.3320192E-03  0.1096653E+04  0.7818609E-02  0.9208460E-01
        1   -1    0    0  501    0  0.00000000000E+00  0.00000000000E+00  0.11313043348E+04  0.11313043348E+04  0.50400001928E-02 0.  1.
       -1   -1    0    0    0  501  0.00000000000E+00  0.00000000000E+00 -0.26576583458E+03  0.26576583463E+03  0.50400001928E-02 0. -1.
    10030    2    1    2    0    0  0.00000000000E+00  0.00000000000E+00  0.86553850025E+03  0.13970701695E+04  0.10966531644E+04 0.  0.
        2    1    3    3  502    0 -0.14599498711E+03  0.29224085705E+03 -0.12826030224E+03  0.35095578058E+03  0.25500000920E-02 0. -1.
       -2    1    3    3    0  502  0.14599498711E+03 -0.29224085705E+03  0.99379880249E+03  0.10461143889E+04  0.25500000920E-02 0.  1.
</event>
<event>
 5   0  0.5941585E-03  0.1099831E+04  0.7818609E-02  0.9205357E-01
       -2   -1    0    0    0  501  0.00000000000E+00  0.00000000000E+00  0.22254685873E+03  0.22254685874E+03  0.25500000920E-02 0. -1.
        2   -1    0    0  501    0  0.00000000000E+00  0.00000000000E+00 -0.13588457981E+04  0.13588457981E+04  0.25500000920E-02 0.  1.
    10030    2    1    2    0    0  0.00000000000E+00  0.00000000000E+00 -0.11362989394E+04  0.15813926569E+04  0.10998306486E+04 0.  0.
        5    1    3    3  502    0  0.13359873983E+03  0.51234851612E+03 -0.78158754310E+03  0.94406080460E+03  0.46999998093E+01 0. -1.
       -5    1    3    3    0  502 -0.13359873983E+03 -0.51234851612E+03 -0.35471139631E+03  0.63733185227E+03  0.46999998093E+01 0.  1.
</event>
<event>
 5   0  0.3316784E-03  0.1100267E+04  0.7818609E-02  0.9204932E-01
       -1   -1    0    0    0  501  0.00000000000E+00  0.00000000000E+00  0.17692090766E+03  0.17692090773E+03  0.50400001928E-02 0. -1.
        1   -1    0    0  501    0  0.00000000000E+00  0.00000000000E+00 -0.17106323905E+04  0.17106323905E+04  0.50400001928E-02 0.  1.
    10030    2    1    2    0    0  0.00000000000E+00  0.00000000000E+00 -0.15337114828E+04  0.18875532982E+04  0.11002665773E+04 0.  0.
        4    1    3    3  502    0 -0.12285592667E+02  0.42945153025E+03 -0.17738432275E+03  0.46480787803E+03  0.12699999809E+01 0. -1.
       -4    1    3    3    0  502  0.12285592667E+02 -0.42945153025E+03 -0.13563271601E+04  0.14227454202E+04  0.12699999809E+01 0.  1.
</event>
<event>
 5   0  0.3241189E-03  0.1119393E+04  0.7818609E-02  0.9186494E-01
        1   -1    0    0  501    0  0.00000000000E+00  0.00000000000E+00  0.34269526781E+03  0.34269526785E+03  0.50400001928E-02 0.  1.
       -1   -1    0    0    0  501  0.00000000000E+00  0.00000000000E+00 -0.91410713058E+03  0.91410713060E+03  0.50400001928E-02 0. -1.
    10030    2    1    2    0    0  0.00000000000E+00  0.00000000000E+00 -0.57141186277E+03  0.12568023984E+04  0.11193930283E+04 0.  0.
        5    1    3    3  502    0 -0.36477123207E+03 -0.41852092271E+03 -0.36525745886E+03  0.66456972226E+03  0.46999998093E+01 0. -1.
       -5    1    3    3    0  502  0.36477123207E+03  0.41852092271E+03 -0.20615440391E+03  0.59223267618E+03  0.46999998093E+01 0.  1.
</event>
<event>
 5   0  0.3241189E-03  0.1095868E+04  0.7818609E-02  0.9209229E-01
       -1   -1    0    0    0  501  0.00000000000E+00  0.00000000000E+00  0.24151664408E+03  0.24151664413E+03  0.50400001928E-02 0.  1.
        1   -1    0    0  501    0  0.00000000000E+00  0.00000000000E+00 -0.12431086967E+04  0.12431086967E+04  0.50400001928E-02 0. -1.
    10030    2    1    2    0    0  0.00000000000E+00  0.00000000000E+00 -0.10015920526E+04  0.14846253408E+04  0.10958675845E+04 0.  0.
        5    1    3    3  502    0 -0.78763324146E+02 -0.53360980912E+03 -0.37038597842E+03  0.65433244810E+03  0.46999998093E+01 0.  1.
       -5    1    3    3    0  502  0.78763324146E+02  0.53360980912E+03 -0.63120607417E+03  0.83029289271E+03  0.46999998093E+01 0. -1.
</event>
<event>
 5   0  0.2185750E-03  0.1126357E+04  0.7818609E-02  0.9179877E-01
       -3   -1    0    0    0  501  0.00000000000E+00  0.00000000000E+00  0.50722385074E+03  0.50722386080E+03  0.10100000352E+00 0.  1.
        3   -1    0    0  501    0  0.00000000000E+00  0.00000000000E+00 -0.62530587858E+03  0.62530588674E+03  0.10100000352E+00 0. -1.
    10030    2    1    2    0    0  0.00000000000E+00  0.00000000000E+00 -0.11808202784E+03  0.11325297475E+04  0.11263570765E+04 0.  0.
        2    1    3    3  502    0  0.10309763047E+03 -0.16827747529E+02 -0.61547940382E+03  0.62428133964E+03  0.25500000920E-02 0. -1.
       -2    1    3    3    0  502 -0.10309763047E+03  0.16827747529E+02  0.49739737598E+03  0.50824840790E+03  0.25500000920E-02 0.  1.
</event>
<event>
 5   0  0.5500363E-03  0.1096320E+04  0.7818609E-02  0.9208786E-01
        2   -1    0    0  501    0  0.00000000000E+00  0.00000000000E+00  0.74424642075E+03  0.74424642075E+03  0.25500000920E-02 0.  1.
       -2   -1    0    0    0  501  0.00000000000E+00  0.00000000000E+00 -0.40373651987E+03  0.40373651988E+03  0.25500000920E-02 0. -1.
    10030    2    1    2    0    0  0.00000000000E+00  0.00000000000E+00  0.34050990088E+03  0.11479829406E+04  0.10963201355E+04 0.  0.
        3    1    3    3  502    0  0.47336460867E+02 -0.37829661416E+03  0.58268136543E+03  0.69632366944E+03  0.10100000352E+00 0.  1.
       -3    1    3    3    0  502 -0.47336460867E+02  0.37829661416E+03 -0.24217146455E+03  0.45165927119E+03  0.10100000352E+00 0. -1.
</event>
<event>
 5   0  0.3241189E-03  0.9977963E+03  0.7818609E-02  0.9310965E-01
       -1   -1    0    0    0  501  0.00000000000E+00  0.00000000000E+00  0.20851954434E+03  0.20851954440E+03  0.50400001928E-02 0. -1.
        1   -1    0    0  501    0  0.00000000000E+00  0.00000000000E+00 -0.11936499365E+04  0.11936499366E+04  0.50400001928E-02 0.  1.
    10030    2    1    2    0    0  0.00000000000E+00  0.00000000000E+00 -0.98513039221E+03  0.14021694810E+04  0.99779625358E+03 0.  0.
        5    1    3    3  502    0 -0.34317680837E+03  0.17495818692E+03 -0.93805138401E+03  0.10140725704E+04  0.46999998093E+01 0.  1.
       -5    1    3    3    0  502  0.34317680837E+03 -0.17495818692E+03 -0.47079008195E+02  0.38809691056E+03  0.46999998093E+01 0. -1.
</event>
<event>
 5   0  0.3241189E-03  0.1104506E+04  0.7818609E-02  0.9200811E-01
        1   -1    0    0  501    0  0.00000000000E+00  0.00000000000E+00  0.39314345717E+03  0.39314345720E+03  0.50400001928E-02 0. -1.
       -1   -1    0    0    0  501  0.00000000000E+00  0.00000000000E+00 -0.77575564959E+03  0.77575564960E+03  0.50400001928E-02 0.  1.
    10030    2    1    2    0    0  0.00000000000E+00  0.00000000000E+00 -0.38261219242E+03  0.11688991068E+04  0.11045057864E+04 0.  0.
        5    1    3    3  502    0  0.38823739020E+03  0.38160554518E+03 -0.93105697928E+02  0.55230591546E+03  0.46999998093E+01 0. -1.
       -5    1    3    3    0  502 -0.38823739020E+03 -0.38160554518E+03 -0.28950649449E+03  0.61659319135E+03  0.46999998093E+01 0.  1.
</event>
<event>
 5   0  0.5500363E-03  0.1094399E+04  0.7818609E-02  0.9210669E-01
        2   -1    0    0  501    0  0.00000000000E+00  0.00000000000E+00  0.13785706953E+04  0.13785706953E+04  0.25500000920E-02 0.  1.
       -2   -1    0    0    0  501  0.00000000000E+00  0.00000000000E+00 -0.21720113876E+03  0.21720113877E+03  0.25500000920E-02 0. -1.
    10030    2    1    2    0    0  0.00000000000E+00  0.00000000000E+00  0.11613695565E+04  0.15957718340E+04  0.10943986931E+04 0.  0.
        3    1    3    3  502    0 -0.74404396653E+02  0.44323583055E+03  0.12554112872E+03  0.46664183366E+03  0.10100000352E+00 0. -1.
       -3    1    3    3    0  502  0.74404396653E+02 -0.44323583055E+03  0.10358284278E+04  0.11291300004E+04  0.10100000352E+00 0.  1.
</event>
<event>
 5   0  0.5723194E-03  0.1102580E+04  0.7818609E-02  0.9202681E-01
        2   -1    0    0  501    0  0.00000000000E+00  0.00000000000E+00  0.16199839626E+04  0.16199839626E+04  0.25500000920E-02 0. -1.
       -2   -1    0    0    0  501  0.00000000000E+00  0.00000000000E+00 -0.18760704180E+03  0.18760704182E+03  0.25500000920E-02 0.  1.
    10030    2    1    2    0    0  0.00000000000E+00  0.00000000000E+00  0.14323769208E+04  0.18075910044E+04  0.11025795191E+04 0.  0.
        1    1    3    3  502    0  0.26744075846E+03 -0.17626897122E+03  0.14517841924E+04  0.14866985743E+04  0.50400001928E-02 0. -1.
       -1    1    3    3    0  502 -0.26744075846E+03  0.17626897122E+03 -0.19407271588E+02  0.32089243013E+03  0.50400001928E-02 0.  1.
</event>
<event>
 5   0  0.5946359E-03  0.1084469E+04  0.7818609E-02  0.9220463E-01
        2   -1    0    0  501    0  0.00000000000E+00  0.00000000000E+00  0.10258648393E+04  0.10258648393E+04  0.25500000920E-02 0.  1.
       -2   -1    0    0    0  501  0.00000000000E+00  0.00000000000E+00 -0.28660512913E+03  0.28660512914E+03  0.25500000920E-02 0. -1.
    10030    2    1    2    0    0  0.00000000000E+00  0.00000000000E+00  0.73925971013E+03  0.13124699684E+04  0.10844687635E+04 0.  0.
        4    1    3    3  502    0 -0.42372671657E+03 -0.25665694076E+02 -0.38660507242E+02  0.42626201556E+03  0.12699999809E+01 0. -1.
       -4    1    3    3    0  502  0.42372671657E+03  0.25665694076E+02  0.77792021737E+03  0.88620795284E+03  0.12699999809E+01 0.  1.
</event>
<event>
 5   0  0.3320192E-03  0.1042589E+04  0.7818609E-02  0.9263029E-01
       -1   -1    0    0    0  501  0.00000000000E+00  0.00000000000E+00  0.14735761131E+03  0.14735761139E+03  0.50400001928E-02 0. -1.
        1   -1    0    0  501    0  0.00000000000E+00  0.00000000000E+00 -0.18441387398E+04  0.18441387398E+04  0.50400001928E-02 0.  1.
    10030    2    1    2    0    0  0.00000000000E+00  0.00000000000E+00 -0.16967811285E+04  0.19914963512E+04  0.10425888542E+04 0.  0.
        2    1    3    3  502    0  0.32693664576E+03  0.35931431449E+03 -0.12095724136E+04  0.13034798697E+04  0.25500000920E-02 0.  1.
       -2    1    3    3    0  502 -0.32693664576E+03 -0.35931431449E+03 -0.48720871485E+03  0.68801648147E+03  0.25500000920E-02 0. -1.
</event>
<event>
 5   0  0.5941585E-03  0.1104526E+04  0.7818609E-02  0.9200791E-01
        2   -1    0    0  501    0  0.00000000000E+00  0.00000000000E+00  0.18217784180E+04  0.18217784180E+04  0.25500000920E-02 0.  1.
       -2   -1    0    0    0  501  0.00000000000E+00  0.00000000000E+00 -0.16741583574E+03  0.16741583576E+03  0.25500000920E-02 0. -1.
    10030    2    1    2    0    0  0.00000000000E+00  0.00000000000E+00  0.16543625823E+04  0.19891942538E+04  0.11045262449E+04 0.  0.
        5    1    3    3  502    0 -0.43085714786E+03  0.26663999244E+03  0.43163761286E+03  0.66563344737E+03  0.46999998093E+01 0. -1.
       -5    1    3    3    0  502  0.43085714786E+03 -0.26663999244E+03  0.12227249694E+04  0.13235608064E+04  0.46999998093E+01 0.  1.
</event>
<event>
 5   0  0.3316784E-03  0.1093639E+04  0.7818609E-02  0.9211414E-01
        1   -1    0    0  501    0  0.00000000000E+00  0.00000000000E+00  0.14698226885E+04  0.14698226885E+04  0.50400001928E-02 0.  1.
       -1   -1    0    0    0  501  0.00000000000E+00  0.00000000000E+00 -0.20343363061E+03  0.20343363067E+03  0.50400001928E-02 0. -1.
    10030    2    1    2    0    0  0.00000000000E+00  0.00000000000E+00  0.12663890579E+04  0.16732563192E+04  0.10936386349E+04 0.  0.
        4    1    3    3  502    0 -0.46243410384E+03 -0.28642694899E+03  0.71871065175E+03  0.90135027117E+03  0.12699999809E+01 0. -1.
       -4    1    3    3    0  502  0.46243410384E+03  0.28642694899E+03  0.54767840615E+03  0.77190604802E+03  0.12699999809E+01 0.  1.
</event>
<event>
 5   0  0.5723194E-03  0.8343104E+03  0.7818609E-02  0.9511640E-01
       -2   -1    0    0    0  501  0.00000000000E+00  0.00000000000E+00  0.11602009802E+04  0.11602009802E+04  0.25500000920E-02 0. -1.
        2   -1    0    0  501    0  0.00000000000E+00  0.00000000000E+00 -0.14998991679E+03  0.14998991681E+03  0.25500000920E-02 0.  1.
    10030    2    1    2    0    0  0.00000000000E+00  0.00000000000E+00  0.10102110634E+04  0.13101908970E+04  0.83431037030E+03 0.  0.
        1    1    3    3  502    0  0.14826182273E+03 -0.31942386468E+03  0.85627346056E+03  0.92586036350E+03  0.50400001928E-02 0. -1.
       -1    1    3    3    0  502 -0.14826182273E+03  0.31942386468E+03  0.15393760287E+03  0.38433053354E+03  0.50400001928E-02 0.  1.
</event>
<event>
 5   0  0.2185750E-03  0.1109979E+04  0.7818609E-02  0.9195520E-01
        4   -1    0    0  501    0  0.00000000000E+00  0.00000000000E+00  0.18422479436E+04  0.18422483813E+04  0.12699999809E+01 0. -1.
       -4   -1    0    0    0  501  0.00000000000E+00  0.00000000000E+00 -0.16719135714E+03  0.16719618059E+03  0.12699999809E+01 0.  1.
    10030    2    1    2    0    0  0.00000000000E+00  0.00000000000E+00  0.16750565864E+04  0.20094445619E+04  0.11099787744E+04 0.  0.
        2    1    3    3  502    0  0.13322405272E+03 -0.57523993809E+02  0.18072981443E+04  0.18131145139E+04  0.25500000920E-02 0. -1.
       -2    1    3    3    0  502 -0.13322405272E+03  0.57523993809E+02 -0.13224155792E+03  0.19633004797E+03  0.25500000920E-02 0.  1.
</event>
<event>
 5   0  0.5627232E-03  0.1102037E+04  0.7818609E-02  0.9203209E-01
        2   -1    0    0  501    0  0.00000000000E+00  0.00000000000E+00  0.75278558654E+03  0.75278558655E+03  0.25500000920E-02 0.  1.
       -2   -1    0    0    0  501  0.00000000000E+00  0.00000000000E+00 -0.40333040758E+03  0.40333040759E+03  0.25500000920E-02 0. -1.
    10030    2    1    2    0    0  0.00000000000E+00  0.00000000000E+00  0.34945517896E+03  0.11561159941E+04  0.11020368732E+04 0.  0.
        2    1    3    3  502    0  0.10805723371E+03  0.20275581668E+03  0.70013885156E+03  0.73687224023E+03  0.25500000920E-02 0.  1.
       -2    1    3    3    0  502 -0.10805723371E+03 -0.20275581668E+03 -0.35068367260E+03  0.41924375391E+03  0.25500000920E-02 0. -1.
</event>
<event>
 5   0  0.3215352E-03  0.8209397E+03  0.7818609E-02  0.9530193E-01
        1   -1    0    0  501    0  0.00000000000E+00  0.00000000000E+00  0.60365280992E+03  0.60365280994E+03  0.50400001928E-02 0.  1.
       -1   -1    0    0    0  501  0.00000000000E+00  0.00000000000E+00 -0.27910990500E+03  0.27910990505E+03  0.50400001928E-02 0. -1.
    10030    2    1    2    0    0  0.00000000000E+00  0.00000000000E+00  0.32454290491E+03  0.88276271499E+03  0.82093965298E+03 0.  0.
        1    1    3    3  502    0  0.13011472376E+03  0.21691262532E+03  0.50988792494E+03  0.56918066059E+03  0.50400001928E-02 0.  1.
       -1    1    3    3    0  502 -0.13011472376E+03 -0.21691262532E+03 -0.18534502003E+03  0.31358205440E+03  0.50400001928E-02 0. -1.
</event>
<event>
 5   0  0.3316784E-03  0.1100053E+04  0.7818609E-02  0.9205141E-01
        1   -1    0    0  501    0  0.00000000000E+00  0.00000000000E+00  0.46087049382E+03  0.46087049385E+03  0.50400001928E-02 0. -1.
       -1   -1    0    0    0  501  0.00000000000E+00  0.00000000000E+00 -0.65642948104E+03  0.65642948106E+03  0.50400001928E-02 0.  1.
    10030    2    1    2    0    0  0.00000000000E+00  0.00000000000E+00 -0.19555898721E+03  0.11172999749E+04  0.11000526880E+04 0.  0.
        4    1    3    3  502    0 -0.37662937488E+03  0.36229128875E+03  0.76440334582E+02  0.52815660706E+03  0.12699999809E+01 0. -1.
       -4    1    3    3    0  502  0.37662937488E+03 -0.36229128875E+03 -0.27199932180E+03  0.58914336785E+03  0.12699999809E+01 0.  1.
</event>
<event>
 5   0  0.5627232E-03  0.1126455E+04  0.7818609E-02  0.9179784E-01
       -2   -1    0    0    0  501  0.00000000000E+00  0.00000000000E+00  0.27474119916E+03  0.27474119917E+03  0.25500000920E-02 0.  1.
        2   -1    0    0  501    0  0.00000000000E+00  0.00000000000E+00 -0.11546336212E+04  0.11546336212E+04  0.25500000920E-02 0. -1.
    10030    2    1    2    0    0  0.00000000000E+00  0.00000000000E+00 -0.87989242203E+03  0.14293748204E+04  0.11264553709E+04 0.  0.
        2    1    3    3  502    0  0.36085763202E+03  0.43240754494E+03 -0.43289144173E+03  0.71034464582E+03  0.25500000920E-02 0.  1.
       -2    1    3    3    0  502 -0.36085763202E+03 -0.43240754494E+03 -0.44700098030E+03  0.71903017454E+03  0.25500000920E-02 0. -1.
</event>
<event>
 5   0  0.5941585E-03  0.1092802E+04  0.7818609E-02  0.9212236E-01
        2   -1    0    0  501    0  0.00000000000E+00  0.00000000000E+00  0.96065478807E+03  0.96065478808E+03  0.25500000920E-02 0. -1.
       -2   -1    0    0    0  501  0.00000000000E+00  0.00000000000E+00 -0.31078203966E+03  0.31078203967E+03  0.25500000920E-02 0.  1.
    10030    2    1    2    0    0  0.00000000000E+00  0.00000000000E+00  0.64987274842E+03  0.12714368277E+04  0.10928023691E+04 0.  0.
        5    1    3    3  502    0 -0.42896552165E+03 -0.10200044717E+02  0.71848452576E+03  0.83687368427E+03  0.46999998093E+01 0. -1.
       -5    1    3    3    0  502  0.42896552165E+03  0.10200044717E+02 -0.68611777340E+02  0.43456314347E+03  0.46999998093E+01 0.  1.
</event>
<event>
 5   0  0.3316784E-03  0.1091215E+04  0.7818609E-02  0.9213796E-01
        1   -1    0    0  501    0  0.00000000000E+00  0.00000000000E+00  0.34992931424E+03  0.34992931428E+03  0.50400001928E-02 0. -1.
       -1   -1    0    0    0  501  0.00000000000E+00  0.00000000000E+00 -0.85070820768E+03  0.85070820769E+03  0.50400001928E-02 0.  1.
    10030    2    1    2    0    0  0.00000000000E+00  0.00000000000E+00 -0.50077889344E+03  0.12006375220E+04  0.10912153587E+04 0.  0.
        4    1    3    3  502    0  0.19083898649E+03  0.32564473918E+03  0.18309970723E+03  0.41951296835E+03  0.12699999809E+01 0. -1.
       -4    1    3    3    0  502 -0.19083898649E+03 -0.32564473918E+03 -0.68387860067E+03  0.78112455362E+03  0.12699999809E+01 0.  1.
</event>
<event>
 5   0  0.3320192E-03  0.1093273E+04  0.7818609E-02  0.9211773E-01
        1   -1    0    0  501    0  0.00000000000E+00  0.00000000000E+00  0.41913839270E+03  0.41913839273E+03  0.50400001928E-02 0. -1.
       -1   -1    0    0    0  501  0.00000000000E+00  0.00000000000E+00 -0.71291820179E+03  0.71291820181E+03  0.50400001928E-02 0.  1.
    10030    2    1    2    0    0  0.00000000000E+00  0.00000000000E+00 -0.29377980909E+03  0.11320565945E+04  0.10932728648E+04 0.  0.
        2    1    3    3  502    0 -0.63387459361E+02  0.12265602627E+03  0.40078618137E+03  0.42390097189E+03  0.25500000920E-02 0. -1.
       -2    1    3    3    0  502  0.63387459361E+02 -0.12265602627E+03 -0.69456599046E+03  0.70815562266E+03  0.25500000920E-02 0.  1.
</event>
<event>
 5   0  0.5946359E-03  0.1075804E+04  0.7818609E-02  0.9229101E-01
       -2   -1    0    0    0  501  0.00000000000E+00  0.00000000000E+00  0.29887532648E+03  0.29887532649E+03  0.25500000920E-02 0. -1.
        2   -1    0    0  501    0  0.00000000000E+00  0.00000000000E+00 -0.96809100457E+03  0.96809100458E+03  0.25500000920E-02 0.  1.
    10030    2    1    2    0    0  0.00000000000E+00  0.00000000000E+00 -0.66921567810E+03  0.12669663311E+04  0.10758039135E+04 0.  0.
        4    1    3    3  502    0 -0.24256389125E+03 -0.27617985134E+03 -0.79710431627E+03  0.87777528762E+03  0.12699999809E+01 0.  1.
       -4    1    3    3    0  502  0.24256389125E+03  0.27617985134E+03  0.12788863817E+03  0.38919104345E+03  0.12699999809E+01 0. -1.
</event>
<event>
 5   0  0.3241189E-03  0.1125975E+04  0.7818609E-02  0.9180238E-01
       -1   -1    0    0    0  501  0.00000000000E+00  0.00000000000E+00  0.37145526140E+03  0.37145526143E+03  0.50400001928E-02 0.  1.
        1   -1    0    0  501    0  0.00000000000E+00  0.00000000000E+00 -0.85327882048E+03  0.85327882050E+03  0.50400001928E-02 0. -1.
    10030    2    1    2    0    0  0.00000000000E+00  0.00000000000E+00 -0.48182355909E+03  0.12247340819E+04  0.11259749683E+04 0.  0.
        5    1    3    3  502    0  0.29211771798E+03 -0.12925175087E+03  0.26331424165E+03  0.41399910159E+03  0.46999998093E+01 0.  1.
       -5    1    3    3    0  502 -0.29211771798E+03  0.12925175087E+03 -0.74513780074E+03  0.81073498034E+03  0.46999998093E+01 0. -1.
</event>
<event>
 5   0  0.5946359E-03  0.1107060E+04  0.7818609E-02  0.9198338E-01
       -2   -1    0    0    0  501  0.00000000000E+00  0.00000000000E+00  0.24032421155E+03  0.24032421156E+03  0.25500000920E-02 0. -1.
        2   -1    0    0  501    0  0.00000000000E+00  0.00000000000E+00 -0.12749261830E+04  0.12749261830E+04  0.25500000920E-02 0.  1.
    10030    2    1    2    0    0  0.00000000000E+00  0.00000000000E+00 -0.10346019715E+04  0.15152503946E+04  0.11070603050E+04 0.  0.
        4    1    3    3  502    0 -0.87502428650E+02 -0.53678388143E+03 -0.37638041757E+03  0.66140565617E+03  0.12699999809E+01 0.  1.
       -4    1    3    3    0  502  0.87502428650E+02  0.53678388143E+03 -0.65822155389E+03  0.85384473840E+03  0.12699999809E+01 0. -1.
</event>
<event>
 5   0  0.5946359E-03  0.1098216E+04  0.7818609E-02  0.9206932E-01
        2   -1    0    0  501    0  0.00000000000E+00  0.00000000000E+00  0.95654599648E+03  0.95654599649E+03  0.25500000920E-02 0. -1.
       -2   -1    0    0    0  501  0.00000000000E+00  0.00000000000E+00 -0.31521732131E+03  0.31521732132E+03  0.25500000920E-02 0.  1.
    10030    2    1    2    0    0  0.00000000000E+00  0.00000000000E+00  0.64132867517E+03  0.12717633178E+04  0.10982164937E+04 0.  0.
        4    1    3    3  502    0 -0.52011119616E+03  0.98226331867E+02  0.48988751087E+03  0.72121803558E+03  0.12699999809E+01 0.  1.
       -4    1    3    3    0  502  0.52011119616E+03 -0.98226331867E+02  0.15144116430E+03  0.55054528223E+03  0.12699999809E+01 0. -1.
</event>
<event>
 5   0  0.5500363E-03  0.1159757E+04  0.7818609E-02  0.9148829E-01
       -2   -1    0    0    0  501  0.00000000000E+00  0.00000000000E+00  0.15891378267E+03  0.15891378269E+03  0.25500000920E-02 0.  1.
        2   -1    0    0  501    0  0.00000000000E+00  0.00000000000E+00 -0.21159843650E+04  0.21159843650E+04  0.25500000920E-02 0. -1.
    10030    2    1    2    0    0  0.00000000000E+00  0.00000000000E+00 -0.19570705823E+04  0.22748981477E+04  0.11597570082E+04 0.  0.
        3    1    3    3  502    0  0.21272205251E+03  0.49899737060E+03 -0.57649330931E+03  0.79157665035E+03  0.10100000352E+00 0.  1.
       -3    1    3    3    0  502 -0.21272205251E+03 -0.49899737060E+03 -0.13805772730E+04  0.14833214973E+04  0.10100000352E+00 0. -1.
</event>
<event>
 5   0  0.3320192E-03  0.1094961E+04  0.7818609E-02  0.9210117E-01
        1   -1    0    0  501    0  0.00000000000E+00  0.00000000000E+00  0.37333204366E+03  0.37333204370E+03  0.50400001928E-02 0. -1.
       -1   -1    0    0    0  501  0.00000000000E+00  0.00000000000E+00 -0.80286379665E+03  0.80286379666E+03  0.50400001928E-02 0.  1.
    10030    2    1    2    0    0  0.00000000000E+00  0.00000000000E+00 -0.42953175298E+03  0.11761958404E+04  0.10949607884E+04 0.  0.
        2    1    3    3  502    0  0.82808158736E+02  0.44070158316E+03 -0.55217046117E+03  0.71131378079E+03  0.25500000920E-02 0.  1.
       -2    1    3    3    0  502 -0.82808158736E+02 -0.44070158316E+03  0.12263870818E+03  0.46488205957E+03  0.25500000920E-02 0. -1.
</event>
<event>
 5   0  0.3215352E-03  0.1092403E+04  0.7818609E-02  0.9212628E-01
       -1   -1    0    0    0  501  0.00000000000E+00  0.00000000000E+00  0.46493303662E+03  0.46493303665E+03  0.50400001928E-02 0. -1.
        1   -1    0    0  501    0  0.00000000000E+00  0.00000000000E+00 -0.64167592218E+03  0.64167592220E+03  0.50400001928E-02 0.  1.
    10030    2    1    2    0    0  0.00000000000E+00  0.00000000000E+00 -0.17674288556E+03  0.11066089589E+04  0.10924034695E+04 0.  0.
        1    1    3    3  502    0  0.28139457515E+03 -0.37647241375E+03 -0.37023774835E+03  0.59832296928E+03  0.50400001928E-02 0.  1.
       -1    1    3    3    0  502 -0.28139457515E+03  0.37647241375E+03  0.19349486279E+03  0.50828598957E+03  0.50400001928E-02 0. -1.
</event>
<event>
 5   0  0.3241189E-03  0.1111225E+04  0.7818609E-02  0.9194320E-01
       -1   -1    0    0    0  501  0.00000000000E+00  0.00000000000E+00  0.73633305962E+03  0.73633305964E+03  0.50400001928E-02 0.  1.
        1   -1    0    0  501    0  0.00000000000E+00  0.00000000000E+00 -0.41924696026E+03  0.41924696029E+03  0.50400001928E-02 0. -1.
    10030    2    1    2    0    0  0.00000000000E+00  0.00000000000E+00  0.31708609936E+03  0.11555800199E+04  0.11112252643E+04 0.  0.
        5    1    3    3  502    0  0.12520278827E+03 -0.46171673366E+03 -0.13526791406E+03  0.49716956756E+03  0.46999998093E+01 0. -1.
       -5    1    3    3    0  502 -0.12520278827E+03  0.46171673366E+03  0.45235401343E+03  0.65841045237E+03  0.46999998093E+01 0.  1.
</event>
<event>
 5   0  0.5723194E-03  0.1127590E+04  0.7818609E-02  0.9178711E-01
        2   -1    0    0  501    0  0.00000000000E+00  0.00000000000E+00  0.12002455561E+04  0.12002455561E+04  0.25500000920E-02 0. -1.
       -2   -1    0    0    0  501  0.00000000000E+00  0.00000000000E+00 -0.26483291619E+03  0.26483291620E+03  0.25500000920E-02 0.  1.
    10030    2    1    2    0    0  0.00000000000E+00  0.00000000000E+00  0.93541263989E+03  0.14650784723E+04  0.11275895189E+04 0.  0.
        1    1    3    3  502    0 -0.18360886334E+03  0.40739014106E+03  0.21030834033E+02  0.44734912287E+03  0.50400001928E-02 0.  1.
       -1    1    3    3    0  502  0.18360886334E+03 -0.40739014106E+03  0.91438180586E+03  0.10177293494E+04  0.50400001928E-02 0. -1.
</event>
<event>
 5   0  0.2185750E-03  0.1093225E+04  0.7818609E-02  0.9211820E-01
        4   -1    0    0  501    0  0.00000000000E+00  0.00000000000E+00  0.82829046656E+03  0.82829144019E+03  0.12699999809E+01 0. -1.
       -4   -1    0    0    0  501  0.00000000000E+00  0.00000000000E+00 -0.36072296061E+03  0.36072519626E+03  0.12699999809E+01 0.  1.
    10030    2    1    2    0    0  0.00000000000E+00  0.00000000000E+00  0.46756750595E+03  0.11890166365E+04  0.10932251320E+04 0.  0.
        2    1    3    3  502    0  0.54367839901E+03 -0.37342356878E+02  0.27998717136E+03  0.61267729622E+03  0.25500000920E-02 0.  1.
       -2    1    3    3    0  502 -0.54367839901E+03  0.37342356878E+02  0.18758033459E+03  0.57633934023E+03  0.25500000920E-02 0. -1.
</event>
<event>
 5   0  0.5946359E-03  0.1099699E+04  0.7818609E-02  0.9205485E-01
       -2   -1    0    0    0  501  0.00000000000E+00  0.00000000000E+00  0.33770162329E+03  0.33770162330E+03  0.25500000920E-02 0.  1.
        2   -1    0    0  501    0  0.00000000000E+00  0.00000000000E+00 -0.89527133830E+03  0.89527133830E+03  0.25500000920E-02 0. -1.
    10030    2    1    2    0    0  0.00000000000E+00  0.00000000000E+00 -0.55756971501E+03  0.12329729616E+04  0.10996992029E+04 0.  0.
        4    1    3    3  502    0  0.28732097035E+03  0.45682188232E+03 -0.16069517287E+03  0.56308447293E+03  0.12699999809E+01 0.  1.
       -4    1    3    3    0  502 -0.28732097035E+03 -0.45682188232E+03 -0.39687454213E+03  0.66988848868E+03  0.12699999809E+01 0. -1.
</event>
<event>
 5   0  0.3241189E-03  0.1096745E+04  0.7818609E-02  0.9208370E-01
        1   -1    0    0  501    0  0.00000000000E+00  0.00000000000E+00  0.76411206992E+03  0.76411206994E+03  0.50400001928E-02 0.  1.
       -1   -1    0    0    0  501  0.00000000000E+00  0.00000000000E+00 -0.39354512195E+03  0.39354512198E+03  0.50400001928E-02 0. -1.
    10030    2    1    2    0    0  0.00000000000E+00  0.00000000000E+00  0.37056694797E+03  0.11576571919E+04  0.10967453264E+04 0.  0.
        5    1    3    3  502    0 -0.48503122380E+02 -0.43966346366E+03  0.52737245049E+03  0.68833153763E+03  0.46999998093E+01 0.  1.
       -5    1    3    3    0  502  0.48503122380E+02  0.43966346366E+03 -0.15680550251E+03  0.46932565429E+03  0.46999998093E+01 0. -1.
</event>
<event>
 5   0  0.3215352E-03  0.1121921E+04  0.7818609E-02  0.9184086E-01
        1   -1    0    0  501    0  0.00000000000E+00  0.00000000000E+00  0.12177965757E+04  0.12177965757E+04  0.50400001928E-02 0. -1.
       -1   -1    0    0    0  501  0.00000000000E+00  0.00000000000E+00 -0.25839843307E+03  0.25839843312E+03  0.50400001928E-02 0.  1.
    10030    2    1    2    0    0  0.00000000000E+00  0.00000000000E+00  0.95939814262E+03  0.14761950088E+04  0.11219210792E+04 0.  0.
        1    1    3    3  502    0 -0.43116005302E+03  0.34898503012E+03  0.58968383541E+03  0.80957801868E+03  0.50400001928E-02 0. -1.
       -1    1    3    3    0  502  0.43116005302E+03 -0.34898503012E+03  0.36971430721E+03  0.66661699014E+03  0.50400001928E-02 0.  1.
</event>
<event>
 5   0  0.3320192E-03  0.1110621E+04  0.7818609E-02  0.9194901E-01
        1   -1    0    0  501    0  0.00000000000E+00  0.00000000000E+00  0.24218083690E+03  0.24218083695E+03  0.50400001928E-02 0.  1.
       -1   -1    0    0    0  501  0.00000000000E+00  0.00000000000E+00 -0.12733035962E+04  0.12733035962E+04  0.50400001928E-02 0. -1.
    10030    2    1    2    0    0  0.00000000000E+00  0.00000000000E+00 -0.10311227593E+04  0.15154844331E+04  0.11106209625E+04 0.  0.
        2    1    3    3  502    0 -0.39424458121E+03 -0.29375518056E+03 -0.86783643638E+03  0.99742717841E+03  0.25500000920E-02 0. -1.
       -2    1    3    3    0  502  0.39424458121E+03  0.29375518056E+03 -0.16328632290E+03  0.51805725472E+03  0.25500000920E-02 0.  1.
</event>
<event>
 5   0  0.3320192E-03  0.1086909E+04  0.7818609E-02  0.9218046E-01
       -1   -1    0    0    0  501  0.00000000000E+00  0.00000000000E+00  0.61279986837E+03  0.61279986839E+03  0.50400001928E-02 0.  1.
        1   -1    0    0  501    0  0.00000000000E+00  0.00000000000E+00 -0.48195629485E+03  0.48195629487E+03  0.50400001928E-02 0. -1.
    10030    2    1    2    0    0  0.00000000000E+00  0.00000000000E+00  0.13084357352E+03  0.10947561633E+04  0.10869089273E+04 0.  0.
        2    1    3    3  502    0 -0.33467178002E+03  0.28745167222E+03  0.38505991481E+03  0.58558073928E+03  0.25500000920E-02 0.  1.
       -2    1    3    3    0  502  0.33467178002E+03 -0.28745167222E+03 -0.25421634129E+03  0.50917542399E+03  0.25500000920E-02 0. -1.
</event>
<event>
 5   0  0.3241189E-03  0.1099715E+04  0.7818609E-02  0.9205469E-01
        1   -1    0    0  501    0  0.00000000000E+00  0.00000000000E+00  0.19722841514E+04  0.19722841514E+04  0.50400001928E-02 0.  1.
       -1   -1    0    0    0  501  0.00000000000E+00  0.00000000000E+00 -0.15329607519E+03  0.15329607527E+03  0.50400001928E-02 0. -1.
    10030    2    1    2    0    0  0.00000000000E+00  0.00000000000E+00  0.18189880762E+04  0.21255802267E+04  0.10997152716E+04 0.  0.
        5    1    3    3  502    0  0.26795169888E+03 -0.29973307066E+03  0.18452656187E+03  0.44239142014E+03  0.46999998093E+01 0. -1.
       -5    1    3    3    0  502 -0.26795169888E+03  0.29973307066E+03  0.16344615143E+04  0.16831888065E+04  0.46999998093E+01 0.  1.
</event>
<event>
 5   0  0.5723194E-03  0.1110269E+04  0.7818609E-02  0.9195240E-01
       -2   -1    0    0    0  501  0.00000000000E+00  0.00000000000E+00  0.21001722135E+03  0.21001722136E+03  0.25500000920E-02 0. -1.
        2   -1    0    0  501    0  0.00000000000E+00  0.00000000000E+00 -0.14673763493E+04  0.14673763493E+04  0.25500000920E-02 0.  1.
    10030    2    1    2    0    0  0.00000000000E+00  0.00000000000E+00 -0.12573591280E+04  0.16773935707E+04  0.11102689829E+04 0.  0.
        1    1    3    3  502    0 -0.54603734232E+03  0.53562582895E+02 -0.75641649479E+03  0.93444723934E+03  0.50400001928E-02 0.  1.
       -1    1    3    3    0  502  0.54603734232E+03 -0.53562582895E+02 -0.50094263317E+03  0.74294633133E+03  0.50400001928E-02 0. -1.
</event>
<event>
 5   0  0.3320192E-03  0.1157250E+04  0.7818609E-02  0.9151121E-01
       -1   -1    0    0    0  501  0.00000000000E+00  0.00000000000E+00  0.61176752098E+03  0.61176752101E+03  0.50400001928E-02 0. -1.
        1   -1    0    0  501    0  0.00000000000E+00  0.00000000000E+00 -0.54727800903E+03  0.54727800906E+03  0.50400001928E-02 0.  1.
    10030    2    1    2    0    0  0.00000000000E+00  0.00000000000E+00  0.64489511950E+02  0.11590455301E+04  0.11572500350E+04 0.  0.
        2    1    3    3  502    0 -0.55673595125E+03  0.54656914180E+02 -0.11585153892E+03  0.57128265925E+03  0.25500000920E-02 0.  1.
       -2    1    3    3    0  502  0.55673595125E+03 -0.54656914180E+02  0.18034105087E+03  0.58776287082E+03  0.25500000920E-02 0. -1.
</event>
<event>
 5   0  0.3215352E-03  0.1119851E+04  0.7818609E-02  0.9186057E-01
        1   -1    0    0  501    0  0.00000000000E+00  0.00000000000E+00  0.45939457624E+03  0.45939457627E+03  0.50400001928E-02 0. -1.
       -1   -1    0    0    0  501  0.00000000000E+00  0.00000000000E+00 -0.68245540623E+03  0.68245540625E+03  0.50400001928E-02 0.  1.
    10030    2    1    2    0    0  0.00000000000E+00  0.00000000000E+00 -0.22306082999E+03  0.11418499825E+04  0.11198505475E+04 0.  0.
        1    1    3    3  502    0 -0.40380735513E+01  0.31316787201E+03 -0.58478837887E+03  0.66337611517E+03  0.50400001928E-02 0.  1.
       -1    1    3    3    0  502  0.40380735513E+01 -0.31316787201E+03  0.36172754888E+03  0.47847386735E+03  0.50400001928E-02 0. -1.
</event>
<event>
 5   0  0.5946359E-03  0.1105892E+04  0.7818609E-02  0.9199468E-01
       -2   -1    0    0    0  501  0.00000000000E+00  0.00000000000E+00  0.83868870314E+03  0.83868870315E+03  0.25500000920E-02 0. -1.
        2   -1    0    0  501    0  0.00000000000E+00  0.00000000000E+00 -0.36455650922E+03  0.36455650923E+03  0.25500000920E-02 0.  1.
    10030    2    1    2    0    0  0.00000000000E+00  0.00000000000E+00  0.47413219392E+03  0.12032452124E+04  0.11058922659E+04 0.  0.
        4    1    3    3  502    0 -0.13243634709E+03  0.38269669514E+03 -0.17257678066E+03  0.44020507110E+03  0.12699999809E+01 0.  1.
       -4    1    3    3    0  502  0.13243634709E+03 -0.38269669514E+03  0.64670897458E+03  0.76304014128E+03  0.12699999809E+01 0. -1.
</event>
<event>
 5   0  0.3241189E-03  0.8853391E+03  0.7818609E-02  0.9444096E-01
       -1   -1    0    0    0  501  0.00000000000E+00  0.00000000000E+00  0.16881827709E+04  0.16881827709E+04  0.50400001928E-02 0. -1.
        1   -1    0    0  501    0  0.00000000000E+00  0.00000000000E+00 -0.11607530224E+03  0.11607530235E+03  0.50400001928E-02 0.  1.
    10030    2    1    2    0    0  0.00000000000E+00  0.00000000000E+00  0.15721074687E+04  0.18042580733E+04  0.88533908865E+03 0.  0.
        5    1    3    3  502    0  0.24161555992E+03  0.37084960528E+03  0.77551802686E+03  0.89294893948E+03  0.46999998093E+01 0. -1.
       -5    1    3    3    0  502 -0.24161555992E+03 -0.37084960528E+03  0.79658944181E+03  0.91130913379E+03  0.46999998093E+01 0.  1.
</event>
<event>
 5   0  0.3241189E-03  0.1103915E+04  0.7818609E-02  0.9201384E-01
       -1   -1    0    0    0  501  0.00000000000E+00  0.00000000000E+00  0.35165140699E+03  0.35165140703E+03  0.50400001928E-02 0. -1.
        1   -1    0    0  501    0  0.00000000000E+00  0.00000000000E+00 -0.86636116145E+03  0.86636116147E+03  0.50400001928E-02 0.  1.
    10030    2    1    2    0    0  0.00000000000E+00  0.00000000000E+00 -0.51470975446E+03  0.12180125685E+04  0.11039150718E+04 0.  0.
        5    1    3    3  502    0  0.11034121443E+03  0.32244014341E+03  0.22167521981E+03  0.40657695798E+03  0.46999998093E+01 0. -1.
       -5    1    3    3    0  502 -0.11034121443E+03 -0.32244014341E+03 -0.73638497427E+03  0.81143561051E+03  0.46999998093E+01 0.  1.
</event>
<event>
 5   0  0.3320192E-03  0.1101424E+04  0.7818609E-02  0.9203805E-01
       -1   -1    0    0    0  501  0.00000000000E+00  0.00000000000E+00  0.35085198823E+03  0.35085198827E+03  0.50400001928E-02 0.  1.
        1   -1    0    0  501    0  0.00000000000E+00  0.00000000000E+00 -0.86442102385E+03  0.86442102387E+03  0.50400001928E-02 0. -1.
    10030    2    1    2    0    0  0.00000000000E+00  0.00000000000E+00 -0.51356903562E+03  0.12152730121E+04  0.11014242324E+04 0.  0.
        2    1    3    3  502    0  0.47608619591E+03 -0.24155157312E+03 -0.10761133088E+03  0.54459657266E+03  0.25500000920E-02 0.  1.
       -2    1    3    3    0  502 -0.47608619591E+03  0.24155157312E+03 -0.40595770475E+03  0.67067643947E+03  0.25500000920E-02 0. -1.
</event>
<event>
 5   0  0.5723194E-03  0.1075644E+04  0.7818609E-02  0.9229262E-01
       -2   -1    0    0    0  501  0.00000000000E+00  0.00000000000E+00  0.18010942669E+03  0.18010942670E+03  0.25500000920E-02 0.  1.
        2   -1    0    0  501    0  0.00000000000E+00  0.00000000000E+00 -0.16059815921E+04  0.16059815921E+04  0.25500000920E-02 0. -1.
    10030    2    1    2    0    0  0.00000000000E+00  0.00000000000E+00 -0.14258721654E+04  0.17860910188E+04  0.10756438515E+04 0.  0.
        1    1    3    3  502    0  0.45179578108E+03  0.29164247804E+03 -0.69830297334E+03  0.88136360567E+03  0.50400001928E-02 0.  1.
       -1    1    3    3    0  502 -0.45179578108E+03 -0.29164247804E+03 -0.72756919210E+03  0.90472741316E+03  0.50400001928E-02 0. -1.
</event>
<event>
 5   0  0.3316784E-03  0.1106287E+04  0.7818609E-02  0.9199086E-01
        1   -1    0    0  501    0  0.00000000000E+00  0.00000000000E+00  0.71588576121E+03  0.71588576123E+03  0.50400001928E-02 0.  1.
       -1   -1    0    0    0  501  0.00000000000E+00  0.00000000000E+00 -0.42739740328E+03  0.42739740331E+03  0.50400001928E-02 0. -1.
    10030    2    1    2    0    0  0.00000000000E+00  0.00000000000E+00  0.28848835793E+03  0.11432831645E+04  0.11062869708E+04 0.  0.
        4    1    3    3  502    0 -0.55300634136E+03  0.11837953728E+02  0.14750432056E+03  0.57246422440E+03  0.12699999809E+01 0.  1.
       -4    1    3    3    0  502  0.55300634136E+03 -0.11837953728E+02  0.14098403737E+03  0.57081894014E+03  0.12699999809E+01 0. -1.
</event>
<event>
 5   0  0.5723194E-03  0.1099510E+04  0.7818609E-02  0.9205670E-01
       -2   -1    0    0    0  501  0.00000000000E+00  0.00000000000E+00  0.20261238601E+03  0.20261238603E+03  0.25500000920E-02 0.  1.
        2   -1    0    0  501    0  0.00000000000E+00  0.00000000000E+00 -0.14916679435E+04  0.14916679435E+04  0.25500000920E-02 0. -1.
    10030    2    1    2    0    0  0.00000000000E+00  0.00000000000E+00 -0.12890555575E+04  0.16942803295E+04  0.10995097111E+04 0.  0.
        1    1    3    3  502    0 -0.45110833367E+03  0.11882630109E+03 -0.19629652522E+03  0.50611337107E+03  0.50400001928E-02 0.  1.
       -1    1    3    3    0  502  0.45110833367E+03 -0.11882630109E+03 -0.10927590322E+04  0.11881669584E+04  0.50400001928E-02 0. -1.
</event>
<event>
 5   0  0.5500363E-03  0.1093116E+04  0.7818609E-02  0.9211928E-01
        2   -1    0    0  501    0  0.00000000000E+00  0.00000000000E+00  0.98785813598E+03  0.98785813599E+03  0.25500000920E-02 0. -1.
       -2   -1    0    0    0  501  0.00000000000E+00  0.00000000000E+00 -0.30239713218E+03  0.30239713219E+03  0.25500000920E-02 0.  1.
    10030    2    1    2    0    0  0.00000000000E+00  0.00000000000E+00  0.68546100381E+03  0.12902552682E+04  0.10931156706E+04 0.  0.
        3    1    3    3  502    0 -0.33356088105E+03  0.45145683453E+02  0.85099881539E+03  0.91515025438E+03  0.10100000352E+00 0. -1.
       -3    1    3    3    0  502  0.33356088105E+03 -0.45145683453E+02 -0.16553781158E+03  0.37510501379E+03  0.10100000352E+00 0.  1.
</event>
<event>
 5   0  0.5500363E-03  0.1098899E+04  0.7818609E-02  0.9206265E-01
        2   -1    0    0  501    0  0.00000000000E+00  0.00000000000E+00  0.21104538241E+03  0.21104538243E+03  0.25500000920E-02 0.  1.
       -2   -1    0    0    0  501  0.00000000000E+00  0.00000000000E+00 -0.14304739906E+04  0.14304739906E+04  0.25500000920E-02 0. -1.
    10030    2    1    2    0    0  0.00000000000E+00  0.00000000000E+00 -0.12194286082E+04  0.16415193730E+04  0.10988993228E+04 0.  0.
        3    1    3    3  502    0  0.45236648741E+03 -0.17898165052E+03 -0.99121498489E+03  0.11041634963E+04  0.10100000352E+00 0. -1.
       -3    1    3    3    0  502 -0.45236648741E+03  0.17898165052E+03 -0.22821362327E+03  0.53735587668E+03  0.10100000352E+00 0.  1.
</event>
<event>
 5   0  0.3215352E-03  0.1154151E+04  0.7818609E-02  0.9153962E-01
        1   -1    0    0  501    0  0.00000000000E+00  0.00000000000E+00  0.44069462989E+03  0.44069462992E+03  0.50400001928E-02 0.  1.
       -1   -1    0    0    0  501  0.00000000000E+00  0.00000000000E+00 -0.75566248961E+03  0.75566248963E+03  0.50400001928E-02 0. -1.
    10030    2    1    2    0    0  0.00000000000E+00  0.00000000000E+00 -0.31496785972E+03  0.11963571195E+04  0.11541514653E+04 0.  0.
        1    1    3    3  502    0  0.33824398168E+03 -0.36669218863E+03  0.14320002238E+03  0.51901676156E+03  0.50400001928E-02 0.  1.
       -1    1    3    3    0  502 -0.33824398168E+03  0.36669218863E+03 -0.45816788210E+03  0.67734035799E+03  0.50400001928E-02 0. -1.
</event>
<event>
 5   0  0.3241189E-03  0.1140724E+04  0.7818609E-02  0.9166384E-01
        1   -1    0    0  501    0  0.00000000000E+00  0.00000000000E+00  0.78810189825E+03  0.78810189827E+03  0.50400001928E-02 0.  1.
       -1   -1    0    0    0  501  0.00000000000E+00  0.00000000000E+00 -0.41278042265E+03  0.41278042268E+03  0.50400001928E-02 0. -1.
    10030    2    1    2    0    0  0.00000000000E+00  0.00000000000E+00  0.37532147560E+03  0.12008823209E+04  0.11407243921E+04 0.  0.
        5    1    3    3  502    0 -0.13053582844E+03  0.47425294008E+03 -0.11624207687E+03  0.50545995303E+03  0.46999998093E+01 0. -1.
       -5    1    3    3    0  502  0.13053582844E+03 -0.47425294008E+03  0.49156355247E+03  0.69542236792E+03  0.46999998093E+01 0.  1.
</event>
<event>
 5   0  0.5500363E-03  0.1099296E+04  0.7818609E-02  0.9205879E-01
        2   -1    0    0  501    0  0.00000000000E+00  0.00000000000E+00  0.92667529618E+03  0.92667529618E+03  0.25500000920E-02 0. -1.
       -2   -1    0    0    0  501  0.00000000000E+00  0.00000000000E+00 -0.32601792498E+03  0.32601792499E+03  0.25500000920E-02 0.  1.
    10030    2    1    2    0    0  0.00000000000E+00  0.00000000000E+00  0.60065737120E+03  0.12526932212E+04  0.10992956967E+04 0.  0.
        3    1    3    3  502    0 -0.14030541550E+03 -0.29306571708E+03  0.80551928264E+03  0.86858186088E+03  0.10100000352E+00 0. -1.
       -3    1    3    3    0  502  0.14030541550E+03  0.29306571708E+03 -0.20486191144E+03  0.38411136029E+03  0.10100000352E+00 0.  1.
</event>
<event>
 5   0  0.3241189E-03  0.1105862E+04  0.7818609E-02  0.9199497E-01
        1   -1    0    0  501    0  0.00000000000E+00  0.00000000000E+00  0.30158315173E+03  0.30158315177E+03  0.50400001928E-02 0.  1.
       -1   -1    0    0    0  501  0.00000000000E+00  0.00000000000E+00 -0.10137589169E+04  0.10137589169E+04  0.50400001928E-02 0. -1.
    10030    2    1    2    0    0  0.00000000000E+00  0.00000000000E+00 -0.71217576521E+03  0.13153420687E+04  0.11058618527E+04 0.  0.
        5    1    3    3  502    0 -0.37010729291E+03  0.14492839802E+03 -0.81324720692E+03  0.90519432078E+03  0.46999998093E+01 0. -1.
       -5    1    3    3    0  502  0.37010729291E+03 -0.14492839802E+03  0.10107144171E+03  0.41014774794E+03  0.46999998093E+01 0.  1.
</event>
<event>
 5   0  0.5627232E-03  0.1114600E+04  0.7818609E-02  0.9191077E-01
       -2   -1    0    0    0  501  0.00000000000E+00  0.00000000000E+00  0.80070547819E+03  0.80070547819E+03  0.25500000920E-02 0. -1.
        2   -1    0    0  501    0  0.00000000000E+00  0.00000000000E+00 -0.38788709970E+03  0.38788709971E+03  0.25500000920E-02 0.  1.
    10030    2    1    2    0    0  0.00000000000E+00  0.00000000000E+00  0.41281837849E+03  0.11885925779E+04  0.11146000640E+04 0.  0.
        2    1    3    3  502    0 -0.36635328181E+03 -0.35121574025E+03  0.45194669982E+03  0.67957563434E+03  0.25500000920E-02 0. -1.
       -2    1    3    3    0  502  0.36635328181E+03  0.35121574025E+03 -0.39128321337E+02  0.50901694356E+03  0.25500000920E-02 0.  1.
</event>
<event>
 5   0  0.3328741E-03  0.1103453E+04  0.7818609E-02  0.9201833E-01
       -1   -1    0    0    0  501  0.00000000000E+00  0.00000000000E+00  0.28344665450E+03  0.28344665455E+03  0.50400001928E-02 0. -1.
        1   -1    0    0  501    0  0.00000000000E+00  0.00000000000E+00 -0.10739314415E+04  0.10739314415E+04  0.50400001928E-02 0.  1.
    10030    2    1    2    0    0  0.00000000000E+00  0.00000000000E+00 -0.79048478696E+03  0.13573780960E+04  0.11034532601E+04 0.  0.
        3    1    3    3  502    0 -0.31191189900E+03  0.10426627623E+03  0.14969000127E+03  0.36134138398E+03  0.10100000352E+00 0. -1.
       -3    1    3    3    0  502  0.31191189900E+03 -0.10426627623E+03 -0.94017478823E+03  0.99603671204E+03  0.10100000352E+00 0.  1.
</event>
<event>
 5   0  0.3215352E-03  0.1107711E+04  0.7818609E-02  0.9197708E-01
        1   -1    0    0  501    0  0.00000000000E+00  0.00000000000E+00  0.59448512236E+03  0.59448512238E+03  0.50400001928E-02 0. -1.
       -1   -1    0    0    0  501  0.00000000000E+00  0.00000000000E+00 -0.51600302863E+03  0.51600302865E+03  0.50400001928E-02 0.  1.
    10030    2    1    2    0    0  0.00000000000E+00  0.00000000000E+00  0.78482093725E+02  0.11104881510E+04  0.11077113769E+04 0.  0.
        1    1    3    3  502    0  0.65235954336E+02 -0.32540666370E+03  0.48376084160E+03  0.58665984898E+03  0.50400001928E-02 0. -1.
       -1    1    3    3    0  502 -0.65235954336E+02  0.32540666370E+03 -0.40527874787E+03  0.52382830205E+03  0.50400001928E-02 0.  1.
</event>
<event>
 5   0  0.3316784E-03  0.1092411E+04  0.7818609E-02  0.9212620E-01
       -1   -1    0    0    0  501  0.00000000000E+00  0.00000000000E+00  0.83054844487E+03  0.83054844489E+03  0.50400001928E-02 0. -1.
        1   -1    0    0  501    0  0.00000000000E+00  0.00000000000E+00 -0.35920918145E+03  0.35920918148E+03  0.50400001928E-02 0.  1.
    10030    2    1    2    0    0  0.00000000000E+00  0.00000000000E+00  0.47133926342E+03  0.11897576264E+04  0.10924113274E+04 0.  0.
        4    1    3    3  502    0  0.36673907581E+03 -0.80815749519E+02  0.66763691322E+03  0.76600874400E+03  0.12699999809E+01 0. -1.
       -4    1    3    3    0  502 -0.36673907581E+03  0.80815749519E+02 -0.19629764980E+03  0.42374888237E+03  0.12699999809E+01 0.  1.
</event>
<event>
 5   0  0.5946359E-03  0.1103142E+04  0.7818609E-02  0.9202135E-01
        2   -1    0    0  501    0  0.00000000000E+00  0.00000000000E+00  0.74235028070E+03  0.74235028071E+03  0.25500000920E-02 0.  1.
       -2   -1    0    0    0  501  0.00000000000E+00  0.00000000000E+00 -0.40982093407E+03  0.40982093407E+03  0.25500000920E-02 0. -1.
    10030    2    1    2    0    0  0.00000000000E+00  0.00000000000E+00  0.33252934664E+03  0.11521712148E+04  0.11031422129E+04 0.  0.
        4    1    3    3  502    0 -0.39265419969E+03 -0.10067369130E+03  0.55694368156E+03  0.68883988704E+03  0.12699999809E+01 0.  1.
       -4    1    3    3    0  502  0.39265419969E+03  0.10067369130E+03 -0.22441433492E+03  0.46333132774E+03  0.12699999809E+01 0. -1.
</event>
<event>
 5   0  0.3328741E-03  0.1098823E+04  0.7818609E-02  0.9206340E-01
       -1   -1    0    0    0  501  0.00000000000E+00  0.00000000000E+00  0.37536364595E+03  0.37536364599E+03  0.50400001928E-02 0. -1.
        1   -1    0    0  501    0  0.00000000000E+00  0.00000000000E+00 -0.80416180461E+03  0.80416180462E+03  0.50400001928E-02 0.  1.
    10030    2    1    2    0    0  0.00000000000E+00  0.00000000000E+00 -0.42879815865E+03  0.11795254506E+04  0.10988232013E+04 0.  0.
        3    1    3    3  502    0  0.31709581288E+03 -0.17512758414E+03  0.22901743428E+03  0.42856553837E+03  0.10100000352E+00 0. -1.
       -3    1    3    3    0  502 -0.31709581288E+03  0.17512758414E+03 -0.65781559294E+03  0.75095991224E+03  0.10100000352E+00 0.  1.
</event>
<event>
 5   0  0.3241189E-03  0.1039276E+04  0.7818609E-02  0.9266487E-01
        1   -1    0    0  501    0  0.00000000000E+00  0.00000000000E+00  0.40986958394E+03  0.40986958397E+03  0.50400001928E-02 0.  1.
       -1   -1    0    0    0  501  0.00000000000E+00  0.00000000000E+00 -0.65880348896E+03  0.65880348898E+03  0.50400001928E-02 0. -1.
    10030    2    1    2    0    0  0.00000000000E+00  0.00000000000E+00 -0.24893390503E+03  0.10686730730E+04  0.10392757323E+04 0.  0.
        5    1    3    3  502    0  0.12589000271E+03 -0.47686776269E+03  0.43714513340E+02  0.49516078656E+03  0.46999998093E+01 0.  1.
       -5    1    3    3    0  502 -0.12589000271E+03  0.47686776269E+03 -0.29264841837E+03  0.57351228639E+03  0.46999998093E+01 0. -1.
</event>
<event>
 5   0  0.3316784E-03  0.1118771E+04  0.7818609E-02  0.9187087E-01
        1   -1    0    0  501    0  0.00000000000E+00  0.00000000000E+00  0.31692642141E+03  0.31692642145E+03  0.50400001928E-02 0. -1.
       -1   -1    0    0    0  501  0.00000000000E+00  0.00000000000E+00 -0.98733450061E+03  0.98733450062E+03  0.50400001928E-02 0.  1.
    10030    2    1    2    0    0  0.00000000000E+00  0.00000000000E+00 -0.67040807920E+03  0.13042609221E+04  0.11187714513E+04 0.  0.
        4    1    3    3  502    0  0.63911591865E+02  0.26933443985E+03  0.23148031734E+03  0.36084689590E+03  0.12699999809E+01 0. -1.
       -4    1    3    3    0  502 -0.63911591865E+02 -0.26933443985E+03 -0.90188839654E+03  0.94341402617E+03  0.12699999809E+01 0.  1.
</event>
<event>
 5   0  0.5627232E-03  0.1098924E+04  0.7818609E-02  0.9206241E-01
        2   -1    0    0  501    0  0.00000000000E+00  0.00000000000E+00  0.15561472821E+04  0.15561472821E+04  0.25500000920E-02 0.  1.
       -2   -1    0    0    0  501  0.00000000000E+00  0.00000000000E+00 -0.19401036176E+03  0.19401036178E+03  0.25500000920E-02 0. -1.
    10030    2    1    2    0    0  0.00000000000E+00  0.00000000000E+00  0.13621369203E+04  0.17501576439E+04  0.10989243781E+04 0.  0.
        2    1    3    3  502    0 -0.31840401008E+02 -0.50751084431E+03  0.34956213203E+03  0.61706948749E+03  0.25500000920E-02 0. -1.
       -2    1    3    3    0  502  0.31840401008E+02  0.50751084431E+03  0.10125747883E+04  0.11330881564E+04  0.25500000920E-02 0.  1.
</event>
<event>
 5   0  0.2185750E-03  0.1106005E+04  0.7818609E-02  0.9199359E-01
        3   -1    0    0  501    0  0.00000000000E+00  0.00000000000E+00  0.19114933122E+03  0.19114935790E+03  0.10100000352E+00 0. -1.
       -3   -1    0    0    0  501  0.00000000000E+00  0.00000000000E+00 -0.15998580412E+04  0.15998580444E+04  0.10100000352E+00 0.  1.
    10030    2    1    2    0    0  0.00000000000E+00  0.00000000000E+00 -0.14087087100E+04  0.17910074023E+04  0.11060051019E+04 0.  0.
        5    1    3    3  502    0  0.50150993705E+03  0.22817206630E+03 -0.78056740256E+03  0.95544872638E+03  0.46999998093E+01 0.  1.
       -5    1    3    3    0  502 -0.50150993705E+03 -0.22817206630E+03 -0.62814130745E+03  0.83555867593E+03  0.46999998093E+01 0. -1.
</event>
<event>
 5   0  0.5946359E-03  0.1108707E+04  0.7818609E-02  0.9196747E-01
       -2   -1    0    0    0  501  0.00000000000E+00  0.00000000000E+00  0.25805644807E+03  0.25805644808E+03  0.25500000920E-02 0.  1.
        2   -1    0    0  501    0  0.00000000000E+00  0.00000000000E+00 -0.11908544861E+04  0.11908544861E+04  0.25500000920E-02 0. -1.
    10030    2    1    2    0    0  0.00000000000E+00  0.00000000000E+00 -0.93279803799E+03  0.14489109341E+04  0.11087067761E+04 0.  0.
        4    1    3    3  502    0  0.22672822293E+03 -0.49145409224E+03 -0.30972299578E+03  0.62358861348E+03  0.12699999809E+01 0.  1.
       -4    1    3    3    0  502 -0.22672822293E+03  0.49145409224E+03 -0.62307504221E+03  0.82532232066E+03  0.12699999809E+01 0. -1.
</event>
<event>
 5   0  0.5946359E-03  0.1099292E+04  0.7818609E-02  0.9205882E-01
       -2   -1    0    0    0  501  0.00000000000E+00  0.00000000000E+00  0.16356069451E+03  0.16356069453E+03  0.25500000920E-02 0.  1.
        2   -1    0    0  501    0  0.00000000000E+00  0.00000000000E+00 -0.18470856373E+04  0.18470856373E+04  0.25500000920E-02 0. -1.
    10030    2    1    2    0    0  0.00000000000E+00  0.00000000000E+00 -0.16835249428E+04  0.20106463318E+04  0.10992917896E+04 0.  0.
        4    1    3    3  502    0 -0.10613848147E+03  0.23503865005E+03  0.46028576957E+02  0.26197096607E+03  0.12699999809E+01 0.  1.
       -4    1    3    3    0  502  0.10613848147E+03 -0.23503865005E+03 -0.17295535197E+04  0.17486753657E+04  0.12699999809E+01 0. -1.
</event>
<event>
 5   0  0.3316784E-03  0.1106596E+04  0.7818609E-02  0.9198786E-01
       -1   -1    0    0    0  501  0.00000000000E+00  0.00000000000E+00  0.65684184660E+03  0.65684184662E+03  0.50400001928E-02 0. -1.
        1   -1    0    0  501    0  0.00000000000E+00  0.00000000000E+00 -0.46607693257E+03  0.46607693260E+03  0.50400001928E-02 0.  1.
    10030    2    1    2    0    0  0.00000000000E+00  0.00000000000E+00  0.19076491403E+03  0.11229187792E+04  0.11065962824E+04 0.  0.
        4    1    3    3  502    0  0.41169428179E+03 -0.11399368449E+03  0.45220890637E+03  0.62207817006E+03  0.12699999809E+01 0. -1.
       -4    1    3    3    0  502 -0.41169428179E+03  0.11399368449E+03 -0.26144399234E+03  0.50084060917E+03  0.12699999809E+01 0.  1.
</event>
<event>
 5   0  0.5627232E-03  0.1038637E+04  0.7818609E-02  0.9267155E-01
       -2   -1    0    0    0  501  0.00000000000E+00  0.00000000000E+00  0.33839905678E+03  0.33839905679E+03  0.25500000920E-02 0.  1.
        2   -1    0    0  501    0  0.00000000000E+00  0.00000000000E+00 -0.79696323151E+03  0.79696323152E+03  0.25500000920E-02 0. -1.
    10030    2    1    2    0    0  0.00000000000E+00  0.00000000000E+00 -0.45856417474E+03  0.11353622883E+04  0.10386368101E+04 0.  0.
        2    1    3    3  502    0  0.33284533787E+03  0.30718747397E+03 -0.50699117337E+03  0.67984572734E+03  0.25500000920E-02 0.  1.
       -2    1    3    3    0  502 -0.33284533787E+03 -0.30718747397E+03  0.48426998630E+02  0.45551656096E+03  0.25500000920E-02 0. -1.
</event>
<event>
 5   0  0.5946359E-03  0.1085822E+04  0.7818609E-02  0.9219122E-01
        2   -1    0    0  501    0  0.00000000000E+00  0.00000000000E+00  0.70546339334E+03  0.70546339335E+03  0.25500000920E-02 0. -1.
       -2   -1    0    0    0  501  0.00000000000E+00  0.00000000000E+00 -0.41781390037E+03  0.41781390038E+03  0.25500000920E-02 0.  1.
    10030    2    1    2    0    0  0.00000000000E+00  0.00000000000E+00  0.28764949297E+03  0.11232772937E+04  0.10858221069E+04 0.  0.
        4    1    3    3  502    0 -0.44827587331E+03 -0.22367828622E+03  0.36024828423E+03  0.61706051041E+03  0.12699999809E+01 0. -1.
       -4    1    3    3    0  502  0.44827587331E+03  0.22367828622E+03 -0.72598791252E+02  0.50621678332E+03  0.12699999809E+01 0.  1.
</event>
<event>
 5   0  0.5941585E-03  0.1102324E+04  0.7818609E-02  0.9202930E-01
        2   -1    0    0  501    0  0.00000000000E+00  0.00000000000E+00  0.66947532985E+03  0.66947532986E+03  0.25500000920E-02 0. -1.
       -2   -1    0    0    0  501  0.00000000000E+00  0.00000000000E+00 -0.45375737976E+03  0.45375737977E+03  0.25500000920E-02 0.  1.
    10030    2    1    2    0    0  0.00000000000E+00  0.00000000000E+00  0.21571795009E+03  0.11232327096E+04  0.11023236757E+04 0.  0.
        5    1    3    3  502    0 -0.17921276052E+03 -0.51953454055E+03  0.65551187795E+02  0.55349110253E+03  0.46999998093E+01 0. -1.
       -5    1    3    3    0  502  0.17921276052E+03  0.51953454055E+03  0.15016676229E+03  0.56974160710E+03  0.46999998093E+01 0.  1.
</event>
<event>
 5   0  0.2185750E-03  0.1090977E+04  0.7818609E-02  0.9214032E-01
        4   -1    0    0  501    0  0.00000000000E+00  0.00000000000E+00  0.50247927119E+03  0.50248087613E+03  0.12699999809E+01 0.  1.
       -4   -1    0    0    0  501  0.00000000000E+00  0.00000000000E+00 -0.59217537018E+03  0.59217673203E+03  0.12699999809E+01 0. -1.
    10030    2    1    2    0    0  0.00000000000E+00  0.00000000000E+00 -0.89696098996E+02  0.10946576082E+04  0.10909765758E+04 0.  0.
        3    1    3    3  502    0 -0.53005599782E+03  0.11854110254E+03 -0.95477277163E+02  0.55147735627E+03  0.10100000352E+00 0.  1.
       -3    1    3    3    0  502  0.53005599782E+03 -0.11854110254E+03  0.57811781665E+01  0.54318025189E+03  0.10100000352E+00 0. -1.
</event>
<event>
 5   0  0.5941585E-03  0.1072863E+04  0.7818609E-02  0.9232053E-01
       -2   -1    0    0    0  501  0.00000000000E+00  0.00000000000E+00  0.47081740691E+03  0.47081740691E+03  0.25500000920E-02 0. -1.
        2   -1    0    0  501    0  0.00000000000E+00  0.00000000000E+00 -0.61118983572E+03  0.61118983572E+03  0.25500000920E-02 0.  1.
    10030    2    1    2    0    0  0.00000000000E+00  0.00000000000E+00 -0.14037242881E+03  0.10820072426E+04  0.10728631107E+04 0.  0.
        5    1    3    3  502    0 -0.32281099071E+03  0.23763208155E+03 -0.42968018965E+03  0.58764198053E+03  0.46999998093E+01 0.  1.
       -5    1    3    3    0  502  0.32281099071E+03 -0.23763208155E+03  0.28930776084E+03  0.49436526211E+03  0.46999998093E+01 0. -1.
</event>
<event>
 5   0  0.3241189E-03  0.1130967E+04  0.7818609E-02  0.9175524E-01
        1   -1    0    0  501    0  0.00000000000E+00  0.00000000000E+00  0.53833725916E+03  0.53833725919E+03  0.50400001928E-02 0.  1.
       -1   -1    0    0    0  501  0.00000000000E+00  0.00000000000E+00 -0.59399876282E+03  0.59399876284E+03  0.50400001928E-02 0. -1.
    10030    2    1    2    0    0  0.00000000000E+00  0.00000000000E+00 -0.55661503651E+02  0.11323360220E+04  0.11309671365E+04 0.  0.
        5    1    3    3  502    0 -0.22351794465E+03  0.26886445409E+03 -0.47277973431E+03  0.58804007808E+03  0.46999998093E+01 0. -1.
       -5    1    3    3    0  502  0.22351794465E+03 -0.26886445409E+03  0.41711823066E+03  0.54429594395E+03  0.46999998093E+01 0.  1.
</event>
<event>
 5   0  0.3320192E-03  0.1097545E+04  0.7818609E-02  0.9207588E-01
       -1   -1    0    0    0  501  0.00000000000E+00  0.00000000000E+00  0.20762572738E+03  0.20762572745E+03  0.50400001928E-02 0. -1.
        1   -1    0    0  501    0  0.00000000000E+00  0.00000000000E+00 -0.14504530577E+04  0.14504530578E+04  0.50400001928E-02 0.  1.
    10030    2    1    2    0    0  0.00000000000E+00  0.00000000000E+00 -0.12428273304E+04  0.16580787852E+04  0.10975452086E+04 0.  0.
        2    1    3    3  502    0  0.29371487487E+03 -0.46200342787E+03 -0.67865715562E+03  0.87194674721E+03  0.25500000920E-02 0.  1.
       -2    1    3    3    0  502 -0.29371487487E+03  0.46200342787E+03 -0.56417017474E+03  0.78613203800E+03  0.25500000920E-02 0. -1.
</event>
<event>
 5   0  0.5723194E-03  0.1098900E+04  0.7818609E-02  0.9206265E-01
       -2   -1    0    0    0  501  0.00000000000E+00  0.00000000000E+00  0.26168781661E+03  0.26168781663E+03  0.25500000920E-02 0.  1.
        2   -1    0    0  501    0  0.00000000000E+00  0.00000000000E+00 -0.11536466982E+04  0.11536466982E+04  0.25500000920E-02 0. -1.
    10030    2    1    2    0    0  0.00000000000E+00  0.00000000000E+00 -0.89195888163E+03  0.14153345149E+04  0.10988999693E+04 0.  0.
        1    1    3    3  502    0  0.22526680750E+03 -0.18329663411E+03  0.15475560763E+03  0.32907763333E+03  0.50400001928E-02 0.  1.
       -1    1    3    3    0  502 -0.22526680750E+03  0.18329663411E+03 -0.10467144893E+04  0.10862568815E+04  0.50400001928E-02 0. -1.
</event>
<event>
 5   0  0.3316784E-03  0.1105473E+04  0.7818609E-02  0.9199874E-01
       -1   -1    0    0    0  501  0.00000000000E+00  0.00000000000E+00  0.33667553456E+03  0.33667553459E+03  0.50400001928E-02 0.  1.
        1   -1    0    0  501    0  0.00000000000E+00  0.00000000000E+00 -0.90745341511E+03  0.90745341513E+03  0.50400001928E-02 0. -1.
    10030    2    1    2    0    0  0.00000000000E+00  0.00000000000E+00 -0.57077788056E+03  0.12441289497E+04  0.11054725029E+04 0.  0.
        4    1    3    3  502    0 -0.32382857144E+03 -0.38981993947E+03 -0.53372671643E+03  0.73599616142E+03  0.12699999809E+01 0.  1.
       -4    1    3    3    0  502  0.32382857144E+03  0.38981993947E+03 -0.37051164129E+02  0.50813278831E+03  0.12699999809E+01 0. -1.
</event>
<event>
 5   0  0.5500363E-03  0.1091056E+04  0.7818609E-02  0.9213954E-01
       -2   -1    0    0    0  501  0.00000000000E+00  0.00000000000E+00  0.54955851711E+03  0.54955851711E+03  0.25500000920E-02 0.  1.
        2   -1    0    0  501    0  0.00000000000E+00  0.00000000000E+00 -0.54152690562E+03  0.54152690562E+03  0.25500000920E-02 0. -1.
    10030    2    1    2    0    0  0.00000000000E+00  0.00000000000E+00  0.80316114910E+01  0.10910854227E+04  0.10910558615E+04 0.  0.
        3    1    3    3  502    0 -0.32805587577E+03  0.32110154548E+03 -0.29073588721E+03  0.54337300858E+03  0.10100000352E+00 0. -1.
       -3    1    3    3    0  502  0.32805587577E+03 -0.32110154548E+03  0.29876749870E+03  0.54771241416E+03  0.10100000352E+00 0.  1.
</event>
<event>
 5   0  0.3241189E-03  0.1108438E+04  0.7818609E-02  0.9197006E-01
        1   -1    0    0  501    0  0.00000000000E+00  0.00000000000E+00  0.40617501399E+03  0.40617501402E+03  0.50400001928E-02 0.  1.
       -1   -1    0    0    0  501  0.00000000000E+00  0.00000000000E+00 -0.75622286473E+03  0.75622286475E+03  0.50400001928E-02 0. -1.
    10030    2    1    2    0    0  0.00000000000E+00  0.00000000000E+00 -0.35004785075E+03  0.11623978788E+04  0.11084382395E+04 0.  0.
        5    1    3    3  502    0  0.48143475474E+03  0.11191534862E+03 -0.43789009632E+03  0.66035921648E+03  0.46999998093E+01 0. -1.
       -5    1    3    3    0  502 -0.48143475474E+03 -0.11191534862E+03  0.87842245576E+02  0.50203866229E+03  0.46999998093E+01 0.  1.
</event>
<event>
 5   0  0.3328741E-03  0.1091816E+04  0.7818609E-02  0.9213206E-01
       -1   -1    0    0    0  501  0.00000000000E+00  0.00000000000E+00  0.96398244345E+03  0.96398244347E+03  0.50400001928E-02 0. -1.
        1   -1    0    0  501    0  0.00000000000E+00  0.00000000000E+00 -0.30915021436E+03  0.30915021440E+03  0.50400001928E-02 0.  1.
    10030    2    1    2    0    0  0.00000000000E+00  0.00000000000E+00  0.65483222909E+03  0.12731326579E+04  0.10918156970E+04 0.  0.
        3    1    3    3  502    0 -0.35532385200E+03  0.34118057366E+03  0.60176755502E+03  0.77767822659E+03  0.10100000352E+00 0. -1.
       -3    1    3    3    0  502  0.35532385200E+03 -0.34118057366E+03  0.53064674073E+02  0.49545443128E+03  0.10100000352E+00 0.  1.
</event>
<event>
 5   0  0.2185750E-03  0.1107731E+04  0.7818609E-02  0.9197690E-01
       -3   -1    0    0    0  501  0.00000000000E+00  0.00000000000E+00  0.38911386644E+03  0.38911387954E+03  0.10100000352E+00 0.  1.
        3   -1    0    0  501    0  0.00000000000E+00  0.00000000000E+00 -0.78837289038E+03  0.78837289685E+03  0.10100000352E+00 0. -1.
    10030    2    1    2    0    0  0.00000000000E+00  0.00000000000E+00 -0.39925902394E+03  0.11774867764E+04  0.11077307165E+04 0.  0.
        4    1    3    3  502    0  0.31802978022E+03 -0.42017454887E+03 -0.38088301284E+03  0.65020233389E+03  0.12699999809E+01 0. -1.
       -4    1    3    3    0  502 -0.31802978022E+03  0.42017454887E+03 -0.18376011100E+02  0.52728444250E+03  0.12699999809E+01 0.  1.
</event>
<event>
 5   0  0.5627232E-03  0.1099156E+04  0.7818609E-02  0.9206015E-01
        2   -1    0    0  501    0  0.00000000000E+00  0.00000000000E+00  0.80567728432E+03  0.80567728432E+03  0.25500000920E-02 0. -1.
       -2   -1    0    0    0  501  0.00000000000E+00  0.00000000000E+00 -0.37488442218E+03  0.37488442218E+03  0.25500000920E-02 0.  1.
    10030    2    1    2    0    0  0.00000000000E+00  0.00000000000E+00  0.43079286214E+03  0.11805617065E+04  0.10991557910E+04 0.  0.
        2    1    3    3  502    0 -0.52962800985E+03  0.24729037908E+02  0.37074054543E+03  0.64696669633E+03  0.25500000920E-02 0.  1.
       -2    1    3    3    0  502  0.52962800985E+03 -0.24729037908E+02  0.60052316711E+02  0.53359501017E+03  0.25500000920E-02 0. -1.
</event>
<event>
 5   0  0.5941585E-03  0.1122021E+04  0.7818609E-02  0.9183991E-01
       -2   -1    0    0    0  501  0.00000000000E+00  0.00000000000E+00  0.28481441243E+03  0.28481441244E+03  0.25500000920E-02 0.  1.
        2   -1    0    0  501    0  0.00000000000E+00  0.00000000000E+00 -0.11050448781E+04  0.11050448781E+04  0.25500000920E-02 0. -1.
    10030    2    1    2    0    0  0.00000000000E+00  0.00000000000E+00 -0.82023046566E+03  0.13898592905E+04  0.11220208691E+04 0.  0.
        5    1    3    3  502    0 -0.18509636748E+03 -0.52438794840E+03 -0.50170641217E+03  0.74898250960E+03  0.46999998093E+01 0. -1.
       -5    1    3    3    0  502  0.18509636748E+03  0.52438794840E+03 -0.31852405349E+03  0.64087678093E+03  0.46999998093E+01 0.  1.
</event>
<event>
 5   0  0.3316784E-03  0.9838189E+03  0.7818609E-02  0.9326472E-01
       -1   -1    0    0    0  501  0.00000000000E+00  0.00000000000E+00  0.47824657029E+03  0.47824657031E+03  0.50400001928E-02 0.  1.
        1   -1    0    0  501    0  0.00000000000E+00  0.00000000000E+00 -0.50596270737E+03  0.50596270739E+03  0.50400001928E-02 0. -1.
    10030    2    1    2    0    0  0.00000000000E+00  0.00000000000E+00 -0.27716137081E+02  0.98420927771E+03  0.98381894578E+03 0.  0.
        4    1    3    3  502    0 -0.11518946117E+03  0.31555540307E+03  0.34563042542E+03  0.48198114926E+03  0.12699999809E+01 0.  1.
       -4    1    3    3    0  502  0.11518946117E+03 -0.31555540307E+03 -0.37334656250E+03  0.50222812844E+03  0.12699999809E+01 0. -1.
</event>
<event>
 5   0  0.5946359E-03  0.1091762E+04  0.7818609E-02  0.9213259E-01
       -2   -1    0    0    0  501  0.00000000000E+00  0.00000000000E+00  0.47974821067E+03  0.47974821067E+03  0.25500000920E-02 0.  1.
        2   -1    0    0  501    0  0.00000000000E+00  0.00000000000E+00 -0.62113001192E+03  0.62113001193E+03  0.25500000920E-02 0. -1.
    10030    2    1    2    0    0  0.00000000000E+00  0.00000000000E+00 -0.14138180126E+03  0.11008782226E+04  0.10917619004E+04 0.  0.
        4    1    3    3  502    0  0.75071052548E+02 -0.51560644629E+03 -0.23483446661E+03  0.57151947473E+03  0.12699999809E+01 0. -1.
       -4    1    3    3    0  502 -0.75071052548E+02  0.51560644629E+03  0.93452665352E+02  0.52935874787E+03  0.12699999809E+01 0.  1.
</event>
<event>
 5   0  0.3241189E-03  0.1083828E+04  0.7818609E-02  0.9221099E-01
        1   -1    0    0  501    0  0.00000000000E+00  0.00000000000E+00  0.64552141206E+03  0.64552141208E+03  0.50400001928E-02 0.  1.
       -1   -1    0    0    0  501  0.00000000000E+00  0.00000000000E+00 -0.45493598981E+03  0.45493598984E+03  0.50400001928E-02 0. -1.
    10030    2    1    2    0    0  0.00000000000E+00  0.00000000000E+00  0.19058542225E+03  0.11004574019E+04  0.10838282568E+04 0.  0.
        5    1    3    3  502    0  0.22686336272E+03 -0.42581578668E+03 -0.15519625412E+03  0.50684715331E+03  0.46999998093E+01 0. -1.
       -5    1    3    3    0  502 -0.22686336272E+03  0.42581578668E+03  0.34578167636E+03  0.59361024860E+03  0.46999998093E+01 0.  1.
</event>
<event>
 5   0  0.5627232E-03  0.1099676E+04  0.7818609E-02  0.9205507E-01
       -2   -1    0    0    0  501  0.00000000000E+00  0.00000000000E+00  0.30562465258E+03  0.30562465259E+03  0.25500000920E-02 0. -1.
        2   -1    0    0  501    0  0.00000000000E+00  0.00000000000E+00 -0.98919375888E+03  0.98919375888E+03  0.25500000920E-02 0.  1.
    10030    2    1    2    0    0  0.00000000000E+00  0.00000000000E+00 -0.68356910630E+03  0.12948184115E+04  0.10996763140E+04 0.  0.
        2    1    3    3  502    0  0.95870725364E+02 -0.32722663142E+03  0.16609760670E+03  0.37928469419E+03  0.25500000920E-02 0. -1.
       -2    1    3    3    0  502 -0.95870725364E+02  0.32722663142E+03 -0.84966671300E+03  0.91553371728E+03  0.25500000920E-02 0.  1.
</event>
<event>
 5   0  0.5500363E-03  0.1085875E+04  0.7818609E-02  0.9219069E-01
       -2   -1    0    0    0  501  0.00000000000E+00  0.00000000000E+00  0.30095018489E+03  0.30095018490E+03  0.25500000920E-02 0. -1.
        2   -1    0    0  501    0  0.00000000000E+00  0.00000000000E+00 -0.97950152937E+03  0.97950152938E+03  0.25500000920E-02 0.  1.
    10030    2    1    2    0    0  0.00000000000E+00  0.00000000000E+00 -0.67855134448E+03  0.12804517143E+04  0.10858750690E+04 0.  0.
        3    1    3    3  502    0  0.43419731580E+03 -0.11255332528E+03  0.21458968813E+02  0.44906130719E+03  0.10100000352E+00 0. -1.
       -3    1    3    3    0  502 -0.43419731580E+03  0.11255332528E+03 -0.70001031329E+03  0.83139040709E+03  0.10100000352E+00 0.  1.
</event>
<event>
 5   0  0.3320192E-03  0.1048655E+04  0.7818609E-02  0.9256734E-01
        1   -1    0    0  501    0  0.00000000000E+00  0.00000000000E+00  0.79600927742E+03  0.79600927743E+03  0.50400001928E-02 0.  1.
       -1   -1    0    0    0  501  0.00000000000E+00  0.00000000000E+00 -0.34537171264E+03  0.34537171267E+03  0.50400001928E-02 0. -1.
    10030    2    1    2    0    0  0.00000000000E+00  0.00000000000E+00  0.45063756478E+03  0.11413809901E+04  0.10486545426E+04 0.  0.
        2    1    3    3  502    0  0.42843491616E+03  0.51906828919E+02 -0.98783703328E+02  0.44272905521E+03  0.25500000920E-02 0. -1.
       -2    1    3    3    0  502 -0.42843491616E+03 -0.51906828919E+02  0.54942126811E+03  0.69865193489E+03  0.25500000920E-02 0.  1.
</event>
<event>
 5   0  0.3241189E-03  0.1119419E+04  0.7818609E-02  0.9186469E-01
       -1   -1    0    0    0  501  0.00000000000E+00  0.00000000000E+00  0.16579433887E+03  0.16579433894E+03  0.50400001928E-02 0. -1.
        1   -1    0    0  501    0  0.00000000000E+00  0.00000000000E+00 -0.18895367585E+04  0.18895367585E+04  0.50400001928E-02 0.  1.
    10030    2    1    2    0    0  0.00000000000E+00  0.00000000000E+00 -0.17237424196E+04  0.20553310974E+04  0.11194185950E+04 0.  0.
        5    1    3    3  502    0  0.91876734165E+02  0.17001588267E+03 -0.18262987233E+04  0.18365009805E+04  0.46999998093E+01 0.  1.
       -5    1    3    3    0  502 -0.91876734165E+02 -0.17001588267E+03  0.10255630371E+03  0.21883011692E+03  0.46999998093E+01 0. -1.
</event>
<event>
 5   0  0.5500363E-03  0.1095628E+04  0.7818609E-02  0.9209463E-01
        2   -1    0    0  501    0  0.00000000000E+00  0.00000000000E+00  0.73861671964E+03  0.73861671964E+03  0.25500000920E-02 0.  1.
       -2   -1    0    0    0  501  0.00000000000E+00  0.00000000000E+00 -0.40630037671E+03  0.40630037671E+03  0.25500000920E-02 0. -1.
    10030    2    1    2    0    0  0.00000000000E+00  0.00000000000E+00  0.33231634293E+03  0.11449170964E+04  0.10956281330E+04 0.  0.
        3    1    3    3  502    0 -0.25218935790E+03  0.47552466832E+03  0.59707598257E+02  0.54156088292E+03  0.10100000352E+00 0. -1.
       -3    1    3    3    0  502  0.25218935790E+03 -0.47552466832E+03  0.27260874467E+03  0.60335621344E+03  0.10100000352E+00 0.  1.
</event>
<event>
 5   0  0.5500363E-03  0.1094435E+04  0.7818609E-02  0.9210633E-01
        2   -1    0    0  501    0  0.00000000000E+00  0.00000000000E+00  0.73776561710E+03  0.73776561711E+03  0.25500000920E-02 0.  1.
       -2   -1    0    0    0  501  0.00000000000E+00  0.00000000000E+00 -0.40588344802E+03  0.40588344803E+03  0.25500000920E-02 0. -1.
    10030    2    1    2    0    0  0.00000000000E+00  0.00000000000E+00  0.33188216908E+03  0.11436490651E+04  0.10944347445E+04 0.  0.
        3    1    3    3  502    0  0.21365411397E+03 -0.32773220615E+03  0.56575614664E+03  0.68784918916E+03  0.10100000352E+00 0.  1.
       -3    1    3    3    0  502 -0.21365411397E+03  0.32773220615E+03 -0.23387397756E+03  0.45579987598E+03  0.10100000352E+00 0. -1.
</event>
<event>
 5   0  0.5627232E-03  0.1102913E+04  0.7818609E-02  0.9202358E-01
        2   -1    0    0  501    0  0.00000000000E+00  0.00000000000E+00  0.34130340737E+03  0.34130340738E+03  0.25500000920E-02 0.  1.
       -2   -1    0    0    0  501  0.00000000000E+00  0.00000000000E+00 -0.89100821300E+03  0.89100821300E+03  0.25500000920E-02 0. -1.
    10030    2    1    2    0    0  0.00000000000E+00  0.00000000000E+00 -0.54970480562E+03  0.12323116204E+04  0.11029127601E+04 0.  0.
        2    1    3    3  502    0  0.28666543257E+03 -0.80107661232E+02 -0.79354843536E+03  0.84753373200E+03  0.25500000920E-02 0. -1.
       -2    1    3    3    0  502 -0.28666543257E+03  0.80107661232E+02  0.24384362973E+03  0.38477788838E+03  0.25500000920E-02 0.  1.
</event>
<event>
 5   0  0.3215352E-03  0.1088727E+04  0.7818609E-02  0.9216249E-01
       -1   -1    0    0    0  501  0.00000000000E+00  0.00000000000E+00  0.61154489082E+03  0.61154489084E+03  0.50400001928E-02 0.  1.
        1   -1    0    0  501    0  0.00000000000E+00  0.00000000000E+00 -0.48456270817E+03  0.48456270820E+03  0.50400001928E-02 0. -1.
    10030    2    1    2    0    0  0.00000000000E+00  0.00000000000E+00  0.12698218264E+03  0.10961075990E+04  0.10887274195E+04 0.  0.
        1    1    3    3  502    0 -0.84096632294E+02  0.28129482006E+03  0.52500094888E+03  0.60151892381E+03  0.50400001928E-02 0.  1.
       -1    1    3    3    0  502  0.84096632294E+02 -0.28129482006E+03 -0.39801876624E+03  0.49458867522E+03  0.50400001928E-02 0. -1.
</event>
<event>
 5   0  0.5946359E-03  0.1064592E+04  0.7818609E-02  0.9240407E-01
       -2   -1    0    0    0  501  0.00000000000E+00  0.00000000000E+00  0.13561656354E+03  0.13561656356E+03  0.25500000920E-02 0.  1.
        2   -1    0    0  501    0  0.00000000000E+00  0.00000000000E+00 -0.20892641266E+04  0.20892641266E+04  0.25500000920E-02 0. -1.
    10030    2    1    2    0    0  0.00000000000E+00  0.00000000000E+00 -0.19536475631E+04  0.22248806902E+04  0.10645916047E+04 0.  0.
        4    1    3    3  502    0  0.37666302084E+03  0.37593917941E+03 -0.10008266550E+04  0.11335170507E+04  0.12699999809E+01 0.  1.
       -4    1    3    3    0  502 -0.37666302084E+03 -0.37593917941E+03 -0.95282090803E+03  0.10913636395E+04  0.12699999809E+01 0. -1.
</event>
<event>
 5   0  0.5500363E-03  0.1112551E+04  0.7818609E-02  0.9193044E-01
       -2   -1    0    0    0  501  0.00000000000E+00  0.00000000000E+00  0.28505788337E+03  0.28505788338E+03  0.25500000920E-02 0.  1.
        2   -1    0    0  501    0  0.00000000000E+00  0.00000000000E+00 -0.10855433198E+04  0.10855433198E+04  0.25500000920E-02 0. -1.
    10030    2    1    2    0    0  0.00000000000E+00  0.00000000000E+00 -0.80048543639E+03  0.13706012031E+04  0.11125514479E+04 0.  0.
        3    1    3    3  502    0 -0.13230655704E+03 -0.34774073807E+03  0.10921350265E+03  0.38775797260E+03  0.10100000352E+00 0.  1.
       -3    1    3    3    0  502  0.13230655704E+03  0.34774073807E+03 -0.90969893904E+03  0.98284323055E+03  0.10100000352E+00 0. -1.
</event>
<event>
 5   0  0.3320192E-03  0.1099884E+04  0.7818609E-02  0.9205305E-01
       -1   -1    0    0    0  501  0.00000000000E+00  0.00000000000E+00  0.80092725112E+03  0.80092725113E+03  0.50400001928E-02 0.  1.
        1   -1    0    0  501    0  0.00000000000E+00  0.00000000000E+00 -0.37760740297E+03  0.37760740300E+03  0.50400001928E-02 0. -1.
    10030    2    1    2    0    0  0.00000000000E+00  0.00000000000E+00  0.42331984815E+03  0.11785346541E+04  0.10998837380E+04 0.  0.
        2    1    3    3  502    0  0.53187923911E+03 -0.23884981820E+02  0.64079171135E+02  0.53625754776E+03  0.25500000920E-02 0. -1.
       -2    1    3    3    0  502 -0.53187923911E+03  0.23884981820E+02  0.35924067701E+03  0.64227710638E+03  0.25500000920E-02 0.  1.
</event>
<event>
 5   0  0.3215352E-03  0.1102375E+04  0.7818609E-02  0.9202881E-01
        1   -1    0    0  501    0  0.00000000000E+00  0.00000000000E+00  0.26456267213E+03  0.26456267218E+03  0.50400001928E-02 0. -1.
       -1   -1    0    0    0  501  0.00000000000E+00  0.00000000000E+00 -0.11483380708E+04  0.11483380709E+04  0.50400001928E-02 0.  1.
    10030    2    1    2    0    0  0.00000000000E+00  0.00000000000E+00 -0.88377539871E+03  0.14129007430E+04  0.11023745073E+04 0.  0.
        1    1    3    3  502    0 -0.51241102550E+03 -0.44110863796E+02 -0.69596143065E+03  0.86537456650E+03  0.50400001928E-02 0.  1.
       -1    1    3    3    0  502  0.51241102550E+03  0.44110863796E+02 -0.18781396806E+03  0.54752617653E+03  0.50400001928E-02 0. -1.
</event>
<event>
 5   0  0.5723194E-03  0.1104769E+04  0.7818609E-02  0.9200556E-01
        2   -1    0    0  501    0  0.00000000000E+00  0.00000000000E+00  0.17085396277E+04  0.17085396277E+04  0.25500000920E-02 0.  1.
       -2   -1    0    0    0  501  0.00000000000E+00  0.00000000000E+00 -0.17859022745E+03  0.17859022746E+03  0.25500000920E-02 0. -1.
    10030    2    1    2    0    0  0.00000000000E+00  0.00000000000E+00  0.15299494002E+04  0.18871298552E+04  0.11047687192E+04 0.  0.
        1    1    3    3  502    0  0.25980657284E+03 -0.10774237665E+03  0.15770652068E+04  0.16019496064E+04  0.50400001928E-02 0.  1.
       -1    1    3    3    0  502 -0.25980657284E+03  0.10774237665E+03 -0.47115806550E+02  0.28518024873E+03  0.50400001928E-02 0. -1.
</event>
<event>
 5   0  0.3241189E-03  0.1102482E+04  0.7818609E-02  0.9202776E-01
        1   -1    0    0  501    0  0.00000000000E+00  0.00000000000E+00  0.92161513247E+03  0.92161513248E+03  0.50400001928E-02 0. -1.
       -1   -1    0    0    0  501  0.00000000000E+00  0.00000000000E+00 -0.32971115271E+03  0.32971115275E+03  0.50400001928E-02 0.  1.
    10030    2    1    2    0    0  0.00000000000E+00  0.00000000000E+00  0.59190397976E+03  0.12513262852E+04  0.11024822678E+04 0.  0.
        5    1    3    3  502    0 -0.14432437401E+03 -0.49540291219E+03  0.51601225388E+03  0.72975633364E+03  0.46999998093E+01 0. -1.
       -5    1    3    3    0  502  0.14432437401E+03  0.49540291219E+03  0.75891725878E+02  0.52156995158E+03  0.46999998093E+01 0.  1.
</event>
<event>
 5   0  0.3215352E-03  0.1114647E+04  0.7818609E-02  0.9191032E-01
        1   -1    0    0  501    0  0.00000000000E+00  0.00000000000E+00  0.11048970704E+04  0.11048970704E+04  0.50400001928E-02 0.  1.
       -1   -1    0    0    0  501  0.00000000000E+00  0.00000000000E+00 -0.28112070170E+03  0.28112070174E+03  0.50400001928E-02 0. -1.
    10030    2    1    2    0    0  0.00000000000E+00  0.00000000000E+00  0.82377636873E+03  0.13860177722E+04  0.11146469213E+04 0.  0.
        1    1    3    3  502    0  0.26741333855E+03 -0.10211644865E+03 -0.18272941825E+03  0.33959932721E+03  0.50400001928E-02 0. -1.
       -1    1    3    3    0  502 -0.26741333855E+03  0.10211644865E+03  0.10065057870E+04  0.10464184450E+04  0.50400001928E-02 0.  1.
</event>
<event>
 5   0  0.5500363E-03  0.1114277E+04  0.7818609E-02  0.9191387E-01
       -2   -1    0    0    0  501  0.00000000000E+00  0.00000000000E+00  0.12879500081E+04  0.12879500081E+04  0.25500000920E-02 0.  1.
        2   -1    0    0  501    0  0.00000000000E+00  0.00000000000E+00 -0.24100585723E+03  0.24100585724E+03  0.25500000920E-02 0. -1.
    10030    2    1    2    0    0  0.00000000000E+00  0.00000000000E+00  0.10469441509E+04  0.15289558654E+04  0.11142773367E+04 0.  0.
        3    1    3    3  502    0 -0.13236762220E+03 -0.53854588611E+03  0.59673290450E+03  0.81464288395E+03  0.10100000352E+00 0.  1.
       -3    1    3    3    0  502  0.13236762220E+03  0.53854588611E+03  0.45021124640E+03  0.71431298143E+03  0.10100000352E+00 0. -1.
</event>
<event>
 5   0  0.3215352E-03  0.1097162E+04  0.7818609E-02  0.9207963E-01
       -1   -1    0    0    0  501  0.00000000000E+00  0.00000000000E+00  0.10934137332E+04  0.10934137332E+04  0.50400001928E-02 0.  1.
        1   -1    0    0  501    0  0.00000000000E+00  0.00000000000E+00 -0.27523067304E+03  0.27523067308E+03  0.50400001928E-02 0. -1.
    10030    2    1    2    0    0  0.00000000000E+00  0.00000000000E+00  0.81818306014E+03  0.13686444063E+04  0.10971617889E+04 0.  0.
        1    1    3    3  502    0 -0.47356999467E+03  0.23045923843E+03  0.60056860629E+03  0.79878823935E+03  0.50400001928E-02 0.  1.
       -1    1    3    3    0  502  0.47356999467E+03 -0.23045923843E+03  0.21761445385E+03  0.56985616692E+03  0.50400001928E-02 0. -1.
</event>
<event>
 5   0  0.3215352E-03  0.1101965E+04  0.7818609E-02  0.9203278E-01
        1   -1    0    0  501    0  0.00000000000E+00  0.00000000000E+00  0.64108382701E+03  0.64108382703E+03  0.50400001928E-02 0. -1.
       -1   -1    0    0    0  501  0.00000000000E+00  0.00000000000E+00 -0.47354487225E+03  0.47354487228E+03  0.50400001928E-02 0.  1.
    10030    2    1    2    0    0  0.00000000000E+00  0.00000000000E+00  0.16753895476E+03  0.11146286993E+04  0.11019654423E+04 0.  0.
        1    1    3    3  502    0 -0.24324336437E+03 -0.97230482768E+02  0.57406734608E+03  0.63101063299E+03  0.50400001928E-02 0. -1.
       -1    1    3    3    0  502  0.24324336437E+03  0.97230482768E+02 -0.40652839132E+03  0.48361806631E+03  0.50400001928E-02 0.  1.
</event>
<event>
 5   0  0.3320192E-03  0.1093561E+04  0.7818609E-02  0.9211491E-01
        1   -1    0    0  501    0  0.00000000000E+00  0.00000000000E+00  0.14266728477E+04  0.14266728477E+04  0.50400001928E-02 0. -1.
       -1   -1    0    0    0  501  0.00000000000E+00  0.00000000000E+00 -0.20955656209E+03  0.20955656216E+03  0.50400001928E-02 0.  1.
    10030    2    1    2    0    0  0.00000000000E+00  0.00000000000E+00  0.12171162856E+04  0.16362294098E+04  0.10935605283E+04 0.  0.
        2    1    3    3  502    0  0.29261633728E+03  0.91902576950E+02 -0.68725357860E+02  0.31431445928E+03  0.25500000920E-02 0.  1.
       -2    1    3    3    0  502 -0.29261633728E+03 -0.91902576950E+02  0.12858416434E+04  0.13219149505E+04  0.25500000920E-02 0. -1.
</event>
<event>
 5   0  0.5723194E-03  0.1090944E+04  0.7818609E-02  0.9214064E-01
       -2   -1    0    0    0  501  0.00000000000E+00  0.00000000000E+00  0.16913098059E+03  0.16913098061E+03  0.25500000920E-02 0.  1.
        2   -1    0    0  501    0  0.00000000000E+00  0.00000000000E+00 -0.17592249257E+04  0.17592249257E+04  0.25500000920E-02 0. -1.
    10030    2    1    2    0    0  0.00000000000E+00  0.00000000000E+00 -0.15900939451E+04  0.19283559063E+04  0.10909435123E+04 0.  0.
        1    1    3    3  502    0  0.34581464404E+03 -0.70914574176E+02 -0.15300870983E+04  0.15702812401E+04  0.50400001928E-02 0. -1.
       -1    1    3    3    0  502 -0.34581464404E+03  0.70914574176E+02 -0.60006846872E+02  0.35807466618E+03  0.50400001928E-02 0.  1.
</event>
<event>
 5   0  0.2185750E-03  0.1107894E+04  0.7818609E-02  0.9197532E-01
       -3   -1    0    0    0  501  0.00000000000E+00  0.00000000000E+00  0.80641396919E+03  0.80641397551E+03  0.10100000352E+00 0. -1.
        3   -1    0    0  501    0  0.00000000000E+00  0.00000000000E+00 -0.38052072560E+03  0.38052073901E+03  0.10100000352E+00 0.  1.
    10030    2    1    2    0    0  0.00000000000E+00  0.00000000000E+00  0.42589324358E+03  0.11869347145E+04  0.11078939307E+04 0.  0.
        2    1    3    3  502    0  0.35476039607E+01 -0.26330490807E+03  0.73507143711E+03  0.78081500868E+03  0.25500000920E-02 0. -1.
       -2    1    3    3    0  502 -0.35476039607E+01  0.26330490807E+03 -0.30917819353E+03  0.40611970584E+03  0.25500000920E-02 0.  1.
</event>
<event>
 5   0  0.5500363E-03  0.1112736E+04  0.7818609E-02  0.9192867E-01
       -2   -1    0    0    0  501  0.00000000000E+00  0.00000000000E+00  0.53963852754E+03  0.53963852755E+03  0.25500000920E-02 0.  1.
        2   -1    0    0  501    0  0.00000000000E+00  0.00000000000E+00 -0.57361601226E+03  0.57361601226E+03  0.25500000920E-02 0. -1.
    10030    2    1    2    0    0  0.00000000000E+00  0.00000000000E+00 -0.33977484716E+02  0.11132545398E+04  0.11127359080E+04 0.  0.
        3    1    3    3  502    0  0.25989422773E+03 -0.43804603914E+03  0.20698151392E+03  0.54979150532E+03  0.10100000352E+00 0.  1.
       -3    1    3    3    0  502 -0.25989422773E+03  0.43804603914E+03 -0.24095899864E+03  0.56346303449E+03  0.10100000352E+00 0. -1.
</event>
<event>
 5   0  0.5627232E-03  0.1099738E+04  0.7818609E-02  0.9205448E-01
       -2   -1    0    0    0  501  0.00000000000E+00  0.00000000000E+00  0.43612033689E+03  0.43612033689E+03  0.25500000920E-02 0. -1.
        2   -1    0    0  501    0  0.00000000000E+00  0.00000000000E+00 -0.69328503316E+03  0.69328503317E+03  0.25500000920E-02 0.  1.
    10030    2    1    2    0    0  0.00000000000E+00  0.00000000000E+00 -0.25716469628E+03  0.11294053701E+04  0.10997376091E+04 0.  0.
        2    1    3    3  502    0  0.63369446045E+02  0.25451200285E+03 -0.62490420763E+03  0.67771477408E+03  0.25500000920E-02 0.  1.
       -2    1    3    3    0  502 -0.63369446045E+02 -0.25451200285E+03  0.36773951135E+03  0.45169059598E+03  0.25500000920E-02 0. -1.
</event>
<event>
 5   0  0.5723194E-03  0.1104188E+04  0.7818609E-02  0.9201120E-01
       -2   -1    0    0    0  501  0.00000000000E+00  0.00000000000E+00  0.20597337151E+03  0.20597337152E+03  0.25500000920E-02 0.  1.
        2   -1    0    0  501    0  0.00000000000E+00  0.00000000000E+00 -0.14798398803E+04  0.14798398803E+04  0.25500000920E-02 0. -1.
    10030    2    1    2    0    0  0.00000000000E+00  0.00000000000E+00 -0.12738665088E+04  0.16858132518E+04  0.11041876823E+04 0.  0.
        1    1    3    3  502    0 -0.36552819013E+03 -0.41373662672E+03 -0.64354519917E+03  0.84790287030E+03  0.50400001928E-02 0. -1.
       -1    1    3    3    0  502  0.36552819013E+03  0.41373662672E+03 -0.63032130959E+03  0.83791038149E+03  0.50400001928E-02 0.  1.
</event>
<event>
 5   0  0.5500363E-03  0.1096672E+04  0.7818609E-02  0.9208442E-01
       -2   -1    0    0    0  501  0.00000000000E+00  0.00000000000E+00  0.26943407953E+03  0.26943407954E+03  0.25500000920E-02 0. -1.
        2   -1    0    0  501    0  0.00000000000E+00  0.00000000000E+00 -0.11159404363E+04  0.11159404363E+04  0.25500000920E-02 0.  1.
    10030    2    1    2    0    0  0.00000000000E+00  0.00000000000E+00 -0.84650635678E+03  0.13853745159E+04  0.10966720281E+04 0.  0.
        3    1    3    3  502    0 -0.44198694202E+03  0.31914279578E+03 -0.49764359913E+03  0.73814208861E+03  0.10100000352E+00 0.  1.
       -3    1    3    3    0  502  0.44198694202E+03 -0.31914279578E+03 -0.34886275764E+03  0.64723242725E+03  0.10100000352E+00 0. -1.
</event>
<event>
 5   0  0.3215352E-03  0.1079340E+04  0.7818609E-02  0.9225565E-01
        1   -1    0    0  501    0  0.00000000000E+00  0.00000000000E+00  0.17493608559E+04  0.17493608559E+04  0.50400001928E-02 0.  1.
       -1   -1    0    0    0  501  0.00000000000E+00  0.00000000000E+00 -0.16648591803E+03  0.16648591811E+03  0.50400001928E-02 0. -1.
    10030    2    1    2    0    0  0.00000000000E+00  0.00000000000E+00  0.15828749378E+04  0.19158467740E+04  0.10793404433E+04 0.  0.
        1    1    3    3  502    0 -0.17295542660E+03  0.56047919092E+02 -0.11048911675E+03  0.21275054352E+03  0.50400001928E-02 0. -1.
       -1    1    3    3    0  502  0.17295542660E+03 -0.56047919092E+02  0.16933640546E+04  0.17030962305E+04  0.50400001928E-02 0.  1.
</event>
<event>
 5   0  0.2185750E-03  0.1231651E+04  0.7818609E-02  0.9085595E-01
       -3   -1    0    0    0  501  0.00000000000E+00  0.00000000000E+00  0.42138251572E+03  0.42138252782E+03  0.10100000352E+00 0.  1.
        3   -1    0    0  501    0  0.00000000000E+00  0.00000000000E+00 -0.89999182187E+03  0.89999182754E+03  0.10100000352E+00 0. -1.
    10030    2    1    2    0    0  0.00000000000E+00  0.00000000000E+00 -0.47860930615E+03  0.13213743554E+04  0.12316506481E+04 0.  0.
        2    1    3    3  502    0 -0.58618242679E+03 -0.18737644712E+03 -0.26379426650E+03  0.66955745493E+03  0.25500000920E-02 0. -1.
       -2    1    3    3    0  502  0.58618242679E+03  0.18737644712E+03 -0.21481503965E+03  0.65181690043E+03  0.25500000920E-02 0.  1.
</event>
<event>
 5   0  0.2185750E-03  0.1106607E+04  0.7818609E-02  0.9198776E-01
       -3   -1    0    0    0  501  0.00000000000E+00  0.00000000000E+00  0.10010335344E+04  0.10010335395E+04  0.10100000352E+00 0.  1.
        3   -1    0    0  501    0  0.00000000000E+00  0.00000000000E+00 -0.30582854175E+03  0.30582855843E+03  0.10100000352E+00 0. -1.
    10030    2    1    2    0    0  0.00000000000E+00  0.00000000000E+00  0.69520499264E+03  0.13068620979E+04  0.11066067780E+04 0.  0.
        1    1    3    3  502    0  0.86437823635E+02  0.46566474947E+03  0.68542715213E+03  0.83314196699E+03  0.50400001928E-02 0.  1.
       -1    1    3    3    0  502 -0.86437823635E+02 -0.46566474947E+03  0.97778405064E+01  0.47372013093E+03  0.50400001928E-02 0. -1.
</event>
<event>
 5   0  0.5946359E-03  0.1101231E+04  0.7818609E-02  0.9203993E-01
        2   -1    0    0  501    0  0.00000000000E+00  0.00000000000E+00  0.43668727016E+03  0.43668727017E+03  0.25500000920E-02 0.  1.
       -2   -1    0    0    0  501  0.00000000000E+00  0.00000000000E+00 -0.69426609502E+03  0.69426609502E+03  0.25500000920E-02 0. -1.
    10030    2    1    2    0    0  0.00000000000E+00  0.00000000000E+00 -0.25757882486E+03  0.11309533652E+04  0.11012305223E+04 0.  0.
        4    1    3    3  502    0 -0.61761707246E+02  0.23822470326E+03  0.37705951975E+03  0.45026771155E+03  0.12699999809E+01 0.  1.
       -4    1    3    3    0  502  0.61761707246E+02 -0.23822470326E+03 -0.63463834461E+03  0.68068565364E+03  0.12699999809E+01 0. -1.
</event>
<event>
 5   0  0.5627232E-03  0.1115165E+04  0.7818609E-02  0.9190536E-01
       -2   -1    0    0    0  501  0.00000000000E+00  0.00000000000E+00  0.27741099400E+03  0.27741099401E+03  0.25500000920E-02 0.  1.
        2   -1    0    0  501    0  0.00000000000E+00  0.00000000000E+00 -0.11207136941E+04  0.11207136941E+04  0.25500000920E-02 0. -1.
    10030    2    1    2    0    0  0.00000000000E+00  0.00000000000E+00 -0.84330270014E+03  0.13981246881E+04  0.11151650997E+04 0.  0.
        2    1    3    3  502    0 -0.32279457862E+03  0.42767453588E+03 -0.22824851625E+03  0.58240813336E+03  0.25500000920E-02 0.  1.
       -2    1    3    3    0  502  0.32279457862E+03 -0.42767453588E+03 -0.61505418389E+03  0.81571655479E+03  0.25500000920E-02 0. -1.
</event>
<event>
 5   0  0.3320192E-03  0.1109993E+04  0.7818609E-02  0.9195507E-01
        1   -1    0    0  501    0  0.00000000000E+00  0.00000000000E+00  0.16336731135E+04  0.16336731135E+04  0.50400001928E-02 0.  1.
       -1   -1    0    0    0  501  0.00000000000E+00  0.00000000000E+00 -0.18854499351E+03  0.18854499358E+03  0.50400001928E-02 0. -1.
    10030    2    1    2    0    0  0.00000000000E+00  0.00000000000E+00  0.14451281199E+04  0.18222181070E+04  0.11099925885E+04 0.  0.
        2    1    3    3  502    0  0.39749391996E+03 -0.84324131783E+02  0.10196668566E+03  0.41893815844E+03  0.25500000920E-02 0. -1.
       -2    1    3    3    0  502 -0.39749391996E+03  0.84324131783E+02  0.13431614343E+04  0.14032799486E+04  0.25500000920E-02 0.  1.
</event>
<event>
 5   0  0.2185750E-03  0.9142104E+03  0.7818609E-02  0.9407990E-01
        4   -1    0    0  501    0  0.00000000000E+00  0.00000000000E+00  0.18257188511E+03  0.18257630222E+03  0.12699999809E+01 0.  1.
       -4   -1    0    0    0  501  0.00000000000E+00  0.00000000000E+00 -0.11444354837E+04  0.11444361884E+04  0.12699999809E+01 0. -1.
    10030    2    1    2    0    0  0.00000000000E+00  0.00000000000E+00 -0.96186359863E+03  0.13270124906E+04  0.91421035211E+03 0.  0.
        5    1    3    3  502    0  0.80650050209E+02  0.17435001331E+03  0.12109971265E+03  0.22713341485E+03  0.46999998093E+01 0.  1.
       -5    1    3    3    0  502 -0.80650050209E+02 -0.17435001331E+03 -0.10829633113E+04  0.10998790758E+04  0.46999998093E+01 0. -1.
</event>
<event>
 5   0  0.5723194E-03  0.9986581E+03  0.7818609E-02  0.9310018E-01
       -2   -1    0    0    0  501  0.00000000000E+00  0.00000000000E+00  0.39125311338E+03  0.39125311339E+03  0.25500000920E-02 0. -1.
        2   -1    0    0  501    0  0.00000000000E+00  0.00000000000E+00 -0.63725882623E+03  0.63725882624E+03  0.25500000920E-02 0.  1.
    10030    2    1    2    0    0  0.00000000000E+00  0.00000000000E+00 -0.24600571286E+03  0.10285119396E+04  0.99865809925E+03 0.  0.
        1    1    3    3  502    0  0.26974574013E+03  0.95147629732E+02 -0.54452231536E+03  0.61507754609E+03  0.50400001928E-02 0.  1.
       -1    1    3    3    0  502 -0.26974574013E+03 -0.95147629732E+02  0.29851660250E+03  0.41343439353E+03  0.50400001928E-02 0. -1.
</event>
<event>
 5   0  0.3215352E-03  0.1104326E+04  0.7818609E-02  0.9200986E-01
        1   -1    0    0  501    0  0.00000000000E+00  0.00000000000E+00  0.51056617625E+03  0.51056617627E+03  0.50400001928E-02 0.  1.
       -1   -1    0    0    0  501  0.00000000000E+00  0.00000000000E+00 -0.59714876025E+03  0.59714876028E+03  0.50400001928E-02 0. -1.
    10030    2    1    2    0    0  0.00000000000E+00  0.00000000000E+00 -0.86582584007E+02  0.11077149365E+04  0.11043259649E+04 0.  0.
        1    1    3    3  502    0  0.40691201870E+03 -0.36655686520E+03 -0.11381090188E+03  0.55936950918E+03  0.50400001928E-02 0. -1.
       -1    1    3    3    0  502 -0.40691201870E+03  0.36655686520E+03  0.27228317876E+02  0.54834542736E+03  0.50400001928E-02 0.  1.
</event>
<event>
 5   0  0.3241189E-03  0.1109152E+04  0.7818609E-02  0.9196318E-01
        1   -1    0    0  501    0  0.00000000000E+00  0.00000000000E+00  0.10354562836E+04  0.10354562836E+04  0.50400001928E-02 0. -1.
       -1   -1    0    0    0  501  0.00000000000E+00  0.00000000000E+00 -0.29702303373E+03  0.29702303377E+03  0.50400001928E-02 0.  1.
    10030    2    1    2    0    0  0.00000000000E+00  0.00000000000E+00  0.73843324990E+03  0.13324793174E+04  0.11091516879E+04 0.  0.
        5    1    3    3  502    0  0.26090154015E+03 -0.44690359825E+03  0.12972927823E+03  0.53352058574E+03  0.46999998093E+01 0.  1.
       -5    1    3    3    0  502 -0.26090154015E+03  0.44690359825E+03  0.60870397168E+03  0.79895873167E+03  0.46999998093E+01 0. -1.
</event>
<event>
 5   0  0.3215352E-03  0.1097672E+04  0.7818609E-02  0.9207464E-01
       -1   -1    0    0    0  501  0.00000000000E+00  0.00000000000E+00  0.75041842620E+03  0.75041842622E+03  0.50400001928E-02 0.  1.
        1   -1    0    0  501    0  0.00000000000E+00  0.00000000000E+00 -0.40140369118E+03  0.40140369121E+03  0.50400001928E-02 0. -1.
    10030    2    1    2    0    0  0.00000000000E+00  0.00000000000E+00  0.34901473503E+03  0.11518221174E+04  0.10976715834E+04 0.  0.
        1    1    3    3  502    0 -0.41088197294E+03 -0.32456970061E+03  0.19209631545E+01  0.52361548523E+03  0.50400001928E-02 0.  1.
       -1    1    3    3    0  502  0.41088197294E+03  0.32456970061E+03  0.34709377187E+03  0.62820663220E+03  0.50400001928E-02 0. -1.
</event>
<event>
 5   0  0.3328741E-03  0.1105686E+04  0.7818609E-02  0.9199667E-01
       -1   -1    0    0    0  501  0.00000000000E+00  0.00000000000E+00  0.33947998819E+03  0.33947998823E+03  0.50400001928E-02 0.  1.
        1   -1    0    0  501    0  0.00000000000E+00  0.00000000000E+00 -0.90030497077E+03  0.90030497078E+03  0.50400001928E-02 0. -1.
    10030    2    1    2    0    0  0.00000000000E+00  0.00000000000E+00 -0.56082498257E+03  0.12397849590E+04  0.11056862500E+04 0.  0.
        3    1    3    3  502    0 -0.25738767376E+03 -0.32474041972E+02 -0.82781416177E+03  0.86751327058E+03  0.10100000352E+00 0. -1.
       -3    1    3    3    0  502  0.25738767376E+03  0.32474041972E+02  0.26698917919E+03  0.37227168843E+03  0.10100000352E+00 0.  1.
</event>
<event>
 5   0  0.5500363E-03  0.1094115E+04  0.7818609E-02  0.9210947E-01
        2   -1    0    0  501    0  0.00000000000E+00  0.00000000000E+00  0.88363856748E+03  0.88363856749E+03  0.25500000920E-02 0. -1.
       -2   -1    0    0    0  501  0.00000000000E+00  0.00000000000E+00 -0.33868128230E+03  0.33868128231E+03  0.25500000920E-02 0.  1.
    10030    2    1    2    0    0  0.00000000000E+00  0.00000000000E+00  0.54495728518E+03  0.12223198498E+04  0.10941148809E+04 0.  0.
        3    1    3    3  502    0 -0.52310158575E+03 -0.15351265176E+03  0.22164488881E+03  0.58849627883E+03  0.10100000352E+00 0.  1.
       -3    1    3    3    0  502  0.52310158575E+03  0.15351265176E+03  0.32331239637E+03  0.63382357096E+03  0.10100000352E+00 0. -1.
</event>
<event>
 5   0  0.5723194E-03  0.1120715E+04  0.7818609E-02  0.9185234E-01
        2   -1    0    0  501    0  0.00000000000E+00  0.00000000000E+00  0.15698939888E+04  0.15698939888E+04  0.25500000920E-02 0.  1.
       -2   -1    0    0    0  501  0.00000000000E+00  0.00000000000E+00 -0.20001383295E+03  0.20001383297E+03  0.25500000920E-02 0. -1.
    10030    2    1    2    0    0  0.00000000000E+00  0.00000000000E+00  0.13698801559E+04  0.17699078218E+04  0.11207149754E+04 0.  0.
        1    1    3    3  502    0 -0.44449013481E+03  0.33208394747E+03  0.56109811814E+03  0.78910222806E+03  0.50400001928E-02 0. -1.
       -1    1    3    3    0  502  0.44449013481E+03 -0.33208394747E+03  0.80878203772E+03  0.98080559372E+03  0.50400001928E-02 0.  1.
</event>
<event>
 5   0  0.2185750E-03  0.1117587E+04  0.7818609E-02  0.9188218E-01
       -3   -1    0    0    0  501  0.00000000000E+00  0.00000000000E+00  0.24069824178E+03  0.24069826297E+03  0.10100000352E+00 0.  1.
        3   -1    0    0  501    0  0.00000000000E+00  0.00000000000E+00 -0.12972688713E+04  0.12972688752E+04  0.10100000352E+00 0. -1.
    10030    2    1    2    0    0  0.00000000000E+00  0.00000000000E+00 -0.10565706295E+04  0.15379671382E+04  0.11175873223E+04 0.  0.
        4    1    3    3  502    0 -0.10100508867E+03 -0.35960255656E+03  0.43657871649E+02  0.37606335807E+03  0.12699999809E+01 0.  1.
       -4    1    3    3    0  502  0.10100508867E+03  0.35960255656E+03 -0.11002285011E+04  0.11619037801E+04  0.12699999809E+01 0. -1.
</event>
<event>
 5   0  0.5946359E-03  0.1089787E+04  0.7818609E-02  0.9215204E-01
        2   -1    0    0  501    0  0.00000000000E+00  0.00000000000E+00  0.67399643042E+03  0.67399643042E+03  0.25500000920E-02 0. -1.
       -2   -1    0    0    0  501  0.00000000000E+00  0.00000000000E+00 -0.44051983665E+03  0.44051983666E+03  0.25500000920E-02 0.  1.
    10030    2    1    2    0    0  0.00000000000E+00  0.00000000000E+00  0.23347659376E+03  0.11145162671E+04  0.10897867634E+04 0.  0.
        4    1    3    3  502    0 -0.12858702893E+03  0.40656994549E+03  0.46366076781E+03  0.62993385771E+03  0.12699999809E+01 0. -1.
       -4    1    3    3    0  502  0.12858702893E+03 -0.40656994549E+03 -0.23018417405E+03  0.48458240937E+03  0.12699999809E+01 0.  1.
</event>
<event>
 5   0  0.3320192E-03  0.1119757E+04  0.7818609E-02  0.9186147E-01
       -1   -1    0    0    0  501  0.00000000000E+00  0.00000000000E+00  0.49851402060E+03  0.49851402063E+03  0.50400001928E-02 0.  1.
        1   -1    0    0  501    0  0.00000000000E+00  0.00000000000E+00 -0.62879610331E+03  0.62879610333E+03  0.50400001928E-02 0. -1.
    10030    2    1    2    0    0  0.00000000000E+00  0.00000000000E+00 -0.13028208270E+03  0.11273101240E+04  0.11197565336E+04 0.  0.
        2    1    3    3  502    0  0.26247514427E+02 -0.55455154584E+03 -0.13806811177E+03  0.57208316922E+03  0.25500000920E-02 0. -1.
       -2    1    3    3    0  502 -0.26247514427E+02  0.55455154584E+03  0.77860290645E+01  0.55522695474E+03  0.25500000920E-02 0.  1.
</event>
<event>
 5   0  0.5941585E-03  0.9440453E+03  0.7818609E-02  0.9372138E-01
        2   -1    0    0  501    0  0.00000000000E+00  0.00000000000E+00  0.14146610722E+04  0.14146610722E+04  0.25500000920E-02 0.  1.
       -2   -1    0    0    0  501  0.00000000000E+00  0.00000000000E+00 -0.15749734723E+03  0.15749734725E+03  0.25500000920E-02 0. -1.
    10030    2    1    2    0    0  0.00000000000E+00  0.00000000000E+00  0.12571637250E+04  0.15721584194E+04  0.94404526611E+03 0.  0.
        5    1    3    3  502    0  0.41621132355E+03 -0.21326743978E+03  0.73480418948E+03  0.87101903171E+03  0.46999998093E+01 0.  1.
       -5    1    3    3    0  502 -0.41621132355E+03  0.21326743978E+03  0.52235953549E+03  0.70113938774E+03  0.46999998093E+01 0. -1.
</event>
<event>
 5   0  0.5941585E-03  0.1073878E+04  0.7818609E-02  0.9231032E-01
       -2   -1    0    0    0  501  0.00000000000E+00  0.00000000000E+00  0.16195717790E+04  0.16195717790E+04  0.25500000920E-02 0. -1.
        2   -1    0    0  501    0  0.00000000000E+00  0.00000000000E+00 -0.17801231369E+03  0.17801231371E+03  0.25500000920E-02 0.  1.
    10030    2    1    2    0    0  0.00000000000E+00  0.00000000000E+00  0.14415594654E+04  0.17975840928E+04  0.10738784281E+04 0.  0.
        5    1    3    3  502    0 -0.25955350028E+03  0.32936486169E+03  0.15949938737E+03  0.44867736314E+03  0.46999998093E+01 0.  1.
       -5    1    3    3    0  502  0.25955350028E+03 -0.32936486169E+03  0.12820600780E+04  0.13489067296E+04  0.46999998093E+01 0. -1.
</event>
<event>
 5   0  0.5500363E-03  0.1041807E+04  0.7818609E-02  0.9263843E-01
       -2   -1    0    0    0  501  0.00000000000E+00  0.00000000000E+00  0.24034075789E+03  0.24034075790E+03  0.25500000920E-02 0. -1.
        2   -1    0    0  501    0  0.00000000000E+00  0.00000000000E+00 -0.11289830688E+04  0.11289830688E+04  0.25500000920E-02 0.  1.
    10030    2    1    2    0    0  0.00000000000E+00  0.00000000000E+00 -0.88864231087E+03  0.13693238267E+04  0.10418073649E+04 0.  0.
        3    1    3    3  502    0  0.42953592845E+03  0.25828019518E+03 -0.63080874689E+03  0.80568570697E+03  0.10100000352E+00 0.  1.
       -3    1    3    3    0  502 -0.42953592845E+03 -0.25828019518E+03 -0.25783356398E+03  0.56363811969E+03  0.10100000352E+00 0. -1.
</event>
<event>
 5   0  0.5941585E-03  0.1118101E+04  0.7818609E-02  0.9187726E-01
       -2   -1    0    0    0  501  0.00000000000E+00  0.00000000000E+00  0.31408731322E+03  0.31408731323E+03  0.25500000920E-02 0.  1.
        2   -1    0    0  501    0  0.00000000000E+00  0.00000000000E+00 -0.99506623106E+03  0.99506623106E+03  0.25500000920E-02 0. -1.
    10030    2    1    2    0    0  0.00000000000E+00  0.00000000000E+00 -0.68097891784E+03  0.13091535443E+04  0.11181013890E+04 0.  0.
        5    1    3    3  502    0 -0.79082992478E+02  0.50413463826E+03 -0.73207999157E+02  0.51554568598E+03  0.46999998093E+01 0.  1.
       -5    1    3    3    0  502  0.79082992478E+02 -0.50413463826E+03 -0.60777091868E+03  0.79360785832E+03  0.46999998093E+01 0. -1.
</event>
<event>
 5   0  0.5627232E-03  0.9465249E+03  0.7818609E-02  0.9369222E-01
        2   -1    0    0  501    0  0.00000000000E+00  0.00000000000E+00  0.13973528903E+04  0.13973528903E+04  0.25500000920E-02 0.  1.
       -2   -1    0    0    0  501  0.00000000000E+00  0.00000000000E+00 -0.16028689964E+03  0.16028689966E+03  0.25500000920E-02 0. -1.
    10030    2    1    2    0    0  0.00000000000E+00  0.00000000000E+00  0.12370659907E+04  0.15576397900E+04  0.94652493365E+03 0.  0.
        2    1    3    3  502    0  0.29007578285E+02 -0.45598623334E+03  0.82150444528E+03  0.94001831802E+03  0.25500000920E-02 0.  1.
       -2    1    3    3    0  502 -0.29007578285E+02  0.45598623334E+03  0.41556154540E+03  0.61762147195E+03  0.25500000920E-02 0. -1.
</event>
<event>
 5   0  0.5941585E-03  0.1111016E+04  0.7818609E-02  0.9194521E-01
        2   -1    0    0  501    0  0.00000000000E+00  0.00000000000E+00  0.22173943949E+03  0.22173943950E+03  0.25500000920E-02 0.  1.
       -2   -1    0    0    0  501  0.00000000000E+00  0.00000000000E+00 -0.13916738481E+04  0.13916738481E+04  0.25500000920E-02 0. -1.
    10030    2    1    2    0    0  0.00000000000E+00  0.00000000000E+00 -0.11699344086E+04  0.16134132876E+04  0.11110157137E+04 0.  0.
        5    1    3    3  502    0  0.14136784239E+03 -0.45500441244E+01  0.19512239086E+03  0.24104026049E+03  0.46999998093E+01 0.  1.
       -5    1    3    3    0  502 -0.14136784239E+03  0.45500441244E+01 -0.13650567994E+04  0.13723730271E+04  0.46999998093E+01 0. -1.
</event>
<event>
 5   0  0.5627232E-03  0.1108612E+04  0.7818609E-02  0.9196838E-01
       -2   -1    0    0    0  501  0.00000000000E+00  0.00000000000E+00  0.17757205883E+03  0.17757205885E+03  0.25500000920E-02 0. -1.
        2   -1    0    0  501    0  0.00000000000E+00  0.00000000000E+00 -0.17303132700E+04  0.17303132700E+04  0.25500000920E-02 0.  1.
    10030    2    1    2    0    0  0.00000000000E+00  0.00000000000E+00 -0.15527412111E+04  0.19078853288E+04  0.11086122673E+04 0.  0.
        2    1    3    3  502    0  0.17798936947E+03  0.20882394255E+03  0.52499136463E+02  0.27936322944E+03  0.25500000920E-02 0. -1.
       -2    1    3    3    0  502 -0.17798936947E+03 -0.20882394255E+03 -0.16052403476E+04  0.16285220994E+04  0.25500000920E-02 0.  1.
</event>
<event>
 5   0  0.5946359E-03  0.1132579E+04  0.7818609E-02  0.9174007E-01
       -2   -1    0    0    0  501  0.00000000000E+00  0.00000000000E+00  0.74745629027E+03  0.74745629028E+03  0.25500000920E-02 0.  1.
        2   -1    0    0  501    0  0.00000000000E+00  0.00000000000E+00 -0.42903366190E+03  0.42903366190E+03  0.25500000920E-02 0. -1.
    10030    2    1    2    0    0  0.00000000000E+00  0.00000000000E+00  0.31842262837E+03  0.11764899522E+04  0.11325791969E+04 0.  0.
        4    1    3    3  502    0 -0.18157088993E+03 -0.53614754415E+03  0.17596482747E+03  0.59277939453E+03  0.12699999809E+01 0. -1.
       -4    1    3    3    0  502  0.18157088993E+03  0.53614754415E+03  0.14245780091E+03  0.58371055765E+03  0.12699999809E+01 0.  1.
</event>
<event>
 5   0  0.5723194E-03  0.1113762E+04  0.7818609E-02  0.9191882E-01
        2   -1    0    0  501    0  0.00000000000E+00  0.00000000000E+00  0.19279056806E+04  0.19279056806E+04  0.25500000920E-02 0.  1.
       -2   -1    0    0    0  501  0.00000000000E+00  0.00000000000E+00 -0.16085651347E+03  0.16085651349E+03  0.25500000920E-02 0. -1.
    10030    2    1    2    0    0  0.00000000000E+00  0.00000000000E+00  0.17670491671E+04  0.20887621941E+04  0.11137615294E+04 0.  0.
        1    1    3    3  502    0  0.23917348357E+03  0.45432670972E+03  0.47911559975E+03  0.70225954772E+03  0.50400001928E-02 0. -1.
       -1    1    3    3    0  502 -0.23917348357E+03 -0.45432670972E+03  0.12879335673E+04  0.13865026463E+04  0.50400001928E-02 0.  1.
</event>
<event>
 5   0  0.3215352E-03  0.1116331E+04  0.7818609E-02  0.9189419E-01
        1   -1    0    0  501    0  0.00000000000E+00  0.00000000000E+00  0.10533221473E+04  0.10533221473E+04  0.50400001928E-02 0. -1.
       -1   -1    0    0    0  501  0.00000000000E+00  0.00000000000E+00 -0.29577748147E+03  0.29577748152E+03  0.50400001928E-02 0.  1.
    10030    2    1    2    0    0  0.00000000000E+00  0.00000000000E+00  0.75754466585E+03  0.13490996289E+04  0.11163314417E+04 0.  0.
        1    1    3    3  502    0  0.80317057965E+02  0.55117614554E+03  0.33514859657E+03  0.65005427082E+03  0.50400001928E-02 0.  1.
       -1    1    3    3    0  502 -0.80317057965E+02 -0.55117614554E+03  0.42239606928E+03  0.69904535803E+03  0.50400001928E-02 0. -1.
</event>
<event>
 5   0  0.3241189E-03  0.1105803E+04  0.7818609E-02  0.9199554E-01
       -1   -1    0    0    0  501  0.00000000000E+00  0.00000000000E+00  0.60803869411E+03  0.60803869413E+03  0.50400001928E-02 0. -1.
        1   -1    0    0  501    0  0.00000000000E+00  0.00000000000E+00 -0.50276441698E+03  0.50276441701E+03  0.50400001928E-02 0.  1.
    10030    2    1    2    0    0  0.00000000000E+00  0.00000000000E+00  0.10527427713E+03  0.11108031111E+04  0.11058032729E+04 0.  0.
        5    1    3    3  502    0  0.28316542857E+01 -0.54714121465E+03  0.13241032635E+03  0.56296190951E+03  0.46999998093E+01 0. -1.
       -5    1    3    3    0  502 -0.28316542857E+01  0.54714121465E+03 -0.27136049217E+02  0.54784120163E+03  0.46999998093E+01 0.  1.
</event>
<event>
 5   0  0.3320192E-03  0.1089913E+04  0.7818609E-02  0.9215080E-01
       -1   -1    0    0    0  501  0.00000000000E+00  0.00000000000E+00  0.79768518811E+03  0.79768518812E+03  0.50400001928E-02 0. -1.
        1   -1    0    0  501    0  0.00000000000E+00  0.00000000000E+00 -0.37229915674E+03  0.37229915677E+03  0.50400001928E-02 0.  1.
    10030    2    1    2    0    0  0.00000000000E+00  0.00000000000E+00  0.42538603137E+03  0.11699843449E+04  0.10899128826E+04 0.  0.
        2    1    3    3  502    0 -0.17803266519E+03 -0.24361735241E+03  0.69982953438E+03  0.76210656832E+03  0.25500000920E-02 0. -1.
       -2    1    3    3    0  502  0.17803266519E+03  0.24361735241E+03 -0.27444350301E+03  0.40787777658E+03  0.25500000920E-02 0.  1.
</event>
<event>
 5   0  0.3241189E-03  0.1096497E+04  0.7818609E-02  0.9208613E-01
       -1   -1    0    0    0  501  0.00000000000E+00  0.00000000000E+00  0.41386043177E+03  0.41386043180E+03  0.50400001928E-02 0. -1.
        1   -1    0    0  501    0  0.00000000000E+00  0.00000000000E+00 -0.72627469227E+03  0.72627469229E+03  0.50400001928E-02 0.  1.
    10030    2    1    2    0    0  0.00000000000E+00  0.00000000000E+00 -0.31241426050E+03  0.11401351241E+04  0.10964968906E+04 0.  0.
        5    1    3    3  502    0  0.28188975405E+03  0.11679330228E+03  0.31738827619E+03  0.44029526089E+03  0.46999998093E+01 0. -1.
       -5    1    3    3    0  502 -0.28188975405E+03 -0.11679330228E+03 -0.62980253669E+03  0.69983986320E+03  0.46999998093E+01 0.  1.
</event>
<event>
 5   0  0.5500363E-03  0.1091563E+04  0.7818609E-02  0.9213455E-01
        2   -1    0    0  501    0  0.00000000000E+00  0.00000000000E+00  0.15698459356E+04  0.15698459356E+04  0.25500000920E-02 0. -1.
       -2   -1    0    0    0  501  0.00000000000E+00  0.00000000000E+00 -0.18974935942E+03  0.18974935943E+03  0.25500000920E-02 0.  1.
    10030    2    1    2    0    0  0.00000000000E+00  0.00000000000E+00  0.13800965762E+04  0.17595952951E+04  0.10915626609E+04 0.  0.
        3    1    3    3  502    0  0.58305154918E+02 -0.45421168877E+03  0.11687040736E+04  0.12552198896E+04  0.10100000352E+00 0. -1.
       -3    1    3    3    0  502 -0.58305154918E+02  0.45421168877E+03  0.21139250261E+03  0.50437540550E+03  0.10100000352E+00 0.  1.
</event>
<event>
 5   0  0.5946359E-03  0.1117801E+04  0.7818609E-02  0.9188013E-01
        2   -1    0    0  501    0  0.00000000000E+00  0.00000000000E+00  0.11859763322E+04  0.11859763323E+04  0.25500000920E-02 0.  1.
       -2   -1    0    0    0  501  0.00000000000E+00  0.00000000000E+00 -0.26338628681E+03  0.26338628682E+03  0.25500000920E-02 0. -1.
    10030    2    1    2    0    0  0.00000000000E+00  0.00000000000E+00  0.92259004544E+03  0.14493626191E+04  0.11178012389E+04 0.  0.
        4    1    3    3  502    0 -0.32972090714E+03  0.41547503069E+03  0.68970955582E+03  0.87007830798E+03  0.12699999809E+01 0.  1.
       -4    1    3    3    0  502  0.32972090714E+03 -0.41547503069E+03  0.23288048962E+03  0.57928431109E+03  0.12699999809E+01 0. -1.
</event>
<event>
 5   0  0.3316784E-03  0.1083576E+04  0.7818609E-02  0.9221349E-01
        1   -1    0    0  501    0  0.00000000000E+00  0.00000000000E+00  0.32038379403E+03  0.32038379407E+03  0.50400001928E-02 0. -1.
       -1   -1    0    0    0  501  0.00000000000E+00  0.00000000000E+00 -0.91619569720E+03  0.91619569721E+03  0.50400001928E-02 0.  1.
    10030    2    1    2    0    0  0.00000000000E+00  0.00000000000E+00 -0.59581190317E+03  0.12365794913E+04  0.10835760307E+04 0.  0.
        4    1    3    3  502    0  0.33705155261E+03  0.13950311609E+03 -0.75505367505E+03  0.83855383466E+03  0.12699999809E+01 0.  1.
       -4    1    3    3    0  502 -0.33705155261E+03 -0.13950311609E+03  0.15924177187E+03  0.39802565662E+03  0.12699999809E+01 0. -1.
</event>
<event>
 5   0  0.3320192E-03  0.1089257E+04  0.7818609E-02  0.9215726E-01
       -1   -1    0    0    0  501  0.00000000000E+00  0.00000000000E+00  0.55092049175E+03  0.55092049177E+03  0.50400001928E-02 0.  1.
        1   -1    0    0  501    0  0.00000000000E+00  0.00000000000E+00 -0.53840861838E+03  0.53840861840E+03  0.50400001928E-02 0. -1.
    10030    2    1    2    0    0  0.00000000000E+00  0.00000000000E+00  0.12511873369E+02  0.10893291102E+04  0.10892572530E+04 0.  0.
        2    1    3    3  502    0 -0.14115532923E+03 -0.23873940169E+03  0.47500746948E+03  0.55004856600E+03  0.25500000920E-02 0.  1.
       -2    1    3    3    0  502  0.14115532923E+03  0.23873940169E+03 -0.46249559611E+03  0.53928054417E+03  0.25500000920E-02 0. -1.
</event>
<event>
 5   0  0.3320192E-03  0.1093579E+04  0.7818609E-02  0.9211473E-01
        1   -1    0    0  501    0  0.00000000000E+00  0.00000000000E+00  0.12648494955E+04  0.12648494955E+04  0.50400001928E-02 0. -1.
       -1   -1    0    0    0  501  0.00000000000E+00  0.00000000000E+00 -0.23637478789E+03  0.23637478794E+03  0.50400001928E-02 0.  1.
    10030    2    1    2    0    0  0.00000000000E+00  0.00000000000E+00  0.10284747076E+04  0.15012242834E+04  0.10935785866E+04 0.  0.
        2    1    3    3  502    0 -0.38935589755E+03  0.27085588728E+03  0.88771369557E+03  0.10064772883E+04  0.25500000920E-02 0. -1.
       -2    1    3    3    0  502  0.38935589755E+03 -0.27085588728E+03  0.14076101200E+03  0.49474699508E+03  0.25500000920E-02 0.  1.
</event>
<event>
 5   0  0.5627232E-03  0.1124382E+04  0.7818609E-02  0.9181748E-01
       -2   -1    0    0    0  501  0.00000000000E+00  0.00000000000E+00  0.18433169414E+03  0.18433169416E+03  0.25500000920E-02 0. -1.
        2   -1    0    0  501    0  0.00000000000E+00  0.00000000000E+00 -0.17146198365E+04  0.17146198365E+04  0.25500000920E-02 0.  1.
    10030    2    1    2    0    0  0.00000000000E+00  0.00000000000E+00 -0.15302881424E+04  0.18989515307E+04  0.11243821046E+04 0.  0.
        2    1    3    3  502    0  0.15539736441E+03 -0.28196555410E+03 -0.15435089058E+04  0.15767284664E+04  0.25500000920E-02 0.  1.
       -2    1    3    3    0  502 -0.15539736441E+03  0.28196555410E+03  0.13220763392E+02  0.32222306428E+03  0.25500000920E-02 0. -1.
</event>
<event>
 5   0  0.3215352E-03  0.1077360E+04  0.7818609E-02  0.9227543E-01
       -1   -1    0    0    0  501  0.00000000000E+00  0.00000000000E+00  0.52491134515E+03  0.52491134518E+03  0.50400001928E-02 0.  1.
        1   -1    0    0  501    0  0.00000000000E+00  0.00000000000E+00 -0.55280996728E+03  0.55280996731E+03  0.50400001928E-02 0. -1.
    10030    2    1    2    0    0  0.00000000000E+00  0.00000000000E+00 -0.27898622129E+02  0.10777213125E+04  0.10773601507E+04 0.  0.
        1    1    3    3  502    0  0.36772360066E+03 -0.12305625026E+03 -0.38799007150E+03  0.54854332811E+03  0.50400001928E-02 0. -1.
       -1    1    3    3    0  502 -0.36772360066E+03  0.12305625026E+03  0.36009144937E+03  0.52917798437E+03  0.50400001928E-02 0.  1.
</event>
<event>
 5   0  0.3320192E-03  0.1092979E+04  0.7818609E-02  0.9212062E-01
       -1   -1    0    0    0  501  0.00000000000E+00  0.00000000000E+00  0.43462632091E+03  0.43462632094E+03  0.50400001928E-02 0.  1.
        1   -1    0    0  501    0  0.00000000000E+00  0.00000000000E+00 -0.68714339153E+03  0.68714339155E+03  0.50400001928E-02 0. -1.
    10030    2    1    2    0    0  0.00000000000E+00  0.00000000000E+00 -0.25251707062E+03  0.11217697125E+04  0.10929786901E+04 0.  0.
        2    1    3    3  502    0  0.94080193524E+02  0.18190698751E+03 -0.64626994813E+03  0.67794253501E+03  0.25500000920E-02 0. -1.
       -2    1    3    3    0  502 -0.94080193524E+02 -0.18190698751E+03  0.39375287751E+03  0.44382717748E+03  0.25500000920E-02 0.  1.
</event>
<event>
 5   0  0.3328741E-03  0.1090662E+04  0.7818609E-02  0.9214342E-01
       -1   -1    0    0    0  501  0.00000000000E+00  0.00000000000E+00  0.68095218277E+03  0.68095218278E+03  0.50400001928E-02 0.  1.
        1   -1    0    0  501    0  0.00000000000E+00  0.00000000000E+00 -0.43672058424E+03  0.43672058427E+03  0.50400001928E-02 0. -1.
    10030    2    1    2    0    0  0.00000000000E+00  0.00000000000E+00  0.24423159853E+03  0.11176727671E+04  0.10906618818E+04 0.  0.
        3    1    3    3  502    0  0.25673500432E+03  0.45664491449E+03 -0.33123113905E+02  0.52491388936E+03  0.10100000352E+00 0. -1.
       -3    1    3    3    0  502 -0.25673500432E+03 -0.45664491449E+03  0.27735471243E+03  0.59275887769E+03  0.10100000352E+00 0.  1.
</event>
<event>
 5   0  0.3316784E-03  0.1096155E+04  0.7818609E-02  0.9208948E-01
       -1   -1    0    0    0  501  0.00000000000E+00  0.00000000000E+00  0.21067256650E+03  0.21067256657E+03  0.50400001928E-02 0. -1.
        1   -1    0    0  501    0  0.00000000000E+00  0.00000000000E+00 -0.14258557762E+04  0.14258557762E+04  0.50400001928E-02 0.  1.
    10030    2    1    2    0    0  0.00000000000E+00  0.00000000000E+00 -0.12151832097E+04  0.16365283428E+04  0.10961545436E+04 0.  0.
        4    1    3    3  502    0 -0.27262671591E+03  0.23037295577E+03  0.13366521484E+02  0.35717964916E+03  0.12699999809E+01 0. -1.
       -4    1    3    3    0  502  0.27262671591E+03 -0.23037295577E+03 -0.12285497312E+04  0.12793486936E+04  0.12699999809E+01 0.  1.
</event>
<event>
 5   0  0.5946359E-03  0.1103886E+04  0.7818609E-02  0.9201413E-01
       -2   -1    0    0    0  501  0.00000000000E+00  0.00000000000E+00  0.53869050096E+03  0.53869050097E+03  0.25500000920E-02 0.  1.
        2   -1    0    0  501    0  0.00000000000E+00  0.00000000000E+00 -0.56552126068E+03  0.56552126068E+03  0.25500000920E-02 0. -1.
    10030    2    1    2    0    0  0.00000000000E+00  0.00000000000E+00 -0.26830759712E+02  0.11042117617E+04  0.11038857391E+04 0.  0.
        4    1    3    3  502    0 -0.64915812009E+02  0.45807077634E+03 -0.31449666639E+03  0.55942172361E+03  0.12699999809E+01 0. -1.
       -4    1    3    3    0  502  0.64915812009E+02 -0.45807077634E+03  0.28766590668E+03  0.54479003804E+03  0.12699999809E+01 0.  1.
</event>
<event>
 5   0  0.5627232E-03  0.1118199E+04  0.7818609E-02  0.9187633E-01
       -2   -1    0    0    0  501  0.00000000000E+00  0.00000000000E+00  0.15156866330E+03  0.15156866332E+03  0.25500000920E-02 0.  1.
        2   -1    0    0  501    0  0.00000000000E+00  0.00000000000E+00 -0.20623812487E+04  0.20623812487E+04  0.25500000920E-02 0. -1.
    10030    2    1    2    0    0  0.00000000000E+00  0.00000000000E+00 -0.19108125854E+04  0.22139499121E+04  0.11181992114E+04 0.  0.
        2    1    3    3  502    0 -0.96734897752E+01 -0.54640698537E+03 -0.11891564655E+04  0.13087197063E+04  0.25500000920E-02 0.  1.
       -2    1    3    3    0  502  0.96734897752E+01  0.54640698537E+03 -0.72165611992E+03  0.90523020579E+03  0.25500000920E-02 0. -1.
</event>
<event>
 5   0  0.5941585E-03  0.1118387E+04  0.7818609E-02  0.9187454E-01
       -2   -1    0    0    0  501  0.00000000000E+00  0.00000000000E+00  0.45724805936E+03  0.45724805937E+03  0.25500000920E-02 0. -1.
        2   -1    0    0  501    0  0.00000000000E+00  0.00000000000E+00 -0.68386789642E+03  0.68386789643E+03  0.25500000920E-02 0.  1.
    10030    2    1    2    0    0  0.00000000000E+00  0.00000000000E+00 -0.22661983706E+03  0.11411159558E+04  0.11183868177E+04 0.  0.
        5    1    3    3  502    0  0.26303937952E+02  0.40513063931E+03  0.27902051307E+03  0.49264314546E+03  0.46999998093E+01 0.  1.
       -5    1    3    3    0  502 -0.26303937952E+02 -0.40513063931E+03 -0.50564035014E+03  0.64847281033E+03  0.46999998093E+01 0. -1.
</event>
<event>
 5   0  0.5500363E-03  0.1104157E+04  0.7818609E-02  0.9201149E-01
       -2   -1    0    0    0  501  0.00000000000E+00  0.00000000000E+00  0.46870808641E+03  0.46870808641E+03  0.25500000920E-02 0.  1.
        2   -1    0    0  501    0  0.00000000000E+00  0.00000000000E+00 -0.65027864248E+03  0.65027864249E+03  0.25500000920E-02 0. -1.
    10030    2    1    2    0    0  0.00000000000E+00  0.00000000000E+00 -0.18157055608E+03  0.11189867289E+04  0.11041573405E+04 0.  0.
        3    1    3    3  502    0  0.69545410259E+02  0.11810037010E+02 -0.64569267057E+03  0.64953450724E+03  0.10100000352E+00 0. -1.
       -3    1    3    3    0  502 -0.69545410259E+02 -0.11810037010E+02  0.46412211449E+03  0.46945222166E+03  0.10100000352E+00 0.  1.
</event>
<event>
 5   0  0.5723194E-03  0.1100958E+04  0.7818609E-02  0.9204259E-01
        2   -1    0    0  501    0  0.00000000000E+00  0.00000000000E+00  0.10839476676E+04  0.10839476677E+04  0.25500000920E-02 0.  1.
       -2   -1    0    0    0  501  0.00000000000E+00  0.00000000000E+00 -0.27955866789E+03  0.27955866790E+03  0.25500000920E-02 0. -1.
    10030    2    1    2    0    0  0.00000000000E+00  0.00000000000E+00  0.80438899976E+03  0.13635063355E+04  0.11009577032E+04 0.  0.
        1    1    3    3  502    0  0.20202094860E+03  0.50035646018E+03  0.26733215891E+03  0.60219227339E+03  0.50400001928E-02 0. -1.
       -1    1    3    3    0  502 -0.20202094860E+03 -0.50035646018E+03  0.53705684085E+03  0.76131406216E+03  0.50400001928E-02 0.  1.
</event>
<event>
 5   0  0.3328741E-03  0.1108446E+04  0.7818609E-02  0.9196999E-01
        1   -1    0    0  501    0  0.00000000000E+00  0.00000000000E+00  0.94796770220E+03  0.94796770221E+03  0.50400001928E-02 0. -1.
       -1   -1    0    0    0  501  0.00000000000E+00  0.00000000000E+00 -0.32402249169E+03  0.32402249173E+03  0.50400001928E-02 0.  1.
    10030    2    1    2    0    0  0.00000000000E+00  0.00000000000E+00  0.62394521051E+03  0.12719901939E+04  0.11084455006E+04 0.  0.
        3    1    3    3  502    0  0.27584627281E+03  0.17361588793E+03  0.82636074946E+03  0.88831623942E+03  0.10100000352E+00 0. -1.
       -3    1    3    3    0  502 -0.27584627281E+03 -0.17361588793E+03 -0.20241553895E+03  0.38367395452E+03  0.10100000352E+00 0.  1.
</event>
<event>
 5   0  0.3328741E-03  0.1165947E+04  0.7818609E-02  0.9143196E-01
        1   -1    0    0  501    0  0.00000000000E+00  0.00000000000E+00  0.10598181455E+04  0.10598181455E+04  0.50400001928E-02 0. -1.
       -1   -1    0    0    0  501  0.00000000000E+00  0.00000000000E+00 -0.32067610473E+03  0.32067610477E+03  0.50400001928E-02 0.  1.
    10030    2    1    2    0    0  0.00000000000E+00  0.00000000000E+00  0.73914204079E+03  0.13804942503E+04  0.11659474339E+04 0.  0.
        3    1    3    3  502    0 -0.51494153562E+02  0.48273993954E+03  0.75171283418E+03  0.89485288866E+03  0.10100000352E+00 0. -1.
       -3    1    3    3    0  502  0.51494153562E+02 -0.48273993954E+03 -0.12570793396E+02  0.48564136163E+03  0.10100000352E+00 0.  1.
</event>
<event>
 5   0  0.5941585E-03  0.1106429E+04  0.7818609E-02  0.9198948E-01
        2   -1    0    0  501    0  0.00000000000E+00  0.00000000000E+00  0.58871941802E+03  0.58871941802E+03  0.25500000920E-02 0.  1.
       -2   -1    0    0    0  501  0.00000000000E+00  0.00000000000E+00 -0.51985088342E+03  0.51985088343E+03  0.25500000920E-02 0. -1.
    10030    2    1    2    0    0  0.00000000000E+00  0.00000000000E+00  0.68868534594E+02  0.11085703014E+04  0.11064290480E+04 0.  0.
        5    1    3    3  502    0  0.16209734971E+03 -0.16020527134E+03 -0.47060764807E+03  0.52291005744E+03  0.46999998093E+01 0. -1.
       -5    1    3    3    0  502 -0.16209734971E+03  0.16020527134E+03  0.53947618267E+03  0.58566024401E+03  0.46999998093E+01 0.  1.
</event>
<event>
 5   0  0.3316784E-03  0.1128332E+04  0.7818609E-02  0.9178010E-01
       -1   -1    0    0    0  501  0.00000000000E+00  0.00000000000E+00  0.49768105121E+03  0.49768105123E+03  0.50400001928E-02 0. -1.
        1   -1    0    0  501    0  0.00000000000E+00  0.00000000000E+00 -0.63953219491E+03  0.63953219493E+03  0.50400001928E-02 0.  1.
    10030    2    1    2    0    0  0.00000000000E+00  0.00000000000E+00 -0.14185114371E+03  0.11372132462E+04  0.11283316092E+04 0.  0.
        4    1    3    3  502    0 -0.51702375177E+03  0.17770322796E+03 -0.21126763109E+03  0.58611229467E+03  0.12699999809E+01 0. -1.
       -4    1    3    3    0  502  0.51702375177E+03 -0.17770322796E+03  0.69416487381E+02  0.55110095149E+03  0.12699999809E+01 0.  1.
</event>
<event>
 5   0  0.5723194E-03  0.1110576E+04  0.7818609E-02  0.9194945E-01
       -2   -1    0    0    0  501  0.00000000000E+00  0.00000000000E+00  0.36497598073E+03  0.36497598074E+03  0.25500000920E-02 0.  1.
        2   -1    0    0  501    0  0.00000000000E+00  0.00000000000E+00 -0.84483513327E+03  0.84483513327E+03  0.25500000920E-02 0. -1.
    10030    2    1    2    0    0  0.00000000000E+00  0.00000000000E+00 -0.47985915254E+03  0.12098111140E+04  0.11105755829E+04 0.  0.
        1    1    3    3  502    0 -0.42154661418E+03 -0.16684954697E+03  0.10935137680E+03  0.46636685440E+03  0.50400001928E-02 0.  1.
       -1    1    3    3    0  502  0.42154661418E+03  0.16684954697E+03 -0.58921052933E+03  0.74344425961E+03  0.50400001928E-02 0. -1.
</event>
<event>
 5   0  0.5500363E-03  0.1119213E+04  0.7818609E-02  0.9186665E-01
        2   -1    0    0  501    0  0.00000000000E+00  0.00000000000E+00  0.66238133208E+03  0.66238133209E+03  0.25500000920E-02 0.  1.
       -2   -1    0    0    0  501  0.00000000000E+00  0.00000000000E+00 -0.47277836041E+03  0.47277836042E+03  0.25500000920E-02 0. -1.
    10030    2    1    2    0    0  0.00000000000E+00  0.00000000000E+00  0.18960297167E+03  0.11351596925E+04  0.11192132239E+04 0.  0.
        3    1    3    3  502    0  0.14727318184E+01  0.54992931466E+03  0.19988819224E+03  0.58513222408E+03  0.10100000352E+00 0.  1.
       -3    1    3    3    0  502 -0.14727318184E+01 -0.54992931466E+03 -0.10285220568E+02  0.55002746843E+03  0.10100000352E+00 0. -1.
</event>
<event>
 5   0  0.3215352E-03  0.1073782E+04  0.7818609E-02  0.9231129E-01
        1   -1    0    0  501    0  0.00000000000E+00  0.00000000000E+00  0.61036603647E+03  0.61036603649E+03  0.50400001928E-02 0.  1.
       -1   -1    0    0    0  501  0.00000000000E+00  0.00000000000E+00 -0.47226073232E+03  0.47226073235E+03  0.50400001928E-02 0. -1.
    10030    2    1    2    0    0  0.00000000000E+00  0.00000000000E+00  0.13810530415E+03  0.10826267688E+04  0.10737819358E+04 0.  0.
        1    1    3    3  502    0 -0.29634789187E+03 -0.43576140368E+03  0.17257183242E+03  0.55451881061E+03  0.50400001928E-02 0.  1.
       -1    1    3    3    0  502  0.29634789187E+03  0.43576140368E+03 -0.34466528271E+02  0.52810795823E+03  0.50400001928E-02 0. -1.
</event>
<event>
 5   0  0.5500363E-03  0.1103570E+04  0.7818609E-02  0.9201719E-01
       -2   -1    0    0    0  501  0.00000000000E+00  0.00000000000E+00  0.12791098572E+04  0.12791098572E+04  0.25500000920E-02 0.  1.
        2   -1    0    0  501    0  0.00000000000E+00  0.00000000000E+00 -0.23803006305E+03  0.23803006307E+03  0.25500000920E-02 0. -1.
    10030    2    1    2    0    0  0.00000000000E+00  0.00000000000E+00  0.10410797942E+04  0.15171399203E+04  0.11035698437E+04 0.  0.
        3    1    3    3  502    0  0.96190790694E+02 -0.34621431003E+03 -0.55136161310E+02  0.36353407429E+03  0.10100000352E+00 0. -1.
       -3    1    3    3    0  502 -0.96190790694E+02  0.34621431003E+03  0.10962159555E+04  0.11536058460E+04  0.10100000352E+00 0.  1.
</event>
<event>
 5   0  0.5723194E-03  0.1137884E+04  0.7818609E-02  0.9169034E-01
       -2   -1    0    0    0  501  0.00000000000E+00  0.00000000000E+00  0.10264915976E+04  0.10264915976E+04  0.25500000920E-02 0.  1.
        2   -1    0    0  501    0  0.00000000000E+00  0.00000000000E+00 -0.31534117127E+03  0.31534117128E+03  0.25500000920E-02 0. -1.
    10030    2    1    2    0    0  0.00000000000E+00  0.00000000000E+00  0.71115042630E+03  0.13418327688E+04  0.11378841113E+04 0.  0.
        1    1    3    3  502    0  0.39357528342E+03 -0.39419248159E+03  0.49211130879E+03  0.74327838428E+03  0.50400001928E-02 0.  1.
       -1    1    3    3    0  502 -0.39357528342E+03  0.39419248159E+03  0.21903911751E+03  0.59855438457E+03  0.50400001928E-02 0. -1.
</event>
<event>
 5   0  0.3320192E-03  0.1085385E+04  0.7818609E-02  0.9219554E-01
       -1   -1    0    0    0  501  0.00000000000E+00  0.00000000000E+00  0.36052133636E+03  0.36052133640E+03  0.50400001928E-02 0. -1.
        1   -1    0    0  501    0  0.00000000000E+00  0.00000000000E+00 -0.81691515515E+03  0.81691515516E+03  0.50400001928E-02 0.  1.
    10030    2    1    2    0    0  0.00000000000E+00  0.00000000000E+00 -0.45639381879E+03  0.11774364916E+04  0.10853853573E+04 0.  0.
        2    1    3    3  502    0 -0.16228256081E+03 -0.93918668230E+02  0.32426735677E+03  0.37457397729E+03  0.25500000920E-02 0. -1.
       -2    1    3    3    0  502  0.16228256081E+03  0.93918668230E+02 -0.78066117556E+03  0.80286251427E+03  0.25500000920E-02 0.  1.
</event>
<event>
 5   0  0.5946359E-03  0.1088831E+04  0.7818609E-02  0.9216147E-01
       -2   -1    0    0    0  501  0.00000000000E+00  0.00000000000E+00  0.74694231991E+03  0.74694231992E+03  0.25500000920E-02 0. -1.
        2   -1    0    0  501    0  0.00000000000E+00  0.00000000000E+00 -0.39680217884E+03  0.39680217885E+03  0.25500000920E-02 0.  1.
    10030    2    1    2    0    0  0.00000000000E+00  0.00000000000E+00  0.35014014107E+03  0.11437444988E+04  0.10888311899E+04 0.  0.
        4    1    3    3  502    0 -0.46679436112E+03 -0.26656082027E+03  0.84494452356E+02  0.54414388893E+03  0.12699999809E+01 0.  1.
       -4    1    3    3    0  502  0.46679436112E+03  0.26656082027E+03  0.26564568872E+03  0.59960060983E+03  0.12699999809E+01 0. -1.
</event>
<event>
 5   0  0.5627232E-03  0.1059981E+04  0.7818609E-02  0.9245100E-01
        2   -1    0    0  501    0  0.00000000000E+00  0.00000000000E+00  0.46322502316E+03  0.46322502317E+03  0.25500000920E-02 0.  1.
       -2   -1    0    0    0  501  0.00000000000E+00  0.00000000000E+00 -0.60637865677E+03  0.60637865677E+03  0.25500000920E-02 0. -1.
    10030    2    1    2    0    0  0.00000000000E+00  0.00000000000E+00 -0.14315363361E+03  0.10696036799E+04  0.10599806929E+04 0.  0.
        2    1    3    3  502    0  0.30093504985E+03 -0.43185368494E+03 -0.13402775137E+03  0.54316014910E+03  0.25500000920E-02 0. -1.
       -2    1    3    3    0  502 -0.30093504985E+03  0.43185368494E+03 -0.91258822361E+01  0.52644353084E+03  0.25500000920E-02 0.  1.
</event>
<event>
 5   0  0.3328741E-03  0.1110139E+04  0.7818609E-02  0.9195365E-01
       -1   -1    0    0    0  501  0.00000000000E+00  0.00000000000E+00  0.24284658940E+04  0.24284658941E+04  0.50400001928E-02 0.  1.
        1   -1    0    0  501    0  0.00000000000E+00  0.00000000000E+00 -0.12687115455E+03  0.12687115465E+03  0.50400001928E-02 0. -1.
    10030    2    1    2    0    0  0.00000000000E+00  0.00000000000E+00  0.23015947395E+04  0.25553370487E+04  0.11101392199E+04 0.  0.
        3    1    3    3  502    0  0.34432359252E+03  0.95441182081E+02  0.17304124930E+03  0.39700256896E+03  0.10100000352E+00 0. -1.
       -3    1    3    3    0  502 -0.34432359252E+03 -0.95441182081E+02  0.21285534902E+04  0.21583344797E+04  0.10100000352E+00 0.  1.
</event>
<event>
 5   0  0.3316784E-03  0.1128983E+04  0.7818609E-02  0.9177394E-01
       -1   -1    0    0    0  501  0.00000000000E+00  0.00000000000E+00  0.15266316074E+04  0.15266316074E+04  0.50400001928E-02 0. -1.
        1   -1    0    0  501    0  0.00000000000E+00  0.00000000000E+00 -0.20872799153E+03  0.20872799159E+03  0.50400001928E-02 0.  1.
    10030    2    1    2    0    0  0.00000000000E+00  0.00000000000E+00  0.13179036159E+04  0.17353595990E+04  0.11289831696E+04 0.  0.
        4    1    3    3  502    0  0.31741163293E+03  0.39339210647E+03  0.10451942118E+04  0.11610082030E+04  0.12699999809E+01 0. -1.
       -4    1    3    3    0  502 -0.31741163293E+03 -0.39339210647E+03  0.27270940413E+03  0.57435139606E+03  0.12699999809E+01 0.  1.
</event>
<event>
 5   0  0.3241189E-03  0.1096471E+04  0.7818609E-02  0.9208639E-01
        1   -1    0    0  501    0  0.00000000000E+00  0.00000000000E+00  0.48538410884E+03  0.48538410886E+03  0.50400001928E-02 0.  1.
       -1   -1    0    0    0  501  0.00000000000E+00  0.00000000000E+00 -0.61922489190E+03  0.61922489192E+03  0.50400001928E-02 0. -1.
    10030    2    1    2    0    0  0.00000000000E+00  0.00000000000E+00 -0.13384078306E+03  0.11046090008E+04  0.10964705602E+04 0.  0.
        5    1    3    3  502    0 -0.41223688320E+03 -0.80856302222E+02 -0.42176030652E+03  0.59529894644E+03  0.46999998093E+01 0. -1.
       -5    1    3    3    0  502  0.41223688320E+03  0.80856302222E+02  0.28791952345E+03  0.50931005435E+03  0.46999998093E+01 0.  1.
</event>
<event>
 5   0  0.3316784E-03  0.1111422E+04  0.7818609E-02  0.9194130E-01
        1   -1    0    0  501    0  0.00000000000E+00  0.00000000000E+00  0.37598483883E+03  0.37598483886E+03  0.50400001928E-02 0. -1.
       -1   -1    0    0    0  501  0.00000000000E+00  0.00000000000E+00 -0.82134882753E+03  0.82134882754E+03  0.50400001928E-02 0.  1.
    10030    2    1    2    0    0  0.00000000000E+00  0.00000000000E+00 -0.44536398870E+03  0.11973336664E+04  0.11114219839E+04 0.  0.
        4    1    3    3  502    0 -0.25617018575E+03 -0.30833187423E+03  0.19193308511E+03  0.44444530687E+03  0.12699999809E+01 0. -1.
       -4    1    3    3    0  502  0.25617018575E+03  0.30833187423E+03 -0.63729707382E+03  0.75288835954E+03  0.12699999809E+01 0.  1.
</event>
<event>
 5   0  0.3215352E-03  0.1055902E+04  0.7818609E-02  0.9249271E-01
        1   -1    0    0  501    0  0.00000000000E+00  0.00000000000E+00  0.23263965626E+03  0.23263965631E+03  0.50400001928E-02 0.  1.
       -1   -1    0    0    0  501  0.00000000000E+00  0.00000000000E+00 -0.11981298375E+04  0.11981298375E+04  0.50400001928E-02 0. -1.
    10030    2    1    2    0    0  0.00000000000E+00  0.00000000000E+00 -0.96549018128E+03  0.14307694939E+04  0.10559024834E+04 0.  0.
        1    1    3    3  502    0  0.38859589985E+02  0.19994243611E+03 -0.11427464394E+04  0.11607568524E+04  0.50400001928E-02 0. -1.
       -1    1    3    3    0  502 -0.38859589985E+02 -0.19994243611E+03  0.17725625813E+03  0.27001264149E+03  0.50400001928E-02 0.  1.
</event>
<event>
 5   0  0.5941585E-03  0.1133318E+04  0.7818609E-02  0.9173313E-01
       -2   -1    0    0    0  501  0.00000000000E+00  0.00000000000E+00  0.20718207379E+03  0.20718207380E+03  0.25500000920E-02 0.  1.
        2   -1    0    0  501    0  0.00000000000E+00  0.00000000000E+00 -0.15498570592E+04  0.15498570592E+04  0.25500000920E-02 0. -1.
    10030    2    1    2    0    0  0.00000000000E+00  0.00000000000E+00 -0.13426749854E+04  0.17570391330E+04  0.11333183130E+04 0.  0.
        5    1    3    3  502    0 -0.31157692281E+03 -0.79505158540E+02 -0.13946701189E+04  0.14312679972E+04  0.46999998093E+01 0. -1.
       -5    1    3    3    0  502  0.31157692281E+03  0.79505158540E+02  0.51995133488E+02  0.32577113587E+03  0.46999998093E+01 0.  1.
</event>
<event>
 5   0  0.3316784E-03  0.1096752E+04  0.7818609E-02  0.9208364E-01
        1   -1    0    0  501    0  0.00000000000E+00  0.00000000000E+00  0.12304539455E+04  0.12304539455E+04  0.50400001928E-02 0. -1.
       -1   -1    0    0    0  501  0.00000000000E+00  0.00000000000E+00 -0.24439437081E+03  0.24439437086E+03  0.50400001928E-02 0.  1.
    10030    2    1    2    0    0  0.00000000000E+00  0.00000000000E+00  0.98605957473E+03  0.14748483164E+04  0.10967515997E+04 0.  0.
        4    1    3    3  502    0  0.33615006196E+03  0.10606648224E+03 -0.71869953638E+02  0.35974138759E+03  0.12699999809E+01 0.  1.
       -4    1    3    3    0  502 -0.33615006196E+03 -0.10606648224E+03  0.10579295284E+04  0.11151069288E+04  0.12699999809E+01 0. -1.
</event>
<event>
 5   0  0.2185750E-03  0.1110748E+04  0.7818609E-02  0.9194779E-01
       -4   -1    0    0    0  501  0.00000000000E+00  0.00000000000E+00  0.14636958620E+04  0.14636964129E+04  0.12699999809E+01 0.  1.
        4   -1    0    0  501    0  0.00000000000E+00  0.00000000000E+00 -0.21072437653E+03  0.21072820354E+03  0.12699999809E+01 0. -1.
    10030    2    1    2    0    0  0.00000000000E+00  0.00000000000E+00  0.12529714854E+04  0.16744246165E+04  0.11107476099E+04 0.  0.
        1    1    3    3  502    0  0.29280143274E+03 -0.24792109802E+02 -0.83937872429E+02  0.30560251010E+03  0.50400001928E-02 0. -1.
       -1    1    3    3    0  502 -0.29280143274E+03  0.24792109802E+02  0.13369093579E+04  0.13688221064E+04  0.50400001928E-02 0.  1.
</event>
<event>
 5   0  0.5500363E-03  0.1109208E+04  0.7818609E-02  0.9196263E-01
       -2   -1    0    0    0  501  0.00000000000E+00  0.00000000000E+00  0.32324074288E+03  0.32324074289E+03  0.25500000920E-02 0.  1.
        2   -1    0    0  501    0  0.00000000000E+00  0.00000000000E+00 -0.95156867611E+03  0.95156867611E+03  0.25500000920E-02 0. -1.
    10030    2    1    2    0    0  0.00000000000E+00  0.00000000000E+00 -0.62832793323E+03  0.12748094190E+04  0.11092083046E+04 0.  0.
        3    1    3    3  502    0  0.72682631229E+02 -0.80265918243E+02 -0.93930146631E+03  0.94552241503E+03  0.10100000352E+00 0. -1.
       -3    1    3    3    0  502 -0.72682631229E+02  0.80265918243E+02  0.31097353307E+03  0.32928700397E+03  0.10100000352E+00 0.  1.
</event>
<event>
 5   0  0.5500363E-03  0.1101996E+04  0.7818609E-02  0.9203249E-01
        2   -1    0    0  501    0  0.00000000000E+00  0.00000000000E+00  0.54342692828E+03  0.54342692829E+03  0.25500000920E-02 0.  1.
       -2   -1    0    0    0  501  0.00000000000E+00  0.00000000000E+00 -0.55867448504E+03  0.55867448505E+03  0.25500000920E-02 0. -1.
    10030    2    1    2    0    0  0.00000000000E+00  0.00000000000E+00 -0.15247556763E+02  0.11021014133E+04  0.11019959334E+04 0.  0.
        3    1    3    3  502    0 -0.45788795740E+03 -0.22777764784E+03  0.19746830298E+03  0.54821326075E+03  0.10100000352E+00 0.  1.
       -3    1    3    3    0  502  0.45788795740E+03  0.22777764784E+03 -0.21271585974E+03  0.55388815258E+03  0.10100000352E+00 0. -1.
</event>
<event>
 5   0  0.3241189E-03  0.1102630E+04  0.7818609E-02  0.9202633E-01
       -1   -1    0    0    0  501  0.00000000000E+00  0.00000000000E+00  0.58449394742E+03  0.58449394745E+03  0.50400001928E-02 0. -1.
        1   -1    0    0  501    0  0.00000000000E+00  0.00000000000E+00 -0.52001918584E+03  0.52001918586E+03  0.50400001928E-02 0.  1.
    10030    2    1    2    0    0  0.00000000000E+00  0.00000000000E+00  0.64474761585E+02  0.11045131333E+04  0.11026297052E+04 0.  0.
        5    1    3    3  502    0  0.17961864879E+03  0.48858802501E+03  0.21405460618E+03  0.56286995087E+03  0.46999998093E+01 0.  1.
       -5    1    3    3    0  502 -0.17961864879E+03 -0.48858802501E+03 -0.14957984460E+03  0.54164318244E+03  0.46999998093E+01 0. -1.
</event>
<event>
 5   0  0.5941585E-03  0.1130607E+04  0.7818609E-02  0.9175863E-01
       -2   -1    0    0    0  501  0.00000000000E+00  0.00000000000E+00  0.13697629573E+03  0.13697629576E+03  0.25500000920E-02 0.  1.
        2   -1    0    0  501    0  0.00000000000E+00  0.00000000000E+00 -0.23330190374E+04  0.23330190374E+04  0.25500000920E-02 0. -1.
    10030    2    1    2    0    0  0.00000000000E+00  0.00000000000E+00 -0.21960427417E+04  0.24699953332E+04  0.11306074573E+04 0.  0.
        5    1    3    3  502    0 -0.18654299125E+03  0.36400293306E+03 -0.19504590581E+04  0.19928896232E+04  0.46999998093E+01 0. -1.
       -5    1    3    3    0  502  0.18654299125E+03 -0.36400293306E+03 -0.24558368358E+03  0.47710570999E+03  0.46999998093E+01 0.  1.
</event>
<event>
 5   0  0.5500363E-03  0.1068828E+04  0.7818609E-02  0.9236119E-01
       -2   -1    0    0    0  501  0.00000000000E+00  0.00000000000E+00  0.39482274255E+03  0.39482274256E+03  0.25500000920E-02 0. -1.
        2   -1    0    0  501    0  0.00000000000E+00  0.00000000000E+00 -0.72335775363E+03  0.72335775364E+03  0.25500000920E-02 0.  1.
    10030    2    1    2    0    0  0.00000000000E+00  0.00000000000E+00 -0.32853501108E+03  0.11181804962E+04  0.10688275673E+04 0.  0.
        3    1    3    3  502    0 -0.46495718241E+03  0.23407436926E+03 -0.37762125870E+02  0.52192143103E+03  0.10100000352E+00 0. -1.
       -3    1    3    3    0  502  0.46495718241E+03 -0.23407436926E+03 -0.29077288521E+03  0.59625906517E+03  0.10100000352E+00 0.  1.
</event>
<event>
 5   0  0.3328741E-03  0.1104777E+04  0.7818609E-02  0.9200548E-01
       -1   -1    0    0    0  501  0.00000000000E+00  0.00000000000E+00  0.31490506023E+03  0.31490506027E+03  0.50400001928E-02 0.  1.
        1   -1    0    0  501    0  0.00000000000E+00  0.00000000000E+00 -0.96896917774E+03  0.96896917776E+03  0.50400001928E-02 0. -1.
    10030    2    1    2    0    0  0.00000000000E+00  0.00000000000E+00 -0.65406411752E+03  0.12838742380E+04  0.11047774388E+04 0.  0.
        3    1    3    3  502    0  0.32179248743E+03  0.42988536256E+03 -0.17648838065E+03  0.56524330037E+03  0.10100000352E+00 0.  1.
       -3    1    3    3    0  502 -0.32179248743E+03 -0.42988536256E+03 -0.47757573687E+03  0.71863093765E+03  0.10100000352E+00 0. -1.
</event>
<event>
 5   0  0.3328741E-03  0.1120818E+04  0.7818609E-02  0.9185136E-01
       -1   -1    0    0    0  501  0.00000000000E+00  0.00000000000E+00  0.16118974783E+03  0.16118974791E+03  0.50400001928E-02 0.  1.
        1   -1    0    0  501    0  0.00000000000E+00  0.00000000000E+00 -0.19483747762E+04  0.19483747762E+04  0.50400001928E-02 0. -1.
    10030    2    1    2    0    0  0.00000000000E+00  0.00000000000E+00 -0.17871850283E+04  0.21095645241E+04  0.11208176282E+04 0.  0.
        3    1    3    3  502    0  0.52175406913E+03 -0.95794702506E+01 -0.12781211084E+04  0.13805479538E+04  0.10100000352E+00 0. -1.
       -3    1    3    3    0  502 -0.52175406913E+03  0.95794702506E+01 -0.50906391993E+03  0.72901657024E+03  0.10100000352E+00 0.  1.
</event>
<event>
 5   0  0.3316784E-03  0.1097247E+04  0.7818609E-02  0.9207880E-01
        1   -1    0    0  501    0  0.00000000000E+00  0.00000000000E+00  0.48178462343E+03  0.48178462346E+03  0.50400001928E-02 0.  1.
       -1   -1    0    0    0  501  0.00000000000E+00  0.00000000000E+00 -0.62473466340E+03  0.62473466342E+03  0.50400001928E-02 0. -1.
    10030    2    1    2    0    0  0.00000000000E+00  0.00000000000E+00 -0.14295003996E+03  0.11065192869E+04  0.10972466534E+04 0.  0.
        4    1    3    3  502    0  0.26302371746E+03 -0.20166161778E+03  0.36941185614E+03  0.49630194075E+03  0.12699999809E+01 0.  1.
       -4    1    3    3    0  502 -0.26302371746E+03  0.20166161778E+03 -0.51236189610E+03  0.61021734613E+03  0.12699999809E+01 0. -1.
</event>
<event>
 5   0  0.5723194E-03  0.1094325E+04  0.7818609E-02  0.9210741E-01
        2   -1    0    0  501    0  0.00000000000E+00  0.00000000000E+00  0.29103996235E+03  0.29103996236E+03  0.25500000920E-02 0. -1.
       -2   -1    0    0    0  501  0.00000000000E+00  0.00000000000E+00 -0.10286786550E+04  0.10286786550E+04  0.25500000920E-02 0.  1.
    10030    2    1    2    0    0  0.00000000000E+00  0.00000000000E+00 -0.73763869269E+03  0.13197186174E+04  0.10943246265E+04 0.  0.
        1    1    3    3  502    0 -0.33031394945E+03 -0.71526702248E+02 -0.88775383632E+03  0.94991065278E+03  0.50400001928E-02 0.  1.
       -1    1    3    3    0  502  0.33031394945E+03  0.71526702248E+02  0.15011514363E+03  0.36980796463E+03  0.50400001928E-02 0. -1.
</event>
<event>
 5   0  0.2185750E-03  0.1092978E+04  0.7818609E-02  0.9212063E-01
       -4   -1    0    0    0  501  0.00000000000E+00  0.00000000000E+00  0.69113930327E+03  0.69114047011E+03  0.12699999809E+01 0. -1.
        4   -1    0    0  501    0  0.00000000000E+00  0.00000000000E+00 -0.43211075608E+03  0.43211262238E+03  0.12699999809E+01 0.  1.
    10030    2    1    2    0    0  0.00000000000E+00  0.00000000000E+00  0.25902854719E+03  0.11232530925E+04  0.10929783719E+04 0.  0.
        4    1    3    3  502    0  0.25773220270E+03  0.24552735016E+03  0.55565551646E+03  0.65989713884E+03  0.12699999809E+01 0. -1.
       -4    1    3    3    0  502 -0.25773220270E+03 -0.24552735016E+03 -0.29662696927E+03  0.46335595364E+03  0.12699999809E+01 0.  1.
</event>
<event>
 5   0  0.5627232E-03  0.1106737E+04  0.7818609E-02  0.9198650E-01
        2   -1    0    0  501    0  0.00000000000E+00  0.00000000000E+00  0.11808366972E+04  0.11808366972E+04  0.25500000920E-02 0. -1.
       -2   -1    0    0    0  501  0.00000000000E+00  0.00000000000E+00 -0.25932197762E+03  0.25932197764E+03  0.25500000920E-02 0.  1.
    10030    2    1    2    0    0  0.00000000000E+00  0.00000000000E+00  0.92151471959E+03  0.14401586749E+04  0.11067373809E+04 0.  0.
        2    1    3    3  502    0 -0.31698012826E+03  0.42878931891E+03  0.26827467566E+03  0.59691539043E+03  0.25500000920E-02 0.  1.
       -2    1    3    3    0  502  0.31698012826E+03 -0.42878931891E+03  0.65324004393E+03  0.84324328442E+03  0.25500000920E-02 0. -1.
</event>
<event>
 5   0  0.5500363E-03  0.1111130E+04  0.7818609E-02  0.9194411E-01
        2   -1    0    0  501    0  0.00000000000E+00  0.00000000000E+00  0.20391830607E+04  0.20391830607E+04  0.25500000920E-02 0.  1.
       -2   -1    0    0    0  501  0.00000000000E+00  0.00000000000E+00 -0.15136092028E+03  0.15136092030E+03  0.25500000920E-02 0. -1.
    10030    2    1    2    0    0  0.00000000000E+00  0.00000000000E+00  0.18878221404E+04  0.21905439810E+04  0.11111302799E+04 0.  0.
        3    1    3    3  502    0  0.18074213441E+03 -0.11897889180E+03  0.19526895302E+04  0.19646424885E+04  0.10100000352E+00 0.  1.
       -3    1    3    3    0  502 -0.18074213441E+03  0.11897889180E+03 -0.64867389846E+02  0.22590149249E+03  0.10100000352E+00 0. -1.
</event>
<event>
 5   0  0.3320192E-03  0.1058220E+04  0.7818609E-02  0.9246898E-01
        1   -1    0    0  501    0  0.00000000000E+00  0.00000000000E+00  0.14911224562E+04  0.14911224562E+04  0.50400001928E-02 0. -1.
       -1   -1    0    0    0  501  0.00000000000E+00  0.00000000000E+00 -0.18774942100E+03  0.18774942107E+03  0.50400001928E-02 0.  1.
    10030    2    1    2    0    0  0.00000000000E+00  0.00000000000E+00  0.13033730352E+04  0.16788718773E+04  0.10582199731E+04 0.  0.
        2    1    3    3  502    0 -0.48689421061E+03  0.11212191065E+03  0.92793938258E+03  0.10539016998E+04  0.25500000920E-02 0. -1.
       -2    1    3    3    0  502  0.48689421061E+03 -0.11212191065E+03  0.37543365264E+03  0.62497017746E+03  0.25500000920E-02 0.  1.
</event>
<event>
 5   0  0.3215352E-03  0.1057106E+04  0.7818609E-02  0.9248038E-01
        1   -1    0    0  501    0  0.00000000000E+00  0.00000000000E+00  0.95630320782E+03  0.95630320783E+03  0.50400001928E-02 0. -1.
       -1   -1    0    0    0  501  0.00000000000E+00  0.00000000000E+00 -0.29213369470E+03  0.29213369474E+03  0.50400001928E-02 0.  1.
    10030    2    1    2    0    0  0.00000000000E+00  0.00000000000E+00  0.66416951312E+03  0.12484369026E+04  0.10571062187E+04 0.  0.
        1    1    3    3  502    0 -0.22396783774E+03  0.41085167267E+03  0.62234938787E+03  0.77863948647E+03  0.50400001928E-02 0.  1.
       -1    1    3    3    0  502  0.22396783774E+03 -0.41085167267E+03  0.41820125246E+02  0.46979741611E+03  0.50400001928E-02 0. -1.
</event>
<event>
 5   0  0.5500363E-03  0.1146303E+04  0.7818609E-02  0.9161201E-01
        2   -1    0    0  501    0  0.00000000000E+00  0.00000000000E+00  0.83674676299E+03  0.83674676299E+03  0.25500000920E-02 0. -1.
       -2   -1    0    0    0  501  0.00000000000E+00  0.00000000000E+00 -0.39259499552E+03  0.39259499553E+03  0.25500000920E-02 0.  1.
    10030    2    1    2    0    0  0.00000000000E+00  0.00000000000E+00  0.44415176746E+03  0.12293417585E+04  0.11463029123E+04 0.  0.
        3    1    3    3  502    0  0.18515996507E+03 -0.52245423141E+03  0.37844619676E+03  0.67116627644E+03  0.10100000352E+00 0. -1.
       -3    1    3    3    0  502 -0.18515996507E+03  0.52245423141E+03  0.65705570704E+02  0.55817548209E+03  0.10100000352E+00 0.  1.
</event>
<event>
 5   0  0.5941585E-03  0.1031825E+04  0.7818609E-02  0.9274312E-01
       -2   -1    0    0    0  501  0.00000000000E+00  0.00000000000E+00  0.31886292069E+03  0.31886292070E+03  0.25500000920E-02 0.  1.
        2   -1    0    0  501    0  0.00000000000E+00  0.00000000000E+00 -0.83473367870E+03  0.83473367870E+03  0.25500000920E-02 0. -1.
    10030    2    1    2    0    0  0.00000000000E+00  0.00000000000E+00 -0.51587075801E+03  0.11535965994E+04  0.10318248278E+04 0.  0.
        5    1    3    3  502    0  0.16770639232E+03  0.48434240962E+03 -0.19245242107E+03  0.54751532230E+03  0.46999998093E+01 0. -1.
       -5    1    3    3    0  502 -0.16770639232E+03 -0.48434240962E+03 -0.32341833694E+03  0.60608127710E+03  0.46999998093E+01 0.  1.
</event>
<event>
 5   0  0.3328741E-03  0.9882220E+03  0.7818609E-02  0.9321558E-01
        1   -1    0    0  501    0  0.00000000000E+00  0.00000000000E+00  0.10991941227E+04  0.10991941227E+04  0.50400001928E-02 0. -1.
       -1   -1    0    0    0  501  0.00000000000E+00  0.00000000000E+00 -0.22211334581E+03  0.22211334587E+03  0.50400001928E-02 0.  1.
    10030    2    1    2    0    0  0.00000000000E+00  0.00000000000E+00  0.87708077688E+03  0.13213074686E+04  0.98822200811E+03 0.  0.
        3    1    3    3  502    0 -0.22570720459E+03  0.37118316305E+03  0.75331680381E+03  0.86960157534E+03  0.10100000352E+00 0.  1.
       -3    1    3    3    0  502  0.22570720459E+03 -0.37118316305E+03  0.12376397307E+03  0.45170589322E+03  0.10100000352E+00 0. -1.
</event>
<event>
 5   0  0.3320192E-03  0.1095415E+04  0.7818609E-02  0.9209673E-01
       -1   -1    0    0    0  501  0.00000000000E+00  0.00000000000E+00  0.51163486549E+03  0.51163486551E+03  0.50400001928E-02 0.  1.
        1   -1    0    0  501    0  0.00000000000E+00  0.00000000000E+00 -0.58632294157E+03  0.58632294159E+03  0.50400001928E-02 0. -1.
    10030    2    1    2    0    0  0.00000000000E+00  0.00000000000E+00 -0.74688076081E+02  0.10979578071E+04  0.10954145505E+04 0.  0.
        2    1    3    3  502    0 -0.98069054406E+02 -0.47801215563E+03 -0.28665854586E+03  0.56593840856E+03  0.25500000920E-02 0.  1.
       -2    1    3    3    0  502  0.98069054406E+02  0.47801215563E+03  0.21197046978E+03  0.53201939855E+03  0.25500000920E-02 0. -1.
</event>
<event>
 5   0  0.3320192E-03  0.1108035E+04  0.7818609E-02  0.9197395E-01
       -1   -1    0    0    0  501  0.00000000000E+00  0.00000000000E+00  0.72686861697E+03  0.72686861698E+03  0.50400001928E-02 0.  1.
        1   -1    0    0  501    0  0.00000000000E+00  0.00000000000E+00 -0.42227102465E+03  0.42227102468E+03  0.50400001928E-02 0. -1.
    10030    2    1    2    0    0  0.00000000000E+00  0.00000000000E+00  0.30459759232E+03  0.11491396417E+04  0.11080352985E+04 0.  0.
        2    1    3    3  502    0 -0.42651674699E+03  0.35204585648E+03  0.18642439903E+03  0.58361535028E+03  0.25500000920E-02 0. -1.
       -2    1    3    3    0  502  0.42651674699E+03 -0.35204585648E+03  0.11817319329E+03  0.56552429138E+03  0.25500000920E-02 0.  1.
</event>
<event>
 5   0  0.5946359E-03  0.1100170E+04  0.7818609E-02  0.9205026E-01
        2   -1    0    0  501    0  0.00000000000E+00  0.00000000000E+00  0.86205854597E+03  0.86205854597E+03  0.25500000920E-02 0.  1.
       -2   -1    0    0    0  501  0.00000000000E+00  0.00000000000E+00 -0.35101298314E+03  0.35101298315E+03  0.25500000920E-02 0. -1.
    10030    2    1    2    0    0  0.00000000000E+00  0.00000000000E+00  0.51104556283E+03  0.12130715291E+04  0.11001704266E+04 0.  0.
        4    1    3    3  502    0 -0.70845428283E+02 -0.29318236950E+03  0.76274921285E+03  0.82022128179E+03  0.12699999809E+01 0.  1.
       -4    1    3    3    0  502  0.70845428283E+02  0.29318236950E+03 -0.25170365002E+03  0.39285024733E+03  0.12699999809E+01 0. -1.
</event>
<event>
 5   0  0.3241189E-03  0.1097842E+04  0.7818609E-02  0.9207298E-01
       -1   -1    0    0    0  501  0.00000000000E+00  0.00000000000E+00  0.11014742727E+04  0.11014742727E+04  0.50400001928E-02 0. -1.
        1   -1    0    0  501    0  0.00000000000E+00  0.00000000000E+00 -0.27355527241E+03  0.27355527246E+03  0.50400001928E-02 0.  1.
    10030    2    1    2    0    0  0.00000000000E+00  0.00000000000E+00  0.82791900029E+03  0.13750295452E+04  0.10978416912E+04 0.  0.
        5    1    3    3  502    0  0.16215817168E+03 -0.51901231311E+03  0.32004028413E+03  0.63096507611E+03  0.46999998093E+01 0.  1.
       -5    1    3    3    0  502 -0.16215817168E+03  0.51901231311E+03  0.50787871616E+03  0.74406446906E+03  0.46999998093E+01 0. -1.
</event>
<event>
 5   0  0.5941585E-03  0.1116439E+04  0.7818609E-02  0.9189316E-01
       -2   -1    0    0    0  501  0.00000000000E+00  0.00000000000E+00  0.53834145269E+03  0.53834145270E+03  0.25500000920E-02 0. -1.
        2   -1    0    0  501    0  0.00000000000E+00  0.00000000000E+00 -0.57883129774E+03  0.57883129775E+03  0.25500000920E-02 0.  1.
    10030    2    1    2    0    0  0.00000000000E+00  0.00000000000E+00 -0.40489845051E+02  0.11171727504E+04  0.11164387698E+04 0.  0.
        5    1    3    3  502    0 -0.15048796042E+03  0.46977826526E+02  0.51558190345E+03  0.53916633016E+03  0.46999998093E+01 0. -1.
       -5    1    3    3    0  502  0.15048796042E+03 -0.46977826526E+02 -0.55607174850E+03  0.57800642029E+03  0.46999998093E+01 0.  1.
</event>
<event>
 5   0  0.3320192E-03  0.1096714E+04  0.7818609E-02  0.9208401E-01
        1   -1    0    0  501    0  0.00000000000E+00  0.00000000000E+00  0.31807981761E+03  0.31807981765E+03  0.50400001928E-02 0. -1.
       -1   -1    0    0    0  501  0.00000000000E+00  0.00000000000E+00 -0.94534531109E+03  0.94534531110E+03  0.50400001928E-02 0.  1.
    10030    2    1    2    0    0  0.00000000000E+00  0.00000000000E+00 -0.62726549347E+03  0.12634251288E+04  0.10967137533E+04 0.  0.
        2    1    3    3  502    0 -0.17227678567E+03 -0.45658430678E+03 -0.60174290716E+03  0.77475353914E+03  0.25500000920E-02 0.  1.
       -2    1    3    3    0  502  0.17227678567E+03  0.45658430678E+03 -0.25522586312E+02  0.48867158962E+03  0.25500000920E-02 0. -1.
</event>
<event>
 5   0  0.5723194E-03  0.1100734E+04  0.7818609E-02  0.9204477E-01
       -2   -1    0    0    0  501  0.00000000000E+00  0.00000000000E+00  0.15737592927E+03  0.15737592929E+03  0.25500000920E-02 0. -1.
        2   -1    0    0  501    0  0.00000000000E+00  0.00000000000E+00 -0.19247135126E+04  0.19247135126E+04  0.25500000920E-02 0.  1.
    10030    2    1    2    0    0  0.00000000000E+00  0.00000000000E+00 -0.17673375833E+04  0.20820894419E+04  0.11007335330E+04 0.  0.
        1    1    3    3  502    0 -0.50983601177E+03 -0.19408705729E+03 -0.74594865812E+03  0.92414389858E+03  0.50400001928E-02 0.  1.
       -1    1    3    3    0  502  0.50983601177E+03  0.19408705729E+03 -0.10213889252E+04  0.11579455433E+04  0.50400001928E-02 0. -1.
</event>
<event>
 5   0  0.3241189E-03  0.1100584E+04  0.7818609E-02  0.9204623E-01
        1   -1    0    0  501    0  0.00000000000E+00  0.00000000000E+00  0.11177734654E+04  0.11177734654E+04  0.50400001928E-02 0. -1.
       -1   -1    0    0    0  501  0.00000000000E+00  0.00000000000E+00 -0.27091455148E+03  0.27091455153E+03  0.50400001928E-02 0.  1.
    10030    2    1    2    0    0  0.00000000000E+00  0.00000000000E+00  0.84685891394E+03  0.13886880170E+04  0.11005836580E+04 0.  0.
        5    1    3    3  502    0  0.32710024622E+03  0.43969794668E+03  0.36071849824E+03  0.65610119674E+03  0.46999998093E+01 0.  1.
       -5    1    3    3    0  502 -0.32710024622E+03 -0.43969794668E+03  0.48614041570E+03  0.73258682022E+03  0.46999998093E+01 0. -1.
</event>
<event>
 5   0  0.3320192E-03  0.8113017E+03  0.7818609E-02  0.9543801E-01
       -1   -1    0    0    0  501  0.00000000000E+00  0.00000000000E+00  0.28381687638E+03  0.28381687642E+03  0.50400001928E-02 0.  1.
        1   -1    0    0  501    0  0.00000000000E+00  0.00000000000E+00 -0.57978440185E+03  0.57978440187E+03  0.50400001928E-02 0. -1.
    10030    2    1    2    0    0  0.00000000000E+00  0.00000000000E+00 -0.29596752547E+03  0.86360127829E+03  0.81130166506E+03 0.  0.
        2    1    3    3  502    0 -0.50981484162E+02  0.58247660299E+02 -0.57184986019E+03  0.57706513000E+03  0.25500000920E-02 0. -1.
       -2    1    3    3    0  502  0.50981484162E+02 -0.58247660299E+02  0.27588233472E+03  0.28653614829E+03  0.25500000920E-02 0.  1.
</event>
<event>
 5   0  0.5627232E-03  0.1079145E+04  0.7818609E-02  0.9225760E-01
       -2   -1    0    0    0  501  0.00000000000E+00  0.00000000000E+00  0.85700614290E+03  0.85700614290E+03  0.25500000920E-02 0.  1.
        2   -1    0    0  501    0  0.00000000000E+00  0.00000000000E+00 -0.33971581780E+03  0.33971581781E+03  0.25500000920E-02 0. -1.
    10030    2    1    2    0    0  0.00000000000E+00  0.00000000000E+00  0.51729032509E+03  0.11967219607E+04  0.10791451111E+04 0.  0.
        2    1    3    3  502    0 -0.37961592670E+03 -0.28564557204E+03  0.54232258044E+03  0.72098226462E+03  0.25500000920E-02 0.  1.
       -2    1    3    3    0  502  0.37961592670E+03  0.28564557204E+03 -0.25032255350E+02  0.47573969609E+03  0.25500000920E-02 0. -1.
</event>
<event>
 5   0  0.5627232E-03  0.1169807E+04  0.7818609E-02  0.9139702E-01
       -2   -1    0    0    0  501  0.00000000000E+00  0.00000000000E+00  0.34325692278E+03  0.34325692279E+03  0.25500000920E-02 0. -1.
        2   -1    0    0  501    0  0.00000000000E+00  0.00000000000E+00 -0.99666554407E+03  0.99666554407E+03  0.25500000920E-02 0.  1.
    10030    2    1    2    0    0  0.00000000000E+00  0.00000000000E+00 -0.65340862128E+03  0.13399224669E+04  0.11698074161E+04 0.  0.
        2    1    3    3  502    0  0.28208616600E+03  0.35066125220E+03 -0.75463293738E+03  0.87863916885E+03  0.25500000920E-02 0.  1.
       -2    1    3    3    0  502 -0.28208616600E+03 -0.35066125220E+03  0.10122431610E+03  0.46128329801E+03  0.25500000920E-02 0. -1.
</event>
<event>
 5   0  0.5946359E-03  0.9768591E+03  0.7818609E-02  0.9334296E-01
       -2   -1    0    0    0  501  0.00000000000E+00  0.00000000000E+00  0.29591259710E+03  0.29591259711E+03  0.25500000920E-02 0. -1.
        2   -1    0    0  501    0  0.00000000000E+00  0.00000000000E+00 -0.80619556036E+03  0.80619556036E+03  0.25500000920E-02 0.  1.
    10030    2    1    2    0    0  0.00000000000E+00  0.00000000000E+00 -0.51028296326E+03  0.11021081575E+04  0.97685909330E+03 0.  0.
        4    1    3    3  502    0 -0.30575302066E+03  0.15384082203E+03 -0.64825623757E+03  0.73306866705E+03  0.12699999809E+01 0.  1.
       -4    1    3    3    0  502  0.30575302066E+03 -0.15384082203E+03  0.13797327430E+03  0.36903949042E+03  0.12699999809E+01 0. -1.
</event>
<event>
 5   0  0.5627232E-03  0.1144081E+04  0.7818609E-02  0.9163262E-01
        2   -1    0    0  501    0  0.00000000000E+00  0.00000000000E+00  0.73449078891E+03  0.73449078891E+03  0.25500000920E-02 0.  1.
       -2   -1    0    0    0  501  0.00000000000E+00  0.00000000000E+00 -0.44551964527E+03  0.44551964527E+03  0.25500000920E-02 0. -1.
    10030    2    1    2    0    0  0.00000000000E+00  0.00000000000E+00  0.28897114364E+03  0.11800104342E+04  0.11440805491E+04 0.  0.
        2    1    3    3  502    0 -0.55341138966E+03  0.30194868123E+01 -0.48253749043E+01  0.55344066327E+03  0.25500000920E-02 0. -1.
       -2    1    3    3    0  502  0.55341138966E+03 -0.30194868123E+01  0.29379651854E+03  0.62656977091E+03  0.25500000920E-02 0.  1.
</event>
<event>
 5   0  0.5627232E-03  0.1068211E+04  0.7818609E-02  0.9236741E-01
        2   -1    0    0  501    0  0.00000000000E+00  0.00000000000E+00  0.94885281750E+03  0.94885281751E+03  0.25500000920E-02 0. -1.
       -2   -1    0    0    0  501  0.00000000000E+00  0.00000000000E+00 -0.30064607935E+03  0.30064607936E+03  0.25500000920E-02 0.  1.
    10030    2    1    2    0    0  0.00000000000E+00  0.00000000000E+00  0.64820673815E+03  0.12494988969E+04  0.10682113639E+04 0.  0.
        2    1    3    3  502    0 -0.10059940343E+03 -0.16293984770E+03  0.90731823627E+03  0.92730578334E+03  0.25500000920E-02 0. -1.
       -2    1    3    3    0  502  0.10059940343E+03  0.16293984770E+03 -0.25911149812E+03  0.32219311352E+03  0.25500000920E-02 0.  1.
</event>
<event>
 5   0  0.5500363E-03  0.1091617E+04  0.7818609E-02  0.9213401E-01
       -2   -1    0    0    0  501  0.00000000000E+00  0.00000000000E+00  0.19486796019E+03  0.19486796020E+03  0.25500000920E-02 0. -1.
        2   -1    0    0  501    0  0.00000000000E+00  0.00000000000E+00 -0.15287627467E+04  0.15287627467E+04  0.25500000920E-02 0.  1.
    10030    2    1    2    0    0  0.00000000000E+00  0.00000000000E+00 -0.13338947866E+04  0.17236307069E+04  0.10916169256E+04 0.  0.
        3    1    3    3  502    0 -0.40644313989E+03 -0.96247790426E+02 -0.12217194679E+04  0.12911460535E+04  0.10100000352E+00 0.  1.
       -3    1    3    3    0  502  0.40644313989E+03  0.96247790426E+02 -0.11217531866E+03  0.43248465342E+03  0.10100000352E+00 0. -1.
</event>
<event>
 5   0  0.3316784E-03  0.1093230E+04  0.7818609E-02  0.9211816E-01
       -1   -1    0    0    0  501  0.00000000000E+00  0.00000000000E+00  0.19211179382E+03  0.19211179389E+03  0.50400001928E-02 0.  1.
        1   -1    0    0  501    0  0.00000000000E+00  0.00000000000E+00 -0.15552818668E+04  0.15552818668E+04  0.50400001928E-02 0. -1.
    10030    2    1    2    0    0  0.00000000000E+00  0.00000000000E+00 -0.13631700730E+04  0.17473936607E+04  0.10932300570E+04 0.  0.
        4    1    3    3  502    0 -0.34876478917E+03  0.16639246470E+03 -0.12995247493E+04  0.13557616005E+04  0.12699999809E+01 0. -1.
       -4    1    3    3    0  502  0.34876478917E+03 -0.16639246470E+03 -0.63645323733E+02  0.39163206024E+03  0.12699999809E+01 0.  1.
</event>
<event>
 5   0  0.3215352E-03  0.1103904E+04  0.7818609E-02  0.9201396E-01
       -1   -1    0    0    0  501  0.00000000000E+00  0.00000000000E+00  0.26136313423E+03  0.26136313428E+03  0.50400001928E-02 0. -1.
        1   -1    0    0  501    0  0.00000000000E+00  0.00000000000E+00 -0.11656225556E+04  0.11656225556E+04  0.50400001928E-02 0.  1.
    10030    2    1    2    0    0  0.00000000000E+00  0.00000000000E+00 -0.90425942139E+03  0.14269856899E+04  0.11039035547E+04 0.  0.
        1    1    3    3  502    0  0.27011519943E+03 -0.17047818654E+03 -0.10340128643E+04  0.10822234689E+04  0.50400001928E-02 0.  1.
       -1    1    3    3    0  502 -0.27011519943E+03  0.17047818654E+03  0.12975344294E+03  0.34476222100E+03  0.50400001928E-02 0. -1.
</event>
<event>
 5   0  0.3328741E-03  0.1104814E+04  0.7818609E-02  0.9200512E-01
       -1   -1    0    0    0  501  0.00000000000E+00  0.00000000000E+00  0.52455809153E+03  0.52455809156E+03  0.50400001928E-02 0. -1.
        1   -1    0    0  501    0  0.00000000000E+00  0.00000000000E+00 -0.58173465936E+03  0.58173465939E+03  0.50400001928E-02 0.  1.
    10030    2    1    2    0    0  0.00000000000E+00  0.00000000000E+00 -0.57176567832E+02  0.11062927509E+04  0.11048142336E+04 0.  0.
        3    1    3    3  502    0 -0.27638075029E+03 -0.27540856578E+03 -0.42015816593E+03  0.57338389569E+03  0.10100000352E+00 0.  1.
       -3    1    3    3    0  502  0.27638075029E+03  0.27540856578E+03  0.36298159810E+03  0.53290885525E+03  0.10100000352E+00 0. -1.
</event>
<event>
 5   0  0.3320192E-03  0.1032215E+04  0.7818609E-02  0.9273901E-01
        1   -1    0    0  501    0  0.00000000000E+00  0.00000000000E+00  0.13734698526E+04  0.13734698526E+04  0.50400001928E-02 0. -1.
       -1   -1    0    0    0  501  0.00000000000E+00  0.00000000000E+00 -0.19393709768E+03  0.19393709775E+03  0.50400001928E-02 0.  1.
    10030    2    1    2    0    0  0.00000000000E+00  0.00000000000E+00  0.11795327549E+04  0.15674069503E+04  0.10322146231E+04 0.  0.
        2    1    3    3  502    0  0.47408281243E+03  0.60655366000E+02  0.29401870680E+03  0.56114221585E+03  0.25500000920E-02 0.  1.
       -2    1    3    3    0  502 -0.47408281243E+03 -0.60655366000E+02  0.88551404809E+03  0.10062647345E+04  0.25500000920E-02 0. -1.
</event>
<event>
 5   0  0.3215352E-03  0.1105587E+04  0.7818609E-02  0.9199763E-01
       -1   -1    0    0    0  501  0.00000000000E+00  0.00000000000E+00  0.14840595552E+03  0.14840595561E+03  0.50400001928E-02 0.  1.
        1   -1    0    0  501    0  0.00000000000E+00  0.00000000000E+00 -0.20590866526E+04  0.20590866526E+04  0.50400001928E-02 0. -1.
    10030    2    1    2    0    0  0.00000000000E+00  0.00000000000E+00 -0.19106806971E+04  0.22074926082E+04  0.11055871242E+04 0.  0.
        1    1    3    3  502    0 -0.19108412392E+02 -0.50124165940E+03 -0.49147480950E+03  0.70225054001E+03  0.50400001928E-02 0.  1.
       -1    1    3    3    0  502  0.19108412392E+02  0.50124165940E+03 -0.14192058876E+04  0.15052420682E+04  0.50400001928E-02 0. -1.
</event>
<event>
 5   0  0.5946359E-03  0.1092952E+04  0.7818609E-02  0.9212089E-01
        2   -1    0    0  501    0  0.00000000000E+00  0.00000000000E+00  0.88093913599E+03  0.88093913599E+03  0.25500000920E-02 0. -1.
       -2   -1    0    0    0  501  0.00000000000E+00  0.00000000000E+00 -0.33899743041E+03  0.33899743042E+03  0.25500000920E-02 0.  1.
    10030    2    1    2    0    0  0.00000000000E+00  0.00000000000E+00  0.54194170558E+03  0.12199365664E+04  0.10929521553E+04 0.  0.
        4    1    3    3  502    0  0.28637322641E+02  0.54264802874E+03  0.20639098998E+03  0.58127947925E+03  0.12699999809E+01 0. -1.
       -4    1    3    3    0  502 -0.28637322641E+02 -0.54264802874E+03  0.33555071560E+03  0.63865708716E+03  0.12699999809E+01 0.  1.
</event>
<event>
 5   0  0.5946359E-03  0.1095833E+04  0.7818609E-02  0.9209263E-01
       -2   -1    0    0    0  501  0.00000000000E+00  0.00000000000E+00  0.15097694298E+03  0.15097694300E+03  0.25500000920E-02 0.  1.
        2   -1    0    0  501    0  0.00000000000E+00  0.00000000000E+00 -0.19884655517E+04  0.19884655517E+04  0.25500000920E-02 0. -1.
    10030    2    1    2    0    0  0.00000000000E+00  0.00000000000E+00 -0.18374886087E+04  0.21394424947E+04  0.10958329257E+04 0.  0.
        4    1    3    3  502    0  0.35853500953E+03  0.83042327509E+02 -0.12625758889E+03  0.38908350372E+03  0.12699999809E+01 0.  1.
       -4    1    3    3    0  502 -0.35853500953E+03 -0.83042327509E+02 -0.17112310198E+04  0.17503589910E+04  0.12699999809E+01 0. -1.
</event>
<event>
 5   0  0.5627232E-03  0.1091605E+04  0.7818609E-02  0.9213413E-01
       -2   -1    0    0    0  501  0.00000000000E+00  0.00000000000E+00  0.42661177023E+03  0.42661177023E+03  0.25500000920E-02 0.  1.
        2   -1    0    0  501    0  0.00000000000E+00  0.00000000000E+00 -0.69829339082E+03  0.69829339082E+03  0.25500000920E-02 0. -1.
    10030    2    1    2    0    0  0.00000000000E+00  0.00000000000E+00 -0.27168162059E+03  0.11249051611E+04  0.10916046530E+04 0.  0.
        2    1    3    3  502    0  0.41864981653E+03  0.34774589592E+03 -0.93285745559E+02  0.55217488837E+03  0.25500000920E-02 0. -1.
       -2    1    3    3    0  502 -0.41864981653E+03 -0.34774589592E+03 -0.17839587503E+03  0.57273027269E+03  0.25500000920E-02 0.  1.
</event>
<event>
 5   0  0.2185750E-03  0.1133769E+04  0.7818609E-02  0.9172890E-01
       -3   -1    0    0    0  501  0.00000000000E+00  0.00000000000E+00  0.23238259584E+03  0.23238261779E+03  0.10100000352E+00 0. -1.
        3   -1    0    0  501    0  0.00000000000E+00  0.00000000000E+00 -0.13828822782E+04  0.13828822819E+04  0.10100000352E+00 0.  1.
    10030    2    1    2    0    0  0.00000000000E+00  0.00000000000E+00 -0.11504996824E+04  0.16152648997E+04  0.11337685730E+04 0.  0.
        2    1    3    3  502    0  0.19196696735E+03 -0.45598257960E+03 -0.18097862795E+03  0.52680612490E+03  0.25500000920E-02 0. -1.
       -2    1    3    3    0  502 -0.19196696735E+03  0.45598257960E+03 -0.96952105441E+03  0.10884587748E+04  0.25500000920E-02 0.  1.
</event>
<event>
 5   0  0.3316784E-03  0.1090962E+04  0.7818609E-02  0.9214046E-01
        1   -1    0    0  501    0  0.00000000000E+00  0.00000000000E+00  0.11825283980E+04  0.11825283980E+04  0.50400001928E-02 0.  1.
       -1   -1    0    0    0  501  0.00000000000E+00  0.00000000000E+00 -0.25162151121E+03  0.25162151126E+03  0.50400001928E-02 0. -1.
    10030    2    1    2    0    0  0.00000000000E+00  0.00000000000E+00  0.93090688677E+03  0.14341499093E+04  0.10909621123E+04 0.  0.
        4    1    3    3  502    0 -0.35038917480E+03  0.35328007685E+03  0.17159823059E+03  0.52633349898E+03  0.12699999809E+01 0. -1.
       -4    1    3    3    0  502  0.35038917480E+03 -0.35328007685E+03  0.75930865618E+03  0.90781641027E+03  0.12699999809E+01 0.  1.
</event>
<event>
 5   0  0.3328741E-03  0.1098134E+04  0.7818609E-02  0.9207012E-01
       -1   -1    0    0    0  501  0.00000000000E+00  0.00000000000E+00  0.95013932502E+03  0.95013932503E+03  0.50400001928E-02 0. -1.
        1   -1    0    0  501    0  0.00000000000E+00  0.00000000000E+00 -0.31729513945E+03  0.31729513949E+03  0.50400001928E-02 0.  1.
    10030    2    1    2    0    0  0.00000000000E+00  0.00000000000E+00  0.63284418557E+03  0.12674344645E+04  0.10981340349E+04 0.  0.
        3    1    3    3  502    0 -0.75625854461E+02  0.52959761695E+03  0.45909963578E+03  0.70495772321E+03  0.10100000352E+00 0. -1.
       -3    1    3    3    0  502  0.75625854461E+02 -0.52959761695E+03  0.17374454979E+03  0.56247674132E+03  0.10100000352E+00 0.  1.
</event>
<event>
 5   0  0.3316784E-03  0.1125968E+04  0.7818609E-02  0.9180245E-01
        1   -1    0    0  501    0  0.00000000000E+00  0.00000000000E+00  0.19157953345E+04  0.19157953345E+04  0.50400001928E-02 0. -1.
       -1   -1    0    0    0  501  0.00000000000E+00  0.00000000000E+00 -0.16544101731E+03  0.16544101739E+03  0.50400001928E-02 0.  1.
    10030    2    1    2    0    0  0.00000000000E+00  0.00000000000E+00  0.17503543172E+04  0.20812363519E+04  0.11259682574E+04 0.  0.
        4    1    3    3  502    0 -0.46604209732E+03 -0.31582480521E+03  0.88071378765E+03  0.10452745729E+04  0.12699999809E+01 0.  1.
       -4    1    3    3    0  502  0.46604209732E+03  0.31582480521E+03  0.86964052957E+03  0.10359617790E+04  0.12699999809E+01 0. -1.
</event>
<event>
 5   0  0.3316784E-03  0.1104685E+04  0.7818609E-02  0.9200637E-01
        1   -1    0    0  501    0  0.00000000000E+00  0.00000000000E+00  0.65414567198E+03  0.65414567200E+03  0.50400001928E-02 0. -1.
       -1   -1    0    0    0  501  0.00000000000E+00  0.00000000000E+00 -0.46638310000E+03  0.46638310002E+03  0.50400001928E-02 0.  1.
    10030    2    1    2    0    0  0.00000000000E+00  0.00000000000E+00  0.18776257198E+03  0.11205287720E+04  0.11046854509E+04 0.  0.
        4    1    3    3  502    0 -0.33861687992E+02  0.54381592617E+03  0.20371303406E+01  0.54487442431E+03  0.12699999809E+01 0. -1.
       -4    1    3    3    0  502  0.33861687992E+02 -0.54381592617E+03  0.18572544164E+03  0.57565434771E+03  0.12699999809E+01 0.  1.
</event>
<event>
 5   0  0.5723194E-03  0.1087788E+04  0.7818609E-02  0.9217177E-01
       -2   -1    0    0    0  501  0.00000000000E+00  0.00000000000E+00  0.19634157372E+03  0.19634157373E+03  0.25500000920E-02 0. -1.
        2   -1    0    0  501    0  0.00000000000E+00  0.00000000000E+00 -0.15066637603E+04  0.15066637603E+04  0.25500000920E-02 0.  1.
    10030    2    1    2    0    0  0.00000000000E+00  0.00000000000E+00 -0.13103221865E+04  0.17030053340E+04  0.10877880929E+04 0.  0.
        1    1    3    3  502    0  0.10970158629E+03 -0.21231701208E+03  0.10973949756E+03  0.26297473073E+03  0.50400001928E-02 0. -1.
       -1    1    3    3    0  502 -0.10970158629E+03  0.21231701208E+03 -0.14200616841E+04  0.14400306033E+04  0.50400001928E-02 0.  1.
</event>
<event>
 5   0  0.5627232E-03  0.1117584E+04  0.7818609E-02  0.9188221E-01
       -2   -1    0    0    0  501  0.00000000000E+00  0.00000000000E+00  0.56637123043E+03  0.56637123044E+03  0.25500000920E-02 0. -1.
        2   -1    0    0  501    0  0.00000000000E+00  0.00000000000E+00 -0.55131397790E+03  0.55131397791E+03  0.25500000920E-02 0.  1.
    10030    2    1    2    0    0  0.00000000000E+00  0.00000000000E+00  0.15057252531E+02  0.11176852083E+04  0.11175837795E+04 0.  0.
        2    1    3    3  502    0  0.32156251496E+03 -0.38979559935E+03  0.24609862717E+03  0.56205657598E+03  0.25500000920E-02 0. -1.
       -2    1    3    3    0  502 -0.32156251496E+03  0.38979559935E+03 -0.23104137464E+03  0.55562863236E+03  0.25500000920E-02 0.  1.
</event>
<event>
 5   0  0.5500363E-03  0.1099552E+04  0.7818609E-02  0.9205629E-01
        2   -1    0    0  501    0  0.00000000000E+00  0.00000000000E+00  0.87780068764E+03  0.87780068764E+03  0.25500000920E-02 0.  1.
       -2   -1    0    0    0  501  0.00000000000E+00  0.00000000000E+00 -0.34433066935E+03  0.34433066936E+03  0.25500000920E-02 0. -1.
    10030    2    1    2    0    0  0.00000000000E+00  0.00000000000E+00  0.53347001829E+03  0.12221313570E+04  0.10995520876E+04 0.  0.
        3    1    3    3  502    0 -0.48575571567E+03  0.14226442279E+03  0.50526596514E+03  0.71518633029E+03  0.10100000352E+00 0.  1.
       -3    1    3    3    0  502  0.48575571567E+03 -0.14226442279E+03  0.28204053149E+02  0.50694502671E+03  0.10100000352E+00 0. -1.
</event>
<event>
 5   0  0.5941585E-03  0.1087748E+04  0.7818609E-02  0.9217217E-01
        2   -1    0    0  501    0  0.00000000000E+00  0.00000000000E+00  0.22816340076E+04  0.22816340076E+04  0.25500000920E-02 0.  1.
       -2   -1    0    0    0  501  0.00000000000E+00  0.00000000000E+00 -0.12964336030E+03  0.12964336033E+03  0.25500000920E-02 0. -1.
    10030    2    1    2    0    0  0.00000000000E+00  0.00000000000E+00  0.21519906473E+04  0.24112773680E+04  0.10877475806E+04 0.  0.
        5    1    3    3  502    0  0.44672991497E+03 -0.31016876424E+03  0.10713822642E+04  0.12015216707E+04  0.46999998093E+01 0. -1.
       -5    1    3    3    0  502 -0.44672991497E+03  0.31016876424E+03  0.10806083832E+04  0.12097556972E+04  0.46999998093E+01 0.  1.
</event>
<event>
 5   0  0.3241189E-03  0.1146498E+04  0.7818609E-02  0.9161020E-01
       -1   -1    0    0    0  501  0.00000000000E+00  0.00000000000E+00  0.17482828042E+03  0.17482828050E+03  0.50400001928E-02 0.  1.
        1   -1    0    0  501    0  0.00000000000E+00  0.00000000000E+00 -0.18796414222E+04  0.18796414222E+04  0.50400001928E-02 0. -1.
    10030    2    1    2    0    0  0.00000000000E+00  0.00000000000E+00 -0.17048131418E+04  0.20544697027E+04  0.11464981077E+04 0.  0.
        5    1    3    3  502    0  0.33978979699E+03 -0.46128089526E+03 -0.81863327592E+03  0.99920953804E+03  0.46999998093E+01 0.  1.
       -5    1    3    3    0  502 -0.33978979699E+03  0.46128089526E+03 -0.88617986583E+03  0.10552601646E+04  0.46999998093E+01 0. -1.
</event>
<event>
 5   0  0.3320192E-03  0.1086650E+04  0.7818609E-02  0.9218303E-01
        1   -1    0    0  501    0  0.00000000000E+00  0.00000000000E+00  0.91322775624E+03  0.91322775626E+03  0.50400001928E-02 0.  1.
       -1   -1    0    0    0  501  0.00000000000E+00  0.00000000000E+00 -0.32325111529E+03  0.32325111533E+03  0.50400001928E-02 0. -1.
    10030    2    1    2    0    0  0.00000000000E+00  0.00000000000E+00  0.58997664096E+03  0.12364788716E+04  0.10866496965E+04 0.  0.
        2    1    3    3  502    0 -0.50002360537E+03  0.13154941938E+03  0.48496017717E+03  0.70888308564E+03  0.25500000920E-02 0.  1.
       -2    1    3    3    0  502  0.50002360537E+03 -0.13154941938E+03  0.10501646379E+03  0.52759578594E+03  0.25500000920E-02 0. -1.
</event>
<event>
 5   0  0.3241189E-03  0.1112298E+04  0.7818609E-02  0.9193288E-01
       -1   -1    0    0    0  501  0.00000000000E+00  0.00000000000E+00  0.46539558537E+03  0.46539558539E+03  0.50400001928E-02 0.  1.
        1   -1    0    0  501    0  0.00000000000E+00  0.00000000000E+00 -0.66459961787E+03  0.66459961789E+03  0.50400001928E-02 0. -1.
    10030    2    1    2    0    0  0.00000000000E+00  0.00000000000E+00 -0.19920403251E+03  0.11299952033E+04  0.11122980324E+04 0.  0.
        5    1    3    3  502    0  0.35303629093E+03 -0.37995524483E+03  0.10428751095E+03  0.52905442606E+03  0.46999998093E+01 0. -1.
       -5    1    3    3    0  502 -0.35303629093E+03  0.37995524483E+03 -0.30349154346E+03  0.60094077723E+03  0.46999998093E+01 0.  1.
</event>
<event>
 5   0  0.5627232E-03  0.1092239E+04  0.7818609E-02  0.9212790E-01
       -2   -1    0    0    0  501  0.00000000000E+00  0.00000000000E+00  0.26982650472E+03  0.26982650473E+03  0.25500000920E-02 0.  1.
        2   -1    0    0  501    0  0.00000000000E+00  0.00000000000E+00 -0.11053267111E+04  0.11053267111E+04  0.25500000920E-02 0. -1.
    10030    2    1    2    0    0  0.00000000000E+00  0.00000000000E+00 -0.83550020640E+03  0.13751532159E+04  0.10922388805E+04 0.  0.
        2    1    3    3  502    0 -0.50618037193E+03 -0.70305921298E+01 -0.67570669460E+03  0.84430298785E+03  0.25500000920E-02 0. -1.
       -2    1    3    3    0  502  0.50618037193E+03  0.70305921298E+01 -0.15979351181E+03  0.53085022801E+03  0.25500000920E-02 0.  1.
</event>
<event>
 5   0  0.5723194E-03  0.9626109E+03  0.7818609E-02  0.9350531E-01
       -2   -1    0    0    0  501  0.00000000000E+00  0.00000000000E+00  0.46319080765E+03  0.46319080766E+03  0.25500000920E-02 0. -1.
        2   -1    0    0  501    0  0.00000000000E+00  0.00000000000E+00 -0.50012855421E+03  0.50012855422E+03  0.25500000920E-02 0.  1.
    10030    2    1    2    0    0  0.00000000000E+00  0.00000000000E+00 -0.36937746560E+02  0.96331936188E+03  0.96261092652E+03 0.  0.
        1    1    3    3  502    0  0.34853916423E+03 -0.27820956840E+03  0.16270257908E+03  0.47471279971E+03  0.50400001928E-02 0. -1.
       -1    1    3    3    0  502 -0.34853916423E+03  0.27820956840E+03 -0.19964032564E+03  0.48860656217E+03  0.50400001928E-02 0.  1.
</event>
<event>
 5   0  0.5723194E-03  0.1074997E+04  0.7818609E-02  0.9229910E-01
        2   -1    0    0  501    0  0.00000000000E+00  0.00000000000E+00  0.11699986916E+04  0.11699986916E+04  0.25500000920E-02 0. -1.
       -2   -1    0    0    0  501  0.00000000000E+00  0.00000000000E+00 -0.24692711530E+03  0.24692711531E+03  0.25500000920E-02 0.  1.
    10030    2    1    2    0    0  0.00000000000E+00  0.00000000000E+00  0.92307157630E+03  0.14169258069E+04  0.10749965615E+04 0.  0.
        1    1    3    3  502    0 -0.42854162236E+02 -0.99725220752E+02 -0.23233110567E+03  0.25643584298E+03  0.50400001928E-02 0.  1.
       -1    1    3    3    0  502  0.42854162236E+02  0.99725220752E+02  0.11554026820E+04  0.11604899639E+04  0.50400001928E-02 0. -1.
</event>
<event>
 5   0  0.5500363E-03  0.1106463E+04  0.7818609E-02  0.9198916E-01
        2   -1    0    0  501    0  0.00000000000E+00  0.00000000000E+00  0.53803063584E+03  0.53803063585E+03  0.25500000920E-02 0.  1.
       -2   -1    0    0    0  501  0.00000000000E+00  0.00000000000E+00 -0.56886152483E+03  0.56886152484E+03  0.25500000920E-02 0. -1.
    10030    2    1    2    0    0  0.00000000000E+00  0.00000000000E+00 -0.30830888993E+02  0.11068921607E+04  0.11064627023E+04 0.  0.
        3    1    3    3  502    0  0.51694310327E+03  0.84159874207E+01 -0.21237740543E+03  0.55893217246E+03  0.10100000352E+00 0.  1.
       -3    1    3    3    0  502 -0.51694310327E+03 -0.84159874207E+01  0.18154651644E+03  0.54795998823E+03  0.10100000352E+00 0. -1.
</event>
<event>
 5   0  0.3316784E-03  0.1102444E+04  0.7818609E-02  0.9202813E-01
       -1   -1    0    0    0  501  0.00000000000E+00  0.00000000000E+00  0.59210150008E+03  0.59210150010E+03  0.50400001928E-02 0.  1.
        1   -1    0    0  501    0  0.00000000000E+00  0.00000000000E+00 -0.51316493584E+03  0.51316493587E+03  0.50400001928E-02 0. -1.
    10030    2    1    2    0    0  0.00000000000E+00  0.00000000000E+00  0.78936564234E+02  0.11052664360E+04  0.11024440636E+04 0.  0.
        4    1    3    3  502    0 -0.25439701278E+03 -0.47571802358E+03  0.15297755699E+03  0.56073988971E+03  0.12699999809E+01 0.  1.
       -4    1    3    3    0  502  0.25439701278E+03  0.47571802358E+03 -0.74040992754E+02  0.54452654626E+03  0.12699999809E+01 0. -1.
</event>
<event>
 5   0  0.5500363E-03  0.1150385E+04  0.7818609E-02  0.9157429E-01
       -2   -1    0    0    0  501  0.00000000000E+00  0.00000000000E+00  0.30069489907E+03  0.30069489908E+03  0.25500000920E-02 0. -1.
        2   -1    0    0  501    0  0.00000000000E+00  0.00000000000E+00 -0.11002719203E+04  0.11002719204E+04  0.25500000920E-02 0.  1.
    10030    2    1    2    0    0  0.00000000000E+00  0.00000000000E+00 -0.79957702128E+03  0.14009668194E+04  0.11503845514E+04 0.  0.
        3    1    3    3  502    0  0.46708572056E+02 -0.25783171794E+03  0.22378922374E+03  0.34458745239E+03  0.10100000352E+00 0. -1.
       -3    1    3    3    0  502 -0.46708572056E+02  0.25783171794E+03 -0.10233662450E+04  0.10563793670E+04  0.10100000352E+00 0.  1.
</event>
<event>
 5   0  0.3320192E-03  0.1097660E+04  0.7818609E-02  0.9207475E-01
        1   -1    0    0  501    0  0.00000000000E+00  0.00000000000E+00  0.36314041772E+03  0.36314041775E+03  0.50400001928E-02 0. -1.
       -1   -1    0    0    0  501  0.00000000000E+00  0.00000000000E+00 -0.82947143775E+03  0.82947143776E+03  0.50400001928E-02 0.  1.
    10030    2    1    2    0    0  0.00000000000E+00  0.00000000000E+00 -0.46633102003E+03  0.11926118555E+04  0.10976604291E+04 0.  0.
        2    1    3    3  502    0  0.47288563010E+03  0.72951004102E+02  0.58923999386E+02  0.48209408404E+03  0.25500000920E-02 0. -1.
       -2    1    3    3    0  502 -0.47288563010E+03 -0.72951004102E+02 -0.52525501942E+03  0.71051777148E+03  0.25500000920E-02 0.  1.
</event>
<event>
 5   0  0.2185750E-03  0.1078027E+04  0.7818609E-02  0.9226877E-01
        4   -1    0    0  501    0  0.00000000000E+00  0.00000000000E+00  0.23743318468E+03  0.23743658119E+03  0.12699999809E+01 0. -1.
       -4   -1    0    0    0  501  0.00000000000E+00  0.00000000000E+00 -0.12236382989E+04  0.12236389580E+04  0.12699999809E+01 0.  1.
    10030    2    1    2    0    0  0.00000000000E+00  0.00000000000E+00 -0.98620511424E+03  0.14610755392E+04  0.10780265320E+04 0.  0.
        4    1    3    3  502    0 -0.65258180951E+02 -0.20627423240E+03  0.17600224966E+03  0.27890158464E+03  0.12699999809E+01 0. -1.
       -4    1    3    3    0  502  0.65258180951E+02  0.20627423240E+03 -0.11622073639E+04  0.11821739545E+04  0.12699999809E+01 0.  1.
</event>
<event>
 5   0  0.5500363E-03  0.1109697E+04  0.7818609E-02  0.9195791E-01
        2   -1    0    0  501    0  0.00000000000E+00  0.00000000000E+00  0.14640072633E+04  0.14640072633E+04  0.25500000920E-02 0. -1.
       -2   -1    0    0    0  501  0.00000000000E+00  0.00000000000E+00 -0.21028383480E+03  0.21028383481E+03  0.25500000920E-02 0.  1.
    10030    2    1    2    0    0  0.00000000000E+00  0.00000000000E+00  0.12537234285E+04  0.16742910981E+04  0.11096973669E+04 0.  0.
        3    1    3    3  502    0 -0.35732007785E+03 -0.38741666836E+03  0.36515119172E+03  0.64117448169E+03  0.10100000352E+00 0.  1.
       -3    1    3    3    0  502  0.35732007785E+03  0.38741666836E+03  0.88857223679E+03  0.10331166164E+04  0.10100000352E+00 0. -1.
</event>
<event>
 5   0  0.3320192E-03  0.1052393E+04  0.7818609E-02  0.9252876E-01
       -1   -1    0    0    0  501  0.00000000000E+00  0.00000000000E+00  0.73676065797E+03  0.73676065799E+03  0.50400001928E-02 0. -1.
        1   -1    0    0  501    0  0.00000000000E+00  0.00000000000E+00 -0.37581133798E+03  0.37581133801E+03  0.50400001928E-02 0.  1.
    10030    2    1    2    0    0  0.00000000000E+00  0.00000000000E+00  0.36094931999E+03  0.11125719960E+04  0.10523934790E+04 0.  0.
        2    1    3    3  502    0 -0.18857297414E+03  0.44215868712E+03 -0.45819050192E+02  0.48287002033E+03  0.25500000920E-02 0.  1.
       -2    1    3    3    0  502  0.18857297414E+03 -0.44215868712E+03  0.40676837018E+03  0.62970197566E+03  0.25500000920E-02 0. -1.
</event>
<event>
 5   0  0.3320192E-03  0.1103586E+04  0.7818609E-02  0.9201704E-01
        1   -1    0    0  501    0  0.00000000000E+00  0.00000000000E+00  0.19994130382E+04  0.19994130382E+04  0.50400001928E-02 0. -1.
       -1   -1    0    0    0  501  0.00000000000E+00  0.00000000000E+00 -0.15228236549E+03  0.15228236558E+03  0.50400001928E-02 0.  1.
    10030    2    1    2    0    0  0.00000000000E+00  0.00000000000E+00  0.18471306727E+04  0.21516954038E+04  0.11035856961E+04 0.  0.
        2    1    3    3  502    0 -0.69417110932E+01 -0.16701012955E+03 -0.10173147530E+03  0.19567795941E+03  0.25500000920E-02 0.  1.
       -2    1    3    3    0  502  0.69417110932E+01  0.16701012955E+03  0.19488621480E+04  0.19560174444E+04  0.25500000920E-02 0. -1.
</event>
<event>
 5   0  0.3241189E-03  0.1028206E+04  0.7818609E-02  0.9278138E-01
        1   -1    0    0  501    0  0.00000000000E+00  0.00000000000E+00  0.38095949695E+03  0.38095949699E+03  0.50400001928E-02 0. -1.
       -1   -1    0    0    0  501  0.00000000000E+00  0.00000000000E+00 -0.69378011611E+03  0.69378011613E+03  0.50400001928E-02 0.  1.
    10030    2    1    2    0    0  0.00000000000E+00  0.00000000000E+00 -0.31282061916E+03  0.10747396131E+04  0.10282064463E+04 0.  0.
        5    1    3    3  502    0  0.73999957934E+02 -0.59730982403E+02 -0.68448349070E+03  0.69107418059E+03  0.46999998093E+01 0.  1.
       -5    1    3    3    0  502 -0.73999957934E+02  0.59730982403E+02  0.37166287155E+03  0.38366543253E+03  0.46999998093E+01 0. -1.
</event>
<event>
 5   0  0.5627232E-03  0.1110911E+04  0.7818609E-02  0.9194622E-01
       -2   -1    0    0    0  501  0.00000000000E+00  0.00000000000E+00  0.36451787517E+03  0.36451787518E+03  0.25500000920E-02 0. -1.
        2   -1    0    0  501    0  0.00000000000E+00  0.00000000000E+00 -0.84640754541E+03  0.84640754541E+03  0.25500000920E-02 0.  1.
    10030    2    1    2    0    0  0.00000000000E+00  0.00000000000E+00 -0.48188967024E+03  0.12109254206E+04  0.11109107615E+04 0.  0.
        2    1    3    3  502    0  0.33168097797E+03  0.32161408692E+03  0.95171156812E+02  0.47170482417E+03  0.25500000920E-02 0. -1.
       -2    1    3    3    0  502 -0.33168097797E+03 -0.32161408692E+03 -0.57706082705E+03  0.73922059642E+03  0.25500000920E-02 0.  1.
</event>
<event>
 5   0  0.5627232E-03  0.1104978E+04  0.7818609E-02  0.9200353E-01
       -2   -1    0    0    0  501  0.00000000000E+00  0.00000000000E+00  0.34719576182E+03  0.34719576183E+03  0.25500000920E-02 0. -1.
        2   -1    0    0  501    0  0.00000000000E+00  0.00000000000E+00 -0.87917008166E+03  0.87917008167E+03  0.25500000920E-02 0.  1.
    10030    2    1    2    0    0  0.00000000000E+00  0.00000000000E+00 -0.53197431984E+03  0.12263658435E+04  0.11049780564E+04 0.  0.
        2    1    3    3  502    0 -0.23214523898E+03 -0.13676628454E+03 -0.80130999849E+03  0.84539584944E+03  0.25500000920E-02 0.  1.
       -2    1    3    3    0  502  0.23214523898E+03  0.13676628454E+03  0.26933567865E+03  0.38096999405E+03  0.25500000920E-02 0. -1.
</event>
<event>
 5   0  0.3328741E-03  0.1117222E+04  0.7818609E-02  0.9188567E-01
       -1   -1    0    0    0  501  0.00000000000E+00  0.00000000000E+00  0.30867788895E+03  0.30867788899E+03  0.50400001928E-02 0. -1.
        1   -1    0    0  501    0  0.00000000000E+00  0.00000000000E+00 -0.10109118672E+04  0.10109118672E+04  0.50400001928E-02 0.  1.
    10030    2    1    2    0    0  0.00000000000E+00  0.00000000000E+00 -0.70223397823E+03  0.13195897562E+04  0.11172218063E+04 0.  0.
        3    1    3    3  502    0 -0.50600970090E+03 -0.20982659536E+03 -0.22187516487E+03  0.59101744180E+03  0.10100000352E+00 0. -1.
       -3    1    3    3    0  502  0.50600970090E+03  0.20982659536E+03 -0.48035881336E+03  0.72857231440E+03  0.10100000352E+00 0.  1.
</event>
<event>
 5   0  0.5946359E-03  0.1119595E+04  0.7818609E-02  0.9186301E-01
        2   -1    0    0  501    0  0.00000000000E+00  0.00000000000E+00  0.11279895567E+04  0.11279895567E+04  0.25500000920E-02 0. -1.
       -2   -1    0    0    0  501  0.00000000000E+00  0.00000000000E+00 -0.27781590046E+03  0.27781590047E+03  0.25500000920E-02 0.  1.
    10030    2    1    2    0    0  0.00000000000E+00  0.00000000000E+00  0.85017365626E+03  0.14058054572E+04  0.11195953455E+04 0.  0.
        4    1    3    3  502    0 -0.34189326322E+03  0.43948910353E+03  0.49754640195E+03  0.74672331593E+03  0.12699999809E+01 0. -1.
       -4    1    3    3    0  502  0.34189326322E+03 -0.43948910353E+03  0.35262725431E+03  0.65908214127E+03  0.12699999809E+01 0.  1.
</event>
<event>
 5   0  0.3215352E-03  0.1100428E+04  0.7818609E-02  0.9204775E-01
        1   -1    0    0  501    0  0.00000000000E+00  0.00000000000E+00  0.66611424929E+03  0.66611424931E+03  0.50400001928E-02 0.  1.
       -1   -1    0    0    0  501  0.00000000000E+00  0.00000000000E+00 -0.45447947594E+03  0.45447947597E+03  0.50400001928E-02 0. -1.
    10030    2    1    2    0    0  0.00000000000E+00  0.00000000000E+00  0.21163477335E+03  0.11205937253E+04  0.11004276532E+04 0.  0.
        1    1    3    3  502    0  0.16487081001E+03 -0.46359701440E+03 -0.14492797464E+03  0.51294121847E+03  0.50400001928E-02 0. -1.
       -1    1    3    3    0  502 -0.16487081001E+03  0.46359701440E+03  0.35656274799E+03  0.60765250681E+03  0.50400001928E-02 0.  1.
</event>
<event>
 5   0  0.5627232E-03  0.1084698E+04  0.7818609E-02  0.9220236E-01
        2   -1    0    0  501    0  0.00000000000E+00  0.00000000000E+00  0.11957612890E+04  0.11957612890E+04  0.25500000920E-02 0. -1.
       -2   -1    0    0    0  501  0.00000000000E+00  0.00000000000E+00 -0.24598774967E+03  0.24598774968E+03  0.25500000920E-02 0.  1.
    10030    2    1    2    0    0  0.00000000000E+00  0.00000000000E+00  0.94977353930E+03  0.14417490386E+04  0.10846983518E+04 0.  0.
        2    1    3    3  502    0  0.33756085384E+03  0.39240424354E+02 -0.86922461158E+02  0.35077436510E+03  0.25500000920E-02 0.  1.
       -2    1    3    3    0  502 -0.33756085384E+03 -0.39240424354E+02  0.10366960005E+04  0.10909746735E+04  0.25500000920E-02 0. -1.
</event>
<event>
 5   0  0.3328741E-03  0.9838375E+03  0.7818609E-02  0.9326451E-01
        1   -1    0    0  501    0  0.00000000000E+00  0.00000000000E+00  0.51934579728E+03  0.51934579731E+03  0.50400001928E-02 0. -1.
       -1   -1    0    0    0  501  0.00000000000E+00  0.00000000000E+00 -0.46594018711E+03  0.46594018713E+03  0.50400001928E-02 0.  1.
    10030    2    1    2    0    0  0.00000000000E+00  0.00000000000E+00  0.53405610179E+02  0.98528598444E+03  0.98383754347E+03 0.  0.
        3    1    3    3  502    0  0.30912989431E+03 -0.37950839966E+03 -0.22319755096E+02  0.48998581473E+03  0.10100000352E+00 0. -1.
       -3    1    3    3    0  502 -0.30912989431E+03  0.37950839966E+03  0.75725365276E+02  0.49530016971E+03  0.10100000352E+00 0.  1.
</event>
<event>
 5   0  0.5723194E-03  0.1102889E+04  0.7818609E-02  0.9202380E-01
        2   -1    0    0  501    0  0.00000000000E+00  0.00000000000E+00  0.76215184039E+03  0.76215184039E+03  0.25500000920E-02 0.  1.
       -2   -1    0    0    0  501  0.00000000000E+00  0.00000000000E+00 -0.39899042015E+03  0.39899042015E+03  0.25500000920E-02 0. -1.
    10030    2    1    2    0    0  0.00000000000E+00  0.00000000000E+00  0.36316142024E+03  0.11611422605E+04  0.11028894469E+04 0.  0.
        1    1    3    3  502    0 -0.42681516977E+03  0.32754730163E+03  0.54225110439E+02  0.54073911138E+03  0.50400001928E-02 0. -1.
       -1    1    3    3    0  502  0.42681516977E+03 -0.32754730163E+03  0.30893630980E+03  0.62040314916E+03  0.50400001928E-02 0.  1.
</event>
<event>
 5   0  0.2185750E-03  0.1100594E+04  0.7818609E-02  0.9204613E-01
       -4   -1    0    0    0  501  0.00000000000E+00  0.00000000000E+00  0.59388192791E+03  0.59388328584E+03  0.12699999809E+01 0.  1.
        4   -1    0    0  501    0  0.00000000000E+00  0.00000000000E+00 -0.50990803139E+03  0.50990961294E+03  0.12699999809E+01 0. -1.
    10030    2    1    2    0    0  0.00000000000E+00  0.00000000000E+00  0.83973896523E+02  0.11037928988E+04  0.11005939978E+04 0.  0.
        4    1    3    3  502    0 -0.96182787597E+02 -0.39585689475E+03  0.41302355020E+03  0.58012401749E+03  0.12699999809E+01 0.  1.
       -4    1    3    3    0  502  0.96182787597E+02  0.39585689475E+03 -0.32904965367E+03  0.52366888129E+03  0.12699999809E+01 0. -1.
</event>
<event>
 5   0  0.3215352E-03  0.1100167E+04  0.7818609E-02  0.9205029E-01
        1   -1    0    0  501    0  0.00000000000E+00  0.00000000000E+00  0.10905758827E+04  0.10905758827E+04  0.50400001928E-02 0.  1.
       -1   -1    0    0    0  501  0.00000000000E+00  0.00000000000E+00 -0.27746053806E+03  0.27746053811E+03  0.50400001928E-02 0. -1.
    10030    2    1    2    0    0  0.00000000000E+00  0.00000000000E+00  0.81311534467E+03  0.13680364208E+04  0.11001668442E+04 0.  0.
        1    1    3    3  502    0  0.29220919550E+03 -0.36786808862E+03  0.76237277843E+03  0.89550287430E+03  0.50400001928E-02 0.  1.
       -1    1    3    3    0  502 -0.29220919550E+03  0.36786808862E+03  0.50742566238E+02  0.47253354655E+03  0.50400001928E-02 0. -1.
</event>
<event>
 5   0  0.3316784E-03  0.1037188E+04  0.7818609E-02  0.9268673E-01
        1   -1    0    0  501    0  0.00000000000E+00  0.00000000000E+00  0.28057499539E+03  0.28057499544E+03  0.50400001928E-02 0.  1.
       -1   -1    0    0    0  501  0.00000000000E+00  0.00000000000E+00 -0.95852989300E+03  0.95852989302E+03  0.50400001928E-02 0. -1.
    10030    2    1    2    0    0  0.00000000000E+00  0.00000000000E+00 -0.67795489761E+03  0.12391048885E+04  0.10371875825E+04 0.  0.
        4    1    3    3  502    0 -0.27265362725E+03  0.43815308973E+03 -0.27782935545E+03  0.58609631815E+03  0.12699999809E+01 0.  1.
       -4    1    3    3    0  502  0.27265362725E+03 -0.43815308973E+03 -0.40012554216E+03  0.65300857030E+03  0.12699999809E+01 0. -1.
</event>
<event>
 5   0  0.3316784E-03  0.1112049E+04  0.7818609E-02  0.9193527E-01
        1   -1    0    0  501    0  0.00000000000E+00  0.00000000000E+00  0.14106660981E+04  0.14106660981E+04  0.50400001928E-02 0. -1.
       -1   -1    0    0    0  501  0.00000000000E+00  0.00000000000E+00 -0.21916099580E+03  0.21916099585E+03  0.50400001928E-02 0.  1.
    10030    2    1    2    0    0  0.00000000000E+00  0.00000000000E+00  0.11915051023E+04  0.16298270940E+04  0.11120485364E+04 0.  0.
        4    1    3    3  502    0  0.17222023398E+03 -0.46664051155E+03  0.95994415909E+03  0.10811602922E+04  0.12699999809E+01 0. -1.
       -4    1    3    3    0  502 -0.17222023398E+03  0.46664051155E+03  0.23156094321E+03  0.54866680174E+03  0.12699999809E+01 0.  1.
</event>
<event>
 5   0  0.5627232E-03  0.1109199E+04  0.7818609E-02  0.9196272E-01
        2   -1    0    0  501    0  0.00000000000E+00  0.00000000000E+00  0.61725091037E+03  0.61725091037E+03  0.25500000920E-02 0.  1.
       -2   -1    0    0    0  501  0.00000000000E+00  0.00000000000E+00 -0.49830693932E+03  0.49830693933E+03  0.25500000920E-02 0. -1.
    10030    2    1    2    0    0  0.00000000000E+00  0.00000000000E+00  0.11894397105E+03  0.11155578497E+04  0.11091986512E+04 0.  0.
        2    1    3    3  502    0 -0.30472028807E+02  0.10921405759E+03  0.60546945615E+03  0.61599473800E+03  0.25500000920E-02 0.  1.
       -2    1    3    3    0  502  0.30472028807E+02 -0.10921405759E+03 -0.48652548510E+03  0.49956311170E+03  0.25500000920E-02 0. -1.
</event>
<event>
 5   0  0.5627232E-03  0.1117373E+04  0.7818609E-02  0.9188422E-01
        2   -1    0    0  501    0  0.00000000000E+00  0.00000000000E+00  0.98815330713E+03  0.98815330713E+03  0.25500000920E-02 0.  1.
       -2   -1    0    0    0  501  0.00000000000E+00  0.00000000000E+00 -0.31587286990E+03  0.31587286991E+03  0.25500000920E-02 0. -1.
    10030    2    1    2    0    0  0.00000000000E+00  0.00000000000E+00  0.67228043724E+03  0.13040261770E+04  0.11173733862E+04 0.  0.
        2    1    3    3  502    0 -0.24834661342E+03  0.14811898627E+03  0.89402673150E+03  0.93962709153E+03  0.25500000920E-02 0.  1.
       -2    1    3    3    0  502  0.24834661342E+03 -0.14811898627E+03 -0.22174629427E+03  0.36439908551E+03  0.25500000920E-02 0. -1.
</event>
<event>
 5   0  0.5946359E-03  0.1096202E+04  0.7818609E-02  0.9208902E-01
        2   -1    0    0  501    0  0.00000000000E+00  0.00000000000E+00  0.13976962291E+04  0.13976962291E+04  0.25500000920E-02 0.  1.
       -2   -1    0    0    0  501  0.00000000000E+00  0.00000000000E+00 -0.21493543578E+03  0.21493543579E+03  0.25500000920E-02 0. -1.
    10030    2    1    2    0    0  0.00000000000E+00  0.00000000000E+00  0.11827607933E+04  0.16126316649E+04  0.10962015291E+04 0.  0.
        4    1    3    3  502    0 -0.19076243704E+03 -0.35346969769E+03  0.11400106796E+04  0.12087005820E+04  0.12699999809E+01 0.  1.
       -4    1    3    3    0  502  0.19076243704E+03  0.35346969769E+03  0.42750113742E+02  0.40393108286E+03  0.12699999809E+01 0. -1.
</event>
<event>
 5   0  0.5941585E-03  0.1094566E+04  0.7818609E-02  0.9210504E-01
        2   -1    0    0  501    0  0.00000000000E+00  0.00000000000E+00  0.11201520264E+04  0.11201520264E+04  0.25500000920E-02 0. -1.
       -2   -1    0    0    0  501  0.00000000000E+00  0.00000000000E+00 -0.26739125553E+03  0.26739125554E+03  0.25500000920E-02 0.  1.
    10030    2    1    2    0    0  0.00000000000E+00  0.00000000000E+00  0.85276077085E+03  0.13875432819E+04  0.10945663191E+04 0.  0.
        5    1    3    3  502    0 -0.53763227959E+03 -0.85895637013E+02  0.35613941622E+03  0.65060272233E+03  0.46999998093E+01 0. -1.
       -5    1    3    3    0  502  0.53763227959E+03  0.85895637013E+02  0.49662135463E+03  0.73694055960E+03  0.46999998093E+01 0.  1.
</event>
<event>
 5   0  0.5627232E-03  0.1102482E+04  0.7818609E-02  0.9202776E-01
       -2   -1    0    0    0  501  0.00000000000E+00  0.00000000000E+00  0.29846904229E+03  0.29846904231E+03  0.25500000920E-02 0.  1.
        2   -1    0    0  501    0  0.00000000000E+00  0.00000000000E+00 -0.10180848861E+04  0.10180848861E+04  0.25500000920E-02 0. -1.
    10030    2    1    2    0    0  0.00000000000E+00  0.00000000000E+00 -0.71961584377E+03  0.13165539284E+04  0.11024823281E+04 0.  0.
        2    1    3    3  502    0  0.30202968985E+03  0.25395358423E+03 -0.81945177492E+03  0.90951391849E+03  0.25500000920E-02 0. -1.
       -2    1    3    3    0  502 -0.30202968985E+03 -0.25395358423E+03  0.99835931150E+02  0.40704000989E+03  0.25500000920E-02 0.  1.
</event>
<event>
 5   0  0.5723194E-03  0.1108474E+04  0.7818609E-02  0.9196972E-01
        2   -1    0    0  501    0  0.00000000000E+00  0.00000000000E+00  0.16267333419E+04  0.16267333419E+04  0.25500000920E-02 0.  1.
       -2   -1    0    0    0  501  0.00000000000E+00  0.00000000000E+00 -0.18883145695E+03  0.18883145697E+03  0.25500000920E-02 0. -1.
    10030    2    1    2    0    0  0.00000000000E+00  0.00000000000E+00  0.14379018849E+04  0.18155647988E+04  0.11084735938E+04 0.  0.
        1    1    3    3  502    0 -0.19232198361E+03  0.25159525562E+03 -0.26049766578E+02  0.31775227520E+03  0.50400001928E-02 0. -1.
       -1    1    3    3    0  502  0.19232198361E+03 -0.25159525562E+03  0.14639516515E+04  0.14978125236E+04  0.50400001928E-02 0.  1.
</event>
<event>
 5   0  0.5946359E-03  0.1099357E+04  0.7818609E-02  0.9205818E-01
        2   -1    0    0  501    0  0.00000000000E+00  0.00000000000E+00  0.52278209816E+03  0.52278209817E+03  0.25500000920E-02 0.  1.
       -2   -1    0    0    0  501  0.00000000000E+00  0.00000000000E+00 -0.57795908050E+03  0.57795908051E+03  0.25500000920E-02 0. -1.
    10030    2    1    2    0    0  0.00000000000E+00  0.00000000000E+00 -0.55176982343E+02  0.11007411787E+04  0.10993573773E+04 0.  0.
        4    1    3    3  502    0  0.45773274454E+03 -0.21197881729E+03  0.19106854447E+03  0.53940994243E+03  0.12699999809E+01 0.  1.
       -4    1    3    3    0  502 -0.45773274454E+03  0.21197881729E+03 -0.24624552681E+03  0.56133123624E+03  0.12699999809E+01 0. -1.
</event>
<event>
 5   0  0.5946359E-03  0.1094152E+04  0.7818609E-02  0.9210911E-01
        2   -1    0    0  501    0  0.00000000000E+00  0.00000000000E+00  0.17473363376E+04  0.17473363376E+04  0.25500000920E-02 0.  1.
       -2   -1    0    0    0  501  0.00000000000E+00  0.00000000000E+00 -0.17128476568E+03  0.17128476570E+03  0.25500000920E-02 0. -1.
    10030    2    1    2    0    0  0.00000000000E+00  0.00000000000E+00  0.15760515719E+04  0.19186211033E+04  0.10941519002E+04 0.  0.
        4    1    3    3  502    0  0.10040462027E+03  0.53242779039E+03  0.92076233438E+03  0.10683470078E+04  0.12699999809E+01 0.  1.
       -4    1    3    3    0  502 -0.10040462027E+03 -0.53242779039E+03  0.65528923754E+03  0.85027409551E+03  0.12699999809E+01 0. -1.
</event>
<event>
 5   0  0.5941585E-03  0.1117820E+04  0.7818609E-02  0.9187995E-01
       -2   -1    0    0    0  501  0.00000000000E+00  0.00000000000E+00  0.22332135635E+03  0.22332135637E+03  0.25500000920E-02 0.  1.
        2   -1    0    0  501    0  0.00000000000E+00  0.00000000000E+00 -0.13987934939E+04  0.13987934939E+04  0.25500000920E-02 0. -1.
    10030    2    1    2    0    0  0.00000000000E+00  0.00000000000E+00 -0.11754721375E+04  0.16221148503E+04  0.11178201292E+04 0.  0.
        5    1    3    3  502    0  0.73521567672E+02  0.89935698304E+02  0.20558110165E+03  0.23617690424E+03  0.46999998093E+01 0.  1.
       -5    1    3    3    0  502 -0.73521567672E+02 -0.89935698304E+02 -0.13810532392E+04  0.13859379460E+04  0.46999998093E+01 0. -1.
</event>
<event>
 5   0  0.3316784E-03  0.1106813E+04  0.7818609E-02  0.9198577E-01
       -1   -1    0    0    0  501  0.00000000000E+00  0.00000000000E+00  0.15681309258E+03  0.15681309266E+03  0.50400001928E-02 0.  1.
        1   -1    0    0  501    0  0.00000000000E+00  0.00000000000E+00 -0.19530186394E+04  0.19530186394E+04  0.50400001928E-02 0. -1.
    10030    2    1    2    0    0  0.00000000000E+00  0.00000000000E+00 -0.17962055468E+04  0.21098317321E+04  0.11068132504E+04 0.  0.
        4    1    3    3  502    0  0.50896052520E+03 -0.83561854116E+02 -0.12804601115E+04  0.13804358405E+04  0.12699999809E+01 0. -1.
       -4    1    3    3    0  502 -0.50896052520E+03  0.83561854116E+02 -0.51574543531E+03  0.72939589156E+03  0.12699999809E+01 0.  1.
</event>
<event>
 5   0  0.5941585E-03  0.1109044E+04  0.7818609E-02  0.9196422E-01
        2   -1    0    0  501    0  0.00000000000E+00  0.00000000000E+00  0.82319693489E+03  0.82319693489E+03  0.25500000920E-02 0.  1.
       -2   -1    0    0    0  501  0.00000000000E+00  0.00000000000E+00 -0.37353719093E+03  0.37353719094E+03  0.25500000920E-02 0. -1.
    10030    2    1    2    0    0  0.00000000000E+00  0.00000000000E+00  0.44965974395E+03  0.11967341258E+04  0.11090440400E+04 0.  0.
        5    1    3    3  502    0 -0.16636986005E+03 -0.34181372387E+03 -0.21076768118E+03  0.43469605196E+03  0.46999998093E+01 0. -1.
       -5    1    3    3    0  502  0.16636986005E+03  0.34181372387E+03  0.66042742513E+03  0.76203807387E+03  0.46999998093E+01 0.  1.
</event>
<event>
 5   0  0.5500363E-03  0.1118192E+04  0.7818609E-02  0.9187640E-01
        2   -1    0    0  501    0  0.00000000000E+00  0.00000000000E+00  0.12364878252E+04  0.12364878252E+04  0.25500000920E-02 0. -1.
       -2   -1    0    0    0  501  0.00000000000E+00  0.00000000000E+00 -0.25280330084E+03  0.25280330086E+03  0.25500000920E-02 0.  1.
    10030    2    1    2    0    0  0.00000000000E+00  0.00000000000E+00  0.98368452431E+03  0.14892911260E+04  0.11181917611E+04 0.  0.
        3    1    3    3  502    0  0.25724329940E+03 -0.41244826729E+03  0.12394460647E+03  0.50164725052E+03  0.10100000352E+00 0.  1.
       -3    1    3    3    0  502 -0.25724329940E+03  0.41244826729E+03  0.85973991784E+03  0.98764387550E+03  0.10100000352E+00 0. -1.
</event>
<event>
 5   0  0.2185750E-03  0.1106487E+04  0.7818609E-02  0.9198892E-01
        4   -1    0    0  501    0  0.00000000000E+00  0.00000000000E+00  0.73923515953E+03  0.73923625045E+03  0.12699999809E+01 0. -1.
       -4   -1    0    0    0  501  0.00000000000E+00  0.00000000000E+00 -0.41404520000E+03  0.41404714773E+03  0.12699999809E+01 0.  1.
    10030    2    1    2    0    0  0.00000000000E+00  0.00000000000E+00  0.32518995953E+03  0.11532833982E+04  0.11064872737E+04 0.  0.
        1    1    3    3  502    0 -0.93856924410E+02 -0.12253324115E+03  0.71634077600E+03  0.73278074813E+03  0.50400001928E-02 0. -1.
       -1    1    3    3    0  502  0.93856924410E+02  0.12253324115E+03 -0.39115081648E+03  0.42050265005E+03  0.50400001928E-02 0.  1.
</event>
<event>
 5   0  0.3215352E-03  0.1106748E+04  0.7818609E-02  0.9198640E-01
        1   -1    0    0  501    0  0.00000000000E+00  0.00000000000E+00  0.12264068595E+04  0.12264068596E+04  0.50400001928E-02 0.  1.
       -1   -1    0    0    0  501  0.00000000000E+00  0.00000000000E+00 -0.24969094116E+03  0.24969094121E+03  0.50400001928E-02 0. -1.
    10030    2    1    2    0    0  0.00000000000E+00  0.00000000000E+00  0.97671591839E+03  0.14760978008E+04  0.11067478178E+04 0.  0.
        1    1    3    3  502    0  0.33303382681E+03 -0.97659243412E+02 -0.86497580503E+02  0.35767399833E+03  0.50400001928E-02 0. -1.
       -1    1    3    3    0  502 -0.33303382681E+03  0.97659243412E+02  0.10632134989E+04  0.11184238024E+04  0.50400001928E-02 0.  1.
</event>
<event>
 5   0  0.3241189E-03  0.1089041E+04  0.7818609E-02  0.9215939E-01
       -1   -1    0    0    0  501  0.00000000000E+00  0.00000000000E+00  0.28718005643E+03  0.28718005648E+03  0.50400001928E-02 0.  1.
        1   -1    0    0  501    0  0.00000000000E+00  0.00000000000E+00 -0.10324625623E+04  0.10324625623E+04  0.50400001928E-02 0. -1.
    10030    2    1    2    0    0  0.00000000000E+00  0.00000000000E+00 -0.74528250589E+03  0.13196426188E+04  0.10890411507E+04 0.  0.
        5    1    3    3  502    0 -0.15623387570E+03 -0.22717169120E+00  0.25941184052E+03  0.30286245810E+03  0.46999998093E+01 0.  1.
       -5    1    3    3    0  502  0.15623387570E+03  0.22717169120E+00 -0.10046943464E+04  0.10167801607E+04  0.46999998093E+01 0. -1.
</event>
<event>
 5   0  0.3241189E-03  0.1129329E+04  0.7818609E-02  0.9177069E-01
       -1   -1    0    0    0  501  0.00000000000E+00  0.00000000000E+00  0.31700877458E+03  0.31700877462E+03  0.50400001928E-02 0.  1.
        1   -1    0    0  501    0  0.00000000000E+00  0.00000000000E+00 -0.10057946793E+04  0.10057946793E+04  0.50400001928E-02 0. -1.
    10030    2    1    2    0    0  0.00000000000E+00  0.00000000000E+00 -0.68878590475E+03  0.13228034540E+04  0.11293285418E+04 0.  0.
        5    1    3    3  502    0 -0.74205806305E+02  0.46343305326E+03  0.23309574752E+02  0.46993842450E+03  0.46999998093E+01 0.  1.
       -5    1    3    3    0  502  0.74205806305E+02 -0.46343305326E+03 -0.71209547950E+03  0.85286502946E+03  0.46999998093E+01 0. -1.
</event>
<event>
 5   0  0.5723194E-03  0.1103267E+04  0.7818609E-02  0.9202013E-01
       -2   -1    0    0    0  501  0.00000000000E+00  0.00000000000E+00  0.20536940543E+03  0.20536940544E+03  0.25500000920E-02 0. -1.
        2   -1    0    0  501    0  0.00000000000E+00  0.00000000000E+00 -0.14817185018E+04  0.14817185018E+04  0.25500000920E-02 0.  1.
    10030    2    1    2    0    0  0.00000000000E+00  0.00000000000E+00 -0.12763490964E+04  0.16870879073E+04  0.11032672346E+04 0.  0.
        1    1    3    3  502    0  0.54348674827E+03  0.90697121469E+02 -0.59783696096E+03  0.81302696469E+03  0.50400001928E-02 0. -1.
       -1    1    3    3    0  502 -0.54348674827E+03 -0.90697121469E+02 -0.67851213544E+03  0.87406094259E+03  0.50400001928E-02 0.  1.
</event>
<event>
 5   0  0.5723194E-03  0.1081658E+04  0.7818609E-02  0.9223256E-01
       -2   -1    0    0    0  501  0.00000000000E+00  0.00000000000E+00  0.51184808132E+03  0.51184808133E+03  0.25500000920E-02 0. -1.
        2   -1    0    0  501    0  0.00000000000E+00  0.00000000000E+00 -0.57145051918E+03  0.57145051919E+03  0.25500000920E-02 0.  1.
    10030    2    1    2    0    0  0.00000000000E+00  0.00000000000E+00 -0.59602437863E+02  0.10832986005E+04  0.10816577126E+04 0.  0.
        1    1    3    3  502    0 -0.25687149017E+03  0.57866544582E+01 -0.50642168553E+03  0.56787267185E+03  0.50400001928E-02 0.  1.
       -1    1    3    3    0  502  0.25687149017E+03 -0.57866544582E+01  0.44681924766E+03  0.51542592867E+03  0.50400001928E-02 0. -1.
</event>
<event>
 5   0  0.3316784E-03  0.1149747E+04  0.7818609E-02  0.9158017E-01
       -1   -1    0    0    0  501  0.00000000000E+00  0.00000000000E+00  0.12578733943E+04  0.12578733943E+04  0.50400001928E-02 0.  1.
        1   -1    0    0  501    0  0.00000000000E+00  0.00000000000E+00 -0.26272874971E+03  0.26272874976E+03  0.50400001928E-02 0. -1.
    10030    2    1    2    0    0  0.00000000000E+00  0.00000000000E+00  0.99514464455E+03  0.15206021440E+04  0.11497469360E+04 0.  0.
        4    1    3    3  502    0 -0.15032060912E+03  0.55475277478E+03  0.51270760046E+03  0.77020622116E+03  0.12699999809E+01 0. -1.
       -4    1    3    3    0  502  0.15032060912E+03 -0.55475277478E+03  0.48243704409E+03  0.75039592287E+03  0.12699999809E+01 0.  1.
</event>
<event>
 5   0  0.5627232E-03  0.1082547E+04  0.7818609E-02  0.9222372E-01
       -2   -1    0    0    0  501  0.00000000000E+00  0.00000000000E+00  0.28843435121E+03  0.28843435122E+03  0.25500000920E-02 0. -1.
        2   -1    0    0  501    0  0.00000000000E+00  0.00000000000E+00 -0.10157495975E+04  0.10157495975E+04  0.25500000920E-02 0.  1.
    10030    2    1    2    0    0  0.00000000000E+00  0.00000000000E+00 -0.72731524627E+03  0.13041839487E+04  0.10825471374E+04 0.  0.
        2    1    3    3  502    0 -0.58678956128E+02 -0.37568364737E+03 -0.82774806602E+03  0.91090520012E+03  0.25500000920E-02 0.  1.
       -2    1    3    3    0  502  0.58678956128E+02  0.37568364737E+03  0.10043281976E+03  0.39327874858E+03  0.25500000920E-02 0. -1.
</event>
<event>
 5   0  0.2185750E-03  0.1108630E+04  0.7818609E-02  0.9196821E-01
       -3   -1    0    0    0  501  0.00000000000E+00  0.00000000000E+00  0.52101975371E+03  0.52101976350E+03  0.10100000352E+00 0. -1.
        3   -1    0    0  501    0  0.00000000000E+00  0.00000000000E+00 -0.58973824859E+03  0.58973825724E+03  0.10100000352E+00 0.  1.
    10030    2    1    2    0    0  0.00000000000E+00  0.00000000000E+00 -0.68718494884E+02  0.11107580207E+04  0.11086303032E+04 0.  0.
        4    1    3    3  502    0  0.46183157826E+03 -0.23099822719E+03 -0.23627788402E+03  0.56787097039E+03  0.12699999809E+01 0.  1.
       -4    1    3    3    0  502 -0.46183157826E+03  0.23099822719E+03  0.16755938913E+03  0.54288705034E+03  0.12699999809E+01 0. -1.
</event>
<event>
 5   0  0.5941585E-03  0.1100713E+04  0.7818609E-02  0.9204497E-01
        2   -1    0    0  501    0  0.00000000000E+00  0.00000000000E+00  0.15813015829E+04  0.15813015829E+04  0.25500000920E-02 0.  1.
       -2   -1    0    0    0  501  0.00000000000E+00  0.00000000000E+00 -0.19154631695E+03  0.19154631697E+03  0.25500000920E-02 0. -1.
    10030    2    1    2    0    0  0.00000000000E+00  0.00000000000E+00  0.13897552659E+04  0.17728478999E+04  0.11007133945E+04 0.  0.
        5    1    3    3  502    0  0.48680134367E+03  0.12845198226E+03  0.10528409104E+04  0.11670353604E+04  0.46999998093E+01 0.  1.
       -5    1    3    3    0  502 -0.48680134367E+03 -0.12845198226E+03  0.33691435557E+03  0.60581253942E+03  0.46999998093E+01 0. -1.
</event>
<event>
 5   0  0.5941585E-03  0.1090115E+04  0.7818609E-02  0.9214880E-01
        2   -1    0    0  501    0  0.00000000000E+00  0.00000000000E+00  0.76808255346E+03  0.76808255346E+03  0.25500000920E-02 0.  1.
       -2   -1    0    0    0  501  0.00000000000E+00  0.00000000000E+00 -0.38679149990E+03  0.38679149991E+03  0.25500000920E-02 0. -1.
    10030    2    1    2    0    0  0.00000000000E+00  0.00000000000E+00  0.38129105355E+03  0.11548740534E+04  0.10901152286E+04 0.  0.
        5    1    3    3  502    0  0.48395234929E+03 -0.57061534536E+02  0.44927897111E+03  0.66282696006E+03  0.46999998093E+01 0.  1.
       -5    1    3    3    0  502 -0.48395234929E+03  0.57061534536E+02 -0.67987917554E+02  0.49204709331E+03  0.46999998093E+01 0. -1.
</event>
<event>
 5   0  0.3215352E-03  0.1110257E+04  0.7818609E-02  0.9195252E-01
       -1   -1    0    0    0  501  0.00000000000E+00  0.00000000000E+00  0.34526587697E+03  0.34526587701E+03  0.50400001928E-02 0. -1.
        1   -1    0    0  501    0  0.00000000000E+00  0.00000000000E+00 -0.89255147341E+03  0.89255147342E+03  0.50400001928E-02 0.  1.
    10030    2    1    2    0    0  0.00000000000E+00  0.00000000000E+00 -0.54728559644E+03  0.12378173504E+04  0.11102568482E+04 0.  0.
        1    1    3    3  502    0  0.53411489079E+03  0.15086170836E+03 -0.28633474488E+03  0.62452026209E+03  0.50400001928E-02 0.  1.
       -1    1    3    3    0  502 -0.53411489079E+03 -0.15086170836E+03 -0.26095085156E+03  0.61329708834E+03  0.50400001928E-02 0. -1.
</event>
<event>
 5   0  0.3316784E-03  0.1095621E+04  0.7818609E-02  0.9209470E-01
       -1   -1    0    0    0  501  0.00000000000E+00  0.00000000000E+00  0.84003307783E+03  0.84003307784E+03  0.50400001928E-02 0.  1.
        1   -1    0    0  501    0  0.00000000000E+00  0.00000000000E+00 -0.35724366015E+03  0.35724366019E+03  0.50400001928E-02 0. -1.
    10030    2    1    2    0    0  0.00000000000E+00  0.00000000000E+00  0.48278941767E+03  0.11972767380E+04  0.10956212692E+04 0.  0.
        4    1    3    3  502    0 -0.44766155782E+02  0.45017879495E+03  0.57897444959E+03  0.73476389562E+03  0.12699999809E+01 0.  1.
       -4    1    3    3    0  502  0.44766155782E+02 -0.45017879495E+03 -0.96185031920E+02  0.46251284241E+03  0.12699999809E+01 0. -1.
</event>
<event>
 5   0  0.5500363E-03  0.1112190E+04  0.7818609E-02  0.9193392E-01
        2   -1    0    0  501    0  0.00000000000E+00  0.00000000000E+00  0.21877950363E+04  0.21877950363E+04  0.25500000920E-02 0.  1.
       -2   -1    0    0    0  501  0.00000000000E+00  0.00000000000E+00 -0.14134844027E+03  0.14134844030E+03  0.25500000920E-02 0. -1.
    10030    2    1    2    0    0  0.00000000000E+00  0.00000000000E+00  0.20464465960E+04  0.23291434766E+04  0.11121895810E+04 0.  0.
        3    1    3    3  502    0 -0.30598640523E+03 -0.27128004129E+03  0.23401163190E+03  0.47114965250E+03  0.10100000352E+00 0.  1.
       -3    1    3    3    0  502  0.30598640523E+03  0.27128004129E+03  0.18124349641E+04  0.18579938241E+04  0.10100000352E+00 0. -1.
</event>
<event>
 5   0  0.5723194E-03  0.1113891E+04  0.7818609E-02  0.9191757E-01
        2   -1    0    0  501    0  0.00000000000E+00  0.00000000000E+00  0.10778582977E+04  0.10778582977E+04  0.25500000920E-02 0. -1.
       -2   -1    0    0    0  501  0.00000000000E+00  0.00000000000E+00 -0.28778214323E+03  0.28778214325E+03  0.25500000920E-02 0.  1.
    10030    2    1    2    0    0  0.00000000000E+00  0.00000000000E+00  0.79007615449E+03  0.13656404410E+04  0.11138911455E+04 0.  0.
        1    1    3    3  502    0 -0.27666280701E+03  0.76300233501E+02  0.98022373646E+03  0.10213729035E+04  0.50400001928E-02 0. -1.
       -1    1    3    3    0  502  0.27666280701E+03 -0.76300233501E+02 -0.19014758197E+03  0.34426753749E+03  0.50400001928E-02 0.  1.
</event>
<event>
 5   0  0.5941585E-03  0.1121522E+04  0.7818609E-02  0.9184465E-01
       -2   -1    0    0    0  501  0.00000000000E+00  0.00000000000E+00  0.29435406545E+03  0.29435406546E+03  0.25500000920E-02 0.  1.
        2   -1    0    0  501    0  0.00000000000E+00  0.00000000000E+00 -0.10682818657E+04  0.10682818657E+04  0.25500000920E-02 0. -1.
    10030    2    1    2    0    0  0.00000000000E+00  0.00000000000E+00 -0.77392780026E+03  0.13626359312E+04  0.11215223765E+04 0.  0.
        5    1    3    3  502    0 -0.33066378476E+03 -0.25869858451E+03 -0.83858568330E+03  0.93782276279E+03  0.46999998093E+01 0. -1.
       -5    1    3    3    0  502  0.33066378476E+03  0.25869858451E+03  0.64657883041E+02  0.42481316837E+03  0.46999998093E+01 0.  1.
</event>
<event>
 5   0  0.2185750E-03  0.1082753E+04  0.7818609E-02  0.9222167E-01
       -4   -1    0    0    0  501  0.00000000000E+00  0.00000000000E+00  0.48536135804E+03  0.48536301958E+03  0.12699999809E+01 0.  1.
        4   -1    0    0  501    0  0.00000000000E+00  0.00000000000E+00 -0.60385250487E+03  0.60385384037E+03  0.12699999809E+01 0. -1.
    10030    2    1    2    0    0  0.00000000000E+00  0.00000000000E+00 -0.11849114683E+03  0.10892168600E+04  0.10827526108E+04 0.  0.
        3    1    3    3  502    0  0.11831722736E+03 -0.34127598318E+02 -0.58957855541E+03  0.60230103973E+03  0.10100000352E+00 0. -1.
       -3    1    3    3    0  502 -0.11831722736E+03  0.34127598318E+02  0.47108740858E+03  0.48691582022E+03  0.10100000352E+00 0.  1.
</event>
<event>
 5   0  0.5500363E-03  0.1102582E+04  0.7818609E-02  0.9202679E-01
        2   -1    0    0  501    0  0.00000000000E+00  0.00000000000E+00  0.51491253298E+03  0.51491253298E+03  0.25500000920E-02 0.  1.
       -2   -1    0    0    0  501  0.00000000000E+00  0.00000000000E+00 -0.59023925880E+03  0.59023925881E+03  0.25500000920E-02 0. -1.
    10030    2    1    2    0    0  0.00000000000E+00  0.00000000000E+00 -0.75326725824E+02  0.11051517918E+04  0.11025816828E+04 0.  0.
        3    1    3    3  502    0  0.30944269214E+01 -0.52909113669E+03 -0.19286154126E+03  0.56315414471E+03  0.10100000352E+00 0. -1.
       -3    1    3    3    0  502 -0.30944269214E+01  0.52909113669E+03  0.11753481544E+03  0.54199764708E+03  0.10100000352E+00 0.  1.
</event>
<event>
 5   0  0.5946359E-03  0.1110129E+04  0.7818609E-02  0.9195376E-01
       -2   -1    0    0    0  501  0.00000000000E+00  0.00000000000E+00  0.38936209026E+03  0.38936209027E+03  0.25500000920E-02 0. -1.
        2   -1    0    0  501    0  0.00000000000E+00  0.00000000000E+00 -0.79128513477E+03  0.79128513478E+03  0.25500000920E-02 0.  1.
    10030    2    1    2    0    0  0.00000000000E+00  0.00000000000E+00 -0.40192304451E+03  0.11806472250E+04  0.11101287026E+04 0.  0.
        4    1    3    3  502    0 -0.50183874784E+03 -0.35557400950E+02 -0.45035334931E+03  0.67522308146E+03  0.12699999809E+01 0.  1.
       -4    1    3    3    0  502  0.50183874784E+03  0.35557400950E+02  0.48430304802E+02  0.50542414359E+03  0.12699999809E+01 0. -1.
</event>
<event>
 5   0  0.2185750E-03  0.1099031E+04  0.7818609E-02  0.9206137E-01
       -3   -1    0    0    0  501  0.00000000000E+00  0.00000000000E+00  0.80434924431E+03  0.80434925065E+03  0.10100000352E+00 0.  1.
        3   -1    0    0  501    0  0.00000000000E+00  0.00000000000E+00 -0.37541818568E+03  0.37541819927E+03  0.10100000352E+00 0. -1.
    10030    2    1    2    0    0  0.00000000000E+00  0.00000000000E+00  0.42893105863E+03  0.11797674499E+04  0.10990311110E+04 0.  0.
        2    1    3    3  502    0 -0.16929088026E+03  0.58018758647E+02  0.77219226874E+03  0.79265785708E+03  0.25500000920E-02 0.  1.
       -2    1    3    3    0  502  0.16929088026E+03 -0.58018758647E+02 -0.34326121011E+03  0.38710959284E+03  0.25500000920E-02 0. -1.
</event>
<event>
 5   0  0.5500363E-03  0.1116420E+04  0.7818609E-02  0.9189334E-01
       -2   -1    0    0    0  501  0.00000000000E+00  0.00000000000E+00  0.63392481833E+03  0.63392481833E+03  0.25500000920E-02 0.  1.
        2   -1    0    0  501    0  0.00000000000E+00  0.00000000000E+00 -0.49153825085E+03  0.49153825085E+03  0.25500000920E-02 0. -1.
    10030    2    1    2    0    0  0.00000000000E+00  0.00000000000E+00  0.14238656748E+03  0.11254630692E+04  0.11164198070E+04 0.  0.
        3    1    3    3  502    0  0.37331405980E+03 -0.38230006842E+03 -0.91612740025E+02  0.54213433196E+03  0.10100000352E+00 0. -1.
       -3    1    3    3    0  502 -0.37331405980E+03  0.38230006842E+03  0.23399930750E+03  0.58332873722E+03  0.10100000352E+00 0.  1.
</event>
<event>
 5   0  0.5946359E-03  0.1078862E+04  0.7818609E-02  0.9226043E-01
       -2   -1    0    0    0  501  0.00000000000E+00  0.00000000000E+00  0.28184382254E+03  0.28184382255E+03  0.25500000920E-02 0.  1.
        2   -1    0    0  501    0  0.00000000000E+00  0.00000000000E+00 -0.10324369326E+04  0.10324369326E+04  0.25500000920E-02 0. -1.
    10030    2    1    2    0    0  0.00000000000E+00  0.00000000000E+00 -0.75059311009E+03  0.13142807552E+04  0.10788623112E+04 0.  0.
        4    1    3    3  502    0 -0.37149575070E+03 -0.34337281191E+03 -0.60343178158E+03  0.78742968491E+03  0.12699999809E+01 0. -1.
       -4    1    3    3    0  502  0.37149575070E+03  0.34337281191E+03 -0.14716132850E+03  0.52685107028E+03  0.12699999809E+01 0.  1.
</event>
<event>
 5   0  0.5723194E-03  0.1105824E+04  0.7818609E-02  0.9199534E-01
       -2   -1    0    0    0  501  0.00000000000E+00  0.00000000000E+00  0.88183211885E+03  0.88183211886E+03  0.25500000920E-02 0.  1.
        2   -1    0    0  501    0  0.00000000000E+00  0.00000000000E+00 -0.34667782598E+03  0.34667782599E+03  0.25500000920E-02 0. -1.
    10030    2    1    2    0    0  0.00000000000E+00  0.00000000000E+00  0.53515429287E+03  0.12285099448E+04  0.11058239315E+04 0.  0.
        1    1    3    3  502    0  0.38133436861E+03  0.27572961609E+03  0.59007468624E+03  0.75473893317E+03  0.50400001928E-02 0.  1.
       -1    1    3    3    0  502 -0.38133436861E+03 -0.27572961609E+03 -0.54920393374E+02  0.47377101168E+03  0.50400001928E-02 0. -1.
</event>
<event>
 5   0  0.3316784E-03  0.1158984E+04  0.7818609E-02  0.9149535E-01
        1   -1    0    0  501    0  0.00000000000E+00  0.00000000000E+00  0.10129990669E+04  0.10129990669E+04  0.50400001928E-02 0.  1.
       -1   -1    0    0    0  501  0.00000000000E+00  0.00000000000E+00 -0.33150189460E+03  0.33150189463E+03  0.50400001928E-02 0. -1.
    10030    2    1    2    0    0  0.00000000000E+00  0.00000000000E+00  0.68149717229E+03  0.13445009615E+04  0.11589842276E+04 0.  0.
        4    1    3    3  502    0  0.53100939319E+03  0.95009263620E+02  0.95176161683E+02  0.54777536498E+03  0.12699999809E+01 0. -1.
       -4    1    3    3    0  502 -0.53100939319E+03 -0.95009263620E+02  0.58632101061E+03  0.79672559655E+03  0.12699999809E+01 0.  1.
</event>
<event>
 5   0  0.5500363E-03  0.1101365E+04  0.7818609E-02  0.9203863E-01
        2   -1    0    0  501    0  0.00000000000E+00  0.00000000000E+00  0.11878181566E+04  0.11878181567E+04  0.25500000920E-02 0.  1.
       -2   -1    0    0    0  501  0.00000000000E+00  0.00000000000E+00 -0.25530099945E+03  0.25530099946E+03  0.25500000920E-02 0. -1.
    10030    2    1    2    0    0  0.00000000000E+00  0.00000000000E+00  0.93251715720E+03  0.14431191561E+04  0.11013649033E+04 0.  0.
        3    1    3    3  502    0 -0.12319698013E+03 -0.38373288960E+03  0.95796664402E+03  0.10392923206E+04  0.10100000352E+00 0.  1.
       -3    1    3    3    0  502  0.12319698013E+03  0.38373288960E+03 -0.25449486822E+02  0.40382683548E+03  0.10100000352E+00 0. -1.
</event>
<event>
 5   0  0.5941585E-03  0.1097599E+04  0.7818609E-02  0.9207535E-01
       -2   -1    0    0    0  501  0.00000000000E+00  0.00000000000E+00  0.32023786042E+04  0.32023786042E+04  0.25500000920E-02 0.  1.
        2   -1    0    0  501    0  0.00000000000E+00  0.00000000000E+00 -0.94049076695E+02  0.94049076729E+02  0.25500000920E-02 0. -1.
    10030    2    1    2    0    0  0.00000000000E+00  0.00000000000E+00  0.31083295275E+04  0.32964276809E+04  0.10975987445E+04 0.  0.
        5    1    3    3  502    0  0.35201644525E+03  0.18853843585E+03  0.26846874176E+04  0.27142275033E+04  0.46999998093E+01 0.  1.
       -5    1    3    3    0  502 -0.35201644525E+03 -0.18853843585E+03  0.42364210986E+03  0.58220017757E+03  0.46999998093E+01 0. -1.
</event>
<event>
 5   0  0.3328741E-03  0.1085144E+04  0.7818609E-02  0.9219794E-01
       -1   -1    0    0    0  501  0.00000000000E+00  0.00000000000E+00  0.61219545263E+03  0.61219545265E+03  0.50400001928E-02 0. -1.
        1   -1    0    0  501    0  0.00000000000E+00  0.00000000000E+00 -0.48086658229E+03  0.48086658232E+03  0.50400001928E-02 0.  1.
    10030    2    1    2    0    0  0.00000000000E+00  0.00000000000E+00  0.13132887034E+03  0.10930620350E+04  0.10851439260E+04 0.  0.
        3    1    3    3  502    0  0.51030655585E+03  0.18002210574E+03  0.25833705801E+02  0.54174544766E+03  0.10100000352E+00 0. -1.
       -3    1    3    3    0  502 -0.51030655585E+03 -0.18002210574E+03  0.10549516454E+03  0.55131658731E+03  0.10100000352E+00 0.  1.
</event>
<event>
 5   0  0.2185750E-03  0.9092910E+03  0.7818609E-02  0.9414041E-01
        3   -1    0    0  501    0  0.00000000000E+00  0.00000000000E+00  0.26022726244E+03  0.26022728204E+03  0.10100000352E+00 0. -1.
       -3   -1    0    0    0  501  0.00000000000E+00  0.00000000000E+00 -0.79431539955E+03  0.79431540597E+03  0.10100000352E+00 0.  1.
    10030    2    1    2    0    0  0.00000000000E+00  0.00000000000E+00 -0.53408813711E+03  0.10545426880E+04  0.90929101096E+03 0.  0.
        3    1    3    3  502    0  0.13409872263E+03 -0.43399621914E+03 -0.24481633068E+03  0.51601379014E+03  0.10100000352E+00 0. -1.
       -3    1    3    3    0  502 -0.13409872263E+03  0.43399621914E+03 -0.28927180643E+03  0.53852889787E+03  0.10100000352E+00 0.  1.
</event>
<event>
 5   0  0.3316784E-03  0.1078793E+04  0.7818609E-02  0.9226112E-01
       -1   -1    0    0    0  501  0.00000000000E+00  0.00000000000E+00  0.29138583392E+03  0.29138583396E+03  0.50400001928E-02 0.  1.
        1   -1    0    0  501    0  0.00000000000E+00  0.00000000000E+00 -0.99849953920E+03  0.99849953921E+03  0.50400001928E-02 0. -1.
    10030    2    1    2    0    0  0.00000000000E+00  0.00000000000E+00 -0.70711370528E+03  0.12898853732E+04  0.10787930681E+04 0.  0.
        4    1    3    3  502    0  0.48631341024E+03 -0.18717809645E+03 -0.52014068359E+03  0.73626375464E+03  0.12699999809E+01 0.  1.
       -4    1    3    3    0  502 -0.48631341024E+03  0.18717809645E+03 -0.18697302169E+03  0.55362161853E+03  0.12699999809E+01 0. -1.
</event>
<event>
 5   0  0.5946359E-03  0.1101821E+04  0.7818609E-02  0.9203419E-01
       -2   -1    0    0    0  501  0.00000000000E+00  0.00000000000E+00  0.24331936025E+03  0.24331936027E+03  0.25500000920E-02 0. -1.
        2   -1    0    0  501    0  0.00000000000E+00  0.00000000000E+00 -0.12473409501E+04  0.12473409501E+04  0.25500000920E-02 0.  1.
    10030    2    1    2    0    0  0.00000000000E+00  0.00000000000E+00 -0.10040215899E+04  0.14906603104E+04  0.11018206787E+04 0.  0.
        4    1    3    3  502    0 -0.21245592415E+02  0.54034253612E+03 -0.64441445091E+03  0.84124492805E+03  0.12699999809E+01 0.  1.
       -4    1    3    3    0  502  0.21245592415E+02 -0.54034253612E+03 -0.35960713897E+03  0.64941538235E+03  0.12699999809E+01 0. -1.
</event>
<event>
 5   0  0.3328741E-03  0.1099431E+04  0.7818609E-02  0.9205747E-01
       -1   -1    0    0    0  501  0.00000000000E+00  0.00000000000E+00  0.35560156520E+03  0.35560156524E+03  0.50400001928E-02 0. -1.
        1   -1    0    0  501    0  0.00000000000E+00  0.00000000000E+00 -0.84979068136E+03  0.84979068138E+03  0.50400001928E-02 0.  1.
    10030    2    1    2    0    0  0.00000000000E+00  0.00000000000E+00 -0.49418911616E+03  0.12053922466E+04  0.10994305734E+04 0.  0.
        3    1    3    3  502    0 -0.21114744163E+03  0.36996053734E+03  0.13386011121E+03  0.44651156857E+03  0.10100000352E+00 0.  1.
       -3    1    3    3    0  502  0.21114744163E+03 -0.36996053734E+03 -0.62804922737E+03  0.75888067804E+03  0.10100000352E+00 0. -1.
</event>
<event>
 5   0  0.5941585E-03  0.1115325E+04  0.7818609E-02  0.9190382E-01
        2   -1    0    0  501    0  0.00000000000E+00  0.00000000000E+00  0.98464619650E+03  0.98464619650E+03  0.25500000920E-02 0.  1.
       -2   -1    0    0    0  501  0.00000000000E+00  0.00000000000E+00 -0.31583688016E+03  0.31583688017E+03  0.25500000920E-02 0. -1.
    10030    2    1    2    0    0  0.00000000000E+00  0.00000000000E+00  0.66880931634E+03  0.13004830767E+04  0.11153252131E+04 0.  0.
        5    1    3    3  502    0 -0.53267978476E+03  0.74154942444E+02  0.16256597341E+03  0.56186875184E+03  0.46999998093E+01 0. -1.
       -5    1    3    3    0  502  0.53267978476E+03 -0.74154942444E+02  0.50624334293E+03  0.73861432483E+03  0.46999998093E+01 0.  1.
</event>
<event>
 5   0  0.5627232E-03  0.1089704E+04  0.7818609E-02  0.9215286E-01
       -2   -1    0    0    0  501  0.00000000000E+00  0.00000000000E+00  0.75441649608E+03  0.75441649608E+03  0.25500000920E-02 0.  1.
        2   -1    0    0  501    0  0.00000000000E+00  0.00000000000E+00 -0.39350093664E+03  0.39350093665E+03  0.25500000920E-02 0. -1.
    10030    2    1    2    0    0  0.00000000000E+00  0.00000000000E+00  0.36091555944E+03  0.11479174327E+04  0.10897038090E+04 0.  0.
        2    1    3    3  502    0  0.20424446609E+03  0.21130058337E+03  0.66377034631E+03  0.72591653178E+03  0.25500000920E-02 0.  1.
       -2    1    3    3    0  502 -0.20424446609E+03 -0.21130058337E+03 -0.30285478687E+03  0.42200090095E+03  0.25500000920E-02 0. -1.
</event>
<event>
 5   0  0.5941585E-03  0.1071177E+04  0.7818609E-02  0.9233749E-01
        2   -1    0    0  501    0  0.00000000000E+00  0.00000000000E+00  0.96087887204E+03  0.96087887204E+03  0.25500000920E-02 0. -1.
       -2   -1    0    0    0  501  0.00000000000E+00  0.00000000000E+00 -0.29853383745E+03  0.29853383746E+03  0.25500000920E-02 0.  1.
    10030    2    1    2    0    0  0.00000000000E+00  0.00000000000E+00  0.66234503459E+03  0.12594127095E+04  0.10711766558E+04 0.  0.
        5    1    3    3  502    0 -0.15352291617E+03 -0.21680087672E+03  0.87793151175E+03  0.91725554523E+03  0.46999998093E+01 0. -1.
       -5    1    3    3    0  502  0.15352291617E+03  0.21680087672E+03 -0.21558647716E+03  0.34215716428E+03  0.46999998093E+01 0.  1.
</event>
<event>
 5   0  0.3241189E-03  0.1093469E+04  0.7818609E-02  0.9211581E-01
       -1   -1    0    0    0  501  0.00000000000E+00  0.00000000000E+00  0.10124612807E+04  0.10124612807E+04  0.50400001928E-02 0.  1.
        1   -1    0    0  501    0  0.00000000000E+00  0.00000000000E+00 -0.29523952735E+03  0.29523952739E+03  0.50400001928E-02 0. -1.
    10030    2    1    2    0    0  0.00000000000E+00  0.00000000000E+00  0.71722175334E+03  0.13077008081E+04  0.10934689571E+04 0.  0.
        5    1    3    3  502    0  0.27240148765E+03  0.38430349523E+03  0.69047530213E+03  0.83586480950E+03  0.46999998093E+01 0.  1.
       -5    1    3    3    0  502 -0.27240148765E+03 -0.38430349523E+03  0.26746451218E+02  0.47183599860E+03  0.46999998093E+01 0. -1.
</event>
<event>
 5   0  0.3316784E-03  0.1097792E+04  0.7818609E-02  0.9207347E-01
       -1   -1    0    0    0  501  0.00000000000E+00  0.00000000000E+00  0.18367175946E+03  0.18367175953E+03  0.50400001928E-02 0.  1.
        1   -1    0    0  501    0  0.00000000000E+00  0.00000000000E+00 -0.16403535204E+04  0.16403535204E+04  0.50400001928E-02 0. -1.
    10030    2    1    2    0    0  0.00000000000E+00  0.00000000000E+00 -0.14566817609E+04  0.18240252799E+04  0.10977916329E+04 0.  0.
        4    1    3    3  502    0 -0.48262900123E+03  0.87644698552E+02 -0.11376085597E+04  0.12388572129E+04  0.12699999809E+01 0.  1.
       -4    1    3    3    0  502  0.48262900123E+03 -0.87644698552E+02 -0.31907320127E+03  0.58516806704E+03  0.12699999809E+01 0. -1.
</event>
<event>
 5   0  0.5500363E-03  0.1116705E+04  0.7818609E-02  0.9189061E-01
        2   -1    0    0  501    0  0.00000000000E+00  0.00000000000E+00  0.71275534391E+03  0.71275534392E+03  0.25500000920E-02 0. -1.
       -2   -1    0    0    0  501  0.00000000000E+00  0.00000000000E+00 -0.43739798390E+03  0.43739798390E+03  0.25500000920E-02 0.  1.
    10030    2    1    2    0    0  0.00000000000E+00  0.00000000000E+00  0.27535736002E+03  0.11501533278E+04  0.11167054230E+04 0.  0.
        3    1    3    3  502    0 -0.32004329877E+03 -0.77474125501E+02  0.60210356489E+03  0.68626428310E+03  0.10100000352E+00 0. -1.
       -3    1    3    3    0  502  0.32004329877E+03  0.77474125501E+02 -0.32674620487E+03  0.46388904472E+03  0.10100000352E+00 0.  1.
</event>
<event>
 5   0  0.3320192E-03  0.1112092E+04  0.7818609E-02  0.9193486E-01
        1   -1    0    0  501    0  0.00000000000E+00  0.00000000000E+00  0.24321442262E+03  0.24321442267E+03  0.50400001928E-02 0. -1.
       -1   -1    0    0    0  501  0.00000000000E+00  0.00000000000E+00 -0.12712530787E+04  0.12712530787E+04  0.50400001928E-02 0.  1.
    10030    2    1    2    0    0  0.00000000000E+00  0.00000000000E+00 -0.10280386561E+04  0.15144675013E+04  0.11120918731E+04 0.  0.
        2    1    3    3  502    0 -0.13377849909E+03 -0.39666692400E+03 -0.15612759314E+02  0.41890940987E+03  0.25500000920E-02 0. -1.
       -2    1    3    3    0  502  0.13377849909E+03  0.39666692400E+03 -0.10124258967E+04  0.10955580915E+04  0.25500000920E-02 0.  1.
</event>
<event>
 5   0  0.5946359E-03  0.1080650E+04  0.7818609E-02  0.9224260E-01
        2   -1    0    0  501    0  0.00000000000E+00  0.00000000000E+00  0.86243775472E+03  0.86243775473E+03  0.25500000920E-02 0.  1.
       -2   -1    0    0    0  501  0.00000000000E+00  0.00000000000E+00 -0.33851816837E+03  0.33851816838E+03  0.25500000920E-02 0. -1.
    10030    2    1    2    0    0  0.00000000000E+00  0.00000000000E+00  0.52391958636E+03  0.12009559231E+04  0.10806495252E+04 0.  0.
        4    1    3    3  502    0  0.49599570021E+03  0.21043007350E+03  0.30719350888E+03  0.62021126663E+03  0.12699999809E+01 0. -1.
       -4    1    3    3    0  502 -0.49599570021E+03 -0.21043007350E+03  0.21672607748E+03  0.58074465647E+03  0.12699999809E+01 0.  1.
</event>
<event>
 5   0  0.3316784E-03  0.1084262E+04  0.7818609E-02  0.9220669E-01
        1   -1    0    0  501    0  0.00000000000E+00  0.00000000000E+00  0.74106960794E+03  0.74106960796E+03  0.50400001928E-02 0. -1.
       -1   -1    0    0    0  501  0.00000000000E+00  0.00000000000E+00 -0.39659694382E+03  0.39659694385E+03  0.50400001928E-02 0.  1.
    10030    2    1    2    0    0  0.00000000000E+00  0.00000000000E+00  0.34447266412E+03  0.11376665518E+04  0.10842618534E+04 0.  0.
        4    1    3    3  502    0 -0.14518149842E+03  0.11502272801E+03 -0.36236516637E+03  0.40696194188E+03  0.12699999809E+01 0.  1.
       -4    1    3    3    0  502  0.14518149842E+03 -0.11502272801E+03  0.70683783049E+03  0.73070460992E+03  0.12699999809E+01 0. -1.
</event>
<event>
 5   0  0.3215352E-03  0.9813967E+03  0.7818609E-02  0.9329187E-01
       -1   -1    0    0    0  501  0.00000000000E+00  0.00000000000E+00  0.47419918251E+03  0.47419918253E+03  0.50400001928E-02 0.  1.
        1   -1    0    0  501    0  0.00000000000E+00  0.00000000000E+00 -0.50777163291E+03  0.50777163293E+03  0.50400001928E-02 0. -1.
    10030    2    1    2    0    0  0.00000000000E+00  0.00000000000E+00 -0.33572450401E+02  0.98197081546E+03  0.98139674597E+03 0.  0.
        1    1    3    3  502    0 -0.14213776958E+03  0.28119623462E+03  0.35961253570E+03  0.47811676792E+03  0.50400001928E-02 0.  1.
       -1    1    3    3    0  502  0.14213776958E+03 -0.28119623462E+03 -0.39318498610E+03  0.50385404755E+03  0.50400001928E-02 0. -1.
</event>
<event>
 5   0  0.3241189E-03  0.1116779E+04  0.7818609E-02  0.9188991E-01
        1   -1    0    0  501    0  0.00000000000E+00  0.00000000000E+00  0.11156530768E+04  0.11156530768E+04  0.50400001928E-02 0. -1.
       -1   -1    0    0    0  501  0.00000000000E+00  0.00000000000E+00 -0.27947628368E+03  0.27947628372E+03  0.50400001928E-02 0.  1.
    10030    2    1    2    0    0  0.00000000000E+00  0.00000000000E+00  0.83617679310E+03  0.13951293605E+04  0.11167785381E+04 0.  0.
        5    1    3    3  502    0 -0.36580158684E+03 -0.18740596189E+03  0.89023782711E+03  0.98054947570E+03  0.46999998093E+01 0. -1.
       -5    1    3    3    0  502  0.36580158684E+03  0.18740596189E+03 -0.54061034019E+02  0.41457988480E+03  0.46999998093E+01 0.  1.
</event>
<event>
 5   0  0.3328741E-03  0.1106278E+04  0.7818609E-02  0.9199094E-01
       -1   -1    0    0    0  501  0.00000000000E+00  0.00000000000E+00  0.20391447485E+03  0.20391447491E+03  0.50400001928E-02 0.  1.
        1   -1    0    0  501    0  0.00000000000E+00  0.00000000000E+00 -0.15004468786E+04  0.15004468786E+04  0.50400001928E-02 0. -1.
    10030    2    1    2    0    0  0.00000000000E+00  0.00000000000E+00 -0.12965324037E+04  0.17043613535E+04  0.11062781519E+04 0.  0.
        3    1    3    3  502    0  0.20498802638E+03 -0.46558233499E+03 -0.31364219380E+03  0.59762734003E+03  0.10100000352E+00 0.  1.
       -3    1    3    3    0  502 -0.20498802638E+03  0.46558233499E+03 -0.98289020992E+03  0.11067340135E+04  0.10100000352E+00 0. -1.
</event>
<event>
 5   0  0.5627232E-03  0.1086625E+04  0.7818609E-02  0.9218327E-01
        2   -1    0    0  501    0  0.00000000000E+00  0.00000000000E+00  0.12221373383E+04  0.12221373383E+04  0.25500000920E-02 0. -1.
       -2   -1    0    0    0  501  0.00000000000E+00  0.00000000000E+00 -0.24153463314E+03  0.24153463315E+03  0.25500000920E-02 0.  1.
    10030    2    1    2    0    0  0.00000000000E+00  0.00000000000E+00  0.98060270517E+03  0.14636719715E+04  0.10866250387E+04 0.  0.
        2    1    3    3  502    0 -0.17897018216E+03  0.47731773711E+03  0.74347059674E+03  0.90144943091E+03  0.25500000920E-02 0. -1.
       -2    1    3    3    0  502  0.17897018216E+03 -0.47731773711E+03  0.23713210843E+03  0.56222254056E+03  0.25500000920E-02 0.  1.
</event>
<event>
 5   0  0.3316784E-03  0.1096218E+04  0.7818609E-02  0.9208886E-01
        1   -1    0    0  501    0  0.00000000000E+00  0.00000000000E+00  0.29374752515E+04  0.29374752515E+04  0.50400001928E-02 0.  1.
       -1   -1    0    0    0  501  0.00000000000E+00  0.00000000000E+00 -0.10227261094E+03  0.10227261107E+03  0.50400001928E-02 0. -1.
    10030    2    1    2    0    0  0.00000000000E+00  0.00000000000E+00  0.28352026405E+04  0.30397478625E+04  0.10962176130E+04 0.  0.
        4    1    3    3  502    0 -0.18375407068E+03 -0.47819222491E+03  0.19580639241E+04  0.20239687019E+04  0.12699999809E+01 0. -1.
       -4    1    3    3    0  502  0.18375407068E+03  0.47819222491E+03  0.87713871642E+03  0.10157791606E+04  0.12699999809E+01 0.  1.
</event>
<event>
 5   0  0.5941585E-03  0.1006641E+04  0.7818609E-02  0.9301291E-01
        2   -1    0    0  501    0  0.00000000000E+00  0.00000000000E+00  0.11010400322E+04  0.11010400322E+04  0.25500000920E-02 0. -1.
       -2   -1    0    0    0  501  0.00000000000E+00  0.00000000000E+00 -0.23008364436E+03  0.23008364438E+03  0.25500000920E-02 0.  1.
    10030    2    1    2    0    0  0.00000000000E+00  0.00000000000E+00  0.87095638787E+03  0.13311236766E+04  0.10066405579E+04 0.  0.
        5    1    3    3  502    0 -0.24445480738E+03 -0.30305416663E+03  0.85719816927E+03  0.94149390447E+03  0.46999998093E+01 0. -1.
       -5    1    3    3    0  502  0.24445480738E+03  0.30305416663E+03  0.13758218601E+02  0.38962977214E+03  0.46999998093E+01 0.  1.
</event>
<event>
 5   0  0.2185750E-03  0.1101806E+04  0.7818609E-02  0.9203434E-01
        3   -1    0    0  501    0  0.00000000000E+00  0.00000000000E+00  0.10492446338E+04  0.10492446387E+04  0.10100000352E+00 0. -1.
       -3   -1    0    0    0  501  0.00000000000E+00  0.00000000000E+00 -0.28924983747E+03  0.28924985510E+03  0.10100000352E+00 0.  1.
    10030    2    1    2    0    0  0.00000000000E+00  0.00000000000E+00  0.75999479637E+03  0.13384944938E+04  0.11018055270E+04 0.  0.
        5    1    3    3  502    0 -0.36045229520E+03 -0.12696867361E+03  0.86199880440E+03  0.94292678930E+03  0.46999998093E+01 0. -1.
       -5    1    3    3    0  502  0.36045229520E+03  0.12696867361E+03 -0.10200400802E+03  0.39556770450E+03  0.46999998093E+01 0.  1.
</event>
<event>
 5   0  0.5946359E-03  0.1130369E+04  0.7818609E-02  0.9176088E-01
        2   -1    0    0  501    0  0.00000000000E+00  0.00000000000E+00  0.69976915128E+03  0.69976915129E+03  0.25500000920E-02 0. -1.
       -2   -1    0    0    0  501  0.00000000000E+00  0.00000000000E+00 -0.45648396010E+03  0.45648396011E+03  0.25500000920E-02 0.  1.
    10030    2    1    2    0    0  0.00000000000E+00  0.00000000000E+00  0.24328519118E+03  0.11562531114E+04  0.11303687776E+04 0.  0.
        4    1    3    3  502    0 -0.20651270721E+03  0.77668921225E+01 -0.41644891626E+03  0.46490766353E+03  0.12699999809E+01 0.  1.
       -4    1    3    3    0  502  0.20651270721E+03 -0.77668921225E+01  0.65973410745E+03  0.69134544786E+03  0.12699999809E+01 0. -1.
</event>
<event>
 5   0  0.3215352E-03  0.1123468E+04  0.7818609E-02  0.9182615E-01
       -1   -1    0    0    0  501  0.00000000000E+00  0.00000000000E+00  0.25013687289E+03  0.25013687294E+03  0.50400001928E-02 0.  1.
        1   -1    0    0  501    0  0.00000000000E+00  0.00000000000E+00 -0.12614897036E+04  0.12614897036E+04  0.50400001928E-02 0. -1.
    10030    2    1    2    0    0  0.00000000000E+00  0.00000000000E+00 -0.10113528307E+04  0.15116265765E+04  0.11234680052E+04 0.  0.
        1    1    3    3  502    0  0.97587261122E+02 -0.33715723151E+03 -0.10957773634E+04  0.11506199644E+04  0.50400001928E-02 0. -1.
       -1    1    3    3    0  502 -0.97587261122E+02  0.33715723151E+03  0.84424532665E+02  0.36100661218E+03  0.50400001928E-02 0.  1.
</event>
<event>
 5   0  0.5941585E-03  0.1129874E+04  0.7818609E-02  0.9176555E-01
       -2   -1    0    0    0  501  0.00000000000E+00  0.00000000000E+00  0.44898878953E+03  0.44898878954E+03  0.25500000920E-02 0. -1.
        2   -1    0    0  501    0  0.00000000000E+00  0.00000000000E+00 -0.71082740841E+03  0.71082740841E+03  0.25500000920E-02 0.  1.
    10030    2    1    2    0    0  0.00000000000E+00  0.00000000000E+00 -0.26183861888E+03  0.11598161979E+04  0.11298735109E+04 0.  0.
        5    1    3    3  502    0 -0.22991609433E+03 -0.46952501283E+03  0.88800567745E+02  0.53030442101E+03  0.46999998093E+01 0. -1.
       -5    1    3    3    0  502  0.22991609433E+03  0.46952501283E+03 -0.35063918662E+03  0.62951177694E+03  0.46999998093E+01 0.  1.
</event>
<event>
 5   0  0.2185750E-03  0.1108934E+04  0.7818609E-02  0.9196528E-01
       -3   -1    0    0    0  501  0.00000000000E+00  0.00000000000E+00  0.11017178066E+04  0.11017178113E+04  0.10100000352E+00 0.  1.
        3   -1    0    0  501    0  0.00000000000E+00  0.00000000000E+00 -0.27904921487E+03  0.27904923315E+03  0.10100000352E+00 0. -1.
    10030    2    1    2    0    0  0.00000000000E+00  0.00000000000E+00  0.82266859176E+03  0.13807670444E+04  0.11089337307E+04 0.  0.
        3    1    3    3  502    0 -0.15329550219E+03 -0.12475481924E+03 -0.23369877161E+03  0.30606927642E+03  0.10100000352E+00 0. -1.
       -3    1    3    3    0  502  0.15329550219E+03  0.12475481924E+03  0.10563673634E+04  0.10746977680E+04  0.10100000352E+00 0.  1.
</event>
<event>
 5   0  0.5723194E-03  0.1091664E+04  0.7818609E-02  0.9213355E-01
        2   -1    0    0  501    0  0.00000000000E+00  0.00000000000E+00  0.47015604572E+03  0.47015604573E+03  0.25500000920E-02 0.  1.
       -2   -1    0    0    0  501  0.00000000000E+00  0.00000000000E+00 -0.63368859247E+03  0.63368859248E+03  0.25500000920E-02 0. -1.
    10030    2    1    2    0    0  0.00000000000E+00  0.00000000000E+00 -0.16353254675E+03  0.11038446382E+04  0.10916639096E+04 0.  0.
        1    1    3    3  502    0 -0.23988416388E+03 -0.40779458284E+03 -0.35700132878E+03  0.59269788480E+03  0.50400001928E-02 0. -1.
       -1    1    3    3    0  502  0.23988416388E+03  0.40779458284E+03  0.19346878203E+03  0.51114675341E+03  0.50400001928E-02 0.  1.
</event>
<event>
 5   0  0.5500363E-03  0.1103322E+04  0.7818609E-02  0.9201960E-01
        2   -1    0    0  501    0  0.00000000000E+00  0.00000000000E+00  0.13074172409E+04  0.13074172409E+04  0.25500000920E-02 0. -1.
       -2   -1    0    0    0  501  0.00000000000E+00  0.00000000000E+00 -0.23277172777E+03  0.23277172779E+03  0.25500000920E-02 0.  1.
    10030    2    1    2    0    0  0.00000000000E+00  0.00000000000E+00  0.10746455132E+04  0.15401889687E+04  0.11033218390E+04 0.  0.
        3    1    3    3  502    0 -0.62018319163E+02 -0.47019471796E+03  0.93067640312E+03  0.10445515412E+04  0.10100000352E+00 0. -1.
       -3    1    3    3    0  502  0.62018319163E+02  0.47019471796E+03  0.14396911005E+03  0.49563742752E+03  0.10100000352E+00 0.  1.
</event>
<event>
 5   0  0.3215352E-03  0.1009192E+04  0.7818609E-02  0.9298520E-01
       -1   -1    0    0    0  501  0.00000000000E+00  0.00000000000E+00  0.38256796422E+03  0.38256796425E+03  0.50400001928E-02 0.  1.
        1   -1    0    0  501    0  0.00000000000E+00  0.00000000000E+00 -0.66554785379E+03  0.66554785381E+03  0.50400001928E-02 0. -1.
    10030    2    1    2    0    0  0.00000000000E+00  0.00000000000E+00 -0.28297988957E+03  0.10481158181E+04  0.10091923257E+04 0.  0.
        1    1    3    3  502    0 -0.37328848573E+03 -0.64361619720E+02  0.20473002843E+03  0.43058227580E+03  0.50400001928E-02 0.  1.
       -1    1    3    3    0  502  0.37328848573E+03  0.64361619720E+02 -0.48770991800E+03  0.61753354226E+03  0.50400001928E-02 0. -1.
</event>
<event>
 5   0  0.3320192E-03  0.1086650E+04  0.7818609E-02  0.9218302E-01
       -1   -1    0    0    0  501  0.00000000000E+00  0.00000000000E+00  0.24039341289E+03  0.24039341295E+03  0.50400001928E-02 0. -1.
        1   -1    0    0  501    0  0.00000000000E+00  0.00000000000E+00 -0.12279965029E+04  0.12279965029E+04  0.50400001928E-02 0.  1.
    10030    2    1    2    0    0  0.00000000000E+00  0.00000000000E+00 -0.98760309000E+03  0.14683899159E+04  0.10866503953E+04 0.  0.
        2    1    3    3  502    0  0.11829115013E+03  0.43241790905E+03 -0.90859590311E+03  0.10131754830E+04  0.25500000920E-02 0.  1.
       -2    1    3    3    0  502 -0.11829115013E+03 -0.43241790905E+03 -0.79007186894E+02  0.45521443282E+03  0.25500000920E-02 0. -1.
</event>
<event>
 5   0  0.5723194E-03  0.1104101E+04  0.7818609E-02  0.9201204E-01
        2   -1    0    0  501    0  0.00000000000E+00  0.00000000000E+00  0.43998913347E+03  0.43998913348E+03  0.25500000920E-02 0. -1.
       -2   -1    0    0    0  501  0.00000000000E+00  0.00000000000E+00 -0.69265270761E+03  0.69265270761E+03  0.25500000920E-02 0.  1.
    10030    2    1    2    0    0  0.00000000000E+00  0.00000000000E+00 -0.25266357414E+03  0.11326418411E+04  0.11041008371E+04 0.  0.
        1    1    3    3  502    0  0.23291290090E+03 -0.39129547010E+03 -0.44648755781E+03  0.63773952648E+03  0.50400001928E-02 0.  1.
       -1    1    3    3    0  502 -0.23291290090E+03  0.39129547010E+03  0.19382398368E+03  0.49490231461E+03  0.50400001928E-02 0. -1.
</event>
<event>
 5   0  0.5500363E-03  0.1175462E+04  0.7818609E-02  0.9134610E-01
       -2   -1    0    0    0  501  0.00000000000E+00  0.00000000000E+00  0.71396344442E+03  0.71396344442E+03  0.25500000920E-02 0. -1.
        2   -1    0    0  501    0  0.00000000000E+00  0.00000000000E+00 -0.48381677386E+03  0.48381677386E+03  0.25500000920E-02 0.  1.
    10030    2    1    2    0    0  0.00000000000E+00  0.00000000000E+00  0.23014667056E+03  0.11977802183E+04  0.11754615950E+04 0.  0.
        3    1    3    3  502    0 -0.53847487546E+03  0.58382946375E+02  0.34758047345E+03  0.64356503607E+03  0.10100000352E+00 0. -1.
       -3    1    3    3    0  502  0.53847487546E+03 -0.58382946375E+02 -0.11743380289E+03  0.55421518221E+03  0.10100000352E+00 0.  1.
</event>
<event>
 5   0  0.3241189E-03  0.1099883E+04  0.7818609E-02  0.9205306E-01
       -1   -1    0    0    0  501  0.00000000000E+00  0.00000000000E+00  0.26058385518E+03  0.26058385523E+03  0.50400001928E-02 0.  1.
        1   -1    0    0  501    0  0.00000000000E+00  0.00000000000E+00 -0.11606069009E+04  0.11606069010E+04  0.50400001928E-02 0. -1.
    10030    2    1    2    0    0  0.00000000000E+00  0.00000000000E+00 -0.90002304577E+03  0.14211907562E+04  0.10998825767E+04 0.  0.
        5    1    3    3  502    0 -0.99462828555E+01 -0.44798074235E+03 -0.86193069627E+03  0.97145884588E+03  0.46999998093E+01 0. -1.
       -5    1    3    3    0  502  0.99462828555E+01  0.44798074235E+03 -0.38092349496E+02  0.44973191031E+03  0.46999998093E+01 0.  1.
</event>
<event>
 5   0  0.5500363E-03  0.1082015E+04  0.7818609E-02  0.9222901E-01
        2   -1    0    0  501    0  0.00000000000E+00  0.00000000000E+00  0.65655018983E+03  0.65655018983E+03  0.25500000920E-02 0. -1.
       -2   -1    0    0    0  501  0.00000000000E+00  0.00000000000E+00 -0.44579816105E+03  0.44579816106E+03  0.25500000920E-02 0.  1.
    10030    2    1    2    0    0  0.00000000000E+00  0.00000000000E+00  0.21075202877E+03  0.11023483509E+04  0.10820145420E+04 0.  0.
        3    1    3    3  502    0  0.38045378561E+02 -0.15852218456E+03 -0.42017888513E+03  0.45069617209E+03  0.10100000352E+00 0.  1.
       -3    1    3    3    0  502 -0.38045378561E+02  0.15852218456E+03  0.63093091390E+03  0.65165217880E+03  0.10100000352E+00 0. -1.
</event>
<event>
 5   0  0.3316784E-03  0.9323791E+03  0.7818609E-02  0.9385987E-01
        1   -1    0    0  501    0  0.00000000000E+00  0.00000000000E+00  0.10245092191E+04  0.10245092191E+04  0.50400001928E-02 0.  1.
       -1   -1    0    0    0  501  0.00000000000E+00  0.00000000000E+00 -0.21213347067E+03  0.21213347073E+03  0.50400001928E-02 0. -1.
    10030    2    1    2    0    0  0.00000000000E+00  0.00000000000E+00  0.81237574847E+03  0.12366426899E+04  0.93237909979E+03 0.  0.
        4    1    3    3  502    0  0.13025355708E+03 -0.41978102948E+03  0.20007690009E+03  0.48292285169E+03  0.12699999809E+01 0. -1.
       -4    1    3    3    0  502 -0.13025355708E+03  0.41978102948E+03  0.61229884838E+03  0.75371983818E+03  0.12699999809E+01 0.  1.
</event>
<event>
 5   0  0.3316784E-03  0.1099164E+04  0.7818609E-02  0.9206007E-01
       -1   -1    0    0    0  501  0.00000000000E+00  0.00000000000E+00  0.53838811595E+03  0.53838811598E+03  0.50400001928E-02 0. -1.
        1   -1    0    0  501    0  0.00000000000E+00  0.00000000000E+00 -0.56100825977E+03  0.56100825979E+03  0.50400001928E-02 0.  1.
    10030    2    1    2    0    0  0.00000000000E+00  0.00000000000E+00 -0.22620143812E+02  0.10993963758E+04  0.10991636458E+04 0.  0.
        4    1    3    3  502    0  0.38863143719E+03  0.38521951207E+03 -0.62410033705E+02  0.55074957254E+03  0.12699999809E+01 0.  1.
       -4    1    3    3    0  502 -0.38863143719E+03 -0.38521951207E+03  0.39789889893E+02  0.54864680322E+03  0.12699999809E+01 0. -1.
</event>
<event>
 5   0  0.5500363E-03  0.1098558E+04  0.7818609E-02  0.9206598E-01
        2   -1    0    0  501    0  0.00000000000E+00  0.00000000000E+00  0.13085785314E+04  0.13085785314E+04  0.25500000920E-02 0. -1.
       -2   -1    0    0    0  501  0.00000000000E+00  0.00000000000E+00 -0.23056129995E+03  0.23056129996E+03  0.25500000920E-02 0.  1.
    10030    2    1    2    0    0  0.00000000000E+00  0.00000000000E+00  0.10780172314E+04  0.15391398313E+04  0.10985582684E+04 0.  0.
        3    1    3    3  502    0 -0.11296315722E+03 -0.52918159992E+03  0.67128563168E+03  0.86221705508E+03  0.10100000352E+00 0. -1.
       -3    1    3    3    0  502  0.11296315722E+03  0.52918159992E+03  0.40673159976E+03  0.67692277626E+03  0.10100000352E+00 0.  1.
</event>
<event>
 5   0  0.3328741E-03  0.1137293E+04  0.7818609E-02  0.9169587E-01
       -1   -1    0    0    0  501  0.00000000000E+00  0.00000000000E+00  0.44214223514E+03  0.44214223517E+03  0.50400001928E-02 0.  1.
        1   -1    0    0  501    0  0.00000000000E+00  0.00000000000E+00 -0.73134616072E+03  0.73134616074E+03  0.50400001928E-02 0. -1.
    10030    2    1    2    0    0  0.00000000000E+00  0.00000000000E+00 -0.28920392558E+03  0.11734883959E+04  0.11372933240E+04 0.  0.
        3    1    3    3  502    0  0.12837326458E+03  0.36133501974E+03 -0.57786592947E+03  0.69352125720E+03  0.10100000352E+00 0. -1.
       -3    1    3    3    0  502 -0.12837326458E+03 -0.36133501974E+03  0.28866200389E+03  0.47996713871E+03  0.10100000352E+00 0.  1.
</event>
<event>
 5   0  0.3215352E-03  0.9998307E+03  0.7818609E-02  0.9308730E-01
       -1   -1    0    0    0  501  0.00000000000E+00  0.00000000000E+00  0.21196005394E+03  0.21196005400E+03  0.50400001928E-02 0.  1.
        1   -1    0    0  501    0  0.00000000000E+00  0.00000000000E+00 -0.11790682574E+04  0.11790682575E+04  0.50400001928E-02 0. -1.
    10030    2    1    2    0    0  0.00000000000E+00  0.00000000000E+00 -0.96710820350E+03  0.13910283115E+04  0.99983072868E+03 0.  0.
        1    1    3    3  502    0  0.28537557647E+03  0.41045560122E+03 -0.48568743894E+03  0.69699735192E+03  0.50400001928E-02 0.  1.
       -1    1    3    3    0  502 -0.28537557647E+03 -0.41045560122E+03 -0.48142076456E+03  0.69403095954E+03  0.50400001928E-02 0. -1.
</event>
<event>
 5   0  0.3316784E-03  0.1100780E+04  0.7818609E-02  0.9204432E-01
        1   -1    0    0  501    0  0.00000000000E+00  0.00000000000E+00  0.38261089096E+03  0.38261089099E+03  0.50400001928E-02 0. -1.
       -1   -1    0    0    0  501  0.00000000000E+00  0.00000000000E+00 -0.79174202598E+03  0.79174202600E+03  0.50400001928E-02 0.  1.
    10030    2    1    2    0    0  0.00000000000E+00  0.00000000000E+00 -0.40913113503E+03  0.11743529170E+04  0.11007799453E+04 0.  0.
        4    1    3    3  502    0  0.10210107758E+03  0.52677422468E+03 -0.33527726015E+03  0.63271491836E+03  0.12699999809E+01 0.  1.
       -4    1    3    3    0  502 -0.10210107758E+03 -0.52677422468E+03 -0.73853874873E+02  0.54163799864E+03  0.12699999809E+01 0. -1.
</event>
<event>
 5   0  0.5627232E-03  0.1097282E+04  0.7818609E-02  0.9207845E-01
       -2   -1    0    0    0  501  0.00000000000E+00  0.00000000000E+00  0.50946977470E+03  0.50946977471E+03  0.25500000920E-02 0.  1.
        2   -1    0    0  501    0  0.00000000000E+00  0.00000000000E+00 -0.59082414711E+03  0.59082414712E+03  0.25500000920E-02 0. -1.
    10030    2    1    2    0    0  0.00000000000E+00  0.00000000000E+00 -0.81354372406E+02  0.11002939218E+04  0.10972821791E+04 0.  0.
        2    1    3    3  502    0  0.47103259720E+03 -0.27500581499E+03  0.18706464150E+02  0.54575620722E+03  0.25500000920E-02 0.  1.
       -2    1    3    3    0  502 -0.47103259720E+03  0.27500581499E+03 -0.10006083656E+03  0.55453771461E+03  0.25500000920E-02 0. -1.
</event>
<event>
 5   0  0.5627232E-03  0.1101355E+04  0.7818609E-02  0.9203872E-01
       -2   -1    0    0    0  501  0.00000000000E+00  0.00000000000E+00  0.72938684830E+03  0.72938684830E+03  0.25500000920E-02 0.  1.
        2   -1    0    0  501    0  0.00000000000E+00  0.00000000000E+00 -0.41575451741E+03  0.41575451741E+03  0.25500000920E-02 0. -1.
    10030    2    1    2    0    0  0.00000000000E+00  0.00000000000E+00  0.31363233089E+03  0.11451413657E+04  0.11013553053E+04 0.  0.
        2    1    3    3  502    0  0.42016635064E+03  0.26342580788E+03 -0.92102846815E+02  0.50439652344E+03  0.25500000920E-02 0. -1.
       -2    1    3    3    0  502 -0.42016635064E+03 -0.26342580788E+03  0.40573517771E+03  0.64074484227E+03  0.25500000920E-02 0.  1.
</event>
<event>
 5   0  0.5627232E-03  0.1133721E+04  0.7818609E-02  0.9172935E-01
        2   -1    0    0  501    0  0.00000000000E+00  0.00000000000E+00  0.68354400276E+03  0.68354400276E+03  0.25500000920E-02 0.  1.
       -2   -1    0    0    0  501  0.00000000000E+00  0.00000000000E+00 -0.47009490505E+03  0.47009490506E+03  0.25500000920E-02 0. -1.
    10030    2    1    2    0    0  0.00000000000E+00  0.00000000000E+00  0.21344909771E+03  0.11536389078E+04  0.11337205177E+04 0.  0.
        2    1    3    3  502    0 -0.20251763356E+03  0.46353329452E+03 -0.15361019793E+03  0.52865168111E+03  0.25500000920E-02 0. -1.
       -2    1    3    3    0  502  0.20251763356E+03 -0.46353329452E+03  0.36705929564E+03  0.62498722671E+03  0.25500000920E-02 0.  1.
</event>
<event>
 5   0  0.3320192E-03  0.1094668E+04  0.7818609E-02  0.9210405E-01
        1   -1    0    0  501    0  0.00000000000E+00  0.00000000000E+00  0.70814135793E+03  0.70814135795E+03  0.50400001928E-02 0.  1.
       -1   -1    0    0    0  501  0.00000000000E+00  0.00000000000E+00 -0.42304312384E+03  0.42304312387E+03  0.50400001928E-02 0. -1.
    10030    2    1    2    0    0  0.00000000000E+00  0.00000000000E+00  0.28509823409E+03  0.11311844818E+04  0.10946676796E+04 0.  0.
        2    1    3    3  502    0 -0.23420696444E+03  0.37581259413E+03  0.47497331026E+03  0.64937481747E+03  0.25500000920E-02 0.  1.
       -2    1    3    3    0  502  0.23420696444E+03 -0.37581259413E+03 -0.18987507617E+03  0.48180966434E+03  0.25500000920E-02 0. -1.
</event>
<event>
 5   0  0.3316784E-03  0.1077730E+04  0.7818609E-02  0.9227174E-01
        1   -1    0    0  501    0  0.00000000000E+00  0.00000000000E+00  0.75623630696E+03  0.75623630698E+03  0.50400001928E-02 0. -1.
       -1   -1    0    0    0  501  0.00000000000E+00  0.00000000000E+00 -0.38397436999E+03  0.38397437002E+03  0.50400001928E-02 0.  1.
    10030    2    1    2    0    0  0.00000000000E+00  0.00000000000E+00  0.37226193697E+03  0.11402106770E+04  0.10777297612E+04 0.  0.
        4    1    3    3  502    0  0.35732450753E+03  0.17340463195E+03  0.57141935880E+03  0.69589630447E+03  0.12699999809E+01 0. -1.
       -4    1    3    3    0  502 -0.35732450753E+03 -0.17340463195E+03 -0.19915742183E+03  0.44431437252E+03  0.12699999809E+01 0.  1.
</event>
<event>
 5   0  0.3328741E-03  0.1096860E+04  0.7818609E-02  0.9208258E-01
        1   -1    0    0  501    0  0.00000000000E+00  0.00000000000E+00  0.44536359129E+03  0.44536359132E+03  0.50400001928E-02 0. -1.
       -1   -1    0    0    0  501  0.00000000000E+00  0.00000000000E+00 -0.67534787427E+03  0.67534787429E+03  0.50400001928E-02 0.  1.
    10030    2    1    2    0    0  0.00000000000E+00  0.00000000000E+00 -0.22998428298E+03  0.11207114656E+04  0.10968597990E+04 0.  0.
        3    1    3    3  502    0 -0.88954803796E+02 -0.11005257936E+03 -0.65637339098E+03  0.67145406837E+03  0.10100000352E+00 0.  1.
       -3    1    3    3    0  502  0.88954803796E+02  0.11005257936E+03  0.42638910800E+03  0.44925739723E+03  0.10100000352E+00 0. -1.
</event>
<event>
 5   0  0.5941585E-03  0.1113009E+04  0.7818609E-02  0.9192604E-01
        2   -1    0    0  501    0  0.00000000000E+00  0.00000000000E+00  0.20744139398E+04  0.20744139398E+04  0.25500000920E-02 0.  1.
       -2   -1    0    0    0  501  0.00000000000E+00  0.00000000000E+00 -0.14929395156E+03  0.14929395158E+03  0.25500000920E-02 0. -1.
    10030    2    1    2    0    0  0.00000000000E+00  0.00000000000E+00  0.19251199882E+04  0.22237078914E+04  0.11130093518E+04 0.  0.
        5    1    3    3  502    0  0.30881920324E+03 -0.42245175650E+03  0.58432089297E+03  0.78440281923E+03  0.46999998093E+01 0. -1.
       -5    1    3    3    0  502 -0.30881920324E+03  0.42245175650E+03  0.13407990953E+04  0.14393050722E+04  0.46999998093E+01 0.  1.
</event>
<event>
 5   0  0.3316784E-03  0.1000496E+04  0.7818609E-02  0.9308001E-01
       -1   -1    0    0    0  501  0.00000000000E+00  0.00000000000E+00  0.24720936310E+03  0.24720936315E+03  0.50400001928E-02 0.  1.
        1   -1    0    0  501    0  0.00000000000E+00  0.00000000000E+00 -0.10122916073E+04  0.10122916073E+04  0.50400001928E-02 0. -1.
    10030    2    1    2    0    0  0.00000000000E+00  0.00000000000E+00 -0.76508224419E+03  0.12595009704E+04  0.10004958042E+04 0.  0.
        4    1    3    3  502    0  0.19768609109E+02  0.33498604273E+03 -0.84958256050E+03  0.91345420615E+03  0.12699999809E+01 0. -1.
       -4    1    3    3    0  502 -0.19768609109E+02 -0.33498604273E+03  0.84500316308E+02  0.34604676430E+03  0.12699999809E+01 0.  1.
</event>
<event>
 5   0  0.5941585E-03  0.1106373E+04  0.7818609E-02  0.9199003E-01
       -2   -1    0    0    0  501  0.00000000000E+00  0.00000000000E+00  0.17947760350E+03  0.17947760352E+03  0.25500000920E-02 0. -1.
        2   -1    0    0  501    0  0.00000000000E+00  0.00000000000E+00 -0.17050329942E+04  0.17050329942E+04  0.25500000920E-02 0.  1.
    10030    2    1    2    0    0  0.00000000000E+00  0.00000000000E+00 -0.15255553907E+04  0.18845105977E+04  0.11063728769E+04 0.  0.
        5    1    3    3  502    0  0.18596169307E+03 -0.15091862672E+03  0.86555625976E+02  0.25470011694E+03  0.46999998093E+01 0. -1.
       -5    1    3    3    0  502 -0.18596169307E+03  0.15091862672E+03 -0.16121110166E+04  0.16298104808E+04  0.46999998093E+01 0.  1.
</event>
<event>
 5   0  0.3316784E-03  0.1097813E+04  0.7818609E-02  0.9207326E-01
       -1   -1    0    0    0  501  0.00000000000E+00  0.00000000000E+00  0.22644398852E+03  0.22644398858E+03  0.50400001928E-02 0.  1.
        1   -1    0    0  501    0  0.00000000000E+00  0.00000000000E+00 -0.13305639939E+04  0.13305639939E+04  0.50400001928E-02 0. -1.
    10030    2    1    2    0    0  0.00000000000E+00  0.00000000000E+00 -0.11041200054E+04  0.15570079825E+04  0.10978127669E+04 0.  0.
        4    1    3    3  502    0  0.42788262422E+03  0.52914120537E+02 -0.70234005009E+02  0.43682705115E+03  0.12699999809E+01 0.  1.
       -4    1    3    3    0  502 -0.42788262422E+03 -0.52914120537E+02 -0.10338860004E+04  0.11201809313E+04  0.12699999809E+01 0. -1.
</event>
<event>
 5   0  0.3241189E-03  0.1096482E+04  0.7818609E-02  0.9208627E-01
       -1   -1    0    0    0  501  0.00000000000E+00  0.00000000000E+00  0.43177294232E+03  0.43177294235E+03  0.50400001928E-02 0. -1.
        1   -1    0    0  501    0  0.00000000000E+00  0.00000000000E+00 -0.69612571992E+03  0.69612571994E+03  0.50400001928E-02 0.  1.
    10030    2    1    2    0    0  0.00000000000E+00  0.00000000000E+00 -0.26435277760E+03  0.11278986623E+04  0.10964821026E+04 0.  0.
        5    1    3    3  502    0 -0.35880729958E+03 -0.39489811122E+03 -0.26357784145E+01  0.53358807502E+03  0.46999998093E+01 0. -1.
       -5    1    3    3    0  502  0.35880729958E+03  0.39489811122E+03 -0.26171699918E+03  0.59431058727E+03  0.46999998093E+01 0.  1.
</event>
<event>
 5   0  0.3328741E-03  0.1145236E+04  0.7818609E-02  0.9162190E-01
       -1   -1    0    0    0  501  0.00000000000E+00  0.00000000000E+00  0.69005817619E+03  0.69005817621E+03  0.50400001928E-02 0.  1.
        1   -1    0    0  501    0  0.00000000000E+00  0.00000000000E+00 -0.47516450955E+03  0.47516450958E+03  0.50400001928E-02 0. -1.
    10030    2    1    2    0    0  0.00000000000E+00  0.00000000000E+00  0.21489366664E+03  0.11652226858E+04  0.11452356175E+04 0.  0.
        3    1    3    3  502    0 -0.12071919811E+03 -0.30439457311E+03  0.58539172521E+03  0.67075529299E+03  0.10100000352E+00 0.  1.
       -3    1    3    3    0  502  0.12071919811E+03  0.30439457311E+03 -0.37049805857E+03  0.49446739280E+03  0.10100000352E+00 0. -1.
</event>
<event>
 5   0  0.3215352E-03  0.1102453E+04  0.7818609E-02  0.9202804E-01
       -1   -1    0    0    0  501  0.00000000000E+00  0.00000000000E+00  0.29979053530E+03  0.29979053534E+03  0.50400001928E-02 0.  1.
        1   -1    0    0  501    0  0.00000000000E+00  0.00000000000E+00 -0.10135431346E+04  0.10135431346E+04  0.50400001928E-02 0. -1.
    10030    2    1    2    0    0  0.00000000000E+00  0.00000000000E+00 -0.71375259931E+03  0.13133336700E+04  0.11024529721E+04 0.  0.
        1    1    3    3  502    0 -0.33393267244E+02  0.26486872853E+03  0.21763856320E+03  0.34443736422E+03  0.50400001928E-02 0.  1.
       -1    1    3    3    0  502  0.33393267244E+02 -0.26486872853E+03 -0.93139116251E+03  0.96889630574E+03  0.50400001928E-02 0. -1.
</event>
<event>
 5   0  0.5946359E-03  0.1104756E+04  0.7818609E-02  0.9200569E-01
       -2   -1    0    0    0  501  0.00000000000E+00  0.00000000000E+00  0.20280340763E+03  0.20280340765E+03  0.25500000920E-02 0. -1.
        2   -1    0    0  501    0  0.00000000000E+00  0.00000000000E+00 -0.15045188216E+04  0.15045188216E+04  0.25500000920E-02 0.  1.
    10030    2    1    2    0    0  0.00000000000E+00  0.00000000000E+00 -0.13017154140E+04  0.17073222293E+04  0.11047561611E+04 0.  0.
        4    1    3    3  502    0 -0.41382973932E+03 -0.60009882805E+02 -0.12086349018E+04  0.12789277454E+04  0.12699999809E+01 0.  1.
       -4    1    3    3    0  502  0.41382973932E+03  0.60009882805E+02 -0.93080512198E+02  0.42839448389E+03  0.12699999809E+01 0. -1.
</event>
<event>
 5   0  0.5627232E-03  0.1097774E+04  0.7818609E-02  0.9207364E-01
        2   -1    0    0  501    0  0.00000000000E+00  0.00000000000E+00  0.14265184005E+04  0.14265184005E+04  0.25500000920E-02 0. -1.
       -2   -1    0    0    0  501  0.00000000000E+00  0.00000000000E+00 -0.21119725195E+03  0.21119725197E+03  0.25500000920E-02 0.  1.
    10030    2    1    2    0    0  0.00000000000E+00  0.00000000000E+00  0.12153211485E+04  0.16377156525E+04  0.10977736853E+04 0.  0.
        2    1    3    3  502    0 -0.55240526248E+02 -0.25770794758E+03  0.13259401432E+04  0.13518809730E+04  0.25500000920E-02 0. -1.
       -2    1    3    3    0  502  0.55240526248E+02  0.25770794758E+03 -0.11061899462E+03  0.28583467943E+03  0.25500000920E-02 0.  1.
</event>
<event>
 5   0  0.3328741E-03  0.8818280E+03  0.7818609E-02  0.9448587E-01
       -1   -1    0    0    0  501  0.00000000000E+00  0.00000000000E+00  0.40821874534E+03  0.40821874537E+03  0.50400001928E-02 0.  1.
        1   -1    0    0  501    0  0.00000000000E+00  0.00000000000E+00 -0.47622793445E+03  0.47622793448E+03  0.50400001928E-02 0. -1.
    10030    2    1    2    0    0  0.00000000000E+00  0.00000000000E+00 -0.68009189111E+02  0.88444667985E+03  0.88182803295E+03 0.  0.
        3    1    3    3  502    0  0.10931997607E+03 -0.36546835771E+03 -0.25576563856E+03  0.45927557057E+03  0.10100000352E+00 0. -1.
       -3    1    3    3    0  502 -0.10931997607E+03  0.36546835771E+03  0.18775644945E+03  0.42517110928E+03  0.10100000352E+00 0.  1.
</event>
<event>
 5   0  0.5500363E-03  0.1102395E+04  0.7818609E-02  0.9202860E-01
        2   -1    0    0  501    0  0.00000000000E+00  0.00000000000E+00  0.19072052242E+04  0.19072052242E+04  0.25500000920E-02 0.  1.
       -2   -1    0    0    0  501  0.00000000000E+00  0.00000000000E+00 -0.15930053399E+03  0.15930053401E+03  0.25500000920E-02 0. -1.
    10030    2    1    2    0    0  0.00000000000E+00  0.00000000000E+00  0.17479046902E+04  0.20665057582E+04  0.11023952298E+04 0.  0.
        3    1    3    3  502    0 -0.40162163325E+03  0.18556784111E+03  0.25767120861E+03  0.51198615401E+03  0.10100000352E+00 0. -1.
       -3    1    3    3    0  502  0.40162163325E+03 -0.18556784111E+03  0.14902334816E+04  0.15545196042E+04  0.10100000352E+00 0.  1.
</event>
<event>
 5   0  0.3215352E-03  0.1092608E+04  0.7818609E-02  0.9212427E-01
        1   -1    0    0  501    0  0.00000000000E+00  0.00000000000E+00  0.12465738291E+04  0.12465738291E+04  0.50400001928E-02 0.  1.
       -1   -1    0    0    0  501  0.00000000000E+00  0.00000000000E+00 -0.23941459573E+03  0.23941459579E+03  0.50400001928E-02 0. -1.
    10030    2    1    2    0    0  0.00000000000E+00  0.00000000000E+00  0.10071592333E+04  0.14859884248E+04  0.10926078334E+04 0.  0.
        1    1    3    3  502    0 -0.29329768614E+01 -0.33133955689E+03  0.10943021124E+04  0.11433685397E+04  0.50400001928E-02 0.  1.
       -1    1    3    3    0  502  0.29329768614E+01  0.33133955689E+03 -0.87142879079E+02  0.34261988517E+03  0.50400001928E-02 0. -1.
</event>
<event>
 5   0  0.3316784E-03  0.1089463E+04  0.7818609E-02  0.9215523E-01
        1   -1    0    0  501    0  0.00000000000E+00  0.00000000000E+00  0.83884857109E+03  0.83884857111E+03  0.50400001928E-02 0.  1.
       -1   -1    0    0    0  501  0.00000000000E+00  0.00000000000E+00 -0.35373797451E+03  0.35373797454E+03  0.50400001928E-02 0. -1.
    10030    2    1    2    0    0  0.00000000000E+00  0.00000000000E+00  0.48511059659E+03  0.11925865457E+04  0.10894633440E+04 0.  0.
        4    1    3    3  502    0 -0.19569415522E+03  0.38563957899E+03  0.60514380671E+03  0.74378405936E+03  0.12699999809E+01 0.  1.
       -4    1    3    3    0  502  0.19569415522E+03 -0.38563957899E+03 -0.12003321012E+03  0.44880248629E+03  0.12699999809E+01 0. -1.
</event>
<event>
 5   0  0.3241189E-03  0.1099627E+04  0.7818609E-02  0.9205555E-01
       -1   -1    0    0    0  501  0.00000000000E+00  0.00000000000E+00  0.51251502440E+03  0.51251502442E+03  0.50400001928E-02 0.  1.
        1   -1    0    0  501    0  0.00000000000E+00  0.00000000000E+00 -0.58982683086E+03  0.58982683089E+03  0.50400001928E-02 0. -1.
    10030    2    1    2    0    0  0.00000000000E+00  0.00000000000E+00 -0.77311806468E+02  0.11023418553E+04  0.10996274144E+04 0.  0.
        5    1    3    3  502    0  0.18015811916E+02  0.12613781350E+03 -0.57480105319E+03  0.58877301078E+03  0.46999998093E+01 0. -1.
       -5    1    3    3    0  502 -0.18015811916E+02 -0.12613781350E+03  0.49748924672E+03  0.51356884453E+03  0.46999998093E+01 0.  1.
</event>
<event>
 5   0  0.5500363E-03  0.1105658E+04  0.7818609E-02  0.9199695E-01
       -2   -1    0    0    0  501  0.00000000000E+00  0.00000000000E+00  0.25749341531E+03  0.25749341533E+03  0.25500000920E-02 0. -1.
        2   -1    0    0  501    0  0.00000000000E+00  0.00000000000E+00 -0.11869034207E+04  0.11869034207E+04  0.25500000920E-02 0.  1.
    10030    2    1    2    0    0  0.00000000000E+00  0.00000000000E+00 -0.92941000541E+03  0.14443968361E+04  0.11056578412E+04 0.  0.
        3    1    3    3  502    0 -0.41060353252E+03  0.13615648270E+03 -0.91438049389E+03  0.10115461168E+04  0.10100000352E+00 0.  1.
       -3    1    3    3    0  502  0.41060353252E+03 -0.13615648270E+03 -0.15029511516E+02  0.43285071920E+03  0.10100000352E+00 0. -1.
</event>
<event>
 5   0  0.3215352E-03  0.1097419E+04  0.7818609E-02  0.9207711E-01
       -1   -1    0    0    0  501  0.00000000000E+00  0.00000000000E+00  0.21246656188E+03  0.21246656194E+03  0.50400001928E-02 0. -1.
        1   -1    0    0  501    0  0.00000000000E+00  0.00000000000E+00 -0.14170792366E+04  0.14170792366E+04  0.50400001928E-02 0.  1.
    10030    2    1    2    0    0  0.00000000000E+00  0.00000000000E+00 -0.12046126747E+04  0.16295457985E+04  0.10974187047E+04 0.  0.
        1    1    3    3  502    0 -0.53997150095E+03 -0.95408885660E+02 -0.63236851790E+03  0.83699583019E+03  0.50400001928E-02 0. -1.
       -1    1    3    3    0  502  0.53997150095E+03  0.95408885660E+02 -0.57224415683E+03  0.79254996836E+03  0.50400001928E-02 0.  1.
</event>
<event>
 5   0  0.5723194E-03  0.1103314E+04  0.7818609E-02  0.9201968E-01
       -2   -1    0    0    0  501  0.00000000000E+00  0.00000000000E+00  0.41801532993E+03  0.41801532994E+03  0.25500000920E-02 0.  1.
        2   -1    0    0  501    0  0.00000000000E+00  0.00000000000E+00 -0.72802470152E+03  0.72802470152E+03  0.25500000920E-02 0. -1.
    10030    2    1    2    0    0  0.00000000000E+00  0.00000000000E+00 -0.31000937159E+03  0.11460400315E+04  0.11033140728E+04 0.  0.
        1    1    3    3  502    0  0.41732547167E+03 -0.35166244026E+03 -0.71269881722E+02  0.55036934622E+03  0.50400001928E-02 0.  1.
       -1    1    3    3    0  502 -0.41732547167E+03  0.35166244026E+03 -0.23873948987E+03  0.59567068523E+03  0.50400001928E-02 0. -1.
</event>
<event>
 5   0  0.3316784E-03  0.1088932E+04  0.7818609E-02  0.9216047E-01
       -1   -1    0    0    0  501  0.00000000000E+00  0.00000000000E+00  0.70847703097E+03  0.70847703099E+03  0.50400001928E-02 0. -1.
        1   -1    0    0  501    0  0.00000000000E+00  0.00000000000E+00 -0.41842321231E+03  0.41842321234E+03  0.50400001928E-02 0.  1.
    10030    2    1    2    0    0  0.00000000000E+00  0.00000000000E+00  0.29005381866E+03  0.11269002433E+04  0.10889320184E+04 0.  0.
        4    1    3    3  502    0 -0.17320651124E+03  0.42690344444E+03  0.44530715440E+03  0.64073951109E+03  0.12699999809E+01 0. -1.
       -4    1    3    3    0  502  0.17320651124E+03 -0.42690344444E+03 -0.15525333573E+03  0.48616073224E+03  0.12699999809E+01 0.  1.
</event>
<event>
 5   0  0.3241189E-03  0.1102958E+04  0.7818609E-02  0.9202313E-01
       -1   -1    0    0    0  501  0.00000000000E+00  0.00000000000E+00  0.33094954986E+03  0.33094954990E+03  0.50400001928E-02 0.  1.
        1   -1    0    0  501    0  0.00000000000E+00  0.00000000000E+00 -0.91895977905E+03  0.91895977906E+03  0.50400001928E-02 0. -1.
    10030    2    1    2    0    0  0.00000000000E+00  0.00000000000E+00 -0.58801022918E+03  0.12499093290E+04  0.11029584312E+04 0.  0.
        5    1    3    3  502    0  0.14978512114E+03  0.12926803459E+03 -0.87733025263E+03  0.89937548858E+03  0.46999998093E+01 0. -1.
       -5    1    3    3    0  502 -0.14978512114E+03 -0.12926803459E+03  0.28932002345E+03  0.35053384038E+03  0.46999998093E+01 0.  1.
</event>
<event>
 5   0  0.3320192E-03  0.1132796E+04  0.7818609E-02  0.9173804E-01
        1   -1    0    0  501    0  0.00000000000E+00  0.00000000000E+00  0.26788532260E+03  0.26788532265E+03  0.50400001928E-02 0.  1.
       -1   -1    0    0    0  501  0.00000000000E+00  0.00000000000E+00 -0.11975515984E+04  0.11975515984E+04  0.50400001928E-02 0. -1.
    10030    2    1    2    0    0  0.00000000000E+00  0.00000000000E+00 -0.92966627577E+03  0.14654369210E+04  0.11327956502E+04 0.  0.
        2    1    3    3  502    0  0.45409043667E+03 -0.29405584650E+03 -0.24782601851E+03  0.59505016679E+03  0.25500000920E-02 0. -1.
       -2    1    3    3    0  502 -0.45409043667E+03  0.29405584650E+03 -0.68184025726E+03  0.87038675425E+03  0.25500000920E-02 0.  1.
</event>
<event>
 5   0  0.3320192E-03  0.1113844E+04  0.7818609E-02  0.9191803E-01
        1   -1    0    0  501    0  0.00000000000E+00  0.00000000000E+00  0.17047705337E+04  0.17047705337E+04  0.50400001928E-02 0. -1.
       -1   -1    0    0    0  501  0.00000000000E+00  0.00000000000E+00 -0.18193772398E+03  0.18193772405E+03  0.50400001928E-02 0.  1.
    10030    2    1    2    0    0  0.00000000000E+00  0.00000000000E+00  0.15228328097E+04  0.18867082578E+04  0.11138439224E+04 0.  0.
        2    1    3    3  502    0 -0.27513146386E+03  0.23249318530E+03  0.41946353396E+02  0.36264293759E+03  0.25500000920E-02 0. -1.
       -2    1    3    3    0  502  0.27513146386E+03 -0.23249318530E+03  0.14808864563E+04  0.15240653202E+04  0.25500000920E-02 0.  1.
</event>
<event>
 5   0  0.3241189E-03  0.1056073E+04  0.7818609E-02  0.9249097E-01
       -1   -1    0    0    0  501  0.00000000000E+00  0.00000000000E+00  0.47456377601E+03  0.47456377604E+03  0.50400001928E-02 0.  1.
        1   -1    0    0  501    0  0.00000000000E+00  0.00000000000E+00 -0.58753429648E+03  0.58753429651E+03  0.50400001928E-02 0. -1.
    10030    2    1    2    0    0  0.00000000000E+00  0.00000000000E+00 -0.11297052048E+03  0.10620980725E+04  0.10560729034E+04 0.  0.
        5    1    3    3  502    0 -0.29491416146E+03  0.41062440563E+03 -0.20971474308E+03  0.54734735643E+03  0.46999998093E+01 0. -1.
       -5    1    3    3    0  502  0.29491416146E+03 -0.41062440563E+03  0.96744222600E+02  0.51475071611E+03  0.46999998093E+01 0.  1.
</event>
<event>
 5   0  0.5627232E-03  0.1150907E+04  0.7818609E-02  0.9156947E-01
       -2   -1    0    0    0  501  0.00000000000E+00  0.00000000000E+00  0.61179666085E+03  0.61179666086E+03  0.25500000920E-02 0.  1.
        2   -1    0    0  501    0  0.00000000000E+00  0.00000000000E+00 -0.54126900701E+03  0.54126900702E+03  0.25500000920E-02 0. -1.
    10030    2    1    2    0    0  0.00000000000E+00  0.00000000000E+00  0.70527653844E+02  0.11530656679E+04  0.11509067228E+04 0.  0.
        2    1    3    3  502    0  0.97903439397E+02  0.29800052397E+03  0.51861797896E+03  0.60609735508E+03  0.25500000920E-02 0.  1.
       -2    1    3    3    0  502 -0.97903439397E+02 -0.29800052397E+03 -0.44809032511E+03  0.54696831279E+03  0.25500000920E-02 0. -1.
</event>
<event>
 5   0  0.3215352E-03  0.1122207E+04  0.7818609E-02  0.9183814E-01
        1   -1    0    0  501    0  0.00000000000E+00  0.00000000000E+00  0.60071681365E+03  0.60071681367E+03  0.50400001928E-02 0.  1.
       -1   -1    0    0    0  501  0.00000000000E+00  0.00000000000E+00 -0.52410225999E+03  0.52410226001E+03  0.50400001928E-02 0. -1.
    10030    2    1    2    0    0  0.00000000000E+00  0.00000000000E+00  0.76614553661E+02  0.11248190737E+04  0.11222068253E+04 0.  0.
        1    1    3    3  502    0 -0.16279146601E+03 -0.19458506700E+03 -0.46333011862E+03  0.52824161948E+03  0.50400001928E-02 0. -1.
       -1    1    3    3    0  502  0.16279146601E+03  0.19458506700E+03  0.53994467228E+03  0.59657745420E+03  0.50400001928E-02 0.  1.
</event>
<event>
 5   0  0.3215352E-03  0.1099416E+04  0.7818609E-02  0.9205761E-01
       -1   -1    0    0    0  501  0.00000000000E+00  0.00000000000E+00  0.67241115581E+03  0.67241115583E+03  0.50400001928E-02 0.  1.
        1   -1    0    0  501    0  0.00000000000E+00  0.00000000000E+00 -0.44939605678E+03  0.44939605680E+03  0.50400001928E-02 0. -1.
    10030    2    1    2    0    0  0.00000000000E+00  0.00000000000E+00  0.22301509903E+03  0.11218072126E+04  0.10994160668E+04 0.  0.
        1    1    3    3  502    0 -0.37078590917E+03  0.17419960325E+03  0.48551217343E+03  0.63525566726E+03  0.50400001928E-02 0.  1.
       -1    1    3    3    0  502  0.37078590917E+03 -0.17419960325E+03 -0.26249707440E+03  0.48655154537E+03  0.50400001928E-02 0. -1.
</event>
<event>
 5   0  0.3215352E-03  0.1044533E+04  0.7818609E-02  0.9261006E-01
        1   -1    0    0  501    0  0.00000000000E+00  0.00000000000E+00  0.82094846002E+03  0.82094846004E+03  0.50400001928E-02 0. -1.
       -1   -1    0    0    0  501  0.00000000000E+00  0.00000000000E+00 -0.33225278858E+03  0.33225278862E+03  0.50400001928E-02 0.  1.
    10030    2    1    2    0    0  0.00000000000E+00  0.00000000000E+00  0.48869567144E+03  0.11532012487E+04  0.10445332262E+04 0.  0.
        1    1    3    3  502    0 -0.46000115474E+03 -0.24681784817E+03  0.26153332371E+03  0.58388337190E+03  0.50400001928E-02 0.  1.
       -1    1    3    3    0  502  0.46000115474E+03  0.24681784817E+03  0.22716234773E+03  0.56931787676E+03  0.50400001928E-02 0. -1.
</event>
<event>
 5   0  0.2185750E-03  0.1107497E+04  0.7818609E-02  0.9197915E-01
       -3   -1    0    0    0  501  0.00000000000E+00  0.00000000000E+00  0.22263306420E+03  0.22263308711E+03  0.10100000352E+00 0. -1.
        3   -1    0    0  501    0  0.00000000000E+00  0.00000000000E+00 -0.13773225265E+04  0.13773225302E+04  0.10100000352E+00 0.  1.
    10030    2    1    2    0    0  0.00000000000E+00  0.00000000000E+00 -0.11546894623E+04  0.15999556173E+04  0.11074972790E+04 0.  0.
        5    1    3    3  502    0 -0.28229817129E+03  0.47205231529E+03 -0.48495634981E+03  0.73330102762E+03  0.46999998093E+01 0.  1.
       -5    1    3    3    0  502  0.28229817129E+03 -0.47205231529E+03 -0.66973311248E+03  0.86665458969E+03  0.46999998093E+01 0. -1.
</event>
<event>
 5   0  0.5946359E-03  0.1014753E+04  0.7818609E-02  0.9292511E-01
       -2   -1    0    0    0  501  0.00000000000E+00  0.00000000000E+00  0.11531717570E+03  0.11531717573E+03  0.25500000920E-02 0. -1.
        2   -1    0    0  501    0  0.00000000000E+00  0.00000000000E+00 -0.22323716773E+04  0.22323716773E+04  0.25500000920E-02 0.  1.
    10030    2    1    2    0    0  0.00000000000E+00  0.00000000000E+00 -0.21170545016E+04  0.23476888531E+04  0.10147527718E+04 0.  0.
        4    1    3    3  502    0 -0.28473812422E+03  0.27199433722E+03 -0.31828840427E+03  0.50632582401E+03  0.12699999809E+01 0. -1.
       -4    1    3    3    0  502  0.28473812422E+03 -0.27199433722E+03 -0.17987660973E+04  0.18413630290E+04  0.12699999809E+01 0.  1.
</event>
<event>
 5   0  0.3328741E-03  0.1102073E+04  0.7818609E-02  0.9203174E-01
        1   -1    0    0  501    0  0.00000000000E+00  0.00000000000E+00  0.10560968745E+04  0.10560968745E+04  0.50400001928E-02 0.  1.
       -1   -1    0    0    0  501  0.00000000000E+00  0.00000000000E+00 -0.28751257925E+03  0.28751257929E+03  0.50400001928E-02 0. -1.
    10030    2    1    2    0    0  0.00000000000E+00  0.00000000000E+00  0.76858429525E+03  0.13436094538E+04  0.11020728404E+04 0.  0.
        3    1    3    3  502    0  0.53557056502E+03  0.33002309729E+02  0.23145259939E+03  0.58437599072E+03  0.10100000352E+00 0.  1.
       -3    1    3    3    0  502 -0.53557056502E+03 -0.33002309729E+02  0.53713169586E+03  0.75923346308E+03  0.10100000352E+00 0. -1.
</event>
<event>
 5   0  0.5946359E-03  0.1142208E+04  0.7818609E-02  0.9165002E-01
        2   -1    0    0  501    0  0.00000000000E+00  0.00000000000E+00  0.76402155866E+03  0.76402155866E+03  0.25500000920E-02 0.  1.
       -2   -1    0    0    0  501  0.00000000000E+00  0.00000000000E+00 -0.42689858941E+03  0.42689858942E+03  0.25500000920E-02 0. -1.
    10030    2    1    2    0    0  0.00000000000E+00  0.00000000000E+00  0.33712296925E+03  0.11909201481E+04  0.11422079070E+04 0.  0.
        4    1    3    3  502    0 -0.46935338597E+03  0.24730963515E+03 -0.51887463695E+02  0.53305588670E+03  0.12699999809E+01 0. -1.
       -4    1    3    3    0  502  0.46935338597E+03 -0.24730963515E+03  0.38901043294E+03  0.65786426138E+03  0.12699999809E+01 0.  1.
</event>
<event>
 5   0  0.5500363E-03  0.1098870E+04  0.7818609E-02  0.9206294E-01
        2   -1    0    0  501    0  0.00000000000E+00  0.00000000000E+00  0.42482744259E+03  0.42482744260E+03  0.25500000920E-02 0.  1.
       -2   -1    0    0    0  501  0.00000000000E+00  0.00000000000E+00 -0.71059107828E+03  0.71059107829E+03  0.25500000920E-02 0. -1.
    10030    2    1    2    0    0  0.00000000000E+00  0.00000000000E+00 -0.28576363570E+03  0.11354185209E+04  0.10988695837E+04 0.  0.
        3    1    3    3  502    0 -0.14814778271E+03 -0.23629913831E+03  0.34624838732E+03  0.44460432320E+03  0.10100000352E+00 0.  1.
       -3    1    3    3    0  502  0.14814778271E+03  0.23629913831E+03 -0.63201202301E+03  0.69081419768E+03  0.10100000352E+00 0. -1.
</event>
<event>
 5   0  0.5723194E-03  0.1095709E+04  0.7818609E-02  0.9209384E-01
        2   -1    0    0  501    0  0.00000000000E+00  0.00000000000E+00  0.14167100788E+04  0.14167100788E+04  0.25500000920E-02 0.  1.
       -2   -1    0    0    0  501  0.00000000000E+00  0.00000000000E+00 -0.21186027177E+03  0.21186027178E+03  0.25500000920E-02 0. -1.
    10030    2    1    2    0    0  0.00000000000E+00  0.00000000000E+00  0.12048498071E+04  0.16285703506E+04  0.10957090532E+04 0.  0.
        1    1    3    3  502    0 -0.19816240446E+03 -0.49177576126E+03  0.39737332242E+03  0.66258380248E+03  0.50400001928E-02 0.  1.
       -1    1    3    3    0  502  0.19816240446E+03  0.49177576126E+03  0.80747648464E+03  0.96598654814E+03  0.50400001928E-02 0. -1.
</event>
<event>
 5   0  0.5946359E-03  0.1096943E+04  0.7818609E-02  0.9208177E-01
       -2   -1    0    0    0  501  0.00000000000E+00  0.00000000000E+00  0.24858145324E+03  0.24858145326E+03  0.25500000920E-02 0. -1.
        2   -1    0    0  501    0  0.00000000000E+00  0.00000000000E+00 -0.12101504456E+04  0.12101504456E+04  0.25500000920E-02 0.  1.
    10030    2    1    2    0    0  0.00000000000E+00  0.00000000000E+00 -0.96156899236E+03  0.14587318989E+04  0.10969429455E+04 0.  0.
        4    1    3    3  502    0  0.32500927023E+02  0.14109444384E+03 -0.11842750646E+04  0.11930938747E+04  0.12699999809E+01 0.  1.
       -4    1    3    3    0  502 -0.32500927023E+02 -0.14109444384E+03  0.22270607226E+03  0.26563802413E+03  0.12699999809E+01 0. -1.
</event>
<event>
 5   0  0.3328741E-03  0.1095192E+04  0.7818609E-02  0.9209891E-01
        1   -1    0    0  501    0  0.00000000000E+00  0.00000000000E+00  0.75127603584E+03  0.75127603586E+03  0.50400001928E-02 0. -1.
       -1   -1    0    0    0  501  0.00000000000E+00  0.00000000000E+00 -0.39913572936E+03  0.39913572939E+03  0.50400001928E-02 0.  1.
    10030    2    1    2    0    0  0.00000000000E+00  0.00000000000E+00  0.35214030648E+03  0.11504117653E+04  0.10951915057E+04 0.  0.
        3    1    3    3  502    0  0.25490486203E+03  0.56637011102E+02  0.68166725498E+03  0.72996883250E+03  0.10100000352E+00 0. -1.
       -3    1    3    3    0  502 -0.25490486203E+03 -0.56637011102E+02 -0.32952694850E+03  0.42044293275E+03  0.10100000352E+00 0.  1.
</event>
<event>
 5   0  0.5500363E-03  0.1094516E+04  0.7818609E-02  0.9210554E-01
        2   -1    0    0  501    0  0.00000000000E+00  0.00000000000E+00  0.12497175357E+04  0.12497175357E+04  0.25500000920E-02 0.  1.
       -2   -1    0    0    0  501  0.00000000000E+00  0.00000000000E+00 -0.23964704402E+03  0.23964704403E+03  0.25500000920E-02 0. -1.
    10030    2    1    2    0    0  0.00000000000E+00  0.00000000000E+00  0.10100704917E+04  0.14893645797E+04  0.10945156249E+04 0.  0.
        3    1    3    3  502    0  0.41389147886E+03  0.66116712463E+02  0.98384512587E+03  0.10694058247E+04  0.10100000352E+00 0.  1.
       -3    1    3    3    0  502 -0.41389147886E+03 -0.66116712463E+02  0.26225365804E+02  0.41995875506E+03  0.10100000352E+00 0. -1.
</event>
<event>
 5   0  0.3328741E-03  0.1088829E+04  0.7818609E-02  0.9216149E-01
       -1   -1    0    0    0  501  0.00000000000E+00  0.00000000000E+00  0.24622798881E+03  0.24622798886E+03  0.50400001928E-02 0.  1.
        1   -1    0    0  501    0  0.00000000000E+00  0.00000000000E+00 -0.12037105203E+04  0.12037105203E+04  0.50400001928E-02 0. -1.
    10030    2    1    2    0    0  0.00000000000E+00  0.00000000000E+00 -0.95748253145E+03  0.14499385091E+04  0.10888291336E+04 0.  0.
        3    1    3    3  502    0  0.26245707915E+03 -0.10314613069E+02  0.15627129142E+03  0.30563186412E+03  0.10100000352E+00 0.  1.
       -3    1    3    3    0  502 -0.26245707915E+03  0.10314613069E+02 -0.11137538229E+04  0.11443066450E+04  0.10100000352E+00 0. -1.
</event>
<event>
 5   0  0.5946359E-03  0.1099760E+04  0.7818609E-02  0.9205426E-01
       -2   -1    0    0    0  501  0.00000000000E+00  0.00000000000E+00  0.61054248655E+03  0.61054248655E+03  0.25500000920E-02 0.  1.
        2   -1    0    0  501    0  0.00000000000E+00  0.00000000000E+00 -0.49524508407E+03  0.49524508407E+03  0.25500000920E-02 0. -1.
    10030    2    1    2    0    0  0.00000000000E+00  0.00000000000E+00  0.11529740248E+03  0.11057875706E+04  0.10997602740E+04 0.  0.
        4    1    3    3  502    0  0.42168085975E+03  0.27400812761E+03 -0.16599185314E+03  0.52957540510E+03  0.12699999809E+01 0. -1.
       -4    1    3    3    0  502 -0.42168085975E+03 -0.27400812761E+03  0.28128925562E+03  0.57621216553E+03  0.12699999809E+01 0.  1.
</event>
<event>
 5   0  0.5627232E-03  0.1085531E+04  0.7818609E-02  0.9219411E-01
        2   -1    0    0  501    0  0.00000000000E+00  0.00000000000E+00  0.42087352817E+03  0.42087352818E+03  0.25500000920E-02 0.  1.
       -2   -1    0    0    0  501  0.00000000000E+00  0.00000000000E+00 -0.69995898616E+03  0.69995898617E+03  0.25500000920E-02 0. -1.
    10030    2    1    2    0    0  0.00000000000E+00  0.00000000000E+00 -0.27908545799E+03  0.11208325143E+04  0.10855306685E+04 0.  0.
        2    1    3    3  502    0 -0.27792402626E+03  0.46088662397E+03 -0.21208390558E+03  0.57847889118E+03  0.25500000920E-02 0.  1.
       -2    1    3    3    0  502  0.27792402626E+03 -0.46088662397E+03 -0.67001552417E+02  0.54235362317E+03  0.25500000920E-02 0. -1.
</event>
<event>
 5   0  0.5723194E-03  0.1064879E+04  0.7818609E-02  0.9240116E-01
        2   -1    0    0  501    0  0.00000000000E+00  0.00000000000E+00  0.14094364934E+04  0.14094364934E+04  0.25500000920E-02 0. -1.
       -2   -1    0    0    0  501  0.00000000000E+00  0.00000000000E+00 -0.20113825706E+03  0.20113825707E+03  0.25500000920E-02 0.  1.
    10030    2    1    2    0    0  0.00000000000E+00  0.00000000000E+00  0.12082982363E+04  0.16105747505E+04  0.10648785841E+04 0.  0.
        1    1    3    3  502    0 -0.45677804431E+03  0.11314981878E+03  0.22742314321E+03  0.52265700928E+03  0.50400001928E-02 0.  1.
       -1    1    3    3    0  502  0.45677804431E+03 -0.11314981878E+03  0.98087509312E+03  0.10879177412E+04  0.50400001928E-02 0. -1.
</event>
<event>
 5   0  0.5500363E-03  0.1096551E+04  0.7818609E-02  0.9208560E-01
        2   -1    0    0  501    0  0.00000000000E+00  0.00000000000E+00  0.51704782407E+03  0.51704782407E+03  0.25500000920E-02 0.  1.
       -2   -1    0    0    0  501  0.00000000000E+00  0.00000000000E+00 -0.58138885408E+03  0.58138885409E+03  0.25500000920E-02 0. -1.
    10030    2    1    2    0    0  0.00000000000E+00  0.00000000000E+00 -0.64341030016E+02  0.10984366782E+04  0.10965506681E+04 0.  0.
        3    1    3    3  502    0 -0.42348502306E+02 -0.49708581744E+03 -0.25997785501E+03  0.56256217509E+03  0.10100000352E+00 0.  1.
       -3    1    3    3    0  502  0.42348502306E+02  0.49708581744E+03  0.19563682499E+03  0.53587450307E+03  0.10100000352E+00 0. -1.
</event>
<event>
 5   0  0.5627232E-03  0.8280130E+03  0.7818609E-02  0.9520332E-01
        2   -1    0    0  501    0  0.00000000000E+00  0.00000000000E+00  0.59632083000E+03  0.59632083001E+03  0.25500000920E-02 0. -1.
       -2   -1    0    0    0  501  0.00000000000E+00  0.00000000000E+00 -0.28743151407E+03  0.28743151408E+03  0.25500000920E-02 0.  1.
    10030    2    1    2    0    0  0.00000000000E+00  0.00000000000E+00  0.30888931594E+03  0.88375234408E+03  0.82801304107E+03 0.  0.
        2    1    3    3  502    0 -0.23666829119E+03 -0.15086356180E+03 -0.17039462382E+03  0.32833827400E+03  0.25500000920E-02 0.  1.
       -2    1    3    3    0  502  0.23666829119E+03  0.15086356180E+03  0.47928393976E+03  0.55541407009E+03  0.25500000920E-02 0. -1.
</event>
<event>
 5   0  0.3320192E-03  0.1088328E+04  0.7818609E-02  0.9216644E-01
        1   -1    0    0  501    0  0.00000000000E+00  0.00000000000E+00  0.82821083042E+03  0.82821083044E+03  0.50400001928E-02 0. -1.
       -1   -1    0    0    0  501  0.00000000000E+00  0.00000000000E+00 -0.35753503526E+03  0.35753503530E+03  0.50400001928E-02 0.  1.
    10030    2    1    2    0    0  0.00000000000E+00  0.00000000000E+00  0.47067579516E+03  0.11857458657E+04  0.10883278706E+04 0.  0.
        2    1    3    3  502    0  0.47338484424E+02 -0.13544821289E+03  0.80723005037E+03  0.81988261643E+03  0.25500000920E-02 0. -1.
       -2    1    3    3    0  502 -0.47338484424E+02  0.13544821289E+03 -0.33655425522E+03  0.36586324931E+03  0.25500000920E-02 0.  1.
</event>
<event>
 5   0  0.3320192E-03  0.1104834E+04  0.7818609E-02  0.9200493E-01
       -1   -1    0    0    0  501  0.00000000000E+00  0.00000000000E+00  0.52191798954E+03  0.52191798957E+03  0.50400001928E-02 0. -1.
        1   -1    0    0  501    0  0.00000000000E+00  0.00000000000E+00 -0.58469837713E+03  0.58469837715E+03  0.50400001928E-02 0.  1.
    10030    2    1    2    0    0  0.00000000000E+00  0.00000000000E+00 -0.62780387583E+02  0.11066163667E+04  0.11048341079E+04 0.  0.
        2    1    3    3  502    0  0.43889158441E+03  0.14230808180E+03 -0.33566831339E+03  0.57057044231E+03  0.25500000920E-02 0.  1.
       -2    1    3    3    0  502 -0.43889158441E+03 -0.14230808180E+03  0.27288792581E+03  0.53604592441E+03  0.25500000920E-02 0. -1.
</event>
<event>
 5   0  0.3316784E-03  0.1084614E+04  0.7818609E-02  0.9220320E-01
        1   -1    0    0  501    0  0.00000000000E+00  0.00000000000E+00  0.12749887582E+04  0.12749887582E+04  0.50400001928E-02 0. -1.
       -1   -1    0    0    0  501  0.00000000000E+00  0.00000000000E+00 -0.23066607184E+03  0.23066607190E+03  0.50400001928E-02 0.  1.
    10030    2    1    2    0    0  0.00000000000E+00  0.00000000000E+00  0.10443226863E+04  0.15056548301E+04  0.10846135690E+04 0.  0.
        4    1    3    3  502    0 -0.39688462747E+03 -0.36199824997E+03  0.41888399287E+03  0.68119421084E+03  0.12699999809E+01 0.  1.
       -4    1    3    3    0  502  0.39688462747E+03  0.36199824997E+03  0.62543869345E+03  0.82446061923E+03  0.12699999809E+01 0. -1.
</event>
<event>
 5   0  0.3241189E-03  0.1118055E+04  0.7818609E-02  0.9187771E-01
        1   -1    0    0  501    0  0.00000000000E+00  0.00000000000E+00  0.29860655718E+03  0.29860655722E+03  0.50400001928E-02 0.  1.
       -1   -1    0    0    0  501  0.00000000000E+00  0.00000000000E+00 -0.10465660966E+04  0.10465660966E+04  0.50400001928E-02 0. -1.
    10030    2    1    2    0    0  0.00000000000E+00  0.00000000000E+00 -0.74795953940E+03  0.13451726538E+04  0.11180545586E+04 0.  0.
        5    1    3    3  502    0  0.46734517170E+03  0.99495031318E+02 -0.24906992569E+02  0.47849056317E+03  0.46999998093E+01 0.  1.
       -5    1    3    3    0  502 -0.46734517170E+03 -0.99495031318E+02 -0.72305254683E+03  0.86668209064E+03  0.46999998093E+01 0. -1.
</event>
<event>
 5   0  0.3241189E-03  0.1106471E+04  0.7818609E-02  0.9198907E-01
        1   -1    0    0  501    0  0.00000000000E+00  0.00000000000E+00  0.15478623261E+04  0.15478623261E+04  0.50400001928E-02 0. -1.
       -1   -1    0    0    0  501  0.00000000000E+00  0.00000000000E+00 -0.19773703954E+03  0.19773703960E+03  0.50400001928E-02 0.  1.
    10030    2    1    2    0    0  0.00000000000E+00  0.00000000000E+00  0.13501252866E+04  0.17455993657E+04  0.11064713535E+04 0.  0.
        5    1    3    3  502    0  0.44313260952E+03  0.18499264453E+03  0.24169203722E+03  0.53761130848E+03  0.46999998093E+01 0.  1.
       -5    1    3    3    0  502 -0.44313260952E+03 -0.18499264453E+03  0.11084332493E+04  0.12079880572E+04  0.46999998093E+01 0. -1.
</event>
<event>
 5   0  0.5500363E-03  0.1098458E+04  0.7818609E-02  0.9206696E-01
        2   -1    0    0  501    0  0.00000000000E+00  0.00000000000E+00  0.18490495380E+04  0.18490495380E+04  0.25500000920E-02 0. -1.
       -2   -1    0    0    0  501  0.00000000000E+00  0.00000000000E+00 -0.16313935637E+03  0.16313935639E+03  0.25500000920E-02 0.  1.
    10030    2    1    2    0    0  0.00000000000E+00  0.00000000000E+00  0.16859101817E+04  0.20121888944E+04  0.10984584681E+04 0.  0.
        3    1    3    3  502    0 -0.47987633043E+03 -0.23586144679E+03  0.61312924026E+03  0.81353511913E+03  0.10100000352E+00 0.  1.
       -3    1    3    3    0  502  0.47987633043E+03  0.23586144679E+03  0.10727809414E+04  0.11986537753E+04  0.10100000352E+00 0. -1.
</event>
<event>
 5   0  0.5500363E-03  0.1117909E+04  0.7818609E-02  0.9187910E-01
        2   -1    0    0  501    0  0.00000000000E+00  0.00000000000E+00  0.18481388908E+04  0.18481388908E+04  0.25500000920E-02 0.  1.
       -2   -1    0    0    0  501  0.00000000000E+00  0.00000000000E+00 -0.16905132493E+03  0.16905132495E+03  0.25500000920E-02 0. -1.
    10030    2    1    2    0    0  0.00000000000E+00  0.00000000000E+00  0.16790875659E+04  0.20171902157E+04  0.11179093490E+04 0.  0.
        3    1    3    3  502    0 -0.37671417604E+03  0.41290878701E+03  0.83087478517E+03  0.10013791268E+04  0.10100000352E+00 0.  1.
       -3    1    3    3    0  502  0.37671417604E+03 -0.41290878701E+03  0.84821278069E+03  0.10158110889E+04  0.10100000352E+00 0. -1.
</event>
<event>
 5   0  0.3241189E-03  0.1096605E+04  0.7818609E-02  0.9208507E-01
       -1   -1    0    0    0  501  0.00000000000E+00  0.00000000000E+00  0.18867216051E+03  0.18867216058E+03  0.50400001928E-02 0. -1.
        1   -1    0    0  501    0  0.00000000000E+00  0.00000000000E+00 -0.15934299904E+04  0.15934299904E+04  0.50400001928E-02 0.  1.
    10030    2    1    2    0    0  0.00000000000E+00  0.00000000000E+00 -0.14047578299E+04  0.17821021510E+04  0.10966054513E+04 0.  0.
        5    1    3    3  502    0 -0.50371342719E+03 -0.15815025238E+03 -0.46202183518E+03  0.70158747512E+03  0.46999998093E+01 0. -1.
       -5    1    3    3    0  502  0.50371342719E+03  0.15815025238E+03 -0.94273599469E+03  0.10805146759E+04  0.46999998093E+01 0.  1.
</event>
<event>
 5   0  0.5723194E-03  0.1101258E+04  0.7818609E-02  0.9203966E-01
        2   -1    0    0  501    0  0.00000000000E+00  0.00000000000E+00  0.17722532457E+04  0.17722532457E+04  0.25500000920E-02 0.  1.
       -2   -1    0    0    0  501  0.00000000000E+00  0.00000000000E+00 -0.17107734077E+03  0.17107734079E+03  0.25500000920E-02 0. -1.
    10030    2    1    2    0    0  0.00000000000E+00  0.00000000000E+00  0.16011759049E+04  0.19433305865E+04  0.11012581395E+04 0.  0.
        1    1    3    3  502    0  0.18453490734E+03 -0.38408565957E+03  0.14159851231E+04  0.14787118701E+04  0.50400001928E-02 0.  1.
       -1    1    3    3    0  502 -0.18453490734E+03  0.38408565957E+03  0.18519078181E+03  0.46461871637E+03  0.50400001928E-02 0. -1.
</event>
<event>
 5   0  0.3320192E-03  0.1109444E+04  0.7818609E-02  0.9196036E-01
        1   -1    0    0  501    0  0.00000000000E+00  0.00000000000E+00  0.17665280804E+04  0.17665280804E+04  0.50400001928E-02 0.  1.
       -1   -1    0    0    0  501  0.00000000000E+00  0.00000000000E+00 -0.17419284352E+03  0.17419284360E+03  0.50400001928E-02 0. -1.
    10030    2    1    2    0    0  0.00000000000E+00  0.00000000000E+00  0.15923352369E+04  0.19407209240E+04  0.11094440943E+04 0.  0.
        2    1    3    3  502    0  0.43821209253E+03  0.12405917173E+03  0.13501545812E+04  0.14248992629E+04  0.25500000920E-02 0.  1.
       -2    1    3    3    0  502 -0.43821209253E+03 -0.12405917173E+03  0.24218065569E+03  0.51582166116E+03  0.25500000920E-02 0. -1.
</event>
<event>
 5   0  0.5500363E-03  0.1086613E+04  0.7818609E-02  0.9218339E-01
        2   -1    0    0  501    0  0.00000000000E+00  0.00000000000E+00  0.74189406226E+03  0.74189406227E+03  0.25500000920E-02 0. -1.
       -2   -1    0    0    0  501  0.00000000000E+00  0.00000000000E+00 -0.39787636507E+03  0.39787636508E+03  0.25500000920E-02 0.  1.
    10030    2    1    2    0    0  0.00000000000E+00  0.00000000000E+00  0.34401769719E+03  0.11397704273E+04  0.10866132942E+04 0.  0.
        3    1    3    3  502    0  0.27594396717E+03 -0.39659784305E+03  0.43265477152E+03  0.64855615305E+03  0.10100000352E+00 0. -1.
       -3    1    3    3    0  502 -0.27594396717E+03  0.39659784305E+03 -0.88637074337E+02  0.49121427430E+03  0.10100000352E+00 0.  1.
</event>
<event>
 5   0  0.5946359E-03  0.1113638E+04  0.7818609E-02  0.9192001E-01
        2   -1    0    0  501    0  0.00000000000E+00  0.00000000000E+00  0.28551552463E+03  0.28551552465E+03  0.25500000920E-02 0. -1.
       -2   -1    0    0    0  501  0.00000000000E+00  0.00000000000E+00 -0.10859207824E+04  0.10859207824E+04  0.25500000920E-02 0.  1.
    10030    2    1    2    0    0  0.00000000000E+00  0.00000000000E+00 -0.80040525780E+03  0.13714363071E+04  0.11136377183E+04 0.  0.
        4    1    3    3  502    0  0.52368939635E+03  0.18358418285E+03 -0.34387759753E+03  0.65284542659E+03  0.12699999809E+01 0. -1.
       -4    1    3    3    0  502 -0.52368939635E+03 -0.18358418285E+03 -0.45652766027E+03  0.71859088049E+03  0.12699999809E+01 0.  1.
</event>
<event>
 5   0  0.5941585E-03  0.1031041E+04  0.7818609E-02  0.9275140E-01
       -2   -1    0    0    0  501  0.00000000000E+00  0.00000000000E+00  0.25946708129E+03  0.25946708131E+03  0.25500000920E-02 0. -1.
        2   -1    0    0  501    0  0.00000000000E+00  0.00000000000E+00 -0.10242580869E+04  0.10242580869E+04  0.25500000920E-02 0.  1.
    10030    2    1    2    0    0  0.00000000000E+00  0.00000000000E+00 -0.76479100558E+03  0.12837251682E+04  0.10310407486E+04 0.  0.
        5    1    3    3  502    0 -0.21725635418E+03 -0.21379400301E+03  0.13521967955E+03  0.33348860684E+03  0.46999998093E+01 0. -1.
       -5    1    3    3    0  502  0.21725635418E+03  0.21379400301E+03 -0.90001068513E+03  0.95023656134E+03  0.46999998093E+01 0.  1.
</event>
<event>
 5   0  0.3215352E-03  0.1099405E+04  0.7818609E-02  0.9205772E-01
        1   -1    0    0  501    0  0.00000000000E+00  0.00000000000E+00  0.50851654513E+03  0.50851654515E+03  0.50400001928E-02 0. -1.
       -1   -1    0    0    0  501  0.00000000000E+00  0.00000000000E+00 -0.59422418967E+03  0.59422418969E+03  0.50400001928E-02 0.  1.
    10030    2    1    2    0    0  0.00000000000E+00  0.00000000000E+00 -0.85707644540E+02  0.11027407348E+04  0.10994049881E+04 0.  0.
        1    1    3    3  502    0 -0.25542083274E+03 -0.17947214453E+03  0.41098202757E+03  0.51609716088E+03  0.50400001928E-02 0. -1.
       -1    1    3    3    0  502  0.25542083274E+03  0.17947214453E+03 -0.49668967211E+03  0.58664357396E+03  0.50400001928E-02 0.  1.
</event>
<event>
 5   0  0.3328741E-03  0.1084754E+04  0.7818609E-02  0.9220181E-01
       -1   -1    0    0    0  501  0.00000000000E+00  0.00000000000E+00  0.11226710778E+03  0.11226710789E+03  0.50400001928E-02 0.  1.
        1   -1    0    0  501    0  0.00000000000E+00  0.00000000000E+00 -0.26202929760E+04  0.26202929760E+04  0.50400001928E-02 0. -1.
    10030    2    1    2    0    0  0.00000000000E+00  0.00000000000E+00 -0.25080258682E+04  0.27325600839E+04  0.10847538230E+04 0.  0.
        3    1    3    3  502    0 -0.21775952129E+03 -0.24495943444E+02 -0.42101478796E+01  0.21917343796E+03  0.10100000352E+00 0.  1.
       -3    1    3    3    0  502  0.21775952129E+03  0.24495943444E+02 -0.25038157203E+04  0.25133866459E+04  0.10100000352E+00 0. -1.
</event>
<event>
 5   0  0.3316784E-03  0.1148502E+04  0.7818609E-02  0.9159166E-01
        1   -1    0    0  501    0  0.00000000000E+00  0.00000000000E+00  0.44069853002E+03  0.44069853005E+03  0.50400001928E-02 0.  1.
       -1   -1    0    0    0  501  0.00000000000E+00  0.00000000000E+00 -0.74827656887E+03  0.74827656888E+03  0.50400001928E-02 0. -1.
    10030    2    1    2    0    0  0.00000000000E+00  0.00000000000E+00 -0.30757803884E+03  0.11889750989E+04  0.11485023012E+04 0.  0.
        4    1    3    3  502    0 -0.24177386430E+03 -0.43376234662E+03 -0.45232311707E+03  0.67171585506E+03  0.12699999809E+01 0. -1.
       -4    1    3    3    0  502  0.24177386430E+03  0.43376234662E+03  0.14474507823E+03  0.51725924388E+03  0.12699999809E+01 0.  1.
</event>
<event>
 5   0  0.3241189E-03  0.1097610E+04  0.7818609E-02  0.9207524E-01
       -1   -1    0    0    0  501  0.00000000000E+00  0.00000000000E+00  0.28536357126E+03  0.28536357131E+03  0.50400001928E-02 0.  1.
        1   -1    0    0  501    0  0.00000000000E+00  0.00000000000E+00 -0.10554498673E+04  0.10554498673E+04  0.50400001928E-02 0. -1.
    10030    2    1    2    0    0  0.00000000000E+00  0.00000000000E+00 -0.77008629607E+03  0.13408134386E+04  0.10976100281E+04 0.  0.
        5    1    3    3  502    0  0.33309966327E+03 -0.43276087113E+03 -0.31894817050E+03  0.63244555711E+03  0.46999998093E+01 0. -1.
       -5    1    3    3    0  502 -0.33309966327E+03  0.43276087113E+03 -0.45113812558E+03  0.70836788154E+03  0.46999998093E+01 0.  1.
</event>
<event>
 5   0  0.5500363E-03  0.1119301E+04  0.7818609E-02  0.9186581E-01
        2   -1    0    0  501    0  0.00000000000E+00  0.00000000000E+00  0.14036973899E+04  0.14036973899E+04  0.25500000920E-02 0. -1.
       -2   -1    0    0    0  501  0.00000000000E+00  0.00000000000E+00 -0.22313128247E+03  0.22313128248E+03  0.25500000920E-02 0.  1.
    10030    2    1    2    0    0  0.00000000000E+00  0.00000000000E+00  0.11805661075E+04  0.16268286724E+04  0.11193012085E+04 0.  0.
        3    1    3    3  502    0 -0.22329975674E+03 -0.47837526727E+03  0.32030779091E+03  0.61749718122E+03  0.10100000352E+00 0.  1.
       -3    1    3    3    0  502  0.22329975674E+03  0.47837526727E+03  0.86025831654E+03  0.10093314912E+04  0.10100000352E+00 0. -1.
</event>
<event>
 5   0  0.3320192E-03  0.1097564E+04  0.7818609E-02  0.9207570E-01
        1   -1    0    0  501    0  0.00000000000E+00  0.00000000000E+00  0.93788650715E+03  0.93788650717E+03  0.50400001928E-02 0. -1.
       -1   -1    0    0    0  501  0.00000000000E+00  0.00000000000E+00 -0.32110654926E+03  0.32110654930E+03  0.50400001928E-02 0.  1.
    10030    2    1    2    0    0  0.00000000000E+00  0.00000000000E+00  0.61677995790E+03  0.12589930565E+04  0.10975636655E+04 0.  0.
        2    1    3    3  502    0  0.28140643161E+03  0.18941947749E+03  0.80322186533E+03  0.87191437834E+03  0.25500000920E-02 0. -1.
       -2    1    3    3    0  502 -0.28140643161E+03 -0.18941947749E+03 -0.18644190743E+03  0.38707867813E+03  0.25500000920E-02 0.  1.
</event>
<event>
 5   0  0.3316784E-03  0.1172039E+04  0.7818609E-02  0.9137689E-01
       -1   -1    0    0    0  501  0.00000000000E+00  0.00000000000E+00  0.23352638118E+03  0.23352638124E+03  0.50400001928E-02 0. -1.
        1   -1    0    0  501    0  0.00000000000E+00  0.00000000000E+00 -0.14705795884E+04  0.14705795884E+04  0.50400001928E-02 0.  1.
    10030    2    1    2    0    0  0.00000000000E+00  0.00000000000E+00 -0.12370532073E+04  0.17041059697E+04  0.11720394696E+04 0.  0.
        4    1    3    3  502    0 -0.20106534329E+03 -0.54104117047E+03 -0.47121823761E+03  0.74511815223E+03  0.12699999809E+01 0. -1.
       -4    1    3    3    0  502  0.20106534329E+03  0.54104117047E+03 -0.76583496964E+03  0.95898781746E+03  0.12699999809E+01 0.  1.
</event>
<event>
 5   0  0.3328741E-03  0.1092498E+04  0.7818609E-02  0.9212535E-01
       -1   -1    0    0    0  501  0.00000000000E+00  0.00000000000E+00  0.24792585115E+03  0.24792585120E+03  0.50400001928E-02 0. -1.
        1   -1    0    0  501    0  0.00000000000E+00  0.00000000000E+00 -0.12035377273E+04  0.12035377273E+04  0.50400001928E-02 0.  1.
    10030    2    1    2    0    0  0.00000000000E+00  0.00000000000E+00 -0.95561187616E+03  0.14514635785E+04  0.10924982663E+04 0.  0.
        3    1    3    3  502    0  0.39087428296E+03  0.29053762118E+03 -0.14915317274E+03  0.50935399630E+03  0.10100000352E+00 0. -1.
       -3    1    3    3    0  502 -0.39087428296E+03 -0.29053762118E+03 -0.80645870341E+03  0.94210958222E+03  0.10100000352E+00 0.  1.
</event>
<event>
 5   0  0.3316784E-03  0.1103584E+04  0.7818609E-02  0.9201705E-01
       -1   -1    0    0    0  501  0.00000000000E+00  0.00000000000E+00  0.34804609503E+03  0.34804609507E+03  0.50400001928E-02 0. -1.
        1   -1    0    0  501    0  0.00000000000E+00  0.00000000000E+00 -0.87481102280E+03  0.87481102281E+03  0.50400001928E-02 0.  1.
    10030    2    1    2    0    0  0.00000000000E+00  0.00000000000E+00 -0.52676492776E+03  0.12228571179E+04  0.11035842703E+04 0.  0.
        4    1    3    3  502    0 -0.52703247841E+02  0.24323451633E+03  0.28231884256E+03  0.37635914235E+03  0.12699999809E+01 0. -1.
       -4    1    3    3    0  502  0.52703247841E+02 -0.24323451633E+03 -0.80908377033E+03  0.84649797553E+03  0.12699999809E+01 0.  1.
</event>
<event>
 5   0  0.5627232E-03  0.1097344E+04  0.7818609E-02  0.9207784E-01
       -2   -1    0    0    0  501  0.00000000000E+00  0.00000000000E+00  0.18804588428E+03  0.18804588430E+03  0.25500000920E-02 0. -1.
        2   -1    0    0  501    0  0.00000000000E+00  0.00000000000E+00 -0.16008923347E+04  0.16008923347E+04  0.25500000920E-02 0.  1.
    10030    2    1    2    0    0  0.00000000000E+00  0.00000000000E+00 -0.14128464504E+04  0.17889382190E+04  0.10973444577E+04 0.  0.
        2    1    3    3  502    0 -0.17129918663E+01 -0.48102600559E+03 -0.11366723360E+04  0.12342661592E+04  0.25500000920E-02 0.  1.
       -2    1    3    3    0  502  0.17129918663E+01  0.48102600559E+03 -0.27617411441E+03  0.55467205976E+03  0.25500000920E-02 0. -1.
</event>
<event>
 5   0  0.5941585E-03  0.1062943E+04  0.7818609E-02  0.9242082E-01
       -2   -1    0    0    0  501  0.00000000000E+00  0.00000000000E+00  0.25036577102E+03  0.25036577104E+03  0.25500000920E-02 0. -1.
        2   -1    0    0  501    0  0.00000000000E+00  0.00000000000E+00 -0.11281976634E+04  0.11281976634E+04  0.25500000920E-02 0.  1.
    10030    2    1    2    0    0  0.00000000000E+00  0.00000000000E+00 -0.87783189238E+03  0.13785634344E+04  0.10629432306E+04 0.  0.
        5    1    3    3  502    0  0.49777970895E+03 -0.14135020116E+03 -0.28180273978E+03  0.58923627872E+03  0.46999998093E+01 0. -1.
       -5    1    3    3    0  502 -0.49777970895E+03  0.14135020116E+03 -0.59602915260E+03  0.78932715572E+03  0.46999998093E+01 0.  1.
</event>
<event>
 5   0  0.5500363E-03  0.1105105E+04  0.7818609E-02  0.9200230E-01
        2   -1    0    0  501    0  0.00000000000E+00  0.00000000000E+00  0.78001390010E+03  0.78001390010E+03  0.25500000920E-02 0.  1.
       -2   -1    0    0    0  501  0.00000000000E+00  0.00000000000E+00 -0.39142183812E+03  0.39142183813E+03  0.25500000920E-02 0. -1.
    10030    2    1    2    0    0  0.00000000000E+00  0.00000000000E+00  0.38859206197E+03  0.11714357382E+04  0.11051053788E+04 0.  0.
        3    1    3    3  502    0 -0.39803889804E+03 -0.18967798506E+03 -0.15871152366E+03  0.46861717885E+03  0.10100000352E+00 0. -1.
       -3    1    3    3    0  502  0.39803889804E+03  0.18967798506E+03  0.54730358563E+03  0.70281855938E+03  0.10100000352E+00 0.  1.
</event>
<event>
 5   0  0.5941585E-03  0.1017747E+04  0.7818609E-02  0.9289292E-01
        2   -1    0    0  501    0  0.00000000000E+00  0.00000000000E+00  0.10593138306E+04  0.10593138306E+04  0.25500000920E-02 0.  1.
       -2   -1    0    0    0  501  0.00000000000E+00  0.00000000000E+00 -0.24445260903E+03  0.24445260905E+03  0.25500000920E-02 0. -1.
    10030    2    1    2    0    0  0.00000000000E+00  0.00000000000E+00  0.81486122154E+03  0.13037664396E+04  0.10177465887E+04 0.  0.
        5    1    3    3  502    0 -0.50187884355E+03  0.19409988987E+02  0.51205903908E+03  0.71727656505E+03  0.46999998093E+01 0.  1.
       -5    1    3    3    0  502  0.50187884355E+03 -0.19409988987E+02  0.30280218246E+03  0.58648987457E+03  0.46999998093E+01 0. -1.
</event>
<event>
 5   0  0.3316784E-03  0.1036228E+04  0.7818609E-02  0.9269679E-01
       -1   -1    0    0    0  501  0.00000000000E+00  0.00000000000E+00  0.18601332426E+03  0.18601332432E+03  0.50400001928E-02 0. -1.
        1   -1    0    0  501    0  0.00000000000E+00  0.00000000000E+00 -0.14431346386E+04  0.14431346386E+04  0.50400001928E-02 0.  1.
    10030    2    1    2    0    0  0.00000000000E+00  0.00000000000E+00 -0.12571213143E+04  0.16291479629E+04  0.10362282983E+04 0.  0.
        4    1    3    3  502    0 -0.25981842829E+03  0.99578892973E+02 -0.13156978621E+04  0.13447988879E+04  0.12699999809E+01 0.  1.
       -4    1    3    3    0  502  0.25981842829E+03 -0.99578892973E+02  0.58576547808E+02  0.28434907500E+03  0.12699999809E+01 0. -1.
</event>
<event>
 5   0  0.3241189E-03  0.1101324E+04  0.7818609E-02  0.9203902E-01
        1   -1    0    0  501    0  0.00000000000E+00  0.00000000000E+00  0.16451039512E+04  0.16451039512E+04  0.50400001928E-02 0. -1.
       -1   -1    0    0    0  501  0.00000000000E+00  0.00000000000E+00 -0.18432185661E+03  0.18432185668E+03  0.50400001928E-02 0.  1.
    10030    2    1    2    0    0  0.00000000000E+00  0.00000000000E+00  0.14607820946E+04  0.18294258079E+04  0.11013239572E+04 0.  0.
        5    1    3    3  502    0  0.46041846223E+03  0.29291361363E+03  0.60806507204E+03  0.81703657645E+03  0.46999998093E+01 0.  1.
       -5    1    3    3    0  502 -0.46041846223E+03 -0.29291361363E+03  0.85271702256E+03  0.10123892315E+04  0.46999998093E+01 0. -1.
</event>
<event>
 5   0  0.3328741E-03  0.1117298E+04  0.7818609E-02  0.9188495E-01
        1   -1    0    0  501    0  0.00000000000E+00  0.00000000000E+00  0.10120222122E+04  0.10120222122E+04  0.50400001928E-02 0.  1.
       -1   -1    0    0    0  501  0.00000000000E+00  0.00000000000E+00 -0.30838100641E+03  0.30838100645E+03  0.50400001928E-02 0. -1.
    10030    2    1    2    0    0  0.00000000000E+00  0.00000000000E+00  0.70364120583E+03  0.13204032187E+04  0.11172975044E+04 0.  0.
        3    1    3    3  502    0 -0.12902091908E+03  0.52188944369E+03  0.17230846570E+03  0.56453981839E+03  0.10100000352E+00 0.  1.
       -3    1    3    3    0  502  0.12902091908E+03 -0.52188944369E+03  0.53133274013E+03  0.75586340031E+03  0.10100000352E+00 0. -1.
</event>
<event>
 5   0  0.3241189E-03  0.1107419E+04  0.7818609E-02  0.9197991E-01
        1   -1    0    0  501    0  0.00000000000E+00  0.00000000000E+00  0.28585690040E+03  0.28585690045E+03  0.50400001928E-02 0.  1.
       -1   -1    0    0    0  501  0.00000000000E+00  0.00000000000E+00 -0.10725449836E+04  0.10725449836E+04  0.50400001928E-02 0. -1.
    10030    2    1    2    0    0  0.00000000000E+00  0.00000000000E+00 -0.78668808319E+03  0.13584018841E+04  0.11074193146E+04 0.  0.
        5    1    3    3  502    0 -0.58112728786E+02  0.93810662524E+02 -0.10588948617E+04  0.10646398206E+04  0.46999998093E+01 0. -1.
       -5    1    3    3    0  502  0.58112728786E+02 -0.93810662524E+02  0.27220677848E+03  0.29376206341E+03  0.46999998093E+01 0.  1.
</event>
<event>
 5   0  0.5627232E-03  0.1140552E+04  0.7818609E-02  0.9166544E-01
        2   -1    0    0  501    0  0.00000000000E+00  0.00000000000E+00  0.12253084563E+04  0.12253084563E+04  0.25500000920E-02 0. -1.
       -2   -1    0    0    0  501  0.00000000000E+00  0.00000000000E+00 -0.26541464977E+03  0.26541464979E+03  0.25500000920E-02 0.  1.
    10030    2    1    2    0    0  0.00000000000E+00  0.00000000000E+00  0.95989380653E+03  0.14907231061E+04  0.11405521729E+04 0.  0.
        2    1    3    3  502    0  0.49488716896E+03 -0.26571953731E+03  0.60863770230E+03  0.82822704325E+03  0.25500000920E-02 0.  1.
       -2    1    3    3    0  502 -0.49488716896E+03  0.26571953731E+03  0.35125610423E+03  0.66249606284E+03  0.25500000920E-02 0. -1.
</event>
<event>
 5   0  0.5500363E-03  0.1070753E+04  0.7818609E-02  0.9234176E-01
        2   -1    0    0  501    0  0.00000000000E+00  0.00000000000E+00  0.11468635211E+04  0.11468635211E+04  0.25500000920E-02 0. -1.
       -2   -1    0    0    0  501  0.00000000000E+00  0.00000000000E+00 -0.24992337657E+03  0.24992337659E+03  0.25500000920E-02 0.  1.
    10030    2    1    2    0    0  0.00000000000E+00  0.00000000000E+00  0.89694014455E+03  0.13967868977E+04  0.10707530129E+04 0.  0.
        3    1    3    3  502    0 -0.12069586289E+03  0.25061103573E+03 -0.14826060591E+03  0.31520564718E+03  0.10100000352E+00 0.  1.
       -3    1    3    3    0  502  0.12069586289E+03 -0.25061103573E+03  0.10452007505E+04  0.10815812505E+04  0.10100000352E+00 0. -1.
</event>
<event>
 5   0  0.5500363E-03  0.1105385E+04  0.7818609E-02  0.9199959E-01
       -2   -1    0    0    0  501  0.00000000000E+00  0.00000000000E+00  0.15669347694E+03  0.15669347696E+03  0.25500000920E-02 0.  1.
        2   -1    0    0  501    0  0.00000000000E+00  0.00000000000E+00 -0.19494692253E+04  0.19494692253E+04  0.25500000920E-02 0. -1.
    10030    2    1    2    0    0  0.00000000000E+00  0.00000000000E+00 -0.17927757484E+04  0.21061627022E+04  0.11053852018E+04 0.  0.
        3    1    3    3  502    0 -0.43132650064E+03  0.33086417337E+03 -0.10864995146E+04  0.12149052871E+04  0.10100000352E+00 0.  1.
       -3    1    3    3    0  502  0.43132650064E+03 -0.33086417337E+03 -0.70627623378E+03  0.89125741510E+03  0.10100000352E+00 0. -1.
</event>
<event>
 5   0  0.3320192E-03  0.1108895E+04  0.7818609E-02  0.9196565E-01
       -1   -1    0    0    0  501  0.00000000000E+00  0.00000000000E+00  0.66482211417E+03  0.66482211419E+03  0.50400001928E-02 0. -1.
        1   -1    0    0  501    0  0.00000000000E+00  0.00000000000E+00 -0.46239744173E+03  0.46239744176E+03  0.50400001928E-02 0.  1.
    10030    2    1    2    0    0  0.00000000000E+00  0.00000000000E+00  0.20242467245E+03  0.11272195559E+04  0.11088950263E+04 0.  0.
        2    1    3    3  502    0 -0.43282094903E+03  0.31261345321E+03  0.25318503808E+03  0.59090084495E+03  0.25500000920E-02 0.  1.
       -2    1    3    3    0  502  0.43282094903E+03 -0.31261345321E+03 -0.50760365630E+02  0.53631871100E+03  0.25500000920E-02 0. -1.
</event>
<event>
 5   0  0.5946359E-03  0.1095054E+04  0.7818609E-02  0.9210026E-01
       -2   -1    0    0    0  501  0.00000000000E+00  0.00000000000E+00  0.56885171849E+03  0.56885171849E+03  0.25500000920E-02 0.  1.
        2   -1    0    0  501    0  0.00000000000E+00  0.00000000000E+00 -0.52700184543E+03  0.52700184544E+03  0.25500000920E-02 0. -1.
    10030    2    1    2    0    0  0.00000000000E+00  0.00000000000E+00  0.41849873056E+02  0.10958535639E+04  0.10950541638E+04 0.  0.
        4    1    3    3  502    0 -0.47615037128E+03  0.24478854894E+03 -0.93804657732E+02  0.54354533985E+03  0.12699999809E+01 0.  1.
       -4    1    3    3    0  502  0.47615037128E+03 -0.24478854894E+03  0.13565453079E+03  0.55230822408E+03  0.12699999809E+01 0. -1.
</event>
<event>
 5   0  0.5500363E-03  0.1110089E+04  0.7818609E-02  0.9195414E-01
       -2   -1    0    0    0  501  0.00000000000E+00  0.00000000000E+00  0.46278875895E+03  0.46278875896E+03  0.25500000920E-02 0.  1.
        2   -1    0    0  501    0  0.00000000000E+00  0.00000000000E+00 -0.66569076953E+03  0.66569076954E+03  0.25500000920E-02 0. -1.
    10030    2    1    2    0    0  0.00000000000E+00  0.00000000000E+00 -0.20290201058E+03  0.11284795285E+04  0.11100886543E+04 0.  0.
        3    1    3    3  502    0  0.22418660271E+03 -0.44000516678E+03  0.15614398205E+03  0.51792386792E+03  0.10100000352E+00 0.  1.
       -3    1    3    3    0  502 -0.22418660271E+03  0.44000516678E+03 -0.35904599264E+03  0.61055566058E+03  0.10100000352E+00 0. -1.
</event>
<event>
 5   0  0.5500363E-03  0.1107769E+04  0.7818609E-02  0.9197652E-01
       -2   -1    0    0    0  501  0.00000000000E+00  0.00000000000E+00  0.46930267432E+03  0.46930267433E+03  0.25500000920E-02 0. -1.
        2   -1    0    0  501    0  0.00000000000E+00  0.00000000000E+00 -0.65371061799E+03  0.65371061799E+03  0.25500000920E-02 0.  1.
    10030    2    1    2    0    0  0.00000000000E+00  0.00000000000E+00 -0.18440794367E+03  0.11230132923E+04  0.11077691840E+04 0.  0.
        3    1    3    3  502    0 -0.33067178552E+03 -0.27818870361E+03 -0.44346208956E+03  0.61918609451E+03  0.10100000352E+00 0.  1.
       -3    1    3    3    0  502  0.33067178552E+03  0.27818870361E+03  0.25905414589E+03  0.50382719781E+03  0.10100000352E+00 0. -1.
</event>
<event>
 5   0  0.5500363E-03  0.8028815E+03  0.7818609E-02  0.9555856E-01
       -2   -1    0    0    0  501  0.00000000000E+00  0.00000000000E+00  0.14125822891E+03  0.14125822893E+03  0.25500000920E-02 0.  1.
        2   -1    0    0  501    0  0.00000000000E+00  0.00000000000E+00 -0.11408517189E+04  0.11408517189E+04  0.25500000920E-02 0. -1.
    10030    2    1    2    0    0  0.00000000000E+00  0.00000000000E+00 -0.99959349000E+03  0.12821099478E+04  0.80288154362E+03 0.  0.
        3    1    3    3  502    0 -0.71564357262E+02 -0.39388343554E+03 -0.45218209851E+03  0.60393234591E+03  0.10100000352E+00 0. -1.
       -3    1    3    3    0  502  0.71564357262E+02  0.39388343554E+03 -0.54741139148E+03  0.67817760192E+03  0.10100000352E+00 0.  1.
</event>
<event>
 5   0  0.5941585E-03  0.1109433E+04  0.7818609E-02  0.9196047E-01
        2   -1    0    0  501    0  0.00000000000E+00  0.00000000000E+00  0.10555407299E+04  0.10555407299E+04  0.25500000920E-02 0. -1.
       -2   -1    0    0    0  501  0.00000000000E+00  0.00000000000E+00 -0.29151896609E+03  0.29151896610E+03  0.25500000920E-02 0.  1.
    10030    2    1    2    0    0  0.00000000000E+00  0.00000000000E+00  0.76402176386E+03  0.13470596960E+04  0.11094325437E+04 0.  0.
        5    1    3    3  502    0  0.43281087437E+03  0.21945712933E+03  0.70826699156E+03  0.85857492737E+03  0.46999998093E+01 0. -1.
       -5    1    3    3    0  502 -0.43281087437E+03 -0.21945712933E+03  0.55754772301E+02  0.48848476867E+03  0.46999998093E+01 0.  1.
</event>
<event>
 5   0  0.3328741E-03  0.1088100E+04  0.7818609E-02  0.9216869E-01
        1   -1    0    0  501    0  0.00000000000E+00  0.00000000000E+00  0.38123681981E+03  0.38123681984E+03  0.50400001928E-02 0. -1.
       -1   -1    0    0    0  501  0.00000000000E+00  0.00000000000E+00 -0.77639488882E+03  0.77639488883E+03  0.50400001928E-02 0.  1.
    10030    2    1    2    0    0  0.00000000000E+00  0.00000000000E+00 -0.39515806901E+03  0.11576317087E+04  0.10880998453E+04 0.  0.
        3    1    3    3  502    0 -0.15164304454E+02  0.36910540641E+03  0.22734504982E+03  0.43376784004E+03  0.10100000352E+00 0. -1.
       -3    1    3    3    0  502  0.15164304454E+02 -0.36910540641E+03 -0.62250311883E+03  0.72386386864E+03  0.10100000352E+00 0.  1.
</event>
<event>
 5   0  0.2185750E-03  0.1101884E+04  0.7818609E-02  0.9203358E-01
        3   -1    0    0  501    0  0.00000000000E+00  0.00000000000E+00  0.26957942293E+03  0.26957944185E+03  0.10100000352E+00 0. -1.
       -3   -1    0    0    0  501  0.00000000000E+00  0.00000000000E+00 -0.11259647894E+04  0.11259647939E+04  0.10100000352E+00 0.  1.
    10030    2    1    2    0    0  0.00000000000E+00  0.00000000000E+00 -0.85638536648E+03  0.13955442358E+04  0.11018837589E+04 0.  0.
        5    1    3    3  502    0  0.15110090594E+03 -0.36591502196E+03 -0.91343138885E+03  0.99554220363E+03  0.46999998093E+01 0.  1.
       -5    1    3    3    0  502 -0.15110090594E+03  0.36591502196E+03  0.57046022368E+02  0.40000203217E+03  0.46999998093E+01 0. -1.
</event>
<event>
 5   0  0.3320192E-03  0.1087220E+04  0.7818609E-02  0.9217738E-01
        1   -1    0    0  501    0  0.00000000000E+00  0.00000000000E+00  0.23774598235E+04  0.23774598235E+04  0.50400001928E-02 0.  1.
       -1   -1    0    0    0  501  0.00000000000E+00  0.00000000000E+00 -0.12429735496E+03  0.12429735506E+03  0.50400001928E-02 0. -1.
    10030    2    1    2    0    0  0.00000000000E+00  0.00000000000E+00  0.22531624686E+04  0.25017571786E+04  0.10872202495E+04 0.  0.
        2    1    3    3  502    0  0.27315763231E+03  0.22794257961E+03  0.18079572950E+03  0.39907393738E+03  0.25500000920E-02 0. -1.
       -2    1    3    3    0  502 -0.27315763231E+03 -0.22794257961E+03  0.20723667391E+04  0.21026832412E+04  0.25500000920E-02 0.  1.
</event>
<event>
 5   0  0.3316784E-03  0.1114204E+04  0.7818609E-02  0.9191458E-01
        1   -1    0    0  501    0  0.00000000000E+00  0.00000000000E+00  0.90147906741E+03  0.90147906743E+03  0.50400001928E-02 0.  1.
       -1   -1    0    0    0  501  0.00000000000E+00  0.00000000000E+00 -0.34428138848E+03  0.34428138852E+03  0.50400001928E-02 0. -1.
    10030    2    1    2    0    0  0.00000000000E+00  0.00000000000E+00  0.55719767893E+03  0.12457604559E+04  0.11142036888E+04 0.  0.
        4    1    3    3  502    0  0.22260741388E+03  0.30600857483E+03  0.73573263703E+03  0.82734481003E+03  0.12699999809E+01 0.  1.
       -4    1    3    3    0  502 -0.22260741388E+03 -0.30600857483E+03 -0.17853495810E+03  0.41841564592E+03  0.12699999809E+01 0. -1.
</event>
<event>
 5   0  0.5500363E-03  0.1127010E+04  0.7818609E-02  0.9179258E-01
       -2   -1    0    0    0  501  0.00000000000E+00  0.00000000000E+00  0.59499476441E+03  0.59499476441E+03  0.25500000920E-02 0. -1.
        2   -1    0    0  501    0  0.00000000000E+00  0.00000000000E+00 -0.53368211781E+03  0.53368211782E+03  0.25500000920E-02 0.  1.
    10030    2    1    2    0    0  0.00000000000E+00  0.00000000000E+00  0.61312646597E+02  0.11286768822E+04  0.11270103211E+04 0.  0.
        3    1    3    3  502    0  0.32774237950E+03  0.18362252588E+03  0.45128425927E+03  0.58718803819E+03  0.10100000352E+00 0. -1.
       -3    1    3    3    0  502 -0.32774237950E+03 -0.18362252588E+03 -0.38997161267E+03  0.54148884404E+03  0.10100000352E+00 0.  1.
</event>
<event>
 5   0  0.5500363E-03  0.1107342E+04  0.7818609E-02  0.9198066E-01
        2   -1    0    0  501    0  0.00000000000E+00  0.00000000000E+00  0.68097340203E+03  0.68097340203E+03  0.25500000920E-02 0.  1.
       -2   -1    0    0    0  501  0.00000000000E+00  0.00000000000E+00 -0.45016644792E+03  0.45016644792E+03  0.25500000920E-02 0. -1.
    10030    2    1    2    0    0  0.00000000000E+00  0.00000000000E+00  0.23080695411E+03  0.11311398500E+04  0.11073416411E+04 0.  0.
        3    1    3    3  502    0  0.51457348160E+03 -0.16494684115E+03  0.23865324482E+03  0.59071880776E+03  0.10100000352E+00 0.  1.
       -3    1    3    3    0  502 -0.51457348160E+03  0.16494684115E+03 -0.78462907107E+01  0.54042104220E+03  0.10100000352E+00 0. -1.
</event>
<event>
 5   0  0.5723194E-03  0.1089743E+04  0.7818609E-02  0.9215247E-01
        2   -1    0    0  501    0  0.00000000000E+00  0.00000000000E+00  0.25047269978E+04  0.25047269978E+04  0.25500000920E-02 0. -1.
       -2   -1    0    0    0  501  0.00000000000E+00  0.00000000000E+00 -0.11852989848E+03  0.11852989851E+03  0.25500000920E-02 0.  1.
    10030    2    1    2    0    0  0.00000000000E+00  0.00000000000E+00  0.23861970994E+04  0.26232568964E+04  0.10897431566E+04 0.  0.
        1    1    3    3  502    0  0.10357271515E+03  0.48345265357E+03  0.64189522907E+03  0.81023654614E+03  0.50400001928E-02 0.  1.
       -1    1    3    3    0  502 -0.10357271515E+03 -0.48345265357E+03  0.17443018703E+04  0.18130203502E+04  0.50400001928E-02 0. -1.
</event>
<event>
 5   0  0.3215352E-03  0.1146410E+04  0.7818609E-02  0.9161102E-01
       -1   -1    0    0    0  501  0.00000000000E+00  0.00000000000E+00  0.36185093466E+03  0.36185093470E+03  0.50400001928E-02 0.  1.
        1   -1    0    0  501    0  0.00000000000E+00  0.00000000000E+00 -0.90800906389E+03  0.90800906391E+03  0.50400001928E-02 0. -1.
    10030    2    1    2    0    0  0.00000000000E+00  0.00000000000E+00 -0.54615812923E+03  0.12698599986E+04  0.11464099240E+04 0.  0.
        1    1    3    3  502    0 -0.19887501094E+03  0.51421524837E+03 -0.99362075655E+02  0.56021550651E+03  0.50400001928E-02 0.  1.
       -1    1    3    3    0  502  0.19887501094E+03 -0.51421524837E+03 -0.44679605358E+03  0.70964449209E+03  0.50400001928E-02 0. -1.
</event>
<event>
 5   0  0.5627232E-03  0.1126258E+04  0.7818609E-02  0.9179970E-01
        2   -1    0    0  501    0  0.00000000000E+00  0.00000000000E+00  0.38486415371E+03  0.38486415372E+03  0.25500000920E-02 0. -1.
       -2   -1    0    0    0  501  0.00000000000E+00  0.00000000000E+00 -0.82396403610E+03  0.82396403611E+03  0.25500000920E-02 0.  1.
    10030    2    1    2    0    0  0.00000000000E+00  0.00000000000E+00 -0.43909988239E+03  0.12088281898E+04  0.11262579126E+04 0.  0.
        2    1    3    3  502    0  0.38715512612E+03 -0.19394951374E+03 -0.60595591140E+03  0.74477383958E+03  0.25500000920E-02 0.  1.
       -2    1    3    3    0  502 -0.38715512612E+03  0.19394951374E+03  0.16685602900E+03  0.46405435025E+03  0.25500000920E-02 0. -1.
</event>
<event>
 5   0  0.5500363E-03  0.1091577E+04  0.7818609E-02  0.9213441E-01
       -2   -1    0    0    0  501  0.00000000000E+00  0.00000000000E+00  0.22037004087E+03  0.22037004088E+03  0.25500000920E-02 0. -1.
        2   -1    0    0  501    0  0.00000000000E+00  0.00000000000E+00 -0.13517490839E+04  0.13517490839E+04  0.25500000920E-02 0.  1.
    10030    2    1    2    0    0  0.00000000000E+00  0.00000000000E+00 -0.11313790431E+04  0.15721191248E+04  0.10915768427E+04 0.  0.
        3    1    3    3  502    0  0.34519972984E+03 -0.27024481898E+03 -0.97471819305E+02  0.44910564617E+03  0.10100000352E+00 0. -1.
       -3    1    3    3    0  502 -0.34519972984E+03  0.27024481898E+03 -0.10339072238E+04  0.11230134786E+04  0.10100000352E+00 0.  1.
</event>
<event>
 5   0  0.3215352E-03  0.1143051E+04  0.7818609E-02  0.9164218E-01
        1   -1    0    0  501    0  0.00000000000E+00  0.00000000000E+00  0.55870151733E+03  0.55870151735E+03  0.50400001928E-02 0.  1.
       -1   -1    0    0    0  501  0.00000000000E+00  0.00000000000E+00 -0.58464414009E+03  0.58464414011E+03  0.50400001928E-02 0. -1.
    10030    2    1    2    0    0  0.00000000000E+00  0.00000000000E+00 -0.25942622764E+02  0.11433456575E+04  0.11430512993E+04 0.  0.
        1    1    3    3  502    0  0.39916643161E+03  0.30674315544E+03  0.25768359584E+03  0.56553164290E+03  0.50400001928E-02 0.  1.
       -1    1    3    3    0  502 -0.39916643161E+03 -0.30674315544E+03 -0.28362621860E+03  0.57781401457E+03  0.50400001928E-02 0. -1.
</event>
<event>
 5   0  0.5946359E-03  0.1103372E+04  0.7818609E-02  0.9201911E-01
        2   -1    0    0  501    0  0.00000000000E+00  0.00000000000E+00  0.13527326504E+04  0.13527326504E+04  0.25500000920E-02 0. -1.
       -2   -1    0    0    0  501  0.00000000000E+00  0.00000000000E+00 -0.22499470657E+03  0.22499470659E+03  0.25500000920E-02 0.  1.
    10030    2    1    2    0    0  0.00000000000E+00  0.00000000000E+00  0.11277379438E+04  0.15777273570E+04  0.11033724408E+04 0.  0.
        4    1    3    3  502    0 -0.46895139234E+02 -0.13521675058E+03  0.13257236429E+04  0.13334269811E+04  0.12699999809E+01 0. -1.
       -4    1    3    3    0  502  0.46895139234E+02  0.13521675058E+03 -0.19798569906E+03  0.24430037588E+03  0.12699999809E+01 0.  1.
</event>
<event>
 5   0  0.3241189E-03  0.1079961E+04  0.7818609E-02  0.9224947E-01
       -1   -1    0    0    0  501  0.00000000000E+00  0.00000000000E+00  0.35300310851E+03  0.35300310854E+03  0.50400001928E-02 0. -1.
        1   -1    0    0  501    0  0.00000000000E+00  0.00000000000E+00 -0.82599468922E+03  0.82599468924E+03  0.50400001928E-02 0.  1.
    10030    2    1    2    0    0  0.00000000000E+00  0.00000000000E+00 -0.47299158072E+03  0.11789977978E+04  0.10799605418E+04 0.  0.
        5    1    3    3  502    0  0.31054450941E+03 -0.44015537821E+03 -0.27707950948E+03  0.60578031816E+03  0.46999998093E+01 0.  1.
       -5    1    3    3    0  502 -0.31054450941E+03  0.44015537821E+03 -0.19591207123E+03  0.57321747963E+03  0.46999998093E+01 0. -1.
</event>
<event>
 5   0  0.5941585E-03  0.1133504E+04  0.7818609E-02  0.9173138E-01
        2   -1    0    0  501    0  0.00000000000E+00  0.00000000000E+00  0.11828500264E+04  0.11828500264E+04  0.25500000920E-02 0.  1.
       -2   -1    0    0    0  501  0.00000000000E+00  0.00000000000E+00 -0.27155411660E+03  0.27155411661E+03  0.25500000920E-02 0. -1.
    10030    2    1    2    0    0  0.00000000000E+00  0.00000000000E+00  0.91129590978E+03  0.14544041430E+04  0.11335039373E+04 0.  0.
        5    1    3    3  502    0  0.21822738439E+03  0.23300980953E+03 -0.14518069017E+03  0.35073677513E+03  0.46999998093E+01 0. -1.
       -5    1    3    3    0  502 -0.21822738439E+03 -0.23300980953E+03  0.10564766000E+04  0.11036673679E+04  0.46999998093E+01 0.  1.
</event>
<event>
 5   0  0.5946359E-03  0.1110495E+04  0.7818609E-02  0.9195023E-01
       -2   -1    0    0    0  501  0.00000000000E+00  0.00000000000E+00  0.17952822864E+03  0.17952822866E+03  0.25500000920E-02 0. -1.
        2   -1    0    0  501    0  0.00000000000E+00  0.00000000000E+00 -0.17172761050E+04  0.17172761050E+04  0.25500000920E-02 0.  1.
    10030    2    1    2    0    0  0.00000000000E+00  0.00000000000E+00 -0.15377478764E+04  0.18968043337E+04  0.11104945515E+04 0.  0.
        4    1    3    3  502    0 -0.20455172273E+03 -0.49574080953E+03 -0.10146082199E+04  0.11476200636E+04  0.12699999809E+01 0.  1.
       -4    1    3    3    0  502  0.20455172273E+03  0.49574080953E+03 -0.52313965646E+03  0.74918427010E+03  0.12699999809E+01 0. -1.
</event>
<event>
 5   0  0.5500363E-03  0.1099007E+04  0.7818609E-02  0.9206161E-01
       -2   -1    0    0    0  501  0.00000000000E+00  0.00000000000E+00  0.15726201249E+03  0.15726201251E+03  0.25500000920E-02 0. -1.
        2   -1    0    0  501    0  0.00000000000E+00  0.00000000000E+00 -0.19200689356E+04  0.19200689356E+04  0.25500000920E-02 0.  1.
    10030    2    1    2    0    0  0.00000000000E+00  0.00000000000E+00 -0.17628069231E+04  0.20773309481E+04  0.10990066514E+04 0.  0.
        3    1    3    3  502    0  0.69397076908E+02  0.99934558372E+02  0.13148250830E+03  0.17913829973E+03  0.10100000352E+00 0. -1.
       -3    1    3    3    0  502 -0.69397076908E+02 -0.99934558372E+02 -0.18942894314E+04  0.18981926484E+04  0.10100000352E+00 0.  1.
</event>
<event>
 5   0  0.5500363E-03  0.1101406E+04  0.7818609E-02  0.9203823E-01
       -2   -1    0    0    0  501  0.00000000000E+00  0.00000000000E+00  0.33193162133E+03  0.33193162134E+03  0.25500000920E-02 0. -1.
        2   -1    0    0  501    0  0.00000000000E+00  0.00000000000E+00 -0.91366337796E+03  0.91366337796E+03  0.25500000920E-02 0.  1.
    10030    2    1    2    0    0  0.00000000000E+00  0.00000000000E+00 -0.58173175663E+03  0.12455949993E+04  0.11014059495E+04 0.  0.
        3    1    3    3  502    0  0.32465174755E+03  0.44227840175E+03 -0.23704562429E+03  0.59766176056E+03  0.10100000352E+00 0.  1.
       -3    1    3    3    0  502 -0.32465174755E+03 -0.44227840175E+03 -0.34468613234E+03  0.64793323874E+03  0.10100000352E+00 0. -1.
</event>
<event>
 5   0  0.5946359E-03  0.1096393E+04  0.7818609E-02  0.9208715E-01
       -2   -1    0    0    0  501  0.00000000000E+00  0.00000000000E+00  0.56488750644E+03  0.56488750644E+03  0.25500000920E-02 0. -1.
        2   -1    0    0  501    0  0.00000000000E+00  0.00000000000E+00 -0.53199862251E+03  0.53199862252E+03  0.25500000920E-02 0.  1.
    10030    2    1    2    0    0  0.00000000000E+00  0.00000000000E+00  0.32888883924E+02  0.10968861290E+04  0.10963929502E+04 0.  0.
        4    1    3    3  502    0 -0.40352271213E+03 -0.28527557721E+03 -0.22094910012E+03  0.54132508893E+03  0.12699999809E+01 0.  1.
       -4    1    3    3    0  502  0.40352271213E+03  0.28527557721E+03  0.25383798404E+03  0.55556104003E+03  0.12699999809E+01 0. -1.
</event>
<event>
 5   0  0.5500363E-03  0.1099550E+04  0.7818609E-02  0.9205630E-01
       -2   -1    0    0    0  501  0.00000000000E+00  0.00000000000E+00  0.27268211480E+03  0.27268211481E+03  0.25500000920E-02 0. -1.
        2   -1    0    0  501    0  0.00000000000E+00  0.00000000000E+00 -0.11084435678E+04  0.11084435678E+04  0.25500000920E-02 0.  1.
    10030    2    1    2    0    0  0.00000000000E+00  0.00000000000E+00 -0.83576145304E+03  0.13811256826E+04  0.10995503376E+04 0.  0.
        3    1    3    3  502    0 -0.13142394915E+02 -0.51156251038E+03 -0.16546193451E+03  0.53781649895E+03  0.10100000352E+00 0. -1.
       -3    1    3    3    0  502  0.13142394915E+02  0.51156251038E+03 -0.67029951853E+03  0.84330918370E+03  0.10100000352E+00 0.  1.
</event>
<event>
 5   0  0.2185750E-03  0.1079016E+04  0.7818609E-02  0.9225889E-01
       -3   -1    0    0    0  501  0.00000000000E+00  0.00000000000E+00  0.79993213652E+03  0.79993214289E+03  0.10100000352E+00 0. -1.
        3   -1    0    0  501    0  0.00000000000E+00  0.00000000000E+00 -0.36386712513E+03  0.36386713915E+03  0.10100000352E+00 0.  1.
    10030    2    1    2    0    0  0.00000000000E+00  0.00000000000E+00  0.43606501138E+03  0.11637992820E+04  0.10790162532E+04 0.  0.
        5    1    3    3  502    0  0.16316731523E+03  0.45145344398E+03  0.48357467789E+03  0.68139587901E+03  0.46999998093E+01 0. -1.
       -5    1    3    3    0  502 -0.16316731523E+03 -0.45145344398E+03 -0.47509666506E+02  0.48240340303E+03  0.46999998093E+01 0.  1.
</event>
<event>
 5   0  0.3241189E-03  0.1109418E+04  0.7818609E-02  0.9196061E-01
        1   -1    0    0  501    0  0.00000000000E+00  0.00000000000E+00  0.62277444412E+03  0.62277444414E+03  0.50400001928E-02 0.  1.
       -1   -1    0    0    0  501  0.00000000000E+00  0.00000000000E+00 -0.49408266022E+03  0.49408266024E+03  0.50400001928E-02 0. -1.
    10030    2    1    2    0    0  0.00000000000E+00  0.00000000000E+00  0.12869178390E+03  0.11168571044E+04  0.11094179629E+04 0.  0.
        5    1    3    3  502    0 -0.20570684733E+03  0.51492928121E+03  0.49671026674E+02  0.55673761556E+03  0.46999998093E+01 0.  1.
       -5    1    3    3    0  502  0.20570684733E+03 -0.51492928121E+03  0.79020757226E+02  0.56011948882E+03  0.46999998093E+01 0. -1.
</event>
<event>
 5   0  0.5723194E-03  0.1115981E+04  0.7818609E-02  0.9189754E-01
       -2   -1    0    0    0  501  0.00000000000E+00  0.00000000000E+00  0.21759393635E+03  0.21759393637E+03  0.25500000920E-02 0.  1.
        2   -1    0    0  501    0  0.00000000000E+00  0.00000000000E+00 -0.14308917542E+04  0.14308917542E+04  0.25500000920E-02 0. -1.
    10030    2    1    2    0    0  0.00000000000E+00  0.00000000000E+00 -0.12132978178E+04  0.16484856905E+04  0.11159809484E+04 0.  0.
        1    1    3    3  502    0  0.24888140161E+03 -0.41353726480E+03 -0.19304764585E+03  0.51982921718E+03  0.50400001928E-02 0. -1.
       -1    1    3    3    0  502 -0.24888140161E+03  0.41353726480E+03 -0.10202501720E+04  0.11286564734E+04  0.50400001928E-02 0.  1.
</event>
<event>
 5   0  0.3328741E-03  0.1119510E+04  0.7818609E-02  0.9186382E-01
        1   -1    0    0  501    0  0.00000000000E+00  0.00000000000E+00  0.44159575839E+03  0.44159575842E+03  0.50400001928E-02 0.  1.
       -1   -1    0    0    0  501  0.00000000000E+00  0.00000000000E+00 -0.70953059968E+03  0.70953059969E+03  0.50400001928E-02 0. -1.
    10030    2    1    2    0    0  0.00000000000E+00  0.00000000000E+00 -0.26793484128E+03  0.11511263581E+04  0.11195100773E+04 0.  0.
        3    1    3    3  502    0 -0.50813912323E+03 -0.38489605324E+00 -0.37537466046E+03  0.63175284931E+03  0.10100000352E+00 0. -1.
       -3    1    3    3    0  502  0.50813912323E+03  0.38489605324E+00  0.10743981918E+03  0.51937350880E+03  0.10100000352E+00 0.  1.
</event>
<event>
 5   0  0.5946359E-03  0.1103790E+04  0.7818609E-02  0.9201505E-01
       -2   -1    0    0    0  501  0.00000000000E+00  0.00000000000E+00  0.32150668111E+03  0.32150668112E+03  0.25500000920E-02 0. -1.
        2   -1    0    0  501    0  0.00000000000E+00  0.00000000000E+00 -0.94737785719E+03  0.94737785719E+03  0.25500000920E-02 0.  1.
    10030    2    1    2    0    0  0.00000000000E+00  0.00000000000E+00 -0.62587117607E+03  0.12688845383E+04  0.11037903979E+04 0.  0.
        4    1    3    3  502    0  0.19382805935E+03  0.67816361037E+01 -0.90691016306E+03  0.92741736232E+03  0.12699999809E+01 0.  1.
       -4    1    3    3    0  502 -0.19382805935E+03 -0.67816361037E+01  0.28103898698E+03  0.34146717599E+03  0.12699999809E+01 0. -1.
</event>
<event>
 5   0  0.5723194E-03  0.1090311E+04  0.7818609E-02  0.9214687E-01
        2   -1    0    0  501    0  0.00000000000E+00  0.00000000000E+00  0.58799344067E+03  0.58799344068E+03  0.25500000920E-02 0. -1.
       -2   -1    0    0    0  501  0.00000000000E+00  0.00000000000E+00 -0.50543872876E+03  0.50543872877E+03  0.25500000920E-02 0.  1.
    10030    2    1    2    0    0  0.00000000000E+00  0.00000000000E+00  0.82554711912E+02  0.10934321694E+04  0.10903112531E+04 0.  0.
        1    1    3    3  502    0  0.16199921329E+03  0.47416112689E+03  0.25665274104E+03  0.56297704115E+03  0.50400001928E-02 0. -1.
       -1    1    3    3    0  502 -0.16199921329E+03 -0.47416112689E+03 -0.17409802913E+03  0.53045512829E+03  0.50400001928E-02 0.  1.
</event>
<event>
 5   0  0.2185750E-03  0.1092686E+04  0.7818609E-02  0.9212350E-01
        3   -1    0    0  501    0  0.00000000000E+00  0.00000000000E+00  0.30057321194E+04  0.30057321211E+04  0.10100000352E+00 0. -1.
       -3   -1    0    0    0  501  0.00000000000E+00  0.00000000000E+00 -0.99307200559E+02  0.99307251919E+02  0.10100000352E+00 0.  1.
    10030    2    1    2    0    0  0.00000000000E+00  0.00000000000E+00  0.29064249188E+04  0.31050393730E+04  0.10926864597E+04 0.  0.
        1    1    3    3  502    0  0.34160427537E+03 -0.11214395375E+03  0.26221704565E+04  0.26467050554E+04  0.50400001928E-02 0. -1.
       -1    1    3    3    0  502 -0.34160427537E+03  0.11214395375E+03  0.28425446233E+03  0.45833431760E+03  0.50400001928E-02 0.  1.
</event>
<event>
 5   0  0.5946359E-03  0.1100503E+04  0.7818609E-02  0.9204702E-01
       -2   -1    0    0    0  501  0.00000000000E+00  0.00000000000E+00  0.19640825254E+03  0.19640825256E+03  0.25500000920E-02 0.  1.
        2   -1    0    0  501    0  0.00000000000E+00  0.00000000000E+00 -0.15415673855E+04  0.15415673855E+04  0.25500000920E-02 0. -1.
    10030    2    1    2    0    0  0.00000000000E+00  0.00000000000E+00 -0.13451591329E+04  0.17379756380E+04  0.11005027149E+04 0.  0.
        4    1    3    3  502    0  0.35382276124E+03 -0.12072038592E+03 -0.34960929297E+02  0.37548347157E+03  0.12699999809E+01 0.  1.
       -4    1    3    3    0  502 -0.35382276124E+03  0.12072038592E+03 -0.13101982036E+04  0.13624921664E+04  0.12699999809E+01 0. -1.
</event>
<event>
 5   0  0.5723194E-03  0.1092986E+04  0.7818609E-02  0.9212055E-01
       -2   -1    0    0    0  501  0.00000000000E+00  0.00000000000E+00  0.33361146309E+03  0.33361146310E+03  0.25500000920E-02 0.  1.
        2   -1    0    0  501    0  0.00000000000E+00  0.00000000000E+00 -0.89521727419E+03  0.89521727419E+03  0.25500000920E-02 0. -1.
    10030    2    1    2    0    0  0.00000000000E+00  0.00000000000E+00 -0.56160581110E+03  0.12288287373E+04  0.10929862664E+04 0.  0.
        1    1    3    3  502    0 -0.38597736104E+03 -0.43056979836E+02  0.15145869587E+03  0.41685988452E+03  0.50400001928E-02 0.  1.
       -1    1    3    3    0  502  0.38597736104E+03  0.43056979836E+02 -0.71306450697E+03  0.81196885277E+03  0.50400001928E-02 0. -1.
</event>
<event>
 5   0  0.3316784E-03  0.1163591E+04  0.7818609E-02  0.9145336E-01
       -1   -1    0    0    0  501  0.00000000000E+00  0.00000000000E+00  0.21018026372E+03  0.21018026378E+03  0.50400001928E-02 0.  1.
        1   -1    0    0  501    0  0.00000000000E+00  0.00000000000E+00 -0.16104559587E+04  0.16104559587E+04  0.50400001928E-02 0. -1.
    10030    2    1    2    0    0  0.00000000000E+00  0.00000000000E+00 -0.14002756950E+04  0.18206362225E+04  0.11635910934E+04 0.  0.
        4    1    3    3  502    0 -0.40312243020E+03  0.27181953431E+03 -0.20019968400E+03  0.52580897609E+03  0.12699999809E+01 0.  1.
       -4    1    3    3    0  502  0.40312243020E+03 -0.27181953431E+03 -0.12000760110E+04  0.12948272464E+04  0.12699999809E+01 0. -1.
</event>
<event>
 5   0  0.2185750E-03  0.1086446E+04  0.7818609E-02  0.9218505E-01
       -3   -1    0    0    0  501  0.00000000000E+00  0.00000000000E+00  0.41281604753E+03  0.41281605988E+03  0.10100000352E+00 0. -1.
        3   -1    0    0  501    0  0.00000000000E+00  0.00000000000E+00 -0.71482435245E+03  0.71482435959E+03  0.10100000352E+00 0.  1.
    10030    2    1    2    0    0  0.00000000000E+00  0.00000000000E+00 -0.30200830492E+03  0.11276404195E+04  0.10864455345E+04 0.  0.
        1    1    3    3  502    0  0.34519560979E+03  0.13367482764E+03  0.26164068898E+03  0.45330433344E+03  0.50400001928E-02 0. -1.
       -1    1    3    3    0  502 -0.34519560979E+03 -0.13367482764E+03 -0.56364899390E+03  0.67433608603E+03  0.50400001928E-02 0.  1.
</event>
<event>
 5   0  0.3241189E-03  0.1085819E+04  0.7818609E-02  0.9219125E-01
        1   -1    0    0  501    0  0.00000000000E+00  0.00000000000E+00  0.78718335954E+03  0.78718335956E+03  0.50400001928E-02 0. -1.
       -1   -1    0    0    0  501  0.00000000000E+00  0.00000000000E+00 -0.37443721785E+03  0.37443721789E+03  0.50400001928E-02 0.  1.
    10030    2    1    2    0    0  0.00000000000E+00  0.00000000000E+00  0.41274614169E+03  0.11616205774E+04  0.10858190404E+04 0.  0.
        5    1    3    3  502    0  0.75565141155E+02 -0.38531432941E+03 -0.19470090610E+03  0.43830098773E+03  0.46999998093E+01 0.  1.
       -5    1    3    3    0  502 -0.75565141155E+02  0.38531432941E+03  0.60744704779E+03  0.72331958972E+03  0.46999998093E+01 0. -1.
</event>
<event>
 5   0  0.5946359E-03  0.1108066E+04  0.7818609E-02  0.9197366E-01
       -2   -1    0    0    0  501  0.00000000000E+00  0.00000000000E+00  0.19574931297E+03  0.19574931298E+03  0.25500000920E-02 0.  1.
        2   -1    0    0  501    0  0.00000000000E+00  0.00000000000E+00 -0.15680906252E+04  0.15680906252E+04  0.25500000920E-02 0. -1.
    10030    2    1    2    0    0  0.00000000000E+00  0.00000000000E+00 -0.13723413123E+04  0.17638399382E+04  0.11080661760E+04 0.  0.
        4    1    3    3  502    0 -0.28460809595E+03  0.46375277889E+03 -0.52011233816E+03  0.75271964596E+03  0.12699999809E+01 0.  1.
       -4    1    3    3    0  502  0.28460809595E+03 -0.46375277889E+03 -0.85222897410E+03  0.10111202923E+04  0.12699999809E+01 0. -1.
</event>
<event>
 5   0  0.5723194E-03  0.1102016E+04  0.7818609E-02  0.9203230E-01
       -2   -1    0    0    0  501  0.00000000000E+00  0.00000000000E+00  0.19226303628E+03  0.19226303630E+03  0.25500000920E-02 0. -1.
        2   -1    0    0  501    0  0.00000000000E+00  0.00000000000E+00 -0.15791364805E+04  0.15791364805E+04  0.25500000920E-02 0.  1.
    10030    2    1    2    0    0  0.00000000000E+00  0.00000000000E+00 -0.13868734442E+04  0.17713995168E+04  0.11020155615E+04 0.  0.
        1    1    3    3  502    0  0.63781567901E+00 -0.30116261358E+03 -0.14351346699E+04  0.14663938241E+04  0.50400001928E-02 0.  1.
       -1    1    3    3    0  502 -0.63781567901E+00  0.30116261358E+03  0.48261225702E+02  0.30500569267E+03  0.50400001928E-02 0. -1.
</event>
<event>
 5   0  0.5627232E-03  0.1026558E+04  0.7818609E-02  0.9279887E-01
       -2   -1    0    0    0  501  0.00000000000E+00  0.00000000000E+00  0.25553566227E+03  0.25553566228E+03  0.25500000920E-02 0.  1.
        2   -1    0    0  501    0  0.00000000000E+00  0.00000000000E+00 -0.10309921606E+04  0.10309921606E+04  0.25500000920E-02 0. -1.
    10030    2    1    2    0    0  0.00000000000E+00  0.00000000000E+00 -0.77545649828E+03  0.12865278228E+04  0.10265578689E+04 0.  0.
        2    1    3    3  502    0  0.19318253097E+03 -0.31263326870E+02 -0.98240341563E+03  0.10017052246E+04  0.25500000920E-02 0. -1.
       -2    1    3    3    0  502 -0.19318253097E+03  0.31263326870E+02  0.20694691735E+03  0.28482259827E+03  0.25500000920E-02 0.  1.
</event>
<event>
 5   0  0.5941585E-03  0.1105036E+04  0.7818609E-02  0.9200298E-01
        2   -1    0    0  501    0  0.00000000000E+00  0.00000000000E+00  0.14368657700E+04  0.14368657700E+04  0.25500000920E-02 0.  1.
       -2   -1    0    0    0  501  0.00000000000E+00  0.00000000000E+00 -0.21245963838E+03  0.21245963839E+03  0.25500000920E-02 0. -1.
    10030    2    1    2    0    0  0.00000000000E+00  0.00000000000E+00  0.12244061316E+04  0.16493254084E+04  0.11050357133E+04 0.  0.
        5    1    3    3  502    0  0.10762179411E+03  0.16973907720E+02 -0.19623685453E+03  0.22450291130E+03  0.46999998093E+01 0. -1.
       -5    1    3    3    0  502 -0.10762179411E+03 -0.16973907720E+02  0.14206429862E+04  0.14248224971E+04  0.46999998093E+01 0.  1.
</event>
<event>
 5   0  0.5627232E-03  0.1073350E+04  0.7818609E-02  0.9231563E-01
       -2   -1    0    0    0  501  0.00000000000E+00  0.00000000000E+00  0.42503969187E+03  0.42503969188E+03  0.25500000920E-02 0. -1.
        2   -1    0    0  501    0  0.00000000000E+00  0.00000000000E+00 -0.67763083121E+03  0.67763083122E+03  0.25500000920E-02 0.  1.
    10030    2    1    2    0    0  0.00000000000E+00  0.00000000000E+00 -0.25259113935E+03  0.11026705231E+04  0.10733498958E+04 0.  0.
        2    1    3    3  502    0 -0.30215960102E+02  0.53582365807E+03 -0.12635097369E+03  0.55134795307E+03  0.25500000920E-02 0.  1.
       -2    1    3    3    0  502  0.30215960102E+02 -0.53582365807E+03 -0.12624016566E+03  0.55132257003E+03  0.25500000920E-02 0. -1.
</event>
<event>
 5   0  0.3328741E-03  0.1093453E+04  0.7818609E-02  0.9211597E-01
       -1   -1    0    0    0  501  0.00000000000E+00  0.00000000000E+00  0.89578618917E+03  0.89578618918E+03  0.50400001928E-02 0. -1.
        1   -1    0    0  501    0  0.00000000000E+00  0.00000000000E+00 -0.33368435540E+03  0.33368435543E+03  0.50400001928E-02 0.  1.
    10030    2    1    2    0    0  0.00000000000E+00  0.00000000000E+00  0.56210183377E+03  0.12294705446E+04  0.10934529476E+04 0.  0.
        3    1    3    3  502    0 -0.14156356519E+03  0.50918178178E+03  0.12362189226E+03  0.54276027151E+03  0.10100000352E+00 0.  1.
       -3    1    3    3    0  502  0.14156356519E+03 -0.50918178178E+03  0.43847994150E+03  0.68671027310E+03  0.10100000352E+00 0. -1.
</event>
<event>
 5   0  0.5723194E-03  0.1101781E+04  0.7818609E-02  0.9203458E-01
       -2   -1    0    0    0  501  0.00000000000E+00  0.00000000000E+00  0.13604657484E+03  0.13604657486E+03  0.25500000920E-02 0.  1.
        2   -1    0    0  501    0  0.00000000000E+00  0.00000000000E+00 -0.22307077816E+04  0.22307077816E+04  0.25500000920E-02 0. -1.
    10030    2    1    2    0    0  0.00000000000E+00  0.00000000000E+00 -0.20946612068E+04  0.23667543565E+04  0.11017806554E+04 0.  0.
        1    1    3    3  502    0  0.21343490096E+03 -0.30681066076E+03 -0.19167025015E+04  0.19528020171E+04  0.50400001928E-02 0. -1.
       -1    1    3    3    0  502 -0.21343490096E+03  0.30681066076E+03 -0.17795870527E+03  0.41395233942E+03  0.50400001928E-02 0.  1.
</event>
<event>
 5   0  0.3320192E-03  0.1078199E+04  0.7818609E-02  0.9226705E-01
       -1   -1    0    0    0  501  0.00000000000E+00  0.00000000000E+00  0.14073340660E+04  0.14073340660E+04  0.50400001928E-02 0.  1.
        1   -1    0    0  501    0  0.00000000000E+00  0.00000000000E+00 -0.20650975538E+03  0.20650975544E+03  0.50400001928E-02 0. -1.
    10030    2    1    2    0    0  0.00000000000E+00  0.00000000000E+00  0.12008243106E+04  0.16138438215E+04  0.10781988940E+04 0.  0.
        2    1    3    3  502    0  0.38656186279E+03  0.36265030926E+03  0.74769941858E+03  0.91651499776E+03  0.25500000920E-02 0. -1.
       -2    1    3    3    0  502 -0.38656186279E+03 -0.36265030926E+03  0.45312489206E+03  0.69732882371E+03  0.25500000920E-02 0.  1.
</event>
<event>
 5   0  0.3316784E-03  0.1086161E+04  0.7818609E-02  0.9218786E-01
        1   -1    0    0  501    0  0.00000000000E+00  0.00000000000E+00  0.43287817068E+03  0.43287817071E+03  0.50400001928E-02 0. -1.
       -1   -1    0    0    0  501  0.00000000000E+00  0.00000000000E+00 -0.68133795776E+03  0.68133795778E+03  0.50400001928E-02 0.  1.
    10030    2    1    2    0    0  0.00000000000E+00  0.00000000000E+00 -0.24845978709E+03  0.11142161285E+04  0.10861608146E+04 0.  0.
        4    1    3    3  502    0  0.73706677238E+02  0.26454246418E+03  0.35640100883E+03  0.44993186331E+03  0.12699999809E+01 0. -1.
       -4    1    3    3    0  502 -0.73706677238E+02 -0.26454246418E+03 -0.60486079592E+03  0.66428426518E+03  0.12699999809E+01 0.  1.
</event>
<event>
 5   0  0.5500363E-03  0.1103002E+04  0.7818609E-02  0.9202271E-01
       -2   -1    0    0    0  501  0.00000000000E+00  0.00000000000E+00  0.14107198867E+03  0.14107198869E+03  0.25500000920E-02 0. -1.
        2   -1    0    0  501    0  0.00000000000E+00  0.00000000000E+00 -0.21560150939E+04  0.21560150939E+04  0.25500000920E-02 0.  1.
    10030    2    1    2    0    0  0.00000000000E+00  0.00000000000E+00 -0.20149431052E+04  0.22970870826E+04  0.11030019708E+04 0.  0.
        3    1    3    3  502    0 -0.14286407369E+03  0.52138928145E+03 -0.12346195733E+04  0.13477916854E+04  0.10100000352E+00 0.  1.
       -3    1    3    3    0  502  0.14286407369E+03 -0.52138928145E+03 -0.78032353195E+03  0.94929539716E+03  0.10100000352E+00 0. -1.
</event>
<event>
 5   0  0.5941585E-03  0.9877300E+03  0.7818609E-02  0.9322106E-01
        2   -1    0    0  501    0  0.00000000000E+00  0.00000000000E+00  0.18084791414E+04  0.18084791414E+04  0.25500000920E-02 0. -1.
       -2   -1    0    0    0  501  0.00000000000E+00  0.00000000000E+00 -0.13486616906E+03  0.13486616908E+03  0.25500000920E-02 0.  1.
    10030    2    1    2    0    0  0.00000000000E+00  0.00000000000E+00  0.16736129724E+04  0.19433453105E+04  0.98773003124E+03 0.  0.
        5    1    3    3  502    0  0.15683698229E+03  0.29082090964E+03  0.15589193216E+04  0.15935577121E+04  0.46999998093E+01 0. -1.
       -5    1    3    3    0  502 -0.15683698229E+03 -0.29082090964E+03  0.11469365079E+03  0.34978759845E+03  0.46999998093E+01 0.  1.
</event>
<event>
 5   0  0.2185750E-03  0.1098506E+04  0.7818609E-02  0.9206649E-01
       -3   -1    0    0    0  501  0.00000000000E+00  0.00000000000E+00  0.56828574768E+03  0.56828575665E+03  0.10100000352E+00 0. -1.
        3   -1    0    0  501    0  0.00000000000E+00  0.00000000000E+00 -0.53085796933E+03  0.53085797894E+03  0.10100000352E+00 0.  1.
    10030    2    1    2    0    0  0.00000000000E+00  0.00000000000E+00  0.37427778346E+02  0.10991437356E+04  0.10985063099E+04 0.  0.
        1    1    3    3  502    0  0.23673040358E+03 -0.15718594213E+03 -0.45159111276E+03  0.53355715489E+03  0.50400001928E-02 0.  1.
       -1    1    3    3    0  502 -0.23673040358E+03  0.15718594213E+03  0.48901889111E+03  0.56558658070E+03  0.50400001928E-02 0. -1.
</event>
<event>
 5   0  0.5941585E-03  0.1150429E+04  0.7818609E-02  0.9157388E-01
        2   -1    0    0  501    0  0.00000000000E+00  0.00000000000E+00  0.50161967779E+03  0.50161967779E+03  0.25500000920E-02 0.  1.
       -2   -1    0    0    0  501  0.00000000000E+00  0.00000000000E+00 -0.65960687979E+03  0.65960687979E+03  0.25500000920E-02 0. -1.
    10030    2    1    2    0    0  0.00000000000E+00  0.00000000000E+00 -0.15798720200E+03  0.11612265576E+04  0.11504291208E+04 0.  0.
        5    1    3    3  502    0  0.17120298569E+03 -0.13714199785E+03 -0.61570898832E+03  0.65363448362E+03  0.46999998093E+01 0. -1.
       -5    1    3    3    0  502 -0.17120298569E+03  0.13714199785E+03  0.45772178632E+03  0.50759207397E+03  0.46999998093E+01 0.  1.
</event>
<event>
 5   0  0.5723194E-03  0.1107306E+04  0.7818609E-02  0.9198101E-01
        2   -1    0    0  501    0  0.00000000000E+00  0.00000000000E+00  0.16895541161E+04  0.16895541161E+04  0.25500000920E-02 0. -1.
       -2   -1    0    0    0  501  0.00000000000E+00  0.00000000000E+00 -0.18142738946E+03  0.18142738948E+03  0.25500000920E-02 0.  1.
    10030    2    1    2    0    0  0.00000000000E+00  0.00000000000E+00  0.15081267267E+04  0.18709815056E+04  0.11073055453E+04 0.  0.
        1    1    3    3  502    0  0.14127561139E+03  0.34518072371E+03  0.14454315648E+04  0.14927762522E+04  0.50400001928E-02 0. -1.
       -1    1    3    3    0  502 -0.14127561139E+03 -0.34518072371E+03  0.62695161835E+02  0.37820525345E+03  0.50400001928E-02 0.  1.
</event>
<event>
 5   0  0.3316784E-03  0.1095347E+04  0.7818609E-02  0.9209739E-01
        1   -1    0    0  501    0  0.00000000000E+00  0.00000000000E+00  0.70642263003E+03  0.70642263005E+03  0.50400001928E-02 0.  1.
       -1   -1    0    0    0  501  0.00000000000E+00  0.00000000000E+00 -0.42459899831E+03  0.42459899834E+03  0.50400001928E-02 0. -1.
    10030    2    1    2    0    0  0.00000000000E+00  0.00000000000E+00  0.28182363172E+03  0.11310216284E+04  0.10953471434E+04 0.  0.
        4    1    3    3  502    0  0.44369908852E+03 -0.28334219103E+03  0.29680256719E+03  0.60435507375E+03  0.12699999809E+01 0.  1.
       -4    1    3    3    0  502 -0.44369908852E+03  0.28334219103E+03 -0.14978935476E+02  0.52666655464E+03  0.12699999809E+01 0. -1.
</event>
<event>
 5   0  0.3241189E-03  0.1095806E+04  0.7818609E-02  0.9209289E-01
        1   -1    0    0  501    0  0.00000000000E+00  0.00000000000E+00  0.29010603560E+03  0.29010603565E+03  0.50400001928E-02 0.  1.
       -1   -1    0    0    0  501  0.00000000000E+00  0.00000000000E+00 -0.10347867499E+04  0.10347867499E+04  0.50400001928E-02 0. -1.
    10030    2    1    2    0    0  0.00000000000E+00  0.00000000000E+00 -0.74468071431E+03  0.13248927856E+04  0.10958063364E+04 0.  0.
        5    1    3    3  502    0 -0.78721003484E+02  0.53919879647E+03 -0.30348293676E+03  0.62374379469E+03  0.46999998093E+01 0.  1.
       -5    1    3    3    0  502  0.78721003484E+02 -0.53919879647E+03 -0.44119777755E+03  0.70114899089E+03  0.46999998093E+01 0. -1.
</event>
<event>
 5   0  0.5941585E-03  0.1094192E+04  0.7818609E-02  0.9210871E-01
       -2   -1    0    0    0  501  0.00000000000E+00  0.00000000000E+00  0.54999032131E+03  0.54999032131E+03  0.25500000920E-02 0.  1.
        2   -1    0    0  501    0  0.00000000000E+00  0.00000000000E+00 -0.54421735531E+03  0.54421735531E+03  0.25500000920E-02 0. -1.
    10030    2    1    2    0    0  0.00000000000E+00  0.00000000000E+00  0.57729660013E+01  0.10942076766E+04  0.10941924476E+04 0.  0.
        5    1    3    3  502    0  0.35225077358E+03  0.10500071124E+03  0.40809137142E+03  0.54924167201E+03  0.46999998093E+01 0.  1.
       -5    1    3    3    0  502 -0.35225077358E+03 -0.10500071124E+03 -0.40231840542E+03  0.54496600462E+03  0.46999998093E+01 0. -1.
</event>
<event>
 5   0  0.5627232E-03  0.1114336E+04  0.7818609E-02  0.9191330E-01
       -2   -1    0    0    0  501  0.00000000000E+00  0.00000000000E+00  0.10634428597E+03  0.10634428600E+03  0.25500000920E-02 0. -1.
        2   -1    0    0  501    0  0.00000000000E+00  0.00000000000E+00 -0.29191644006E+04  0.29191644006E+04  0.25500000920E-02 0.  1.
    10030    2    1    2    0    0  0.00000000000E+00  0.00000000000E+00 -0.28128201147E+04  0.30255086866E+04  0.11143364911E+04 0.  0.
        2    1    3    3  502    0  0.40908713753E+03 -0.11324554481E+03 -0.23863217630E+04  0.24237797747E+04  0.25500000920E-02 0.  1.
       -2    1    3    3    0  502 -0.40908713753E+03  0.11324554481E+03 -0.42649835165E+03  0.60172891195E+03  0.25500000920E-02 0. -1.
</event>
<event>
 5   0  0.5500363E-03  0.1101957E+04  0.7818609E-02  0.9203287E-01
       -2   -1    0    0    0  501  0.00000000000E+00  0.00000000000E+00  0.48422426753E+03  0.48422426753E+03  0.25500000920E-02 0.  1.
        2   -1    0    0  501    0  0.00000000000E+00  0.00000000000E+00 -0.62693531309E+03  0.62693531310E+03  0.25500000920E-02 0. -1.
    10030    2    1    2    0    0  0.00000000000E+00  0.00000000000E+00 -0.14271104557E+03  0.11111595806E+04  0.11019569733E+04 0.  0.
        3    1    3    3  502    0  0.36194487444E+03  0.21229213592E+03 -0.43141629891E+03  0.60182395787E+03  0.10100000352E+00 0. -1.
       -3    1    3    3    0  502 -0.36194487444E+03 -0.21229213592E+03  0.28870525334E+03  0.50933562276E+03  0.10100000352E+00 0.  1.
</event>
<event>
 5   0  0.3215352E-03  0.1098431E+04  0.7818609E-02  0.9206723E-01
        1   -1    0    0  501    0  0.00000000000E+00  0.00000000000E+00  0.31509766898E+03  0.31509766902E+03  0.50400001928E-02 0.  1.
       -1   -1    0    0    0  501  0.00000000000E+00  0.00000000000E+00 -0.95728283778E+03  0.95728283780E+03  0.50400001928E-02 0. -1.
    10030    2    1    2    0    0  0.00000000000E+00  0.00000000000E+00 -0.64218516880E+03  0.12723805068E+04  0.10984308641E+04 0.  0.
        1    1    3    3  502    0 -0.35139610557E+03 -0.72412397040E+02 -0.80277454141E+03  0.87930071228E+03  0.50400001928E-02 0. -1.
       -1    1    3    3    0  502  0.35139610557E+03  0.72412397040E+02  0.16058937261E+03  0.39307979454E+03  0.50400001928E-02 0.  1.
</event>
<event>
 5   0  0.5500363E-03  0.1092234E+04  0.7818609E-02  0.9212794E-01
        2   -1    0    0  501    0  0.00000000000E+00  0.00000000000E+00  0.11202296226E+04  0.11202296226E+04  0.25500000920E-02 0.  1.
       -2   -1    0    0    0  501  0.00000000000E+00  0.00000000000E+00 -0.26623470154E+03  0.26623470155E+03  0.25500000920E-02 0. -1.
    10030    2    1    2    0    0  0.00000000000E+00  0.00000000000E+00  0.85399492105E+03  0.13864643241E+04  0.10922344057E+04 0.  0.
        3    1    3    3  502    0  0.27452193000E+03  0.62084307444E+02  0.10210733258E+04  0.10591541428E+04  0.10100000352E+00 0.  1.
       -3    1    3    3    0  502 -0.27452193000E+03 -0.62084307444E+02 -0.16707840476E+03  0.32731018136E+03  0.10100000352E+00 0. -1.
</event>
<event>
 5   0  0.5941585E-03  0.1085015E+04  0.7818609E-02  0.9219921E-01
       -2   -1    0    0    0  501  0.00000000000E+00  0.00000000000E+00  0.26952890882E+03  0.26952890883E+03  0.25500000920E-02 0.  1.
        2   -1    0    0  501    0  0.00000000000E+00  0.00000000000E+00 -0.10919592620E+04  0.10919592620E+04  0.25500000920E-02 0. -1.
    10030    2    1    2    0    0  0.00000000000E+00  0.00000000000E+00 -0.82243035320E+03  0.13614881708E+04  0.10850153702E+04 0.  0.
        5    1    3    3  502    0  0.27710276209E+02  0.37353460485E+03  0.81202302763E+02  0.38329083527E+03  0.46999998093E+01 0.  1.
       -5    1    3    3    0  502 -0.27710276209E+02 -0.37353460485E+03 -0.90363265596E+03  0.97819733558E+03  0.46999998093E+01 0. -1.
</event>
<event>
 5   0  0.3215352E-03  0.1091197E+04  0.7818609E-02  0.9213815E-01
       -1   -1    0    0    0  501  0.00000000000E+00  0.00000000000E+00  0.19229411832E+03  0.19229411839E+03  0.50400001928E-02 0. -1.
        1   -1    0    0  501    0  0.00000000000E+00  0.00000000000E+00 -0.15480333138E+04  0.15480333138E+04  0.50400001928E-02 0.  1.
    10030    2    1    2    0    0  0.00000000000E+00  0.00000000000E+00 -0.13557391955E+04  0.17403274322E+04  0.10911969598E+04 0.  0.
        1    1    3    3  502    0  0.39330719700E+03 -0.24511475930E+03 -0.11370893398E+04  0.12279022612E+04  0.50400001928E-02 0.  1.
       -1    1    3    3    0  502 -0.39330719700E+03  0.24511475930E+03 -0.21864985570E+03  0.51242517099E+03  0.50400001928E-02 0. -1.
</event>
<event>
 5   0  0.3320192E-03  0.1103659E+04  0.7818609E-02  0.9201633E-01
       -1   -1    0    0    0  501  0.00000000000E+00  0.00000000000E+00  0.22909307464E+03  0.22909307470E+03  0.50400001928E-02 0. -1.
        1   -1    0    0  501    0  0.00000000000E+00  0.00000000000E+00 -0.13292229947E+04  0.13292229947E+04  0.50400001928E-02 0.  1.
    10030    2    1    2    0    0  0.00000000000E+00  0.00000000000E+00 -0.11001299201E+04  0.15583160694E+04  0.11036589741E+04 0.  0.
        2    1    3    3  502    0  0.17591057509E+03  0.10854782358E+01 -0.12885725179E+04  0.13005248335E+04  0.25500000920E-02 0.  1.
       -2    1    3    3    0  502 -0.17591057509E+03 -0.10854782358E+01  0.18844259776E+03  0.25779123598E+03  0.25500000920E-02 0. -1.
</event>
<event>
 5   0  0.5946359E-03  0.1070909E+04  0.7818609E-02  0.9234019E-01
        2   -1    0    0  501    0  0.00000000000E+00  0.00000000000E+00  0.69635815069E+03  0.69635815069E+03  0.25500000920E-02 0.  1.
       -2   -1    0    0    0  501  0.00000000000E+00  0.00000000000E+00 -0.41172974013E+03  0.41172974014E+03  0.25500000920E-02 0. -1.
    10030    2    1    2    0    0  0.00000000000E+00  0.00000000000E+00  0.28462841056E+03  0.11080878908E+04  0.10709086991E+04 0.  0.
        4    1    3    3  502    0  0.12543331023E+02  0.95647906419E+02 -0.40266262205E+03  0.41405876063E+03  0.12699999809E+01 0. -1.
       -4    1    3    3    0  502 -0.12543331023E+02 -0.95647906419E+02  0.68729103261E+03  0.69402913020E+03  0.12699999809E+01 0.  1.
</event>
<event>
 5   0  0.5946359E-03  0.1099447E+04  0.7818609E-02  0.9205731E-01
        2   -1    0    0  501    0  0.00000000000E+00  0.00000000000E+00  0.29155573262E+03  0.29155573263E+03  0.25500000920E-02 0.  1.
       -2   -1    0    0    0  501  0.00000000000E+00  0.00000000000E+00 -0.10364949702E+04  0.10364949702E+04  0.25500000920E-02 0. -1.
    10030    2    1    2    0    0  0.00000000000E+00  0.00000000000E+00 -0.74493923756E+03  0.13280507028E+04  0.10994472255E+04 0.  0.
        4    1    3    3  502    0  0.37298993095E+03  0.37016911329E+03 -0.56742067683E+03  0.77337862553E+03  0.12699999809E+01 0. -1.
       -4    1    3    3    0  502 -0.37298993095E+03 -0.37016911329E+03 -0.17751856072E+03  0.55467207729E+03  0.12699999809E+01 0.  1.
</event>
<event>
 5   0  0.5627232E-03  0.1100970E+04  0.7818609E-02  0.9204247E-01
       -2   -1    0    0    0  501  0.00000000000E+00  0.00000000000E+00  0.35299855214E+03  0.35299855215E+03  0.25500000920E-02 0. -1.
        2   -1    0    0  501    0  0.00000000000E+00  0.00000000000E+00 -0.85845577968E+03  0.85845577968E+03  0.25500000920E-02 0.  1.
    10030    2    1    2    0    0  0.00000000000E+00  0.00000000000E+00 -0.50545722753E+03  0.12114543318E+04  0.11009698403E+04 0.  0.
        2    1    3    3  502    0  0.27790776327E+03  0.22605742081E+03  0.20718555675E+03  0.41383636539E+03  0.25500000920E-02 0. -1.
       -2    1    3    3    0  502 -0.27790776327E+03 -0.22605742081E+03 -0.71264278428E+03  0.79761796644E+03  0.25500000920E-02 0.  1.
</event>
<event>
 5   0  0.5723194E-03  0.1100587E+04  0.7818609E-02  0.9204620E-01
        2   -1    0    0  501    0  0.00000000000E+00  0.00000000000E+00  0.46684974641E+03  0.46684974641E+03  0.25500000920E-02 0. -1.
       -2   -1    0    0    0  501  0.00000000000E+00  0.00000000000E+00 -0.64865206969E+03  0.64865206969E+03  0.25500000920E-02 0.  1.
    10030    2    1    2    0    0  0.00000000000E+00  0.00000000000E+00 -0.18180232328E+03  0.11155018161E+04  0.11005872146E+04 0.  0.
        1    1    3    3  502    0  0.43944341825E+03  0.23820917005E+03 -0.32416982930E+03  0.59576858325E+03  0.50400001928E-02 0.  1.
       -1    1    3    3    0  502 -0.43944341825E+03 -0.23820917005E+03  0.14236750602E+03  0.51973323285E+03  0.50400001928E-02 0. -1.
</event>
<event>
 5   0  0.5946359E-03  0.1102117E+04  0.7818609E-02  0.9203131E-01
       -2   -1    0    0    0  501  0.00000000000E+00  0.00000000000E+00  0.26918530314E+03  0.26918530316E+03  0.25500000920E-02 0.  1.
        2   -1    0    0  501    0  0.00000000000E+00  0.00000000000E+00 -0.11280917388E+04  0.11280917388E+04  0.25500000920E-02 0. -1.
    10030    2    1    2    0    0  0.00000000000E+00  0.00000000000E+00 -0.85890643567E+03  0.13972770420E+04  0.11021174469E+04 0.  0.
        4    1    3    3  502    0 -0.75191668419E+02  0.34489524430E+02 -0.11201728561E+04  0.11232240003E+04  0.12699999809E+01 0. -1.
       -4    1    3    3    0  502  0.75191668419E+02 -0.34489524430E+02  0.26126642047E+03  0.27405304169E+03  0.12699999809E+01 0.  1.
</event>
<event>
 5   0  0.5941585E-03  0.1109095E+04  0.7818609E-02  0.9196373E-01
        2   -1    0    0  501    0  0.00000000000E+00  0.00000000000E+00  0.89039230941E+03  0.89039230941E+03  0.25500000920E-02 0. -1.
       -2   -1    0    0    0  501  0.00000000000E+00  0.00000000000E+00 -0.34537894183E+03  0.34537894184E+03  0.25500000920E-02 0.  1.
    10030    2    1    2    0    0  0.00000000000E+00  0.00000000000E+00  0.54501336758E+03  0.12357712513E+04  0.11090946824E+04 0.  0.
        5    1    3    3  502    0  0.47082416477E+03 -0.15094583164E+03  0.55226288440E+03  0.74126676825E+03  0.46999998093E+01 0. -1.
       -5    1    3    3    0  502 -0.47082416477E+03  0.15094583164E+03 -0.72495168204E+01  0.49450448301E+03  0.46999998093E+01 0.  1.
</event>
<event>
 5   0  0.3328741E-03  0.1049105E+04  0.7818609E-02  0.9256269E-01
       -1   -1    0    0    0  501  0.00000000000E+00  0.00000000000E+00  0.48165168588E+03  0.48165168591E+03  0.50400001928E-02 0. -1.
        1   -1    0    0  501    0  0.00000000000E+00  0.00000000000E+00 -0.57127441412E+03  0.57127441414E+03  0.50400001928E-02 0.  1.
    10030    2    1    2    0    0  0.00000000000E+00  0.00000000000E+00 -0.89622728236E+02  0.10529261001E+04  0.10491049227E+04 0.  0.
        3    1    3    3  502    0  0.24379529990E+03  0.27517186679E+03  0.33071662970E+03  0.49449894226E+03  0.10100000352E+00 0. -1.
       -3    1    3    3    0  502 -0.24379529990E+03 -0.27517186679E+03 -0.42033935794E+03  0.55842715780E+03  0.10100000352E+00 0.  1.
</event>
<event>
 5   0  0.3328741E-03  0.1121829E+04  0.7818609E-02  0.9184173E-01
        1   -1    0    0  501    0  0.00000000000E+00  0.00000000000E+00  0.10771570442E+04  0.10771570442E+04  0.50400001928E-02 0. -1.
       -1   -1    0    0    0  501  0.00000000000E+00  0.00000000000E+00 -0.29208827226E+03  0.29208827231E+03  0.50400001928E-02 0.  1.
    10030    2    1    2    0    0  0.00000000000E+00  0.00000000000E+00  0.78506877191E+03  0.13692453165E+04  0.11218287570E+04 0.  0.
        3    1    3    3  502    0 -0.22742830454E+03  0.49220559510E+03  0.21720432340E+03  0.58409563418E+03  0.10100000352E+00 0.  1.
       -3    1    3    3    0  502  0.22742830454E+03 -0.49220559510E+03  0.56786444851E+03  0.78514968232E+03  0.10100000352E+00 0. -1.
</event>
<event>
 5   0  0.3316784E-03  0.1095765E+04  0.7818609E-02  0.9209329E-01
        1   -1    0    0  501    0  0.00000000000E+00  0.00000000000E+00  0.91498973085E+03  0.91498973086E+03  0.50400001928E-02 0.  1.
       -1   -1    0    0    0  501  0.00000000000E+00  0.00000000000E+00 -0.32806431606E+03  0.32806431610E+03  0.50400001928E-02 0. -1.
    10030    2    1    2    0    0  0.00000000000E+00  0.00000000000E+00  0.58692541479E+03  0.12430540470E+04  0.10957654499E+04 0.  0.
        4    1    3    3  502    0 -0.38609023272E+03 -0.11404496244E+03  0.71503524151E+03  0.82057841232E+03  0.12699999809E+01 0.  1.
       -4    1    3    3    0  502  0.38609023272E+03  0.11404496244E+03 -0.12810982672E+03  0.42247563464E+03  0.12699999809E+01 0. -1.
</event>
<event>
 5   0  0.3215352E-03  0.1096150E+04  0.7818609E-02  0.9208953E-01
        1   -1    0    0  501    0  0.00000000000E+00  0.00000000000E+00  0.26288490277E+04  0.26288490277E+04  0.50400001928E-02 0. -1.
       -1   -1    0    0    0  501  0.00000000000E+00  0.00000000000E+00 -0.11426522444E+03  0.11426522455E+03  0.50400001928E-02 0.  1.
    10030    2    1    2    0    0  0.00000000000E+00  0.00000000000E+00  0.25145838032E+04  0.27431142522E+04  0.10961496692E+04 0.  0.
        1    1    3    3  502    0 -0.73509099018E+02  0.34892195506E+03  0.22988727724E+04  0.23263632868E+04  0.50400001928E-02 0. -1.
       -1    1    3    3    0  502  0.73509099018E+02 -0.34892195506E+03  0.21571103084E+03  0.41675096546E+03  0.50400001928E-02 0.  1.
</event>
<event>
 5   0  0.5723194E-03  0.1100387E+04  0.7818609E-02  0.9204814E-01
       -2   -1    0    0    0  501  0.00000000000E+00  0.00000000000E+00  0.28126118371E+03  0.28126118372E+03  0.25500000920E-02 0.  1.
        2   -1    0    0  501    0  0.00000000000E+00  0.00000000000E+00 -0.10762702083E+04  0.10762702083E+04  0.25500000920E-02 0. -1.
    10030    2    1    2    0    0  0.00000000000E+00  0.00000000000E+00 -0.79500902460E+03  0.13575313920E+04  0.11003872642E+04 0.  0.
        1    1    3    3  502    0  0.29312333940E+03 -0.23936983724E+03 -0.89019736040E+03  0.96730065210E+03  0.50400001928E-02 0. -1.
       -1    1    3    3    0  502 -0.29312333940E+03  0.23936983724E+03  0.95188335798E+02  0.39023073992E+03  0.50400001928E-02 0.  1.
</event>
<event>
 5   0  0.5946359E-03  0.1094614E+04  0.7818609E-02  0.9210457E-01
        2   -1    0    0  501    0  0.00000000000E+00  0.00000000000E+00  0.17809733881E+04  0.17809733881E+04  0.25500000920E-02 0. -1.
       -2   -1    0    0    0  501  0.00000000000E+00  0.00000000000E+00 -0.16819168331E+03  0.16819168332E+03  0.25500000920E-02 0.  1.
    10030    2    1    2    0    0  0.00000000000E+00  0.00000000000E+00  0.16127817047E+04  0.19491650714E+04  0.10946139266E+04 0.  0.
        4    1    3    3  502    0  0.64400611566E+02  0.12308849781E+03  0.17490542646E+04  0.17545628090E+04  0.12699999809E+01 0. -1.
       -4    1    3    3    0  502 -0.64400611566E+02 -0.12308849781E+03 -0.13627255988E+03  0.19460226242E+03  0.12699999809E+01 0.  1.
</event>
<event>
 5   0  0.5627232E-03  0.1102967E+04  0.7818609E-02  0.9202305E-01
       -2   -1    0    0    0  501  0.00000000000E+00  0.00000000000E+00  0.38000593579E+03  0.38000593580E+03  0.25500000920E-02 0. -1.
        2   -1    0    0  501    0  0.00000000000E+00  0.00000000000E+00 -0.80033980825E+03  0.80033980825E+03  0.25500000920E-02 0.  1.
    10030    2    1    2    0    0  0.00000000000E+00  0.00000000000E+00 -0.42033387246E+03  0.11803457441E+04  0.11029666863E+04 0.  0.
        2    1    3    3  502    0 -0.95196988254E+02  0.50166937478E+03 -0.43310691394E+03  0.66956420684E+03  0.25500000920E-02 0.  1.
       -2    1    3    3    0  502  0.95196988254E+02 -0.50166937478E+03  0.12773041483E+02  0.51078153722E+03  0.25500000920E-02 0. -1.
</event>
<event>
 5   0  0.3241189E-03  0.1096587E+04  0.7818609E-02  0.9208525E-01
       -1   -1    0    0    0  501  0.00000000000E+00  0.00000000000E+00  0.34457518663E+03  0.34457518667E+03  0.50400001928E-02 0. -1.
        1   -1    0    0  501    0  0.00000000000E+00  0.00000000000E+00 -0.87245287650E+03  0.87245287652E+03  0.50400001928E-02 0.  1.
    10030    2    1    2    0    0  0.00000000000E+00  0.00000000000E+00 -0.52787768987E+03  0.12170280632E+04  0.10965867276E+04 0.  0.
        5    1    3    3  502    0  0.37816202361E+03  0.15616716406E+03  0.14112558117E+03  0.43282007681E+03  0.46999998093E+01 0. -1.
       -5    1    3    3    0  502 -0.37816202361E+03 -0.15616716406E+03 -0.66900327104E+03  0.78420798637E+03  0.46999998093E+01 0.  1.
</event>
<event>
 5   0  0.3328741E-03  0.1095787E+04  0.7818609E-02  0.9209308E-01
        1   -1    0    0  501    0  0.00000000000E+00  0.00000000000E+00  0.50600598300E+03  0.50600598302E+03  0.50400001928E-02 0.  1.
       -1   -1    0    0    0  501  0.00000000000E+00  0.00000000000E+00 -0.59324891151E+03  0.59324891153E+03  0.50400001928E-02 0. -1.
    10030    2    1    2    0    0  0.00000000000E+00  0.00000000000E+00 -0.87242928510E+02  0.10992548946E+04  0.10957873857E+04 0.  0.
        3    1    3    3  502    0  0.21771565801E+03 -0.27099651959E+03 -0.46845687008E+03  0.58334472716E+03  0.10100000352E+00 0. -1.
       -3    1    3    3    0  502 -0.21771565801E+03  0.27099651959E+03  0.38121394157E+03  0.51591016740E+03  0.10100000352E+00 0.  1.
</event>
<event>
 5   0  0.5723194E-03  0.1102641E+04  0.7818609E-02  0.9202622E-01
        2   -1    0    0  501    0  0.00000000000E+00  0.00000000000E+00  0.89618053624E+03  0.89618053624E+03  0.25500000920E-02 0.  1.
       -2   -1    0    0    0  501  0.00000000000E+00  0.00000000000E+00 -0.33916640463E+03  0.33916640464E+03  0.25500000920E-02 0. -1.
    10030    2    1    2    0    0  0.00000000000E+00  0.00000000000E+00  0.55701413161E+03  0.12353469409E+04  0.11026410665E+04 0.  0.
        1    1    3    3  502    0  0.31663608902E+03 -0.20365305211E+03  0.72974831104E+03  0.82113675840E+03  0.50400001928E-02 0.  1.
       -1    1    3    3    0  502 -0.31663608902E+03  0.20365305211E+03 -0.17273417943E+03  0.41421018248E+03  0.50400001928E-02 0. -1.
</event>
<event>
 5   0  0.3316784E-03  0.1109937E+04  0.7818609E-02  0.9195560E-01
        1   -1    0    0  501    0  0.00000000000E+00  0.00000000000E+00  0.75348524608E+03  0.75348524610E+03  0.50400001928E-02 0.  1.
       -1   -1    0    0    0  501  0.00000000000E+00  0.00000000000E+00 -0.40875413053E+03  0.40875413056E+03  0.50400001928E-02 0. -1.
    10030    2    1    2    0    0  0.00000000000E+00  0.00000000000E+00  0.34473111555E+03  0.11622393767E+04  0.11099373075E+04 0.  0.
        4    1    3    3  502    0  0.71598101231E+02  0.38899379441E+03 -0.23526765916E+03  0.46021184745E+03  0.12699999809E+01 0. -1.
       -4    1    3    3    0  502 -0.71598101231E+02 -0.38899379441E+03  0.57999877471E+03  0.70202752920E+03  0.12699999809E+01 0.  1.
</event>
<event>
 5   0  0.3328741E-03  0.1115098E+04  0.7818609E-02  0.9190600E-01
        1   -1    0    0  501    0  0.00000000000E+00  0.00000000000E+00  0.83434049092E+03  0.83434049093E+03  0.50400001928E-02 0.  1.
       -1   -1    0    0    0  501  0.00000000000E+00  0.00000000000E+00 -0.37258285540E+03  0.37258285543E+03  0.50400001928E-02 0. -1.
    10030    2    1    2    0    0  0.00000000000E+00  0.00000000000E+00  0.46175763552E+03  0.12069233464E+04  0.11150981347E+04 0.  0.
        3    1    3    3  502    0  0.49292755568E+03 -0.23303002713E+03  0.10474759155E+03  0.55520504035E+03  0.10100000352E+00 0. -1.
       -3    1    3    3    0  502 -0.49292755568E+03  0.23303002713E+03  0.35701004397E+03  0.65171830601E+03  0.10100000352E+00 0.  1.
</event>
<event>
 5   0  0.3215352E-03  0.1097337E+04  0.7818609E-02  0.9207792E-01
       -1   -1    0    0    0  501  0.00000000000E+00  0.00000000000E+00  0.76049130826E+03  0.76049130828E+03  0.50400001928E-02 0.  1.
        1   -1    0    0  501    0  0.00000000000E+00  0.00000000000E+00 -0.39584541731E+03  0.39584541735E+03  0.50400001928E-02 0. -1.
    10030    2    1    2    0    0  0.00000000000E+00  0.00000000000E+00  0.36464589095E+03  0.11563367256E+04  0.10973367748E+04 0.  0.
        1    1    3    3  502    0  0.34322284759E+03  0.23706920517E+03  0.55790351912E+03  0.69660610665E+03  0.50400001928E-02 0.  1.
       -1    1    3    3    0  502 -0.34322284759E+03 -0.23706920517E+03 -0.19325762818E+03  0.45973061897E+03  0.50400001928E-02 0. -1.
</event>
<event>
 5   0  0.3241189E-03  0.1117042E+04  0.7818609E-02  0.9188739E-01
        1   -1    0    0  501    0  0.00000000000E+00  0.00000000000E+00  0.65193078886E+03  0.65193078888E+03  0.50400001928E-02 0.  1.
       -1   -1    0    0    0  501  0.00000000000E+00  0.00000000000E+00 -0.47849515119E+03  0.47849515121E+03  0.50400001928E-02 0. -1.
    10030    2    1    2    0    0  0.00000000000E+00  0.00000000000E+00  0.17343563768E+03  0.11304259401E+04  0.11170420250E+04 0.  0.
        5    1    3    3  502    0 -0.77690547012E+02 -0.12793417420E+03 -0.45780035655E+03  0.48167025077E+03  0.46999998093E+01 0. -1.
       -5    1    3    3    0  502  0.77690547012E+02  0.12793417420E+03  0.63123599423E+03  0.64875568932E+03  0.46999998093E+01 0.  1.
</event>
<event>
 5   0  0.3328741E-03  0.1055210E+04  0.7818609E-02  0.9249981E-01
        1   -1    0    0  501    0  0.00000000000E+00  0.00000000000E+00  0.11299532820E+04  0.11299532820E+04  0.50400001928E-02 0. -1.
       -1   -1    0    0    0  501  0.00000000000E+00  0.00000000000E+00 -0.24635288005E+03  0.24635288010E+03  0.50400001928E-02 0.  1.
    10030    2    1    2    0    0  0.00000000000E+00  0.00000000000E+00  0.88360040198E+03  0.13763061621E+04  0.10552103968E+04 0.  0.
        3    1    3    3  502    0  0.25442883994E+03  0.27466892348E+02 -0.15998592266E+03  0.30180121010E+03  0.10100000352E+00 0.  1.
       -3    1    3    3    0  502 -0.25442883994E+03 -0.27466892348E+02  0.10435863246E+04  0.10745049520E+04  0.10100000352E+00 0. -1.
</event>
<event>
 5   0  0.5946359E-03  0.1106149E+04  0.7818609E-02  0.9199219E-01
        2   -1    0    0  501    0  0.00000000000E+00  0.00000000000E+00  0.69929950280E+03  0.69929950280E+03  0.25500000920E-02 0.  1.
       -2   -1    0    0    0  501  0.00000000000E+00  0.00000000000E+00 -0.43742560495E+03  0.43742560495E+03  0.25500000920E-02 0. -1.
    10030    2    1    2    0    0  0.00000000000E+00  0.00000000000E+00  0.26187389785E+03  0.11367251078E+04  0.11061491908E+04 0.  0.
        4    1    3    3  502    0  0.16518493374E+02 -0.19940891495E+03 -0.39892487098E+03  0.44629524037E+03  0.12699999809E+01 0. -1.
       -4    1    3    3    0  502 -0.16518493374E+02  0.19940891495E+03  0.66079876884E+03  0.69042986739E+03  0.12699999809E+01 0.  1.
</event>
<event>
 5   0  0.5723194E-03  0.1091358E+04  0.7818609E-02  0.9213656E-01
       -2   -1    0    0    0  501  0.00000000000E+00  0.00000000000E+00  0.41369664260E+03  0.41369664260E+03  0.25500000920E-02 0. -1.
        2   -1    0    0  501    0  0.00000000000E+00  0.00000000000E+00 -0.71976740586E+03  0.71976740587E+03  0.25500000920E-02 0.  1.
    10030    2    1    2    0    0  0.00000000000E+00  0.00000000000E+00 -0.30607076327E+03  0.11334640485E+04  0.10913576119E+04 0.  0.
        1    1    3    3  502    0 -0.23368712318E+03 -0.17687245788E+03  0.32501896107E+03  0.43764239166E+03  0.50400001928E-02 0. -1.
       -1    1    3    3    0  502  0.23368712318E+03  0.17687245788E+03 -0.63108972434E+03  0.69582165681E+03  0.50400001928E-02 0.  1.
</event>
<event>
 5   0  0.3316784E-03  0.1093427E+04  0.7818609E-02  0.9211623E-01
        1   -1    0    0  501    0  0.00000000000E+00  0.00000000000E+00  0.34293262515E+03  0.34293262518E+03  0.50400001928E-02 0.  1.
       -1   -1    0    0    0  501  0.00000000000E+00  0.00000000000E+00 -0.87158633474E+03  0.87158633475E+03  0.50400001928E-02 0. -1.
    10030    2    1    2    0    0  0.00000000000E+00  0.00000000000E+00 -0.52865370959E+03  0.12145189599E+04  0.10934265222E+04 0.  0.
        4    1    3    3  502    0 -0.24304005387E+03  0.73827807459E+02  0.27341039160E+03  0.37319414260E+03  0.12699999809E+01 0.  1.
       -4    1    3    3    0  502  0.24304005387E+03 -0.73827807459E+02 -0.80206410119E+03  0.84132481733E+03  0.12699999809E+01 0. -1.
</event>
<event>
 5   0  0.5941585E-03  0.1096923E+04  0.7818609E-02  0.9208196E-01
        2   -1    0    0  501    0  0.00000000000E+00  0.00000000000E+00  0.30467534754E+03  0.30467534755E+03  0.25500000920E-02 0.  1.
       -2   -1    0    0    0  501  0.00000000000E+00  0.00000000000E+00 -0.98731377870E+03  0.98731377871E+03  0.25500000920E-02 0. -1.
    10030    2    1    2    0    0  0.00000000000E+00  0.00000000000E+00 -0.68263843117E+03  0.12919891263E+04  0.10969232766E+04 0.  0.
        5    1    3    3  502    0 -0.12593562984E+03  0.48048913184E+03 -0.67468070336E+02  0.50130192418E+03  0.46999998093E+01 0. -1.
       -5    1    3    3    0  502  0.12593562984E+03 -0.48048913184E+03 -0.61517036083E+03  0.79068720207E+03  0.46999998093E+01 0.  1.
</event>
<event>
 5   0  0.3316784E-03  0.1087690E+04  0.7818609E-02  0.9217274E-01
       -1   -1    0    0    0  501  0.00000000000E+00  0.00000000000E+00  0.12996446821E+04  0.12996446821E+04  0.50400001928E-02 0. -1.
        1   -1    0    0  501    0  0.00000000000E+00  0.00000000000E+00 -0.22757553057E+03  0.22757553063E+03  0.50400001928E-02 0.  1.
    10030    2    1    2    0    0  0.00000000000E+00  0.00000000000E+00  0.10720691515E+04  0.15272202127E+04  0.10876898972E+04 0.  0.
        4    1    3    3  502    0 -0.35822642123E+03  0.38522506259E+03  0.72978546197E+03  0.89961822520E+03  0.12699999809E+01 0.  1.
       -4    1    3    3    0  502  0.35822642123E+03 -0.38522506259E+03  0.34228368955E+03  0.62760198752E+03  0.12699999809E+01 0. -1.
</event>
<event>
 5   0  0.3215352E-03  0.1106819E+04  0.7818609E-02  0.9198571E-01
        1   -1    0    0  501    0  0.00000000000E+00  0.00000000000E+00  0.71822716917E+03  0.71822716919E+03  0.50400001928E-02 0. -1.
       -1   -1    0    0    0  501  0.00000000000E+00  0.00000000000E+00 -0.42641364113E+03  0.42641364116E+03  0.50400001928E-02 0.  1.
    10030    2    1    2    0    0  0.00000000000E+00  0.00000000000E+00  0.29181352804E+03  0.11446408103E+04  0.11068186164E+04 0.  0.
        1    1    3    3  502    0  0.36191862435E+03 -0.61829807676E+02 -0.28231268387E+03  0.46315058812E+03  0.50400001928E-02 0.  1.
       -1    1    3    3    0  502 -0.36191862435E+03  0.61829807676E+02  0.57412621191E+03  0.68149022223E+03  0.50400001928E-02 0. -1.
</event>
<event>
 5   0  0.3215352E-03  0.1064655E+04  0.7818609E-02  0.9240343E-01
       -1   -1    0    0    0  501  0.00000000000E+00  0.00000000000E+00  0.22979683378E+03  0.22979683384E+03  0.50400001928E-02 0.  1.
        1   -1    0    0  501    0  0.00000000000E+00  0.00000000000E+00 -0.12331435403E+04  0.12331435403E+04  0.50400001928E-02 0. -1.
    10030    2    1    2    0    0  0.00000000000E+00  0.00000000000E+00 -0.10033467065E+04  0.14629403741E+04  0.10646548383E+04 0.  0.
        1    1    3    3  502    0  0.12337086613E+03  0.50861381585E+03 -0.63535056631E+03  0.82315170316E+03  0.50400001928E-02 0.  1.
       -1    1    3    3    0  502 -0.12337086613E+03 -0.50861381585E+03 -0.36799614019E+03  0.63978867097E+03  0.50400001928E-02 0. -1.
</event>
<event>
 5   0  0.3328741E-03  0.1230041E+04  0.7818609E-02  0.9086961E-01
        1   -1    0    0  501    0  0.00000000000E+00  0.00000000000E+00  0.16398741883E+04  0.16398741883E+04  0.50400001928E-02 0. -1.
       -1   -1    0    0    0  501  0.00000000000E+00  0.00000000000E+00 -0.23065801044E+03  0.23065801049E+03  0.50400001928E-02 0.  1.
    10030    2    1    2    0    0  0.00000000000E+00  0.00000000000E+00  0.14092161779E+04  0.18705321988E+04  0.12300408411E+04 0.  0.
        3    1    3    3  502    0  0.24556848123E+03 -0.27859277853E+03 -0.40898903442E+02  0.37361818174E+03  0.10100000352E+00 0.  1.
       -3    1    3    3    0  502 -0.24556848123E+03  0.27859277853E+03  0.14501150813E+04  0.14969140171E+04  0.10100000352E+00 0. -1.
</event>
<event>
 5   0  0.5941585E-03  0.1093050E+04  0.7818609E-02  0.9211993E-01
        2   -1    0    0  501    0  0.00000000000E+00  0.00000000000E+00  0.17266430727E+04  0.17266430727E+04  0.25500000920E-02 0. -1.
       -2   -1    0    0    0  501  0.00000000000E+00  0.00000000000E+00 -0.17298855193E+03  0.17298855195E+03  0.25500000920E-02 0.  1.
    10030    2    1    2    0    0  0.00000000000E+00  0.00000000000E+00  0.15536545208E+04  0.18996316247E+04  0.10930498339E+04 0.  0.
        5    1    3    3  502    0 -0.36397370847E+03 -0.15738731518E+03  0.14303857911E+04  0.14843426925E+04  0.46999998093E+01 0. -1.
       -5    1    3    3    0  502  0.36397370847E+03  0.15738731518E+03  0.12326872964E+03  0.41528893212E+03  0.46999998093E+01 0.  1.
</event>
<event>
 5   0  0.5723194E-03  0.1090968E+04  0.7818609E-02  0.9214040E-01
       -2   -1    0    0    0  501  0.00000000000E+00  0.00000000000E+00  0.57816309933E+03  0.57816309934E+03  0.25500000920E-02 0. -1.
        2   -1    0    0  501    0  0.00000000000E+00  0.00000000000E+00 -0.51465239137E+03  0.51465239137E+03  0.25500000920E-02 0.  1.
    10030    2    1    2    0    0  0.00000000000E+00  0.00000000000E+00  0.63510707965E+02  0.10928154907E+04  0.10909684169E+04 0.  0.
        1    1    3    3  502    0 -0.96349125472E+01  0.44367455415E+03 -0.28597732652E+03  0.52794220597E+03  0.50400001928E-02 0.  1.
       -1    1    3    3    0  502  0.96349125472E+01 -0.44367455415E+03  0.34948803449E+03  0.56487328474E+03  0.50400001928E-02 0. -1.
</event>
<event>
 5   0  0.3316784E-03  0.1079120E+04  0.7818609E-02  0.9225785E-01
        1   -1    0    0  501    0  0.00000000000E+00  0.00000000000E+00  0.57090600204E+03  0.57090600206E+03  0.50400001928E-02 0. -1.
       -1   -1    0    0    0  501  0.00000000000E+00  0.00000000000E+00 -0.50993522791E+03  0.50993522793E+03  0.50400001928E-02 0.  1.
    10030    2    1    2    0    0  0.00000000000E+00  0.00000000000E+00  0.60970774130E+02  0.10808412300E+04  0.10791201644E+04 0.  0.
        4    1    3    3  502    0  0.16190156440E+03  0.32400823329E+03  0.43103571139E+03  0.56301585163E+03  0.12699999809E+01 0. -1.
       -4    1    3    3    0  502 -0.16190156440E+03 -0.32400823329E+03 -0.37006493726E+03  0.51782537837E+03  0.12699999809E+01 0.  1.
</event>
<event>
 5   0  0.3328741E-03  0.1105091E+04  0.7818609E-02  0.9200244E-01
       -1   -1    0    0    0  501  0.00000000000E+00  0.00000000000E+00  0.21298384996E+03  0.21298385002E+03  0.50400001928E-02 0. -1.
        1   -1    0    0  501    0  0.00000000000E+00  0.00000000000E+00 -0.14334724805E+04  0.14334724805E+04  0.50400001928E-02 0.  1.
    10030    2    1    2    0    0  0.00000000000E+00  0.00000000000E+00 -0.12204886305E+04  0.16464563305E+04  0.11050909243E+04 0.  0.
        3    1    3    3  502    0 -0.30441186457E+01  0.68773857486E+02  0.20656958116E+03  0.21773863275E+03  0.10100000352E+00 0. -1.
       -3    1    3    3    0  502  0.30441186457E+01 -0.68773857486E+02 -0.14270582117E+04  0.14287176977E+04  0.10100000352E+00 0.  1.
</event>
<event>
 5   0  0.5941585E-03  0.1102075E+04  0.7818609E-02  0.9203172E-01
        2   -1    0    0  501    0  0.00000000000E+00  0.00000000000E+00  0.15992523404E+04  0.15992523404E+04  0.25500000920E-02 0.  1.
       -2   -1    0    0    0  501  0.00000000000E+00  0.00000000000E+00 -0.18986516873E+03  0.18986516875E+03  0.25500000920E-02 0. -1.
    10030    2    1    2    0    0  0.00000000000E+00  0.00000000000E+00  0.14093871717E+04  0.17891175092E+04  0.11020749802E+04 0.  0.
        5    1    3    3  502    0 -0.81410368618E+02  0.20438489271E+03 -0.11543992706E+03  0.24849406279E+03  0.46999998093E+01 0. -1.
       -5    1    3    3    0  502  0.81410368618E+02 -0.20438489271E+03  0.15248270987E+04  0.15406234464E+04  0.46999998093E+01 0.  1.
</event>
<event>
 5   0  0.3328741E-03  0.1101217E+04  0.7818609E-02  0.9204007E-01
        1   -1    0    0  501    0  0.00000000000E+00  0.00000000000E+00  0.89826562308E+03  0.89826562310E+03  0.50400001928E-02 0.  1.
       -1   -1    0    0    0  501  0.00000000000E+00  0.00000000000E+00 -0.33750544486E+03  0.33750544490E+03  0.50400001928E-02 0. -1.
    10030    2    1    2    0    0  0.00000000000E+00  0.00000000000E+00  0.56076017822E+03  0.12357710680E+04  0.11012166703E+04 0.  0.
        3    1    3    3  502    0 -0.49068805988E+03 -0.24563014363E+03  0.33132032286E+03  0.64100086280E+03  0.10100000352E+00 0.  1.
       -3    1    3    3    0  502  0.49068805988E+03  0.24563014363E+03  0.22943985536E+03  0.59477020520E+03  0.10100000352E+00 0. -1.
</event>
<event>
 5   0  0.3328741E-03  0.1100405E+04  0.7818609E-02  0.9204797E-01
        1   -1    0    0  501    0  0.00000000000E+00  0.00000000000E+00  0.81584144457E+03  0.81584144458E+03  0.50400001928E-02 0. -1.
       -1   -1    0    0    0  501  0.00000000000E+00  0.00000000000E+00 -0.37105573981E+03  0.37105573984E+03  0.50400001928E-02 0.  1.
    10030    2    1    2    0    0  0.00000000000E+00  0.00000000000E+00  0.44478570476E+03  0.11868971844E+04  0.11004047452E+04 0.  0.
        3    1    3    3  502    0 -0.54029861618E+03 -0.86166499853E+02  0.28505741301E+03  0.61693192433E+03  0.10100000352E+00 0. -1.
       -3    1    3    3    0  502  0.54029861618E+03  0.86166499853E+02  0.15972829175E+03  0.56996526010E+03  0.10100000352E+00 0.  1.
</event>
<event>
 5   0  0.5946359E-03  0.1118104E+04  0.7818609E-02  0.9187724E-01
       -2   -1    0    0    0  501  0.00000000000E+00  0.00000000000E+00  0.24459556815E+03  0.24459556816E+03  0.25500000920E-02 0.  1.
        2   -1    0    0  501    0  0.00000000000E+00  0.00000000000E+00 -0.12777785926E+04  0.12777785927E+04  0.25500000920E-02 0. -1.
    10030    2    1    2    0    0  0.00000000000E+00  0.00000000000E+00 -0.10331830245E+04  0.15223741608E+04  0.11181037176E+04 0.  0.
        4    1    3    3  502    0 -0.51331676118E+03  0.18894142520E+03 -0.35930590754E+03  0.65444274582E+03  0.12699999809E+01 0.  1.
       -4    1    3    3    0  502  0.51331676118E+03 -0.18894142520E+03 -0.67387711696E+03  0.86793141499E+03  0.12699999809E+01 0. -1.
</event>
<event>
 5   0  0.5627232E-03  0.1102915E+04  0.7818609E-02  0.9202356E-01
        2   -1    0    0  501    0  0.00000000000E+00  0.00000000000E+00  0.69801496734E+03  0.69801496734E+03  0.25500000920E-02 0. -1.
       -2   -1    0    0    0  501  0.00000000000E+00  0.00000000000E+00 -0.43567140866E+03  0.43567140866E+03  0.25500000920E-02 0.  1.
    10030    2    1    2    0    0  0.00000000000E+00  0.00000000000E+00  0.26234355868E+03  0.11336863760E+04  0.11029146188E+04 0.  0.
        2    1    3    3  502    0 -0.43706322191E+03  0.88291272706E+02  0.46470218401E+03  0.64402463354E+03  0.25500000920E-02 0. -1.
       -2    1    3    3    0  502  0.43706322191E+03 -0.88291272706E+02 -0.20235862533E+03  0.48966174246E+03  0.25500000920E-02 0.  1.
</event>
<event>
 5   0  0.3320192E-03  0.1088344E+04  0.7818609E-02  0.9216627E-01
       -1   -1    0    0    0  501  0.00000000000E+00  0.00000000000E+00  0.37544347039E+03  0.37544347042E+03  0.50400001928E-02 0. -1.
        1   -1    0    0  501    0  0.00000000000E+00  0.00000000000E+00 -0.78872972412E+03  0.78872972413E+03  0.50400001928E-02 0.  1.
    10030    2    1    2    0    0  0.00000000000E+00  0.00000000000E+00 -0.41328625373E+03  0.11641731946E+04  0.10883444764E+04 0.  0.
        2    1    3    3  502    0 -0.25159179804E+03 -0.11442445433E+03  0.29477254983E+03  0.40408197773E+03  0.25500000920E-02 0. -1.
       -2    1    3    3    0  502  0.25159179804E+03  0.11442445433E+03 -0.70805880356E+03  0.76009121682E+03  0.25500000920E-02 0.  1.
</event>
<event>
 5   0  0.5627232E-03  0.1097162E+04  0.7818609E-02  0.9207962E-01
       -2   -1    0    0    0  501  0.00000000000E+00  0.00000000000E+00  0.28417522382E+03  0.28417522383E+03  0.25500000920E-02 0. -1.
        2   -1    0    0  501    0  0.00000000000E+00  0.00000000000E+00 -0.10589993666E+04  0.10589993666E+04  0.25500000920E-02 0.  1.
    10030    2    1    2    0    0  0.00000000000E+00  0.00000000000E+00 -0.77482414273E+03  0.13431745904E+04  0.10971624894E+04 0.  0.
        2    1    3    3  502    0 -0.35975032075E+03  0.19431687949E+03  0.60330054034E+02  0.41330262322E+03  0.25500000920E-02 0. -1.
       -2    1    3    3    0  502  0.35975032075E+03 -0.19431687949E+03 -0.83515419677E+03  0.92987196716E+03  0.25500000920E-02 0.  1.
</event>
<event>
 5   0  0.3320192E-03  0.1105580E+04  0.7818609E-02  0.9199770E-01
       -1   -1    0    0    0  501  0.00000000000E+00  0.00000000000E+00  0.26037293176E+03  0.26037293181E+03  0.50400001928E-02 0. -1.
        1   -1    0    0  501    0  0.00000000000E+00  0.00000000000E+00 -0.11736117130E+04  0.11736117130E+04  0.50400001928E-02 0.  1.
    10030    2    1    2    0    0  0.00000000000E+00  0.00000000000E+00 -0.91323878122E+03  0.14339846448E+04  0.11055798886E+04 0.  0.
        2    1    3    3  502    0  0.51542238480E+03  0.19556736005E+03 -0.40361656675E+03  0.68323726482E+03  0.25500000920E-02 0. -1.
       -2    1    3    3    0  502 -0.51542238480E+03 -0.19556736005E+03 -0.50962221446E+03  0.75074737998E+03  0.25500000920E-02 0.  1.
</event>
<event>
 5   0  0.2185750E-03  0.1023497E+04  0.7818609E-02  0.9283142E-01
        3   -1    0    0  501    0  0.00000000000E+00  0.00000000000E+00  0.18942249358E+03  0.18942252050E+03  0.10100000352E+00 0. -1.
       -3   -1    0    0    0  501  0.00000000000E+00  0.00000000000E+00 -0.13825529720E+04  0.13825529757E+04  0.10100000352E+00 0.  1.
    10030    2    1    2    0    0  0.00000000000E+00  0.00000000000E+00 -0.11931304785E+04  0.15719754962E+04  0.10234972507E+04 0.  0.
        4    1    3    3  502    0  0.27720561991E+03 -0.26373229540E+03 -0.74618336711E+02  0.38982969156E+03  0.12699999809E+01 0. -1.
       -4    1    3    3    0  502 -0.27720561991E+03  0.26373229540E+03 -0.11185121418E+04  0.11821458047E+04  0.12699999809E+01 0.  1.
</event>
<event>
 5   0  0.3215352E-03  0.1104157E+04  0.7818609E-02  0.9201150E-01
        1   -1    0    0  501    0  0.00000000000E+00  0.00000000000E+00  0.78360414313E+03  0.78360414315E+03  0.50400001928E-02 0. -1.
       -1   -1    0    0    0  501  0.00000000000E+00  0.00000000000E+00 -0.38895996067E+03  0.38895996071E+03  0.50400001928E-02 0.  1.
    10030    2    1    2    0    0  0.00000000000E+00  0.00000000000E+00  0.39464418246E+03  0.11725641039E+04  0.11041569394E+04 0.  0.
        1    1    3    3  502    0  0.53986626621E+03  0.36120333847E+02  0.31380047378E+03  0.62548461314E+03  0.50400001928E-02 0.  1.
       -1    1    3    3    0  502 -0.53986626621E+03 -0.36120333847E+02  0.80843708683E+02  0.54707949072E+03  0.50400001928E-02 0. -1.
</event>
<event>
 5   0  0.5627232E-03  0.1103720E+04  0.7818609E-02  0.9201574E-01
        2   -1    0    0  501    0  0.00000000000E+00  0.00000000000E+00  0.31618973368E+03  0.31618973369E+03  0.25500000920E-02 0.  1.
       -2   -1    0    0    0  501  0.00000000000E+00  0.00000000000E+00 -0.96318599113E+03  0.96318599113E+03  0.25500000920E-02 0. -1.
    10030    2    1    2    0    0  0.00000000000E+00  0.00000000000E+00 -0.64699625745E+03  0.12793757248E+04  0.11037201131E+04 0.  0.
        2    1    3    3  502    0  0.10438300555E+03  0.47667388151E+03 -0.62227018431E+03  0.79078061651E+03  0.25500000920E-02 0. -1.
       -2    1    3    3    0  502 -0.10438300555E+03 -0.47667388151E+03 -0.24726073141E+02  0.48859510831E+03  0.25500000920E-02 0.  1.
</event>
<event>
 5   0  0.5946359E-03  0.1096584E+04  0.7818609E-02  0.9208528E-01
        2   -1    0    0  501    0  0.00000000000E+00  0.00000000000E+00  0.12070726722E+04  0.12070726722E+04  0.25500000920E-02 0. -1.
       -2   -1    0    0    0  501  0.00000000000E+00  0.00000000000E+00 -0.24905222251E+03  0.24905222253E+03  0.25500000920E-02 0.  1.
    10030    2    1    2    0    0  0.00000000000E+00  0.00000000000E+00  0.95802044966E+03  0.14561248947E+04  0.10965840264E+04 0.  0.
        4    1    3    3  502    0  0.11294059758E+03 -0.51882327608E+03  0.29747797407E+03  0.60862790631E+03  0.12699999809E+01 0.  1.
       -4    1    3    3    0  502 -0.11294059758E+03  0.51882327608E+03  0.66054247559E+03  0.84749698840E+03  0.12699999809E+01 0. -1.
</event>
<event>
 5   0  0.5723194E-03  0.1061895E+04  0.7818609E-02  0.9243149E-01
        2   -1    0    0  501    0  0.00000000000E+00  0.00000000000E+00  0.52622817089E+03  0.52622817089E+03  0.25500000920E-02 0. -1.
       -2   -1    0    0    0  501  0.00000000000E+00  0.00000000000E+00 -0.53570882567E+03  0.53570882567E+03  0.25500000920E-02 0.  1.
    10030    2    1    2    0    0  0.00000000000E+00  0.00000000000E+00 -0.94806547822E+01  0.10619369966E+04  0.10618946755E+04 0.  0.
        1    1    3    3  502    0 -0.37631746537E+03 -0.15252363820E+03  0.33736507846E+03  0.52791428390E+03  0.50400001928E-02 0. -1.
       -1    1    3    3    0  502  0.37631746537E+03  0.15252363820E+03 -0.34684573325E+03  0.53402271267E+03  0.50400001928E-02 0.  1.
</event>
<event>
 5   0  0.5723194E-03  0.1098294E+04  0.7818609E-02  0.9206856E-01
       -2   -1    0    0    0  501  0.00000000000E+00  0.00000000000E+00  0.21135821508E+03  0.21135821510E+03  0.25500000920E-02 0. -1.
        2   -1    0    0  501    0  0.00000000000E+00  0.00000000000E+00 -0.14267831146E+04  0.14267831146E+04  0.25500000920E-02 0.  1.
    10030    2    1    2    0    0  0.00000000000E+00  0.00000000000E+00 -0.12154248995E+04  0.16381413297E+04  0.10982938267E+04 0.  0.
        1    1    3    3  502    0  0.21469979156E+03 -0.44482939649E+03 -0.24976588133E+03  0.55349091048E+03  0.50400001928E-02 0. -1.
       -1    1    3    3    0  502 -0.21469979156E+03  0.44482939649E+03 -0.96565901822E+03  0.10846504192E+04  0.50400001928E-02 0.  1.
</event>
<event>
 5   0  0.3320192E-03  0.1103849E+04  0.7818609E-02  0.9201449E-01
        1   -1    0    0  501    0  0.00000000000E+00  0.00000000000E+00  0.32379601226E+03  0.32379601230E+03  0.50400001928E-02 0.  1.
       -1   -1    0    0    0  501  0.00000000000E+00  0.00000000000E+00 -0.94077927151E+03  0.94077927152E+03  0.50400001928E-02 0. -1.
    10030    2    1    2    0    0  0.00000000000E+00  0.00000000000E+00 -0.61698325925E+03  0.12645752838E+04  0.11038488602E+04 0.  0.
        2    1    3    3  502    0  0.46763854620E+03 -0.42443664770E+02 -0.64078298465E+03  0.79441180001E+03  0.25500000920E-02 0. -1.
       -2    1    3    3    0  502 -0.46763854620E+03  0.42443664770E+02  0.23799725406E+02  0.47016348381E+03  0.25500000920E-02 0.  1.
</event>
<event>
 5   0  0.2185750E-03  0.1095065E+04  0.7818609E-02  0.9210015E-01
        4   -1    0    0  501    0  0.00000000000E+00  0.00000000000E+00  0.33696871099E+03  0.33697110423E+03  0.12699999809E+01 0. -1.
       -4   -1    0    0    0  501  0.00000000000E+00  0.00000000000E+00 -0.88966669652E+03  0.88966760298E+03  0.12699999809E+01 0.  1.
    10030    2    1    2    0    0  0.00000000000E+00  0.00000000000E+00 -0.55269798553E+03  0.12266387072E+04  0.10950650459E+04 0.  0.
        3    1    3    3  502    0 -0.18451762498E+03 -0.63190819609E+02 -0.84943759235E+03  0.87154120219E+03  0.10100000352E+00 0.  1.
       -3    1    3    3    0  502  0.18451762498E+03  0.63190819609E+02  0.29673960682E+03  0.35509750502E+03  0.10100000352E+00 0. -1.
</event>
<event>
 5   0  0.5723194E-03  0.1098792E+04  0.7818609E-02  0.9206370E-01
       -2   -1    0    0    0  501  0.00000000000E+00  0.00000000000E+00  0.18501214661E+03  0.18501214663E+03  0.25500000920E-02 0. -1.
        2   -1    0    0  501    0  0.00000000000E+00  0.00000000000E+00 -0.16314384340E+04  0.16314384340E+04  0.25500000920E-02 0.  1.
    10030    2    1    2    0    0  0.00000000000E+00  0.00000000000E+00 -0.14464262873E+04  0.18164505806E+04  0.10987919307E+04 0.  0.
        1    1    3    3  502    0 -0.24844783386E+03  0.19266669583E+03 -0.14680214859E+04  0.15013107157E+04  0.50400001928E-02 0.  1.
       -1    1    3    3    0  502  0.24844783386E+03 -0.19266669583E+03  0.21595198571E+02  0.31513986492E+03  0.50400001928E-02 0. -1.
</event>
<event>
 5   0  0.5941585E-03  0.1139509E+04  0.7818609E-02  0.9167517E-01
       -2   -1    0    0    0  501  0.00000000000E+00  0.00000000000E+00  0.14472649890E+03  0.14472649892E+03  0.25500000920E-02 0. -1.
        2   -1    0    0  501    0  0.00000000000E+00  0.00000000000E+00 -0.22429916103E+04  0.22429916103E+04  0.25500000920E-02 0.  1.
    10030    2    1    2    0    0  0.00000000000E+00  0.00000000000E+00 -0.20982651114E+04  0.23877181092E+04  0.11395092327E+04 0.  0.
        5    1    3    3  502    0  0.36252146240E+03  0.28836175728E+03 -0.17441708928E+04  0.18046408250E+04  0.46999998093E+01 0.  1.
       -5    1    3    3    0  502 -0.36252146240E+03 -0.28836175728E+03 -0.35409421855E+03  0.58307728422E+03  0.46999998093E+01 0. -1.
</event>
<event>
 5   0  0.5946359E-03  0.1015950E+04  0.7818609E-02  0.9291222E-01
       -2   -1    0    0    0  501  0.00000000000E+00  0.00000000000E+00  0.44461287283E+03  0.44461287284E+03  0.25500000920E-02 0. -1.
        2   -1    0    0  501    0  0.00000000000E+00  0.00000000000E+00 -0.58036703604E+03  0.58036703605E+03  0.25500000920E-02 0.  1.
    10030    2    1    2    0    0  0.00000000000E+00  0.00000000000E+00 -0.13575416321E+03  0.10249799089E+04  0.10159501074E+04 0.  0.
        4    1    3    3  502    0  0.47512896500E+03 -0.14396033270E+03  0.40619112727E+02  0.49812010197E+03  0.12699999809E+01 0. -1.
       -4    1    3    3    0  502 -0.47512896500E+03  0.14396033270E+03 -0.17637327594E+03  0.52685980691E+03  0.12699999809E+01 0.  1.
</event>
<event>
 5   0  0.3215352E-03  0.1063653E+04  0.7818609E-02  0.9241360E-01
        1   -1    0    0  501    0  0.00000000000E+00  0.00000000000E+00  0.38874685716E+03  0.38874685719E+03  0.50400001928E-02 0. -1.
       -1   -1    0    0    0  501  0.00000000000E+00  0.00000000000E+00 -0.72756750487E+03  0.72756750489E+03  0.50400001928E-02 0.  1.
    10030    2    1    2    0    0  0.00000000000E+00  0.00000000000E+00 -0.33882064771E+03  0.11163143621E+04  0.10636532911E+04 0.  0.
        1    1    3    3  502    0 -0.42735350214E+03  0.31537055953E+03 -0.14066879289E+03  0.54943363105E+03  0.50400001928E-02 0.  1.
       -1    1    3    3    0  502  0.42735350214E+03 -0.31537055953E+03 -0.19815185482E+03  0.56688073103E+03  0.50400001928E-02 0. -1.
</event>
<event>
 5   0  0.5500363E-03  0.1107064E+04  0.7818609E-02  0.9198334E-01
        2   -1    0    0  501    0  0.00000000000E+00  0.00000000000E+00  0.82445825463E+03  0.82445825463E+03  0.25500000920E-02 0.  1.
       -2   -1    0    0    0  501  0.00000000000E+00  0.00000000000E+00 -0.37163519397E+03  0.37163519397E+03  0.25500000920E-02 0. -1.
    10030    2    1    2    0    0  0.00000000000E+00  0.00000000000E+00  0.45282306066E+03  0.11960934486E+04  0.11070640512E+04 0.  0.
        3    1    3    3  502    0 -0.41611928405E+03 -0.23990409629E+03 -0.70828430416E+02  0.48551612819E+03  0.10100000352E+00 0. -1.
       -3    1    3    3    0  502  0.41611928405E+03  0.23990409629E+03  0.52365149108E+03  0.71057732041E+03  0.10100000352E+00 0.  1.
</event>
<event>
 5   0  0.5723194E-03  0.1109869E+04  0.7818609E-02  0.9195626E-01
       -2   -1    0    0    0  501  0.00000000000E+00  0.00000000000E+00  0.43075024129E+03  0.43075024130E+03  0.25500000920E-02 0.  1.
        2   -1    0    0  501    0  0.00000000000E+00  0.00000000000E+00 -0.71492032419E+03  0.71492032419E+03  0.25500000920E-02 0. -1.
    10030    2    1    2    0    0  0.00000000000E+00  0.00000000000E+00 -0.28417008290E+03  0.11456705655E+04  0.11098686448E+04 0.  0.
        1    1    3    3  502    0 -0.54420948945E+03 -0.48731395043E+02 -0.41932706075E+02  0.54799367618E+03  0.50400001928E-02 0.  1.
       -1    1    3    3    0  502  0.54420948945E+03  0.48731395043E+02 -0.24223737682E+03  0.59767688932E+03  0.50400001928E-02 0. -1.
</event>
<event>
 5   0  0.3316784E-03  0.1115811E+04  0.7818609E-02  0.9189917E-01
       -1   -1    0    0    0  501  0.00000000000E+00  0.00000000000E+00  0.33142997916E+03  0.33142997920E+03  0.50400001928E-02 0.  1.
        1   -1    0    0  501    0  0.00000000000E+00  0.00000000000E+00 -0.93913840810E+03  0.93913840812E+03  0.50400001928E-02 0. -1.
    10030    2    1    2    0    0  0.00000000000E+00  0.00000000000E+00 -0.60770842894E+03  0.12705683873E+04  0.11158111365E+04 0.  0.
        4    1    3    3  502    0  0.38261976608E+03 -0.11082100470E+03 -0.74864222332E+03  0.84802474723E+03  0.12699999809E+01 0. -1.
       -4    1    3    3    0  502 -0.38261976608E+03  0.11082100470E+03  0.14093379438E+03  0.42254364008E+03  0.12699999809E+01 0.  1.
</event>
<event>
 5   0  0.5500363E-03  0.1239876E+04  0.7818609E-02  0.9078652E-01
        2   -1    0    0  501    0  0.00000000000E+00  0.00000000000E+00  0.27633058954E+03  0.27633058955E+03  0.25500000920E-02 0.  1.
       -2   -1    0    0    0  501  0.00000000000E+00  0.00000000000E+00 -0.13908089576E+04  0.13908089576E+04  0.25500000920E-02 0. -1.
    10030    2    1    2    0    0  0.00000000000E+00  0.00000000000E+00 -0.11144783680E+04  0.16671395471E+04  0.12398758957E+04 0.  0.
        3    1    3    3  502    0 -0.12975698237E+01 -0.51568743342E+03 -0.94594817302E+02  0.52429324079E+03  0.10100000352E+00 0.  1.
       -3    1    3    3    0  502  0.12975698237E+01  0.51568743342E+03 -0.10198835507E+04  0.11428463063E+04  0.10100000352E+00 0. -1.
</event>
<event>
 5   0  0.5723194E-03  0.1117206E+04  0.7818609E-02  0.9188582E-01
        2   -1    0    0  501    0  0.00000000000E+00  0.00000000000E+00  0.62058604129E+03  0.62058604129E+03  0.25500000920E-02 0. -1.
       -2   -1    0    0    0  501  0.00000000000E+00  0.00000000000E+00 -0.50281077035E+03  0.50281077035E+03  0.25500000920E-02 0.  1.
    10030    2    1    2    0    0  0.00000000000E+00  0.00000000000E+00  0.11777527094E+03  0.11233968116E+04  0.11172060607E+04 0.  0.
        1    1    3    3  502    0 -0.46001103832E+02  0.55607032066E+03  0.85625248332E+02  0.56450153786E+03  0.50400001928E-02 0.  1.
       -1    1    3    3    0  502  0.46001103832E+02 -0.55607032066E+03  0.32150022605E+02  0.55889527378E+03  0.50400001928E-02 0. -1.
</event>
<event>
 5   0  0.3320192E-03  0.8272399E+03  0.7818609E-02  0.9521404E-01
        1   -1    0    0  501    0  0.00000000000E+00  0.00000000000E+00  0.13008386004E+04  0.13008386004E+04  0.50400001928E-02 0. -1.
       -1   -1    0    0    0  501  0.00000000000E+00  0.00000000000E+00 -0.13151629127E+03  0.13151629137E+03  0.50400001928E-02 0.  1.
    10030    2    1    2    0    0  0.00000000000E+00  0.00000000000E+00  0.11693223091E+04  0.14323548918E+04  0.82723991282E+03 0.  0.
        2    1    3    3  502    0  0.39330462958E+03  0.12412778542E+03  0.63900969369E+03  0.76054561165E+03  0.25500000920E-02 0. -1.
       -2    1    3    3    0  502 -0.39330462958E+03 -0.12412778542E+03  0.53031261545E+03  0.67180928014E+03  0.25500000920E-02 0.  1.
</event>
<event>
 5   0  0.5941585E-03  0.1097352E+04  0.7818609E-02  0.9207777E-01
       -2   -1    0    0    0  501  0.00000000000E+00  0.00000000000E+00  0.20072170879E+03  0.20072170880E+03  0.25500000920E-02 0.  1.
        2   -1    0    0  501    0  0.00000000000E+00  0.00000000000E+00 -0.14998145069E+04  0.14998145069E+04  0.25500000920E-02 0. -1.
    10030    2    1    2    0    0  0.00000000000E+00  0.00000000000E+00 -0.12990927981E+04  0.17005362157E+04  0.10973519594E+04 0.  0.
        5    1    3    3  502    0 -0.50576731414E+03  0.10279168797E+03 -0.36105524407E+03  0.62988069223E+03  0.46999998093E+01 0.  1.
       -5    1    3    3    0  502  0.50576731414E+03 -0.10279168797E+03 -0.93803755405E+03  0.10706555235E+04  0.46999998093E+01 0. -1.
</event>
<event>
 5   0  0.3215352E-03  0.1081980E+04  0.7818609E-02  0.9222935E-01
       -1   -1    0    0    0  501  0.00000000000E+00  0.00000000000E+00  0.35743416527E+03  0.35743416531E+03  0.50400001928E-02 0.  1.
        1   -1    0    0  501    0  0.00000000000E+00  0.00000000000E+00 -0.81880894271E+03  0.81880894272E+03  0.50400001928E-02 0. -1.
    10030    2    1    2    0    0  0.00000000000E+00  0.00000000000E+00 -0.46137477744E+03  0.11762431080E+04  0.10819802050E+04 0.  0.
        1    1    3    3  502    0 -0.46750908496E+03  0.27216480902E+03 -0.22455086692E+03  0.58571453767E+03  0.50400001928E-02 0.  1.
       -1    1    3    3    0  502  0.46750908496E+03 -0.27216480902E+03 -0.23682391052E+03  0.59052857035E+03  0.50400001928E-02 0. -1.
</event>
<event>
 5   0  0.5723194E-03  0.1099415E+04  0.7818609E-02  0.9205762E-01
       -2   -1    0    0    0  501  0.00000000000E+00  0.00000000000E+00  0.40607461044E+03  0.40607461044E+03  0.25500000920E-02 0.  1.
        2   -1    0    0  501    0  0.00000000000E+00  0.00000000000E+00 -0.74414474619E+03  0.74414474619E+03  0.25500000920E-02 0. -1.
    10030    2    1    2    0    0  0.00000000000E+00  0.00000000000E+00 -0.33807013575E+03  0.11502193566E+04  0.10994149133E+04 0.  0.
        1    1    3    3  502    0  0.97925160588E+01 -0.49232826568E+03 -0.42465164831E+03  0.65023998416E+03  0.50400001928E-02 0. -1.
       -1    1    3    3    0  502 -0.97925160588E+01  0.49232826568E+03  0.86581512555E+02  0.49997937248E+03  0.50400001928E-02 0.  1.
</event>
<event>
 5   0  0.5627232E-03  0.1101301E+04  0.7818609E-02  0.9203924E-01
       -2   -1    0    0    0  501  0.00000000000E+00  0.00000000000E+00  0.30074562155E+03  0.30074562156E+03  0.25500000920E-02 0. -1.
        2   -1    0    0  501    0  0.00000000000E+00  0.00000000000E+00 -0.10082149239E+04  0.10082149239E+04  0.25500000920E-02 0.  1.
    10030    2    1    2    0    0  0.00000000000E+00  0.00000000000E+00 -0.70746930236E+03  0.13089605455E+04  0.11013014555E+04 0.  0.
        2    1    3    3  502    0 -0.56883653497E+01  0.11159642364E+03  0.28712856570E+03  0.30810539190E+03  0.25500000920E-02 0. -1.
       -2    1    3    3    0  502  0.56883653497E+01 -0.11159642364E+03 -0.99459786806E+03  0.10008551536E+04  0.25500000920E-02 0.  1.
</event>
<event>
 5   0  0.3241189E-03  0.1104367E+04  0.7818609E-02  0.9200946E-01
        1   -1    0    0  501    0  0.00000000000E+00  0.00000000000E+00  0.53560627253E+03  0.53560627255E+03  0.50400001928E-02 0. -1.
       -1   -1    0    0    0  501  0.00000000000E+00  0.00000000000E+00 -0.56927375062E+03  0.56927375065E+03  0.50400001928E-02 0.  1.
    10030    2    1    2    0    0  0.00000000000E+00  0.00000000000E+00 -0.33667478095E+02  0.11048800232E+04  0.11043669529E+04 0.  0.
        5    1    3    3  502    0  0.63162411497E+02 -0.29031127020E+03  0.44880098407E+03  0.53825136984E+03  0.46999998093E+01 0. -1.
       -5    1    3    3    0  502 -0.63162411497E+02  0.29031127020E+03 -0.48246846216E+03  0.56662865336E+03  0.46999998093E+01 0.  1.
</event>
<event>
 5   0  0.3328741E-03  0.1107213E+04  0.7818609E-02  0.9198190E-01
        1   -1    0    0  501    0  0.00000000000E+00  0.00000000000E+00  0.14539966479E+04  0.14539966479E+04  0.50400001928E-02 0.  1.
       -1   -1    0    0    0  501  0.00000000000E+00  0.00000000000E+00 -0.21078472808E+03  0.21078472814E+03  0.50400001928E-02 0. -1.
    10030    2    1    2    0    0  0.00000000000E+00  0.00000000000E+00  0.12432119198E+04  0.16647813760E+04  0.11072132371E+04 0.  0.
        3    1    3    3  502    0 -0.15065723332E+03 -0.13049671578E+03 -0.15496442814E+03  0.25246975853E+03  0.10100000352E+00 0. -1.
       -3    1    3    3    0  502  0.15065723332E+03  0.13049671578E+03  0.13981763479E+04  0.14123116175E+04  0.10100000352E+00 0.  1.
</event>
<event>
 5   0  0.5500363E-03  0.1103250E+04  0.7818609E-02  0.9202030E-01
        2   -1    0    0  501    0  0.00000000000E+00  0.00000000000E+00  0.13184808500E+04  0.13184808500E+04  0.25500000920E-02 0.  1.
       -2   -1    0    0    0  501  0.00000000000E+00  0.00000000000E+00 -0.23078840972E+03  0.23078840973E+03  0.25500000920E-02 0. -1.
    10030    2    1    2    0    0  0.00000000000E+00  0.00000000000E+00  0.10876924403E+04  0.15492692597E+04  0.11032499239E+04 0.  0.
        3    1    3    3  502    0 -0.29741586263E+03 -0.94014741222E+02  0.11827464622E+04  0.12231860737E+04  0.10100000352E+00 0.  1.
       -3    1    3    3    0  502  0.29741586263E+03  0.94014741222E+02 -0.95054021921E+02  0.32608318601E+03  0.10100000352E+00 0. -1.
</event>
<event>
 5   0  0.5941585E-03  0.1093768E+04  0.7818609E-02  0.9211288E-01
        2   -1    0    0  501    0  0.00000000000E+00  0.00000000000E+00  0.94272632336E+03  0.94272632336E+03  0.25500000920E-02 0.  1.
       -2   -1    0    0    0  501  0.00000000000E+00  0.00000000000E+00 -0.31725205133E+03  0.31725205134E+03  0.25500000920E-02 0. -1.
    10030    2    1    2    0    0  0.00000000000E+00  0.00000000000E+00  0.62547427203E+03  0.12599783747E+04  0.10937675438E+04 0.  0.
        5    1    3    3  502    0 -0.12005431715E+03  0.39301894099E+03 -0.10290056587E+03  0.42365970247E+03  0.46999998093E+01 0. -1.
       -5    1    3    3    0  502  0.12005431715E+03 -0.39301894099E+03  0.72837483790E+03  0.83631867223E+03  0.46999998093E+01 0.  1.
</event>
<event>
 5   0  0.3241189E-03  0.1144315E+04  0.7818609E-02  0.9163044E-01
        1   -1    0    0  501    0  0.00000000000E+00  0.00000000000E+00  0.41047260009E+03  0.41047260012E+03  0.50400001928E-02 0. -1.
       -1   -1    0    0    0  501  0.00000000000E+00  0.00000000000E+00 -0.79753011404E+03  0.79753011405E+03  0.50400001928E-02 0.  1.
    10030    2    1    2    0    0  0.00000000000E+00  0.00000000000E+00 -0.38705751395E+03  0.12080027142E+04  0.11443150957E+04 0.  0.
        5    1    3    3  502    0 -0.53550341445E+03 -0.32884561118E+02 -0.40332785370E+03  0.67122332261E+03  0.46999998093E+01 0.  1.
       -5    1    3    3    0  502  0.53550341445E+03  0.32884561118E+02  0.16270339754E+02  0.53677939156E+03  0.46999998093E+01 0. -1.
</event>
<event>
 5   0  0.5723194E-03  0.1037138E+04  0.7818609E-02  0.9268725E-01
        2   -1    0    0  501    0  0.00000000000E+00  0.00000000000E+00  0.21153023256E+04  0.21153023256E+04  0.25500000920E-02 0. -1.
       -2   -1    0    0    0  501  0.00000000000E+00  0.00000000000E+00 -0.12712786394E+03  0.12712786397E+03  0.25500000920E-02 0.  1.
    10030    2    1    2    0    0  0.00000000000E+00  0.00000000000E+00  0.19881744617E+04  0.22424301896E+04  0.10371381129E+04 0.  0.
        1    1    3    3  502    0  0.42580678553E+03 -0.16061589822E+03  0.45656791431E+03  0.64464187403E+03  0.50400001928E-02 0.  1.
       -1    1    3    3    0  502 -0.42580678553E+03  0.16061589822E+03  0.15316065474E+04  0.15977883156E+04  0.50400001928E-02 0. -1.
</event>
<event>
 5   0  0.3215352E-03  0.1091758E+04  0.7818609E-02  0.9213263E-01
        1   -1    0    0  501    0  0.00000000000E+00  0.00000000000E+00  0.58006073119E+03  0.58006073121E+03  0.50400001928E-02 0.  1.
       -1   -1    0    0    0  501  0.00000000000E+00  0.00000000000E+00 -0.51371119873E+03  0.51371119876E+03  0.50400001928E-02 0. -1.
    10030    2    1    2    0    0  0.00000000000E+00  0.00000000000E+00  0.66349532455E+02  0.10937719300E+04  0.10917576537E+04 0.  0.
        1    1    3    3  502    0 -0.16049328039E+02 -0.43431170570E+03 -0.29773670224E+03  0.52681247378E+03  0.50400001928E-02 0. -1.
       -1    1    3    3    0  502  0.16049328039E+02  0.43431170570E+03  0.36408623470E+03  0.56695945619E+03  0.50400001928E-02 0.  1.
</event>
<event>
 5   0  0.5500363E-03  0.1095346E+04  0.7818609E-02  0.9209740E-01
        2   -1    0    0  501    0  0.00000000000E+00  0.00000000000E+00  0.88350640645E+03  0.88350640646E+03  0.25500000920E-02 0. -1.
       -2   -1    0    0    0  501  0.00000000000E+00  0.00000000000E+00 -0.33949436385E+03  0.33949436386E+03  0.25500000920E-02 0.  1.
    10030    2    1    2    0    0  0.00000000000E+00  0.00000000000E+00  0.54401204261E+03  0.12230007703E+04  0.10953455079E+04 0.  0.
        3    1    3    3  502    0  0.52649937012E+03 -0.17921242496E+01  0.44038075033E+03  0.68639639707E+03  0.10100000352E+00 0. -1.
       -3    1    3    3    0  502 -0.52649937012E+03  0.17921242496E+01  0.10363129228E+03  0.53660437325E+03  0.10100000352E+00 0.  1.
</event>
<event>
 5   0  0.5946359E-03  0.1047786E+04  0.7818609E-02  0.9257633E-01
        2   -1    0    0  501    0  0.00000000000E+00  0.00000000000E+00  0.27891569991E+04  0.27891569991E+04  0.25500000920E-02 0. -1.
       -2   -1    0    0    0  501  0.00000000000E+00  0.00000000000E+00 -0.98403918673E+02  0.98403918706E+02  0.25500000920E-02 0.  1.
    10030    2    1    2    0    0  0.00000000000E+00  0.00000000000E+00  0.26907530804E+04  0.28875609178E+04  0.10477861968E+04 0.  0.
        4    1    3    3  502    0  0.15182182625E+03  0.47417298977E+03  0.89614061254E+03  0.10251631585E+04  0.12699999809E+01 0.  1.
       -4    1    3    3    0  502 -0.15182182625E+03 -0.47417298977E+03  0.17946124679E+04  0.18623977593E+04  0.12699999809E+01 0. -1.
</event>
<event>
 5   0  0.5627232E-03  0.1102376E+04  0.7818609E-02  0.9202879E-01
       -2   -1    0    0    0  501  0.00000000000E+00  0.00000000000E+00  0.33406524717E+03  0.33406524718E+03  0.25500000920E-02 0. -1.
        2   -1    0    0  501    0  0.00000000000E+00  0.00000000000E+00 -0.90942746783E+03  0.90942746783E+03  0.25500000920E-02 0.  1.
    10030    2    1    2    0    0  0.00000000000E+00  0.00000000000E+00 -0.57536222066E+03  0.12434927150E+04  0.11023758195E+04 0.  0.
        2    1    3    3  502    0 -0.18382634346E+02 -0.22930515769E+03  0.27732698097E+03  0.36031795815E+03  0.25500000920E-02 0. -1.
       -2    1    3    3    0  502  0.18382634346E+02  0.22930515769E+03 -0.85268920162E+03  0.88317475686E+03  0.25500000920E-02 0.  1.
</event>
<event>
 5   0  0.5627232E-03  0.1101410E+04  0.7818609E-02  0.9203819E-01
       -2   -1    0    0    0  501  0.00000000000E+00  0.00000000000E+00  0.48005305279E+03  0.48005305280E+03  0.25500000920E-02 0. -1.
        2   -1    0    0  501    0  0.00000000000E+00  0.00000000000E+00 -0.63175496971E+03  0.63175496971E+03  0.25500000920E-02 0.  1.
    10030    2    1    2    0    0  0.00000000000E+00  0.00000000000E+00 -0.15170191692E+03  0.11118080225E+04  0.11014098271E+04 0.  0.
        2    1    3    3  502    0 -0.33937904995E+03  0.14893701676E+03 -0.48702375357E+03  0.61200695344E+03  0.25500000920E-02 0.  1.
       -2    1    3    3    0  502  0.33937904995E+03 -0.14893701676E+03  0.33532183665E+03  0.49980106908E+03  0.25500000920E-02 0. -1.
</event>
<event>
 5   0  0.5723194E-03  0.1095411E+04  0.7818609E-02  0.9209676E-01
       -2   -1    0    0    0  501  0.00000000000E+00  0.00000000000E+00  0.24215970404E+03  0.24215970405E+03  0.25500000920E-02 0.  1.
        2   -1    0    0  501    0  0.00000000000E+00  0.00000000000E+00 -0.12387746313E+04  0.12387746313E+04  0.25500000920E-02 0. -1.
    10030    2    1    2    0    0  0.00000000000E+00  0.00000000000E+00 -0.99661492723E+03  0.14809343353E+04  0.10954109696E+04 0.  0.
        1    1    3    3  502    0  0.22711083917E+03 -0.58975693307E+02 -0.11673815963E+04  0.11907297162E+04  0.50400001928E-02 0. -1.
       -1    1    3    3    0  502 -0.22711083917E+03  0.58975693307E+02  0.17076666906E+03  0.29020461912E+03  0.50400001928E-02 0.  1.
</event>
<event>
 5   0  0.3241189E-03  0.1106562E+04  0.7818609E-02  0.9198820E-01
        1   -1    0    0  501    0  0.00000000000E+00  0.00000000000E+00  0.77184148430E+03  0.77184148432E+03  0.50400001928E-02 0. -1.
       -1   -1    0    0    0  501  0.00000000000E+00  0.00000000000E+00 -0.39660983178E+03  0.39660983181E+03  0.50400001928E-02 0.  1.
    10030    2    1    2    0    0  0.00000000000E+00  0.00000000000E+00  0.37523165252E+03  0.11684513161E+04  0.11065621018E+04 0.  0.
        5    1    3    3  502    0 -0.78904899391E+01  0.16845311874E+01  0.77175828035E+03  0.77181476454E+03  0.46999998093E+01 0. -1.
       -5    1    3    3    0  502  0.78904899391E+01 -0.16845311874E+01 -0.39652662783E+03  0.39663655159E+03  0.46999998093E+01 0.  1.
</event>
<event>
 5   0  0.3215352E-03  0.1069508E+04  0.7818609E-02  0.9235431E-01
       -1   -1    0    0    0  501  0.00000000000E+00  0.00000000000E+00  0.18652011129E+03  0.18652011136E+03  0.50400001928E-02 0.  1.
        1   -1    0    0  501    0  0.00000000000E+00  0.00000000000E+00 -0.15331430907E+04  0.15331430907E+04  0.50400001928E-02 0. -1.
    10030    2    1    2    0    0  0.00000000000E+00  0.00000000000E+00 -0.13466229794E+04  0.17196632021E+04  0.10695083356E+04 0.  0.
        1    1    3    3  502    0 -0.11558736939E+02 -0.14993788240E+03 -0.14984435291E+04  0.15059707775E+04  0.50400001928E-02 0. -1.
       -1    1    3    3    0  502  0.11558736939E+02  0.14993788240E+03  0.15182054966E+03  0.21369242453E+03  0.50400001928E-02 0.  1.
</event>
<event>
 5   0  0.5723194E-03  0.1101286E+04  0.7818609E-02  0.9203939E-01
        2   -1    0    0  501    0  0.00000000000E+00  0.00000000000E+00  0.79237052448E+03  0.79237052449E+03  0.25500000920E-02 0. -1.
       -2   -1    0    0    0  501  0.00000000000E+00  0.00000000000E+00 -0.38265933234E+03  0.38265933235E+03  0.25500000920E-02 0.  1.
    10030    2    1    2    0    0  0.00000000000E+00  0.00000000000E+00  0.40971119214E+03  0.11750298568E+04  0.11012864766E+04 0.  0.
        1    1    3    3  502    0  0.19819368467E+03 -0.44250017683E+03 -0.73620915349E+02  0.49041531617E+03  0.50400001928E-02 0. -1.
       -1    1    3    3    0  502 -0.19819368467E+03  0.44250017683E+03  0.48333210749E+03  0.68461454067E+03  0.50400001928E-02 0.  1.
</event>
<event>
 5   0  0.3320192E-03  0.1111184E+04  0.7818609E-02  0.9194359E-01
        1   -1    0    0  501    0  0.00000000000E+00  0.00000000000E+00  0.91147028499E+03  0.91147028500E+03  0.50400001928E-02 0.  1.
       -1   -1    0    0    0  501  0.00000000000E+00  0.00000000000E+00 -0.33866450231E+03  0.33866450235E+03  0.50400001928E-02 0. -1.
    10030    2    1    2    0    0  0.00000000000E+00  0.00000000000E+00  0.57280578268E+03  0.12501347874E+04  0.11111842880E+04 0.  0.
        2    1    3    3  502    0 -0.44166922626E+03  0.33700168794E+03  0.27921777924E+03  0.62177520966E+03  0.25500000920E-02 0.  1.
       -2    1    3    3    0  502  0.44166922626E+03 -0.33700168794E+03  0.29358800345E+03  0.62835957769E+03  0.25500000920E-02 0. -1.
</event>
<event>
 5   0  0.3328741E-03  0.1134887E+04  0.7818609E-02  0.9171840E-01
        1   -1    0    0  501    0  0.00000000000E+00  0.00000000000E+00  0.17206003934E+04  0.17206003934E+04  0.50400001928E-02 0. -1.
       -1   -1    0    0    0  501  0.00000000000E+00  0.00000000000E+00 -0.18713936066E+03  0.18713936073E+03  0.50400001928E-02 0.  1.
    10030    2    1    2    0    0  0.00000000000E+00  0.00000000000E+00  0.15334610328E+04  0.19077397542E+04  0.11348868801E+04 0.  0.
        3    1    3    3  502    0  0.30499527507E+03  0.44597259223E+03  0.47519346914E+03  0.71952936990E+03  0.10100000352E+00 0.  1.
       -3    1    3    3    0  502 -0.30499527507E+03 -0.44597259223E+03  0.10582675636E+04  0.11882103843E+04  0.10100000352E+00 0. -1.
</event>
<event>
 5   0  0.3316784E-03  0.1100236E+04  0.7818609E-02  0.9204962E-01
       -1   -1    0    0    0  501  0.00000000000E+00  0.00000000000E+00  0.14054012549E+03  0.14054012558E+03  0.50400001928E-02 0. -1.
        1   -1    0    0  501    0  0.00000000000E+00  0.00000000000E+00 -0.21533335245E+04  0.21533335246E+04  0.50400001928E-02 0.  1.
    10030    2    1    2    0    0  0.00000000000E+00  0.00000000000E+00 -0.20127933991E+04  0.22938736501E+04  0.11002359090E+04 0.  0.
        4    1    3    3  502    0  0.57801184595E+02 -0.15906561704E+03 -0.20977046308E+04  0.21045211280E+04  0.12699999809E+01 0.  1.
       -4    1    3    3    0  502 -0.57801184595E+02  0.15906561704E+03  0.84911231701E+02  0.18935252213E+03  0.12699999809E+01 0. -1.
</event>
<event>
 5   0  0.5723194E-03  0.1130813E+04  0.7818609E-02  0.9175669E-01
        2   -1    0    0  501    0  0.00000000000E+00  0.00000000000E+00  0.27509138212E+03  0.27509138213E+03  0.25500000920E-02 0. -1.
       -2   -1    0    0    0  501  0.00000000000E+00  0.00000000000E+00 -0.11621025814E+04  0.11621025814E+04  0.25500000920E-02 0.  1.
    10030    2    1    2    0    0  0.00000000000E+00  0.00000000000E+00 -0.88701119925E+03  0.14371939635E+04  0.11308128144E+04 0.  0.
        1    1    3    3  502    0  0.69653119094E+02  0.14332092311E+03  0.24596200116E+03  0.29306953107E+03  0.50400001928E-02 0. -1.
       -1    1    3    3    0  502 -0.69653119094E+02 -0.14332092311E+03 -0.11329732004E+04  0.11441244324E+04  0.50400001928E-02 0.  1.
</event>
<event>
 5   0  0.3320192E-03  0.1092923E+04  0.7818609E-02  0.9212117E-01
        1   -1    0    0  501    0  0.00000000000E+00  0.00000000000E+00  0.47169199536E+03  0.47169199539E+03  0.50400001928E-02 0. -1.
       -1   -1    0    0    0  501  0.00000000000E+00  0.00000000000E+00 -0.63308339123E+03  0.63308339125E+03  0.50400001928E-02 0.  1.
    10030    2    1    2    0    0  0.00000000000E+00  0.00000000000E+00 -0.16139139587E+03  0.11047753866E+04  0.10929233607E+04 0.  0.
        2    1    3    3  502    0  0.40750239293E+03  0.19425739108E+03  0.23058237721E+03  0.50691455583E+03  0.25500000920E-02 0. -1.
       -2    1    3    3    0  502 -0.40750239293E+03 -0.19425739108E+03 -0.39197377308E+03  0.59786083081E+03  0.25500000920E-02 0.  1.
</event>
<event>
 5   0  0.3241189E-03  0.1115160E+04  0.7818609E-02  0.9190541E-01
        1   -1    0    0  501    0  0.00000000000E+00  0.00000000000E+00  0.19161867923E+04  0.19161867923E+04  0.50400001928E-02 0.  1.
       -1   -1    0    0    0  501  0.00000000000E+00  0.00000000000E+00 -0.16224685126E+03  0.16224685134E+03  0.50400001928E-02 0. -1.
    10030    2    1    2    0    0  0.00000000000E+00  0.00000000000E+00  0.17539399410E+04  0.20784336436E+04  0.11151596721E+04 0.  0.
        5    1    3    3  502    0 -0.16282479888E+03  0.31435515805E+02 -0.11518246095E+03  0.20196335334E+03  0.46999998093E+01 0. -1.
       -5    1    3    3    0  502  0.16282479888E+03 -0.31435515805E+02  0.18691224020E+04  0.18764702903E+04  0.46999998093E+01 0.  1.
</event>
<event>
 5   0  0.3241189E-03  0.1100291E+04  0.7818609E-02  0.9204908E-01
       -1   -1    0    0    0  501  0.00000000000E+00  0.00000000000E+00  0.14902529793E+03  0.14902529802E+03  0.50400001928E-02 0. -1.
        1   -1    0    0  501    0  0.00000000000E+00  0.00000000000E+00 -0.20309301000E+04  0.20309301000E+04  0.50400001928E-02 0.  1.
    10030    2    1    2    0    0  0.00000000000E+00  0.00000000000E+00 -0.18819048021E+04  0.21799553980E+04  0.11002908040E+04 0.  0.
        5    1    3    3  502    0  0.20834500089E+03 -0.29673379430E+03 -0.12123201820E+03  0.38233215443E+03  0.46999998093E+01 0. -1.
       -5    1    3    3    0  502 -0.20834500089E+03  0.29673379430E+03 -0.17606727839E+04  0.17976232436E+04  0.46999998093E+01 0.  1.
</event>
<event>
 5   0  0.5723194E-03  0.1094237E+04  0.7818609E-02  0.9210828E-01
       -2   -1    0    0    0  501  0.00000000000E+00  0.00000000000E+00  0.97575345557E+03  0.97575345557E+03  0.25500000920E-02 0. -1.
        2   -1    0    0  501    0  0.00000000000E+00  0.00000000000E+00 -0.30677666402E+03  0.30677666403E+03  0.25500000920E-02 0.  1.
    10030    2    1    2    0    0  0.00000000000E+00  0.00000000000E+00  0.66897679155E+03  0.12825301196E+04  0.10942365192E+04 0.  0.
        1    1    3    3  502    0  0.10262316426E+03 -0.38490968416E+03  0.77405877060E+03  0.87054807976E+03  0.50400001928E-02 0. -1.
       -1    1    3    3    0  502 -0.10262316426E+03  0.38490968416E+03 -0.10508197905E+03  0.41198203984E+03  0.50400001928E-02 0.  1.
</event>
<event>
 5   0  0.2185750E-03  0.1082507E+04  0.7818609E-02  0.9222412E-01
        3   -1    0    0  501    0  0.00000000000E+00  0.00000000000E+00  0.68314183053E+03  0.68314183799E+03  0.10100000352E+00 0.  1.
       -3   -1    0    0    0  501  0.00000000000E+00  0.00000000000E+00 -0.42883505719E+03  0.42883506908E+03  0.10100000352E+00 0. -1.
    10030    2    1    2    0    0  0.00000000000E+00  0.00000000000E+00  0.25430677334E+03  0.11119769071E+04  0.10825066775E+04 0.  0.
        3    1    3    3  502    0  0.52830536210E+03 -0.84616902976E+02  0.21116367831E+03  0.57520143005E+03  0.10100000352E+00 0.  1.
       -3    1    3    3    0  502 -0.52830536210E+03  0.84616902976E+02  0.43143095032E+02  0.53677547703E+03  0.10100000352E+00 0. -1.
</event>
<event>
 5   0  0.3241189E-03  0.1033790E+04  0.7818609E-02  0.9272242E-01
        1   -1    0    0  501    0  0.00000000000E+00  0.00000000000E+00  0.51266930340E+03  0.51266930342E+03  0.50400001928E-02 0.  1.
       -1   -1    0    0    0  501  0.00000000000E+00  0.00000000000E+00 -0.52115507064E+03  0.52115507067E+03  0.50400001928E-02 0. -1.
    10030    2    1    2    0    0  0.00000000000E+00  0.00000000000E+00 -0.84857672434E+01  0.10338243741E+04  0.10337895474E+04 0.  0.
        5    1    3    3  502    0 -0.48812748653E+03 -0.16201092786E+02  0.16495855663E+03  0.51552335924E+03  0.46999998093E+01 0.  1.
       -5    1    3    3    0  502  0.48812748653E+03  0.16201092786E+02 -0.17344432387E+03  0.51830101485E+03  0.46999998093E+01 0. -1.
</event>
<event>
 5   0  0.5627232E-03  0.1111678E+04  0.7818609E-02  0.9193883E-01
        2   -1    0    0  501    0  0.00000000000E+00  0.00000000000E+00  0.69386146562E+03  0.69386146562E+03  0.25500000920E-02 0.  1.
       -2   -1    0    0    0  501  0.00000000000E+00  0.00000000000E+00 -0.44527222526E+03  0.44527222527E+03  0.25500000920E-02 0. -1.
    10030    2    1    2    0    0  0.00000000000E+00  0.00000000000E+00  0.24858924036E+03  0.11391336909E+04  0.11116784406E+04 0.  0.
        2    1    3    3  502    0  0.24214478119E+03 -0.14340989490E+03  0.61546215056E+03  0.67675265185E+03  0.25500000920E-02 0.  1.
       -2    1    3    3    0  502 -0.24214478119E+03  0.14340989490E+03 -0.36687291021E+03  0.46238103904E+03  0.25500000920E-02 0. -1.
</event>
<event>
 5   0  0.3320192E-03  0.8179171E+03  0.7818609E-02  0.9534439E-01
        1   -1    0    0  501    0  0.00000000000E+00  0.00000000000E+00  0.12115517209E+04  0.12115517209E+04  0.50400001928E-02 0.  1.
       -1   -1    0    0    0  501  0.00000000000E+00  0.00000000000E+00 -0.13804372628E+03  0.13804372637E+03  0.50400001928E-02 0. -1.
    10030    2    1    2    0    0  0.00000000000E+00  0.00000000000E+00  0.10735079946E+04  0.13495954473E+04  0.81791714545E+03 0.  0.
        2    1    3    3  502    0  0.15956998049E+03  0.80742633381E+02  0.11436122636E+04  0.11575106742E+04  0.25500000920E-02 0.  1.
       -2    1    3    3    0  502 -0.15956998049E+03 -0.80742633381E+02 -0.70104268940E+02  0.19208477308E+03  0.25500000920E-02 0. -1.
</event>
<event>
 5   0  0.5941585E-03  0.1068406E+04  0.7818609E-02  0.9236544E-01
        2   -1    0    0  501    0  0.00000000000E+00  0.00000000000E+00  0.16475009394E+04  0.16475009394E+04  0.25500000920E-02 0. -1.
       -2   -1    0    0    0  501  0.00000000000E+00  0.00000000000E+00 -0.17321574404E+03  0.17321574406E+03  0.25500000920E-02 0.  1.
    10030    2    1    2    0    0  0.00000000000E+00  0.00000000000E+00  0.14742851954E+04  0.18207166835E+04  0.10684064789E+04 0.  0.
        5    1    3    3  502    0 -0.51869965473E+03  0.83039313523E+02  0.90241937907E+03  0.10441875718E+04  0.46999998093E+01 0.  1.
       -5    1    3    3    0  502  0.51869965473E+03 -0.83039313523E+02  0.57186581630E+03  0.77652911166E+03  0.46999998093E+01 0. -1.
</event>
<event>
 5   0  0.5946359E-03  0.1074952E+04  0.7818609E-02  0.9229955E-01
        2   -1    0    0  501    0  0.00000000000E+00  0.00000000000E+00  0.76775535346E+03  0.76775535346E+03  0.25500000920E-02 0.  1.
       -2   -1    0    0    0  501  0.00000000000E+00  0.00000000000E+00 -0.37626641346E+03  0.37626641347E+03  0.25500000920E-02 0. -1.
    10030    2    1    2    0    0  0.00000000000E+00  0.00000000000E+00  0.39148893999E+03  0.11440217669E+04  0.10749521911E+04 0.  0.
        4    1    3    3  502    0 -0.26551389979E+03 -0.45851123098E+03  0.29181516093E+03  0.60488666787E+03  0.12699999809E+01 0.  1.
       -4    1    3    3    0  502  0.26551389979E+03  0.45851123098E+03  0.99673779067E+02  0.53913509907E+03  0.12699999809E+01 0. -1.
</event>
<event>
 5   0  0.5946359E-03  0.1101546E+04  0.7818609E-02  0.9203687E-01
       -2   -1    0    0    0  501  0.00000000000E+00  0.00000000000E+00  0.15405541278E+03  0.15405541280E+03  0.25500000920E-02 0.  1.
        2   -1    0    0  501    0  0.00000000000E+00  0.00000000000E+00 -0.19691009470E+04  0.19691009470E+04  0.25500000920E-02 0. -1.
    10030    2    1    2    0    0  0.00000000000E+00  0.00000000000E+00 -0.18150455342E+04  0.21231563598E+04  0.11015455673E+04 0.  0.
        4    1    3    3  502    0  0.22628403918E+03  0.67481649564E+01 -0.18752770669E+04  0.18888927166E+04  0.12699999809E+01 0. -1.
       -4    1    3    3    0  502 -0.22628403918E+03 -0.67481649564E+01  0.60231532683E+02  0.23426364325E+03  0.12699999809E+01 0.  1.
</event>
<event>
 5   0  0.3241189E-03  0.1099668E+04  0.7818609E-02  0.9205515E-01
        1   -1    0    0  501    0  0.00000000000E+00  0.00000000000E+00  0.17586143453E+03  0.17586143460E+03  0.50400001928E-02 0.  1.
       -1   -1    0    0    0  501  0.00000000000E+00  0.00000000000E+00 -0.17190662831E+04  0.17190662831E+04  0.50400001928E-02 0. -1.
    10030    2    1    2    0    0  0.00000000000E+00  0.00000000000E+00 -0.15432048485E+04  0.18949277177E+04  0.10996680638E+04 0.  0.
        5    1    3    3  502    0 -0.18661004946E+03  0.43214281159E+03 -0.28201063274E+03  0.54874657825E+03  0.46999998093E+01 0.  1.
       -5    1    3    3    0  502  0.18661004946E+03 -0.43214281159E+03 -0.12611942158E+04  0.13461811394E+04  0.46999998093E+01 0. -1.
</event>
<event>
 5   0  0.2185750E-03  0.7909495E+03  0.7818609E-02  0.9573210E-01
        3   -1    0    0  501    0  0.00000000000E+00  0.00000000000E+00  0.85343076723E+03  0.85343077320E+03  0.10100000352E+00 0.  1.
       -3   -1    0    0    0  501  0.00000000000E+00  0.00000000000E+00 -0.18326063591E+03  0.18326066375E+03  0.10100000352E+00 0. -1.
    10030    2    1    2    0    0  0.00000000000E+00  0.00000000000E+00  0.67017013131E+03  0.10366914370E+04  0.79094951201E+03 0.  0.
        2    1    3    3  502    0 -0.22444275287E+03 -0.20801970610E+03  0.66342208184E+03  0.73059948407E+03  0.25500000920E-02 0.  1.
       -2    1    3    3    0  502  0.22444275287E+03  0.20801970610E+03  0.67480494765E+01  0.30609195288E+03  0.25500000920E-02 0. -1.
</event>
<event>
 5   0  0.3241189E-03  0.1113824E+04  0.7818609E-02  0.9191822E-01
        1   -1    0    0  501    0  0.00000000000E+00  0.00000000000E+00  0.77545679337E+03  0.77545679338E+03  0.50400001928E-02 0.  1.
       -1   -1    0    0    0  501  0.00000000000E+00  0.00000000000E+00 -0.39995876406E+03  0.39995876409E+03  0.50400001928E-02 0. -1.
    10030    2    1    2    0    0  0.00000000000E+00  0.00000000000E+00  0.37549802930E+03  0.11754155575E+04  0.11138235779E+04 0.  0.
        5    1    3    3  502    0  0.50578236434E+02 -0.11543679225E+03  0.76018833208E+03  0.77057913366E+03  0.46999998093E+01 0.  1.
       -5    1    3    3    0  502 -0.50578236434E+02  0.11543679225E+03 -0.38469030277E+03  0.40483642382E+03  0.46999998093E+01 0. -1.
</event>
<event>
 5   0  0.5723194E-03  0.1112746E+04  0.7818609E-02  0.9192857E-01
        2   -1    0    0  501    0  0.00000000000E+00  0.00000000000E+00  0.14604922743E+04  0.14604922743E+04  0.25500000920E-02 0.  1.
       -2   -1    0    0    0  501  0.00000000000E+00  0.00000000000E+00 -0.21194972944E+03  0.21194972946E+03  0.25500000920E-02 0. -1.
    10030    2    1    2    0    0  0.00000000000E+00  0.00000000000E+00  0.12485425448E+04  0.16724420037E+04  0.11127460490E+04 0.  0.
        1    1    3    3  502    0  0.41885750448E+01 -0.18285497064E+03 -0.16547249923E+03  0.24664677674E+03  0.50400001928E-02 0. -1.
       -1    1    3    3    0  502 -0.41885750448E+01  0.18285497064E+03  0.14140150441E+04  0.14257952270E+04  0.50400001928E-02 0.  1.
</event>
<event>
 5   0  0.5941585E-03  0.1104351E+04  0.7818609E-02  0.9200961E-01
        2   -1    0    0  501    0  0.00000000000E+00  0.00000000000E+00  0.54234735668E+03  0.54234735669E+03  0.25500000920E-02 0.  1.
       -2   -1    0    0    0  501  0.00000000000E+00  0.00000000000E+00 -0.56218216370E+03  0.56218216370E+03  0.25500000920E-02 0. -1.
    10030    2    1    2    0    0  0.00000000000E+00  0.00000000000E+00 -0.19834807016E+02  0.11045295204E+04  0.11043514123E+04 0.  0.
        5    1    3    3  502    0 -0.32646970678E+03  0.35370049915E+03 -0.28049644478E+03  0.55712373677E+03  0.46999998093E+01 0. -1.
       -5    1    3    3    0  502  0.32646970678E+03 -0.35370049915E+03  0.26066163776E+03  0.54740578362E+03  0.46999998093E+01 0.  1.
</event>
<event>
 5   0  0.3328741E-03  0.1108427E+04  0.7818609E-02  0.9197017E-01
       -1   -1    0    0    0  501  0.00000000000E+00  0.00000000000E+00  0.58864095356E+03  0.58864095358E+03  0.50400001928E-02 0.  1.
        1   -1    0    0  501    0  0.00000000000E+00  0.00000000000E+00 -0.52179983606E+03  0.52179983608E+03  0.50400001928E-02 0. -1.
    10030    2    1    2    0    0  0.00000000000E+00  0.00000000000E+00  0.66841117502E+02  0.11104407897E+04  0.11084272698E+04 0.  0.
        3    1    3    3  502    0  0.31930099692E+03 -0.35831939785E+03  0.31106444324E+03  0.57193270195E+03  0.10100000352E+00 0.  1.
       -3    1    3    3    0  502 -0.31930099692E+03  0.35831939785E+03 -0.24422332573E+03  0.53850808772E+03  0.10100000352E+00 0. -1.
</event>
<event>
 5   0  0.5946359E-03  0.1083437E+04  0.7818609E-02  0.9221487E-01
        2   -1    0    0  501    0  0.00000000000E+00  0.00000000000E+00  0.12996882251E+04  0.12996882251E+04  0.25500000920E-02 0. -1.
       -2   -1    0    0    0  501  0.00000000000E+00  0.00000000000E+00 -0.22579174149E+03  0.22579174150E+03  0.25500000920E-02 0.  1.
    10030    2    1    2    0    0  0.00000000000E+00  0.00000000000E+00  0.10738964836E+04  0.15254799666E+04  0.10834368791E+04 0.  0.
        4    1    3    3  502    0  0.47731240051E+03  0.93664288686E+02  0.87268226457E+03  0.99908762101E+03  0.12699999809E+01 0.  1.
       -4    1    3    3    0  502 -0.47731240051E+03 -0.93664288686E+02  0.20121421905E+03  0.52639234560E+03  0.12699999809E+01 0. -1.
</event>
<event>
 5   0  0.5723194E-03  0.1105635E+04  0.7818609E-02  0.9199717E-01
       -2   -1    0    0    0  501  0.00000000000E+00  0.00000000000E+00  0.15061377585E+03  0.15061377587E+03  0.25500000920E-02 0. -1.
        2   -1    0    0  501    0  0.00000000000E+00  0.00000000000E+00 -0.20290791910E+04  0.20290791910E+04  0.25500000920E-02 0.  1.
    10030    2    1    2    0    0  0.00000000000E+00  0.00000000000E+00 -0.18784654152E+04  0.21796929669E+04  0.11056351631E+04 0.  0.
        1    1    3    3  502    0  0.62592070742E+02  0.53397128283E+03 -0.68550467352E+03  0.87118296336E+03  0.50400001928E-02 0. -1.
       -1    1    3    3    0  502 -0.62592070742E+02 -0.53397128283E+03 -0.11929607416E+04  0.13085100035E+04  0.50400001928E-02 0.  1.
</event>
<event>
 5   0  0.3328741E-03  0.1108922E+04  0.7818609E-02  0.9196540E-01
        1   -1    0    0  501    0  0.00000000000E+00  0.00000000000E+00  0.16131440070E+04  0.16131440070E+04  0.50400001928E-02 0.  1.
       -1   -1    0    0    0  501  0.00000000000E+00  0.00000000000E+00 -0.19057614970E+03  0.19057614977E+03  0.50400001928E-02 0. -1.
    10030    2    1    2    0    0  0.00000000000E+00  0.00000000000E+00  0.14225678573E+04  0.18037201567E+04  0.11089215911E+04 0.  0.
        3    1    3    3  502    0 -0.17755182081E+03 -0.35272768749E+03  0.78211273849E+02  0.40256488192E+03  0.10100000352E+00 0. -1.
       -3    1    3    3    0  502  0.17755182081E+03  0.35272768749E+03  0.13443565834E+04  0.14011552748E+04  0.10100000352E+00 0.  1.
</event>
<event>
 5   0  0.5500363E-03  0.1090832E+04  0.7818609E-02  0.9214174E-01
        2   -1    0    0  501    0  0.00000000000E+00  0.00000000000E+00  0.15686332561E+04  0.15686332561E+04  0.25500000920E-02 0. -1.
       -2   -1    0    0    0  501  0.00000000000E+00  0.00000000000E+00 -0.18964202976E+03  0.18964202978E+03  0.25500000920E-02 0.  1.
    10030    2    1    2    0    0  0.00000000000E+00  0.00000000000E+00  0.13789912264E+04  0.17582752859E+04  0.10908323330E+04 0.  0.
        3    1    3    3  502    0  0.12216612617E+03 -0.48933196744E+03  0.35483079299E+03  0.61666460787E+03  0.10100000352E+00 0.  1.
       -3    1    3    3    0  502 -0.12216612617E+03  0.48933196744E+03  0.10241604334E+04  0.11416106781E+04  0.10100000352E+00 0. -1.
</event>
<event>
 5   0  0.3328741E-03  0.1087630E+04  0.7818609E-02  0.9217333E-01
        1   -1    0    0  501    0  0.00000000000E+00  0.00000000000E+00  0.51420676586E+03  0.51420676588E+03  0.50400001928E-02 0.  1.
       -1   -1    0    0    0  501  0.00000000000E+00  0.00000000000E+00 -0.57512831742E+03  0.57512831744E+03  0.50400001928E-02 0. -1.
    10030    2    1    2    0    0  0.00000000000E+00  0.00000000000E+00 -0.60921551561E+02  0.10893350833E+04  0.10876302167E+04 0.  0.
        3    1    3    3  502    0 -0.23754758558E+03 -0.40617030829E+03  0.24260496806E+03  0.52939621785E+03  0.10100000352E+00 0.  1.
       -3    1    3    3    0  502  0.23754758558E+03  0.40617030829E+03 -0.30352651962E+03  0.55993886547E+03  0.10100000352E+00 0. -1.
</event>
<event>
 5   0  0.3241189E-03  0.1083465E+04  0.7818609E-02  0.9221459E-01
        1   -1    0    0  501    0  0.00000000000E+00  0.00000000000E+00  0.85272300242E+03  0.85272300244E+03  0.50400001928E-02 0. -1.
       -1   -1    0    0    0  501  0.00000000000E+00  0.00000000000E+00 -0.34416133349E+03  0.34416133352E+03  0.50400001928E-02 0.  1.
    10030    2    1    2    0    0  0.00000000000E+00  0.00000000000E+00  0.50856166894E+03  0.11968843360E+04  0.10834653398E+04 0.  0.
        5    1    3    3  502    0 -0.38995357670E+03  0.22363937306E+03 -0.79643512769E+02  0.45655617430E+03  0.46999998093E+01 0. -1.
       -5    1    3    3    0  502  0.38995357670E+03 -0.22363937306E+03  0.58820518171E+03  0.74032816166E+03  0.46999998093E+01 0.  1.
</event>
<event>
 5   0  0.3215352E-03  0.1103035E+04  0.7818609E-02  0.9202239E-01
        1   -1    0    0  501    0  0.00000000000E+00  0.00000000000E+00  0.44249298240E+03  0.44249298243E+03  0.50400001928E-02 0. -1.
       -1   -1    0    0    0  501  0.00000000000E+00  0.00000000000E+00 -0.68740460802E+03  0.68740460804E+03  0.50400001928E-02 0.  1.
    10030    2    1    2    0    0  0.00000000000E+00  0.00000000000E+00 -0.24491162562E+03  0.11298975905E+04  0.11030352944E+04 0.  0.
        1    1    3    3  502    0 -0.25694551485E+03 -0.22577812040E+03 -0.56562907005E+03  0.66100907873E+03  0.50400001928E-02 0.  1.
       -1    1    3    3    0  502  0.25694551485E+03  0.22577812040E+03  0.32071744443E+03  0.46888851174E+03  0.50400001928E-02 0. -1.
</event>
<event>
 5   0  0.3215352E-03  0.1017176E+04  0.7818609E-02  0.9289905E-01
       -1   -1    0    0    0  501  0.00000000000E+00  0.00000000000E+00  0.30993700826E+03  0.30993700830E+03  0.50400001928E-02 0.  1.
        1   -1    0    0  501    0  0.00000000000E+00  0.00000000000E+00 -0.83456153359E+03  0.83456153361E+03  0.50400001928E-02 0. -1.
    10030    2    1    2    0    0  0.00000000000E+00  0.00000000000E+00 -0.52462452534E+03  0.11444985419E+04  0.10171755108E+04 0.  0.
        1    1    3    3  502    0 -0.17161850935E+03  0.38378647576E+03  0.59724261201E+02  0.42463155691E+03  0.50400001928E-02 0.  1.
       -1    1    3    3    0  502  0.17161850935E+03 -0.38378647576E+03 -0.58434878654E+03  0.71986698499E+03  0.50400001928E-02 0. -1.
</event>
<event>
 5   0  0.5500363E-03  0.1097896E+04  0.7818609E-02  0.9207245E-01
        2   -1    0    0  501    0  0.00000000000E+00  0.00000000000E+00  0.61892919381E+03  0.61892919382E+03  0.25500000920E-02 0. -1.
       -2   -1    0    0    0  501  0.00000000000E+00  0.00000000000E+00 -0.48687964096E+03  0.48687964096E+03  0.25500000920E-02 0.  1.
    10030    2    1    2    0    0  0.00000000000E+00  0.00000000000E+00  0.13204955286E+03  0.11058088348E+04  0.10978962131E+04 0.  0.
        3    1    3    3  502    0 -0.15989341277E+02 -0.25117791770E+03  0.55739114662E+03  0.61158066181E+03  0.10100000352E+00 0. -1.
       -3    1    3    3    0  502  0.15989341277E+02  0.25117791770E+03 -0.42534159376E+03  0.49422817297E+03  0.10100000352E+00 0.  1.
</event>
<event>
 5   0  0.3215352E-03  0.1104280E+04  0.7818609E-02  0.9201031E-01
       -1   -1    0    0    0  501  0.00000000000E+00  0.00000000000E+00  0.35419038476E+03  0.35419038480E+03  0.50400001928E-02 0.  1.
        1   -1    0    0  501    0  0.00000000000E+00  0.00000000000E+00 -0.86071879929E+03  0.86071879930E+03  0.50400001928E-02 0. -1.
    10030    2    1    2    0    0  0.00000000000E+00  0.00000000000E+00 -0.50652841453E+03  0.12149091841E+04  0.11042795348E+04 0.  0.
        1    1    3    3  502    0 -0.50131601159E+03 -0.11723904417E+02  0.97828941049E+00  0.50145403626E+03  0.50400001928E-02 0.  1.
       -1    1    3    3    0  502  0.50131601159E+03  0.11723904417E+02 -0.50750670394E+03  0.71345514784E+03  0.50400001928E-02 0. -1.
</event>
<event>
 5   0  0.3320192E-03  0.1128236E+04  0.7818609E-02  0.9178100E-01
        1   -1    0    0  501    0  0.00000000000E+00  0.00000000000E+00  0.51404957659E+03  0.51404957662E+03  0.50400001928E-02 0.  1.
       -1   -1    0    0    0  501  0.00000000000E+00  0.00000000000E+00 -0.61906330017E+03  0.61906330019E+03  0.50400001928E-02 0. -1.
    10030    2    1    2    0    0  0.00000000000E+00  0.00000000000E+00 -0.10501372358E+03  0.11331128768E+04  0.11282361940E+04 0.  0.
        2    1    3    3  502    0  0.34964561345E+03  0.33619765073E+03 -0.34175923000E+03  0.59336353668E+03  0.25500000920E-02 0. -1.
       -2    1    3    3    0  502 -0.34964561345E+03 -0.33619765073E+03  0.23674550643E+03  0.53974934014E+03  0.25500000920E-02 0.  1.
</event>
<event>
 5   0  0.3241189E-03  0.1100407E+04  0.7818609E-02  0.9204796E-01
       -1   -1    0    0    0  501  0.00000000000E+00  0.00000000000E+00  0.46930264529E+03  0.46930264532E+03  0.50400001928E-02 0.  1.
        1   -1    0    0  501    0  0.00000000000E+00  0.00000000000E+00 -0.64504994187E+03  0.64504994189E+03  0.50400001928E-02 0. -1.
    10030    2    1    2    0    0  0.00000000000E+00  0.00000000000E+00 -0.17574729658E+03  0.11143525872E+04  0.11004065505E+04 0.  0.
        5    1    3    3  502    0  0.42040237226E+03 -0.33460832251E+01 -0.44726890674E+03  0.61385740675E+03  0.46999998093E+01 0. -1.
       -5    1    3    3    0  502 -0.42040237226E+03  0.33460832251E+01  0.27152161016E+03  0.50049518046E+03  0.46999998093E+01 0.  1.
</event>
<event>
 5   0  0.5723194E-03  0.1096285E+04  0.7818609E-02  0.9208821E-01
        2   -1    0    0  501    0  0.00000000000E+00  0.00000000000E+00  0.82316370898E+03  0.82316370898E+03  0.25500000920E-02 0.  1.
       -2   -1    0    0    0  501  0.00000000000E+00  0.00000000000E+00 -0.36500644211E+03  0.36500644211E+03  0.25500000920E-02 0. -1.
    10030    2    1    2    0    0  0.00000000000E+00  0.00000000000E+00  0.45815726687E+03  0.11881701511E+04  0.10962847380E+04 0.  0.
        1    1    3    3  502    0 -0.32843790222E+02  0.47736851184E+03  0.51888655532E+03  0.70583473134E+03  0.50400001928E-02 0.  1.
       -1    1    3    3    0  502  0.32843790222E+02 -0.47736851184E+03 -0.60729288450E+02  0.48233541975E+03  0.50400001928E-02 0. -1.
</event>
<event>
 5   0  0.5500363E-03  0.1079871E+04  0.7818609E-02  0.9225036E-01
        2   -1    0    0  501    0  0.00000000000E+00  0.00000000000E+00  0.86323494895E+03  0.86323494896E+03  0.25500000920E-02 0. -1.
       -2   -1    0    0    0  501  0.00000000000E+00  0.00000000000E+00 -0.33771838908E+03  0.33771838909E+03  0.25500000920E-02 0.  1.
    10030    2    1    2    0    0  0.00000000000E+00  0.00000000000E+00  0.52551655987E+03  0.12009533380E+04  0.10798709485E+04 0.  0.
        3    1    3    3  502    0  0.21453907806E+03 -0.38219991820E+03  0.61343374331E+03  0.75392623056E+03  0.10100000352E+00 0. -1.
       -3    1    3    3    0  502 -0.21453907806E+03  0.38219991820E+03 -0.87917183438E+02  0.44702710749E+03  0.10100000352E+00 0.  1.
</event>
<event>
 5   0  0.3316784E-03  0.1100878E+04  0.7818609E-02  0.9204336E-01
       -1   -1    0    0    0  501  0.00000000000E+00  0.00000000000E+00  0.10069824630E+04  0.10069824630E+04  0.50400001928E-02 0. -1.
        1   -1    0    0  501    0  0.00000000000E+00  0.00000000000E+00 -0.30088246416E+03  0.30088246420E+03  0.50400001928E-02 0.  1.
    10030    2    1    2    0    0  0.00000000000E+00  0.00000000000E+00  0.70609999883E+03  0.13078649272E+04  0.11008784944E+04 0.  0.
        4    1    3    3  502    0  0.12434907014E+03  0.42486382940E+03 -0.35579045984E+02  0.44411647818E+03  0.12699999809E+01 0. -1.
       -4    1    3    3    0  502 -0.12434907014E+03 -0.42486382940E+03  0.74167904482E+03  0.86374844903E+03  0.12699999809E+01 0.  1.
</event>
<event>
 5   0  0.3320192E-03  0.1104081E+04  0.7818609E-02  0.9201224E-01
       -1   -1    0    0    0  501  0.00000000000E+00  0.00000000000E+00  0.27238383548E+03  0.27238383553E+03  0.50400001928E-02 0.  1.
        1   -1    0    0  501    0  0.00000000000E+00  0.00000000000E+00 -0.11188205449E+04  0.11188205449E+04  0.50400001928E-02 0. -1.
    10030    2    1    2    0    0  0.00000000000E+00  0.00000000000E+00 -0.84643670942E+03  0.13912043804E+04  0.11040808508E+04 0.  0.
        2    1    3    3  502    0 -0.84305404857E+02  0.21897741970E+03 -0.10528560747E+04  0.10786864353E+04  0.25500000920E-02 0. -1.
       -2    1    3    3    0  502  0.84305404857E+02 -0.21897741970E+03  0.20641936533E+03  0.31251794511E+03  0.25500000920E-02 0.  1.
</event>
<event>
 5   0  0.3316784E-03  0.1121837E+04  0.7818609E-02  0.9184166E-01
       -1   -1    0    0    0  501  0.00000000000E+00  0.00000000000E+00  0.74340098523E+03  0.74340098525E+03  0.50400001928E-02 0. -1.
        1   -1    0    0  501    0  0.00000000000E+00  0.00000000000E+00 -0.42322987056E+03  0.42322987059E+03  0.50400001928E-02 0.  1.
    10030    2    1    2    0    0  0.00000000000E+00  0.00000000000E+00  0.32017111467E+03  0.11666308558E+04  0.11218368915E+04 0.  0.
        4    1    3    3  502    0  0.22783737579E+03  0.28134896617E+03 -0.28546161066E+03  0.46103910315E+03  0.12699999809E+01 0.  1.
       -4    1    3    3    0  502 -0.22783737579E+03 -0.28134896617E+03  0.60563272533E+03  0.70559175269E+03  0.12699999809E+01 0. -1.
</event>
<event>
 5   0  0.3215352E-03  0.1096777E+04  0.7818609E-02  0.9208339E-01
        1   -1    0    0  501    0  0.00000000000E+00  0.00000000000E+00  0.18953067362E+04  0.18953067362E+04  0.50400001928E-02 0. -1.
       -1   -1    0    0    0  501  0.00000000000E+00  0.00000000000E+00 -0.15867081559E+03  0.15867081567E+03  0.50400001928E-02 0.  1.
    10030    2    1    2    0    0  0.00000000000E+00  0.00000000000E+00  0.17366359206E+04  0.20539775519E+04  0.10967768519E+04 0.  0.
        1    1    3    3  502    0  0.36376990263E+03 -0.23440051364E+03  0.14991219746E+04  0.15603329252E+04  0.50400001928E-02 0. -1.
       -1    1    3    3    0  502 -0.36376990263E+03  0.23440051364E+03  0.23751394608E+03  0.49364462669E+03  0.50400001928E-02 0.  1.
</event>
<event>
 5   0  0.2185750E-03  0.1089109E+04  0.7818609E-02  0.9215872E-01
       -3   -1    0    0    0  501  0.00000000000E+00  0.00000000000E+00  0.28488570939E+03  0.28488572729E+03  0.10100000352E+00 0.  1.
        3   -1    0    0  501    0  0.00000000000E+00  0.00000000000E+00 -0.10409079838E+04  0.10409079887E+04  0.10100000352E+00 0. -1.
    10030    2    1    2    0    0  0.00000000000E+00  0.00000000000E+00 -0.75602227442E+03  0.13257937160E+04  0.10891094059E+04 0.  0.
        1    1    3    3  502    0 -0.45792290619E+03  0.26506389252E+03 -0.53479300103E+03  0.75230034501E+03  0.50400001928E-02 0. -1.
       -1    1    3    3    0  502  0.45792290619E+03 -0.26506389252E+03 -0.22122927340E+03  0.57349337099E+03  0.50400001928E-02 0.  1.
</event>
<event>
 5   0  0.3215352E-03  0.1100831E+04  0.7818609E-02  0.9204383E-01
        1   -1    0    0  501    0  0.00000000000E+00  0.00000000000E+00  0.12965696801E+04  0.12965696802E+04  0.50400001928E-02 0. -1.
       -1   -1    0    0    0  501  0.00000000000E+00  0.00000000000E+00 -0.23366038099E+03  0.23366038104E+03  0.50400001928E-02 0.  1.
    10030    2    1    2    0    0  0.00000000000E+00  0.00000000000E+00  0.10629092992E+04  0.15302300612E+04  0.11008305328E+04 0.  0.
        1    1    3    3  502    0  0.13274209400E+03  0.40364085251E+03  0.45108241925E+02  0.42729516128E+03  0.50400001928E-02 0.  1.
       -1    1    3    3    0  502 -0.13274209400E+03 -0.40364085251E+03  0.10178010572E+04  0.11029348999E+04  0.50400001928E-02 0. -1.
</event>
<event>
 5   0  0.5946359E-03  0.1112911E+04  0.7818609E-02  0.9192699E-01
       -2   -1    0    0    0  501  0.00000000000E+00  0.00000000000E+00  0.71230440521E+03  0.71230440522E+03  0.25500000920E-02 0.  1.
        2   -1    0    0  501    0  0.00000000000E+00  0.00000000000E+00 -0.43470538194E+03  0.43470538195E+03  0.25500000920E-02 0. -1.
    10030    2    1    2    0    0  0.00000000000E+00  0.00000000000E+00  0.27759902327E+03  0.11470097872E+04  0.11129107036E+04 0.  0.
        4    1    3    3  502    0 -0.12913093119E+03  0.40453554291E+03  0.50942463437E+03  0.66320349356E+03  0.12699999809E+01 0.  1.
       -4    1    3    3    0  502  0.12913093119E+03 -0.40453554291E+03 -0.23182561110E+03  0.48380629360E+03  0.12699999809E+01 0. -1.
</event>
<event>
 5   0  0.2185750E-03  0.1068765E+04  0.7818609E-02  0.9236182E-01
        3   -1    0    0  501    0  0.00000000000E+00  0.00000000000E+00  0.28420284620E+03  0.28420286414E+03  0.10100000352E+00 0. -1.
       -3   -1    0    0    0  501  0.00000000000E+00  0.00000000000E+00 -0.10047909276E+04  0.10047909326E+04  0.10100000352E+00 0.  1.
    10030    2    1    2    0    0  0.00000000000E+00  0.00000000000E+00 -0.72058808137E+03  0.12889937968E+04  0.10687646257E+04 0.  0.
        5    1    3    3  502    0 -0.12547358846E+03 -0.45414682151E+03 -0.66432969457E+03  0.81446239322E+03  0.46999998093E+01 0.  1.
       -5    1    3    3    0  502  0.12547358846E+03  0.45414682151E+03 -0.56258386797E+02  0.47453140356E+03  0.46999998093E+01 0. -1.
</event>
<event>
 5   0  0.5946359E-03  0.1090372E+04  0.7818609E-02  0.9214627E-01
       -2   -1    0    0    0  501  0.00000000000E+00  0.00000000000E+00  0.26011901299E+03  0.26011901300E+03  0.25500000920E-02 0. -1.
        2   -1    0    0  501    0  0.00000000000E+00  0.00000000000E+00 -0.11426600544E+04  0.11426600544E+04  0.25500000920E-02 0.  1.
    10030    2    1    2    0    0  0.00000000000E+00  0.00000000000E+00 -0.88254104140E+03  0.14027790674E+04  0.10903716899E+04 0.  0.
        4    1    3    3  502    0 -0.19962578610E+03 -0.32151335498E+03 -0.94614300028E+03  0.10190237886E+04  0.12699999809E+01 0.  1.
       -4    1    3    3    0  502  0.19962578610E+03  0.32151335498E+03  0.63601958883E+02  0.38375527876E+03  0.12699999809E+01 0. -1.
</event>
<event>
 5   0  0.3215352E-03  0.1108640E+04  0.7818609E-02  0.9196811E-01
       -1   -1    0    0    0  501  0.00000000000E+00  0.00000000000E+00  0.31695268815E+03  0.31695268819E+03  0.50400001928E-02 0.  1.
        1   -1    0    0  501    0  0.00000000000E+00  0.00000000000E+00 -0.96945347548E+03  0.96945347549E+03  0.50400001928E-02 0. -1.
    10030    2    1    2    0    0  0.00000000000E+00  0.00000000000E+00 -0.65250078733E+03  0.12864061637E+04  0.11086404018E+04 0.  0.
        1    1    3    3  502    0 -0.80372882602E+02 -0.53838634520E+03 -0.20482239863E+03  0.58161144415E+03  0.50400001928E-02 0.  1.
       -1    1    3    3    0  502  0.80372882602E+02  0.53838634520E+03 -0.44767838870E+03  0.70479471954E+03  0.50400001928E-02 0. -1.
</event>
<event>
 5   0  0.3316784E-03  0.1073826E+04  0.7818609E-02  0.9231085E-01
       -1   -1    0    0    0  501  0.00000000000E+00  0.00000000000E+00  0.25432588137E+03  0.25432588142E+03  0.50400001928E-02 0. -1.
        1   -1    0    0  501    0  0.00000000000E+00  0.00000000000E+00 -0.11334897896E+04  0.11334897896E+04  0.50400001928E-02 0.  1.
    10030    2    1    2    0    0  0.00000000000E+00  0.00000000000E+00 -0.87916390820E+03  0.13878156710E+04  0.10738264102E+04 0.  0.
        4    1    3    3  502    0  0.24608923263E+03  0.25595175456E+03  0.80925677676E+02  0.36417274649E+03  0.12699999809E+01 0. -1.
       -4    1    3    3    0  502 -0.24608923263E+03 -0.25595175456E+03 -0.96008958588E+03  0.10236429245E+04  0.12699999809E+01 0.  1.
</event>
<event>
 5   0  0.5946359E-03  0.8043512E+03  0.7818609E-02  0.9553740E-01
        2   -1    0    0  501    0  0.00000000000E+00  0.00000000000E+00  0.16957347782E+03  0.16957347784E+03  0.25500000920E-02 0.  1.
       -2   -1    0    0    0  501  0.00000000000E+00  0.00000000000E+00 -0.95383558863E+03  0.95383558864E+03  0.25500000920E-02 0. -1.
    10030    2    1    2    0    0  0.00000000000E+00  0.00000000000E+00 -0.78426211081E+03  0.11234090665E+04  0.80435121197E+03 0.  0.
        4    1    3    3  502    0  0.35263236403E+03  0.43263793078E+01 -0.12211812166E+03  0.37320604263E+03  0.12699999809E+01 0.  1.
       -4    1    3    3    0  502 -0.35263236403E+03 -0.43263793078E+01 -0.66214398915E+03  0.75020302385E+03  0.12699999809E+01 0. -1.
</event>
<event>
 5   0  0.5946359E-03  0.1075589E+04  0.7818609E-02  0.9229316E-01
        2   -1    0    0  501    0  0.00000000000E+00  0.00000000000E+00  0.52466864914E+03  0.52466864915E+03  0.25500000920E-02 0. -1.
       -2   -1    0    0    0  501  0.00000000000E+00  0.00000000000E+00 -0.55124904229E+03  0.55124904229E+03  0.25500000920E-02 0.  1.
    10030    2    1    2    0    0  0.00000000000E+00  0.00000000000E+00 -0.26580393147E+02  0.10759176914E+04  0.10755893089E+04 0.  0.
        4    1    3    3  502    0  0.27421443447E+03  0.15710243836E+03  0.42198256828E+03  0.52720549413E+03  0.12699999809E+01 0. -1.
       -4    1    3    3    0  502 -0.27421443447E+03 -0.15710243836E+03 -0.44856296143E+03  0.54871219731E+03  0.12699999809E+01 0.  1.
</event>
<event>
 5   0  0.5941585E-03  0.1091853E+04  0.7818609E-02  0.9213169E-01
        2   -1    0    0  501    0  0.00000000000E+00  0.00000000000E+00  0.11421643385E+04  0.11421643385E+04  0.25500000920E-02 0.  1.
       -2   -1    0    0    0  501  0.00000000000E+00  0.00000000000E+00 -0.26093955317E+03  0.26093955319E+03  0.25500000920E-02 0. -1.
    10030    2    1    2    0    0  0.00000000000E+00  0.00000000000E+00  0.88122478529E+03  0.14031038917E+04  0.10918531992E+04 0.  0.
        5    1    3    3  502    0 -0.23381088255E+03 -0.22422880398E+03 -0.12403894800E+03  0.34692050379E+03  0.46999998093E+01 0. -1.
       -5    1    3    3    0  502  0.23381088255E+03  0.22422880398E+03  0.10052637333E+04  0.10561833879E+04  0.46999998093E+01 0.  1.
</event>
<event>
 5   0  0.5723194E-03  0.1108627E+04  0.7818609E-02  0.9196824E-01
        2   -1    0    0  501    0  0.00000000000E+00  0.00000000000E+00  0.25668741865E+03  0.25668741866E+03  0.25500000920E-02 0. -1.
       -2   -1    0    0    0  501  0.00000000000E+00  0.00000000000E+00 -0.11970339937E+04  0.11970339937E+04  0.25500000920E-02 0.  1.
    10030    2    1    2    0    0  0.00000000000E+00  0.00000000000E+00 -0.94034657501E+03  0.14537214123E+04  0.11086271977E+04 0.  0.
        1    1    3    3  502    0  0.11030939367E+03 -0.42802499951E+03 -0.90879618742E+03  0.10105860047E+04  0.50400001928E-02 0.  1.
       -1    1    3    3    0  502 -0.11030939367E+03  0.42802499951E+03 -0.31550387596E+02  0.44313540766E+03  0.50400001928E-02 0. -1.
</event>
<event>
 5   0  0.3241189E-03  0.1139170E+04  0.7818609E-02  0.9167833E-01
        1   -1    0    0  501    0  0.00000000000E+00  0.00000000000E+00  0.39167218063E+03  0.39167218066E+03  0.50400001928E-02 0. -1.
       -1   -1    0    0    0  501  0.00000000000E+00  0.00000000000E+00 -0.82831326945E+03  0.82831326947E+03  0.50400001928E-02 0.  1.
    10030    2    1    2    0    0  0.00000000000E+00  0.00000000000E+00 -0.43664108883E+03  0.12199854501E+04  0.11391703376E+04 0.  0.
        5    1    3    3  502    0 -0.45139523233E+03 -0.23384899599E+03 -0.49337167640E+03  0.70843539562E+03  0.46999998093E+01 0.  1.
       -5    1    3    3    0  502  0.45139523233E+03  0.23384899599E+03  0.56730587572E+02  0.51155005450E+03  0.46999998093E+01 0. -1.
</event>
<event>
 5   0  0.5941585E-03  0.1096803E+04  0.7818609E-02  0.9208314E-01
       -2   -1    0    0    0  501  0.00000000000E+00  0.00000000000E+00  0.11799444067E+03  0.11799444070E+03  0.25500000920E-02 0.  1.
        2   -1    0    0  501    0  0.00000000000E+00  0.00000000000E+00 -0.25487976815E+04  0.25487976815E+04  0.25500000920E-02 0. -1.
    10030    2    1    2    0    0  0.00000000000E+00  0.00000000000E+00 -0.24308032408E+04  0.26667921222E+04  0.10968025471E+04 0.  0.
        5    1    3    3  502    0  0.34106026892E+03  0.62186651837E+02 -0.22484924530E+04  0.22750669634E+04  0.46999998093E+01 0. -1.
       -5    1    3    3    0  502 -0.34106026892E+03 -0.62186651837E+02 -0.18231078785E+03  0.39172515883E+03  0.46999998093E+01 0.  1.
</event>
<event>
 5   0  0.3320192E-03  0.1091141E+04  0.7818609E-02  0.9213870E-01
        1   -1    0    0  501    0  0.00000000000E+00  0.00000000000E+00  0.23072121788E+04  0.23072121788E+04  0.50400001928E-02 0.  1.
       -1   -1    0    0    0  501  0.00000000000E+00  0.00000000000E+00 -0.12900728172E+03  0.12900728182E+03  0.50400001928E-02 0. -1.
    10030    2    1    2    0    0  0.00000000000E+00  0.00000000000E+00  0.21782048971E+04  0.24362194607E+04  0.10911410022E+04 0.  0.
        2    1    3    3  502    0  0.53269834273E+03  0.37152370265E+02  0.83948253732E+03  0.99492650655E+03  0.25500000920E-02 0.  1.
       -2    1    3    3    0  502 -0.53269834273E+03 -0.37152370265E+02  0.13387223598E+04  0.14412929541E+04  0.25500000920E-02 0. -1.
</event>
<event>
 5   0  0.5941585E-03  0.1100458E+04  0.7818609E-02  0.9204746E-01
       -2   -1    0    0    0  501  0.00000000000E+00  0.00000000000E+00  0.16483166258E+03  0.16483166260E+03  0.25500000920E-02 0. -1.
        2   -1    0    0  501    0  0.00000000000E+00  0.00000000000E+00 -0.18367326272E+04  0.18367326272E+04  0.25500000920E-02 0.  1.
    10030    2    1    2    0    0  0.00000000000E+00  0.00000000000E+00 -0.16719009646E+04  0.20015642898E+04  0.11004575279E+04 0.  0.
        5    1    3    3  502    0  0.11589995011E+03  0.39800866197E+02  0.13965845747E+03  0.18585876931E+03  0.46999998093E+01 0. -1.
       -5    1    3    3    0  502 -0.11589995011E+03 -0.39800866197E+02 -0.18115594221E+04  0.18157055205E+04  0.46999998093E+01 0.  1.
</event>
<event>
 5   0  0.3328741E-03  0.1039517E+04  0.7818609E-02  0.9266234E-01
       -1   -1    0    0    0  501  0.00000000000E+00  0.00000000000E+00  0.28180345897E+03  0.28180345901E+03  0.50400001928E-02 0. -1.
        1   -1    0    0  501    0  0.00000000000E+00  0.00000000000E+00 -0.95864318874E+03  0.95864318875E+03  0.50400001928E-02 0.  1.
    10030    2    1    2    0    0  0.00000000000E+00  0.00000000000E+00 -0.67683972977E+03  0.12404466478E+04  0.10395171312E+04 0.  0.
        3    1    3    3  502    0  0.18210514765E+03 -0.29296534551E+03  0.12552030332E+03  0.36707810506E+03  0.10100000352E+00 0. -1.
       -3    1    3    3    0  502 -0.18210514765E+03  0.29296534551E+03 -0.80236003310E+03  0.87336854270E+03  0.10100000352E+00 0.  1.
</event>
<event>
 5   0  0.3316784E-03  0.1095830E+04  0.7818609E-02  0.9209265E-01
       -1   -1    0    0    0  501  0.00000000000E+00  0.00000000000E+00  0.64459531141E+03  0.64459531143E+03  0.50400001928E-02 0. -1.
        1   -1    0    0  501    0  0.00000000000E+00  0.00000000000E+00 -0.46573566276E+03  0.46573566279E+03  0.50400001928E-02 0.  1.
    10030    2    1    2    0    0  0.00000000000E+00  0.00000000000E+00  0.17885964865E+03  0.11103309742E+04  0.10958303237E+04 0.  0.
        4    1    3    3  502    0  0.38489920438E+03  0.15248505798E+02  0.48423898246E+03  0.61876402570E+03  0.12699999809E+01 0. -1.
       -4    1    3    3    0  502 -0.38489920438E+03 -0.15248505798E+02 -0.30537933381E+03  0.49156694852E+03  0.12699999809E+01 0.  1.
</event>
<event>
 5   0  0.3328741E-03  0.1100581E+04  0.7818609E-02  0.9204626E-01
        1   -1    0    0  501    0  0.00000000000E+00  0.00000000000E+00  0.48009859642E+03  0.48009859645E+03  0.50400001928E-02 0. -1.
       -1   -1    0    0    0  501  0.00000000000E+00  0.00000000000E+00 -0.63074446468E+03  0.63074446470E+03  0.50400001928E-02 0.  1.
    10030    2    1    2    0    0  0.00000000000E+00  0.00000000000E+00 -0.15064586826E+03  0.11108430612E+04  0.11005808143E+04 0.  0.
        3    1    3    3  502    0 -0.17850940862E+02 -0.12302370482E+03 -0.61638674354E+03  0.62879735674E+03  0.10100000352E+00 0.  1.
       -3    1    3    3    0  502  0.17850940862E+02  0.12302370482E+03  0.46574087528E+03  0.48204570441E+03  0.10100000352E+00 0. -1.
</event>
<event>
 5   0  0.3328741E-03  0.1087883E+04  0.7818609E-02  0.9217083E-01
        1   -1    0    0  501    0  0.00000000000E+00  0.00000000000E+00  0.15910348788E+04  0.15910348788E+04  0.50400001928E-02 0. -1.
       -1   -1    0    0    0  501  0.00000000000E+00  0.00000000000E+00 -0.18596222553E+03  0.18596222560E+03  0.50400001928E-02 0.  1.
    10030    2    1    2    0    0  0.00000000000E+00  0.00000000000E+00  0.14050726533E+04  0.17769971044E+04  0.10878830581E+04 0.  0.
        3    1    3    3  502    0 -0.52345057820E+03  0.14784221582E+03  0.69630601977E+03  0.88357224491E+03  0.10100000352E+00 0. -1.
       -3    1    3    3    0  502  0.52345057820E+03 -0.14784221582E+03  0.70876663350E+03  0.89342485950E+03  0.10100000352E+00 0.  1.
</event>
<event>
 5   0  0.5627232E-03  0.1028177E+04  0.7818609E-02  0.9278170E-01
       -2   -1    0    0    0  501  0.00000000000E+00  0.00000000000E+00  0.44394963495E+03  0.44394963495E+03  0.25500000920E-02 0.  1.
        2   -1    0    0  501    0  0.00000000000E+00  0.00000000000E+00 -0.59530833351E+03  0.59530833352E+03  0.25500000920E-02 0. -1.
    10030    2    1    2    0    0  0.00000000000E+00  0.00000000000E+00 -0.15135869856E+03  0.10392579685E+04  0.10281768668E+04 0.  0.
        2    1    3    3  502    0 -0.45431806128E+03  0.23571657419E+03 -0.26996870788E+02  0.51253881335E+03  0.25500000920E-02 0.  1.
       -2    1    3    3    0  502  0.45431806128E+03 -0.23571657419E+03 -0.12436182778E+03  0.52671915512E+03  0.25500000920E-02 0. -1.
</event>
<event>
 5   0  0.3241189E-03  0.1100431E+04  0.7818609E-02  0.9204772E-01
       -1   -1    0    0    0  501  0.00000000000E+00  0.00000000000E+00  0.25883899254E+03  0.25883899259E+03  0.50400001928E-02 0. -1.
        1   -1    0    0  501    0  0.00000000000E+00  0.00000000000E+00 -0.11695952669E+04  0.11695952669E+04  0.50400001928E-02 0.  1.
    10030    2    1    2    0    0  0.00000000000E+00  0.00000000000E+00 -0.91075627432E+03  0.14284342595E+04  0.11004305714E+04 0.  0.
        5    1    3    3  502    0 -0.65550047352E+02  0.35395455817E+03 -0.99549651964E+03  0.10585915400E+04  0.46999998093E+01 0.  1.
       -5    1    3    3    0  502  0.65550047352E+02 -0.35395455817E+03  0.84740245319E+02  0.36984271945E+03  0.46999998093E+01 0. -1.
</event>
<event>
 5   0  0.3320192E-03  0.1100313E+04  0.7818609E-02  0.9204887E-01
        1   -1    0    0  501    0  0.00000000000E+00  0.00000000000E+00  0.55422154416E+03  0.55422154418E+03  0.50400001928E-02 0. -1.
       -1   -1    0    0    0  501  0.00000000000E+00  0.00000000000E+00 -0.54612138719E+03  0.54612138721E+03  0.50400001928E-02 0.  1.
    10030    2    1    2    0    0  0.00000000000E+00  0.00000000000E+00  0.81001569717E+01  0.11003429314E+04  0.11003131164E+04 0.  0.
        2    1    3    3  502    0 -0.31217404571E+03  0.43449767584E+03 -0.12413831367E+03  0.54922780889E+03  0.25500000920E-02 0.  1.
       -2    1    3    3    0  502  0.31217404571E+03 -0.43449767584E+03  0.13223847064E+03  0.55111512250E+03  0.25500000920E-02 0. -1.
</event>
<event>
 5   0  0.3328741E-03  0.1082492E+04  0.7818609E-02  0.9222427E-01
       -1   -1    0    0    0  501  0.00000000000E+00  0.00000000000E+00  0.85957902308E+03  0.85957902310E+03  0.50400001928E-02 0.  1.
        1   -1    0    0  501    0  0.00000000000E+00  0.00000000000E+00 -0.34080293237E+03  0.34080293241E+03  0.50400001928E-02 0. -1.
    10030    2    1    2    0    0  0.00000000000E+00  0.00000000000E+00  0.51877609071E+03  0.12003819555E+04  0.10824916659E+04 0.  0.
        3    1    3    3  502    0 -0.43298024977E+03 -0.31567368528E+03  0.34402361044E+03  0.63676842495E+03  0.10100000352E+00 0.  1.
       -3    1    3    3    0  502  0.43298024977E+03  0.31567368528E+03  0.17475248028E+03  0.56361353056E+03  0.10100000352E+00 0. -1.
</event>
<event>
 5   0  0.5723194E-03  0.1118260E+04  0.7818609E-02  0.9187575E-01
        2   -1    0    0  501    0  0.00000000000E+00  0.00000000000E+00  0.10595179425E+04  0.10595179425E+04  0.25500000920E-02 0. -1.
       -2   -1    0    0    0  501  0.00000000000E+00  0.00000000000E+00 -0.29506469059E+03  0.29506469060E+03  0.25500000920E-02 0.  1.
    10030    2    1    2    0    0  0.00000000000E+00  0.00000000000E+00  0.76445325192E+03  0.13545826331E+04  0.11182599589E+04 0.  0.
        1    1    3    3  502    0  0.12373057491E+03  0.44251686353E+03  0.76813747429E+03  0.89507854913E+03  0.50400001928E-02 0. -1.
       -1    1    3    3    0  502 -0.12373057491E+03 -0.44251686353E+03 -0.36842223781E+01  0.45950408398E+03  0.50400001928E-02 0.  1.
</event>
<event>
 5   0  0.5627232E-03  0.1071764E+04  0.7818609E-02  0.9233158E-01
       -2   -1    0    0    0  501  0.00000000000E+00  0.00000000000E+00  0.19345967413E+03  0.19345967415E+03  0.25500000920E-02 0. -1.
        2   -1    0    0  501    0  0.00000000000E+00  0.00000000000E+00 -0.14843905370E+04  0.14843905370E+04  0.25500000920E-02 0.  1.
    10030    2    1    2    0    0  0.00000000000E+00  0.00000000000E+00 -0.12909308629E+04  0.16778502111E+04  0.10717643577E+04 0.  0.
        2    1    3    3  502    0  0.39752264892E+02  0.17676221705E+03  0.14405818499E+03  0.23146897116E+03  0.25500000920E-02 0. -1.
       -2    1    3    3    0  502 -0.39752264892E+02 -0.17676221705E+03 -0.14349890479E+04  0.14463812400E+04  0.25500000920E-02 0.  1.
</event>
<event>
 5   0  0.3328741E-03  0.1117542E+04  0.7818609E-02  0.9188261E-01
        1   -1    0    0  501    0  0.00000000000E+00  0.00000000000E+00  0.50515532646E+03  0.50515532648E+03  0.50400001928E-02 0. -1.
       -1   -1    0    0    0  501  0.00000000000E+00  0.00000000000E+00 -0.61807690012E+03  0.61807690014E+03  0.50400001928E-02 0.  1.
    10030    2    1    2    0    0  0.00000000000E+00  0.00000000000E+00 -0.11292157366E+03  0.11232322266E+04  0.11175416561E+04 0.  0.
        3    1    3    3  502    0 -0.22991346332E+03  0.43696811361E+03 -0.31937160841E+03  0.58804724928E+03  0.10100000352E+00 0.  1.
       -3    1    3    3    0  502  0.22991346332E+03 -0.43696811361E+03  0.20645003475E+03  0.53518497734E+03  0.10100000352E+00 0. -1.
</event>
<event>
 5   0  0.5723194E-03  0.1098246E+04  0.7818609E-02  0.9206903E-01
        2   -1    0    0  501    0  0.00000000000E+00  0.00000000000E+00  0.96839334340E+03  0.96839334341E+03  0.25500000920E-02 0. -1.
       -2   -1    0    0    0  501  0.00000000000E+00  0.00000000000E+00 -0.31137777949E+03  0.31137777950E+03  0.25500000920E-02 0.  1.
    10030    2    1    2    0    0  0.00000000000E+00  0.00000000000E+00  0.65701556391E+03  0.12797711229E+04  0.10982461818E+04 0.  0.
        1    1    3    3  502    0 -0.17401576114E+03  0.12116006584E+03  0.91876282640E+03  0.94291377012E+03  0.50400001928E-02 0. -1.
       -1    1    3    3    0  502  0.17401576114E+03 -0.12116006584E+03 -0.26174726249E+03  0.33685735279E+03  0.50400001928E-02 0.  1.
</event>
<event>
 5   0  0.3215352E-03  0.1105351E+04  0.7818609E-02  0.9199992E-01
        1   -1    0    0  501    0  0.00000000000E+00  0.00000000000E+00  0.25150906835E+04  0.25150906835E+04  0.50400001928E-02 0.  1.
       -1   -1    0    0    0  501  0.00000000000E+00  0.00000000000E+00 -0.12144695268E+03  0.12144695278E+03  0.50400001928E-02 0. -1.
    10030    2    1    2    0    0  0.00000000000E+00  0.00000000000E+00  0.23936437308E+04  0.26365376363E+04  0.11053508029E+04 0.  0.
        1    1    3    3  502    0  0.44738724363E+03 -0.12642186508E+03  0.19096574926E+04  0.19654336856E+04  0.50400001928E-02 0.  1.
       -1    1    3    3    0  502 -0.44738724363E+03  0.12642186508E+03  0.48398623827E+03  0.67110395066E+03  0.50400001928E-02 0. -1.
</event>
<event>
 5   0  0.3328741E-03  0.1106377E+04  0.7818609E-02  0.9198999E-01
       -1   -1    0    0    0  501  0.00000000000E+00  0.00000000000E+00  0.17613616043E+03  0.17613616050E+03  0.50400001928E-02 0.  1.
        1   -1    0    0  501    0  0.00000000000E+00  0.00000000000E+00 -0.17373911468E+04  0.17373911468E+04  0.50400001928E-02 0. -1.
    10030    2    1    2    0    0  0.00000000000E+00  0.00000000000E+00 -0.15612549864E+04  0.19135273073E+04  0.11063767999E+04 0.  0.
        3    1    3    3  502    0  0.31580720091E+03  0.12015192805E+03 -0.15381731195E+04  0.15748483196E+04  0.10100000352E+00 0. -1.
       -3    1    3    3    0  502 -0.31580720091E+03 -0.12015192805E+03 -0.23081866905E+02  0.33867898775E+03  0.10100000352E+00 0.  1.
</event>
<event>
 5   0  0.5946359E-03  0.1101640E+04  0.7818609E-02  0.9203595E-01
        2   -1    0    0  501    0  0.00000000000E+00  0.00000000000E+00  0.15953587876E+04  0.15953587876E+04  0.25500000920E-02 0.  1.
       -2   -1    0    0    0  501  0.00000000000E+00  0.00000000000E+00 -0.19017819869E+03  0.19017819870E+03  0.25500000920E-02 0. -1.
    10030    2    1    2    0    0  0.00000000000E+00  0.00000000000E+00  0.14051805889E+04  0.17855369863E+04  0.11016396153E+04 0.  0.
        4    1    3    3  502    0 -0.28045592449E+03 -0.47395598256E+03  0.71967021666E+03  0.90621003781E+03  0.12699999809E+01 0.  1.
       -4    1    3    3    0  502  0.28045592449E+03  0.47395598256E+03  0.68551037229E+03  0.87932694853E+03  0.12699999809E+01 0. -1.
</event>
<event>
 5   0  0.2185750E-03  0.1093253E+04  0.7818609E-02  0.9211793E-01
        4   -1    0    0  501    0  0.00000000000E+00  0.00000000000E+00  0.87557213398E+03  0.87557305503E+03  0.12699999809E+01 0.  1.
       -4   -1    0    0    0  501  0.00000000000E+00  0.00000000000E+00 -0.34126115245E+03  0.34126351559E+03  0.12699999809E+01 0. -1.
    10030    2    1    2    0    0  0.00000000000E+00  0.00000000000E+00  0.53431098153E+03  0.12168365706E+04  0.10932534082E+04 0.  0.
        4    1    3    3  502    0  0.27839652256E+03 -0.47017876910E+03  0.25040644892E+03  0.60106380797E+03  0.12699999809E+01 0.  1.
       -4    1    3    3    0  502 -0.27839652256E+03  0.47017876910E+03  0.28390453261E+03  0.61577276265E+03  0.12699999809E+01 0. -1.
</event>
<event>
 5   0  0.2185750E-03  0.1092888E+04  0.7818609E-02  0.9212152E-01
        3   -1    0    0  501    0  0.00000000000E+00  0.00000000000E+00  0.21318630449E+03  0.21318632842E+03  0.10100000352E+00 0.  1.
       -3   -1    0    0    0  501  0.00000000000E+00  0.00000000000E+00 -0.14006564641E+04  0.14006564678E+04  0.10100000352E+00 0. -1.
    10030    2    1    2    0    0  0.00000000000E+00  0.00000000000E+00 -0.11874701596E+04  0.16138427962E+04  0.10928875472E+04 0.  0.
        3    1    3    3  502    0 -0.28387016425E+03 -0.39664133729E+03 -0.22993798400E+03  0.53923845124E+03  0.10100000352E+00 0.  1.
       -3    1    3    3    0  502  0.28387016425E+03  0.39664133729E+03 -0.95753217563E+03  0.10746043449E+04  0.10100000352E+00 0. -1.
</event>
<event>
 5   0  0.5723194E-03  0.1090445E+04  0.7818609E-02  0.9214555E-01
       -2   -1    0    0    0  501  0.00000000000E+00  0.00000000000E+00  0.52180360415E+03  0.52180360415E+03  0.25500000920E-02 0. -1.
        2   -1    0    0  501    0  0.00000000000E+00  0.00000000000E+00 -0.56969261944E+03  0.56969261944E+03  0.25500000920E-02 0.  1.
    10030    2    1    2    0    0  0.00000000000E+00  0.00000000000E+00 -0.47889015290E+02  0.10914962236E+04  0.10904451606E+04 0.  0.
        1    1    3    3  502    0 -0.42868800257E+03  0.13109863630E+03  0.28668896438E+03  0.53211917679E+03  0.50400001928E-02 0. -1.
       -1    1    3    3    0  502  0.42868800257E+03 -0.13109863630E+03 -0.33457797967E+03  0.55937704680E+03  0.50400001928E-02 0.  1.
</event>
<event>
 5   0  0.5941585E-03  0.1098714E+04  0.7818609E-02  0.9206446E-01
       -2   -1    0    0    0  501  0.00000000000E+00  0.00000000000E+00  0.41671371160E+03  0.41671371161E+03  0.25500000920E-02 0.  1.
        2   -1    0    0  501    0  0.00000000000E+00  0.00000000000E+00 -0.72422221023E+03  0.72422221023E+03  0.25500000920E-02 0. -1.
    10030    2    1    2    0    0  0.00000000000E+00  0.00000000000E+00 -0.30750849863E+03  0.11409359218E+04  0.10987143856E+04 0.  0.
        5    1    3    3  502    0  0.54052588673E+03 -0.39045525680E+02 -0.60420135366E+02  0.54531226839E+03  0.46999998093E+01 0. -1.
       -5    1    3    3    0  502 -0.54052588673E+03  0.39045525680E+02 -0.24708836326E+03  0.59562365346E+03  0.46999998093E+01 0.  1.
</event>
<event>
 5   0  0.5946359E-03  0.1094479E+04  0.7818609E-02  0.9210589E-01
       -2   -1    0    0    0  501  0.00000000000E+00  0.00000000000E+00  0.23800378685E+03  0.23800378686E+03  0.25500000920E-02 0. -1.
        2   -1    0    0  501    0  0.00000000000E+00  0.00000000000E+00 -0.12582629324E+04  0.12582629324E+04  0.25500000920E-02 0.  1.
    10030    2    1    2    0    0  0.00000000000E+00  0.00000000000E+00 -0.10202591456E+04  0.14962667193E+04  0.10944794978E+04 0.  0.
        4    1    3    3  502    0 -0.33920353106E+03 -0.41516248473E+03 -0.66020494430E+03  0.85046522892E+03  0.12699999809E+01 0.  1.
       -4    1    3    3    0  502  0.33920353106E+03  0.41516248473E+03 -0.36005420127E+03  0.64580149037E+03  0.12699999809E+01 0. -1.
</event>
<event>
 5   0  0.3328741E-03  0.1085152E+04  0.7818609E-02  0.9219786E-01
       -1   -1    0    0    0  501  0.00000000000E+00  0.00000000000E+00  0.18823767179E+03  0.18823767186E+03  0.50400001928E-02 0. -1.
        1   -1    0    0  501    0  0.00000000000E+00  0.00000000000E+00 -0.15639195452E+04  0.15639195452E+04  0.50400001928E-02 0.  1.
    10030    2    1    2    0    0  0.00000000000E+00  0.00000000000E+00 -0.13756818734E+04  0.17521572171E+04  0.10851517389E+04 0.  0.
        3    1    3    3  502    0 -0.15959469165E+03 -0.45564237624E+03 -0.28804202074E+03  0.56218204929E+03  0.10100000352E+00 0. -1.
       -3    1    3    3    0  502  0.15959469165E+03  0.45564237624E+03 -0.10876398527E+04  0.11899751678E+04  0.10100000352E+00 0.  1.
</event>
<event>
 5   0  0.3328741E-03  0.8785746E+03  0.7818609E-02  0.9452768E-01
        1   -1    0    0  501    0  0.00000000000E+00  0.00000000000E+00  0.15908677052E+04  0.15908677052E+04  0.50400001928E-02 0.  1.
       -1   -1    0    0    0  501  0.00000000000E+00  0.00000000000E+00 -0.12130066797E+03  0.12130066807E+03  0.50400001928E-02 0. -1.
    10030    2    1    2    0    0  0.00000000000E+00  0.00000000000E+00  0.14695670372E+04  0.17121683732E+04  0.87857456230E+03 0.  0.
        3    1    3    3  502    0  0.36822513026E+03  0.21787244736E+02  0.11996816969E+04  0.12551098018E+04  0.10100000352E+00 0.  1.
       -3    1    3    3    0  502 -0.36822513026E+03 -0.21787244736E+02  0.26988534029E+03  0.45705857140E+03  0.10100000352E+00 0. -1.
</event>
<event>
 5   0  0.5500363E-03  0.1064808E+04  0.7818609E-02  0.9240188E-01
       -2   -1    0    0    0  501  0.00000000000E+00  0.00000000000E+00  0.10641498070E+04  0.10641498070E+04  0.25500000920E-02 0.  1.
        2   -1    0    0  501    0  0.00000000000E+00  0.00000000000E+00 -0.26636649048E+03  0.26636649050E+03  0.25500000920E-02 0. -1.
    10030    2    1    2    0    0  0.00000000000E+00  0.00000000000E+00  0.79778331651E+03  0.13305162975E+04  0.10648076811E+04 0.  0.
        3    1    3    3  502    0  0.40784913343E+02  0.25472295728E+03 -0.18305804608E+03  0.31631859344E+03  0.10100000352E+00 0. -1.
       -3    1    3    3    0  502 -0.40784913343E+02 -0.25472295728E+03  0.98084136259E+03  0.10141977040E+04  0.10100000352E+00 0.  1.
</event>
<event>
 5   0  0.5946359E-03  0.1096001E+04  0.7818609E-02  0.9209098E-01
       -2   -1    0    0    0  501  0.00000000000E+00  0.00000000000E+00  0.93276625189E+03  0.93276625189E+03  0.25500000920E-02 0. -1.
        2   -1    0    0  501    0  0.00000000000E+00  0.00000000000E+00 -0.32195061806E+03  0.32195061807E+03  0.25500000920E-02 0.  1.
    10030    2    1    2    0    0  0.00000000000E+00  0.00000000000E+00  0.61081563383E+03  0.12547168700E+04  0.10960012250E+04 0.  0.
        4    1    3    3  502    0  0.30493157623E+03  0.15344472021E+03 -0.18536142296E+03  0.38844435684E+03  0.12699999809E+01 0.  1.
       -4    1    3    3    0  502 -0.30493157623E+03 -0.15344472021E+03  0.79617705678E+03  0.86627251312E+03  0.12699999809E+01 0. -1.
</event>
<event>
 5   0  0.3320192E-03  0.1078769E+04  0.7818609E-02  0.9226136E-01
       -1   -1    0    0    0  501  0.00000000000E+00  0.00000000000E+00  0.25563541735E+03  0.25563541740E+03  0.50400001928E-02 0. -1.
        1   -1    0    0  501    0  0.00000000000E+00  0.00000000000E+00 -0.11380880229E+04  0.11380880229E+04  0.50400001928E-02 0.  1.
    10030    2    1    2    0    0  0.00000000000E+00  0.00000000000E+00 -0.88245260558E+03  0.13937234403E+04  0.10787689405E+04 0.  0.
        2    1    3    3  502    0  0.51916366283E+03 -0.84277615534E+02 -0.28671997308E+03  0.59903419623E+03  0.25500000920E-02 0.  1.
       -2    1    3    3    0  502 -0.51916366283E+03  0.84277615534E+02 -0.59573263250E+03  0.79468924411E+03  0.25500000920E-02 0. -1.
</event>
<event>
 5   0  0.3215352E-03  0.1171102E+04  0.7818609E-02  0.9138534E-01
        1   -1    0    0  501    0  0.00000000000E+00  0.00000000000E+00  0.35646610180E+03  0.35646610184E+03  0.50400001928E-02 0.  1.
       -1   -1    0    0    0  501  0.00000000000E+00  0.00000000000E+00 -0.96185866165E+03  0.96185866167E+03  0.50400001928E-02 0. -1.
    10030    2    1    2    0    0  0.00000000000E+00  0.00000000000E+00 -0.60539255985E+03  0.13183247635E+04  0.11711020581E+04 0.  0.
        1    1    3    3  502    0  0.20851449995E+03  0.54257532452E+03 -0.38232587713E+03  0.69572936967E+03  0.50400001928E-02 0.  1.
       -1    1    3    3    0  502 -0.20851449995E+03 -0.54257532452E+03 -0.22306668272E+03  0.62259539384E+03  0.50400001928E-02 0. -1.
</event>
<event>
 5   0  0.3320192E-03  0.1076261E+04  0.7818609E-02  0.9228643E-01
       -1   -1    0    0    0  501  0.00000000000E+00  0.00000000000E+00  0.11512715717E+04  0.11512715717E+04  0.50400001928E-02 0.  1.
        1   -1    0    0  501    0  0.00000000000E+00  0.00000000000E+00 -0.25153446611E+03  0.25153446616E+03  0.50400001928E-02 0. -1.
    10030    2    1    2    0    0  0.00000000000E+00  0.00000000000E+00  0.89973710559E+03  0.14028060379E+04  0.10762610839E+04 0.  0.
        2    1    3    3  502    0  0.23359068700E+03  0.41438394185E+03  0.77781415262E+03  0.91174202291E+03  0.25500000920E-02 0.  1.
       -2    1    3    3    0  502 -0.23359068700E+03 -0.41438394185E+03  0.12192295298E+03  0.49106401496E+03  0.25500000920E-02 0. -1.
</event>
<event>
 5   0  0.2185750E-03  0.1090489E+04  0.7818609E-02  0.9214512E-01
       -3   -1    0    0    0  501  0.00000000000E+00  0.00000000000E+00  0.45009983287E+03  0.45009984420E+03  0.10100000352E+00 0.  1.
        3   -1    0    0  501    0  0.00000000000E+00  0.00000000000E+00 -0.66050080089E+03  0.66050080861E+03  0.10100000352E+00 0. -1.
    10030    2    1    2    0    0  0.00000000000E+00  0.00000000000E+00 -0.21040096802E+03  0.11106006528E+04  0.10904885340E+04 0.  0.
        5    1    3    3  502    0 -0.11415547121E+03  0.12404984503E+03 -0.63327030036E+03  0.65534204731E+03  0.46999998093E+01 0. -1.
       -5    1    3    3    0  502  0.11415547121E+03 -0.12404984503E+03  0.42286933234E+03  0.45525860551E+03  0.46999998093E+01 0.  1.
</event>
<event>
 5   0  0.5946359E-03  0.1107751E+04  0.7818609E-02  0.9197670E-01
       -2   -1    0    0    0  501  0.00000000000E+00  0.00000000000E+00  0.26084941398E+03  0.26084941399E+03  0.25500000920E-02 0.  1.
        2   -1    0    0  501    0  0.00000000000E+00  0.00000000000E+00 -0.11760736338E+04  0.11760736338E+04  0.25500000920E-02 0. -1.
    10030    2    1    2    0    0  0.00000000000E+00  0.00000000000E+00 -0.91522421978E+03  0.14369230478E+04  0.11077510879E+04 0.  0.
        4    1    3    3  502    0  0.28531902477E+03 -0.25138660798E+03  0.64762891592E+02  0.38574346086E+03  0.12699999809E+01 0.  1.
       -4    1    3    3    0  502 -0.28531902477E+03  0.25138660798E+03 -0.97998711137E+03  0.10511795869E+04  0.12699999809E+01 0. -1.
</event>
<event>
 5   0  0.5946359E-03  0.1065118E+04  0.7818609E-02  0.9239873E-01
       -2   -1    0    0    0  501  0.00000000000E+00  0.00000000000E+00  0.15899498974E+03  0.15899498976E+03  0.25500000920E-02 0.  1.
        2   -1    0    0  501    0  0.00000000000E+00  0.00000000000E+00 -0.17838244530E+04  0.17838244530E+04  0.25500000920E-02 0. -1.
    10030    2    1    2    0    0  0.00000000000E+00  0.00000000000E+00 -0.16248294633E+04  0.19428194428E+04  0.10651181167E+04 0.  0.
        4    1    3    3  502    0 -0.18459894987E+03  0.63627460927E+02 -0.17161757748E+04  0.17272481376E+04  0.12699999809E+01 0. -1.
       -4    1    3    3    0  502  0.18459894987E+03 -0.63627460927E+02  0.91346311511E+02  0.21557130515E+03  0.12699999809E+01 0.  1.
</event>
<event>
 5   0  0.5941585E-03  0.1076883E+04  0.7818609E-02  0.9228021E-01
       -2   -1    0    0    0  501  0.00000000000E+00  0.00000000000E+00  0.27594005245E+03  0.27594005247E+03  0.25500000920E-02 0. -1.
        2   -1    0    0  501    0  0.00000000000E+00  0.00000000000E+00 -0.10506601114E+04  0.10506601114E+04  0.25500000920E-02 0.  1.
    10030    2    1    2    0    0  0.00000000000E+00  0.00000000000E+00 -0.77472005892E+03  0.13266001638E+04  0.10768829208E+04 0.  0.
        5    1    3    3  502    0 -0.42986661333E+02  0.49349008967E+03 -0.12744373887E+03  0.51151179677E+03  0.46999998093E+01 0.  1.
       -5    1    3    3    0  502  0.42986661333E+02 -0.49349008967E+03 -0.64727632004E+03  0.81508836707E+03  0.46999998093E+01 0. -1.
</event>
<event>
 5   0  0.3328741E-03  0.1106178E+04  0.7818609E-02  0.9199191E-01
       -1   -1    0    0    0  501  0.00000000000E+00  0.00000000000E+00  0.99307308713E+03  0.99307308714E+03  0.50400001928E-02 0.  1.
        1   -1    0    0  501    0  0.00000000000E+00  0.00000000000E+00 -0.30804133736E+03  0.30804133740E+03  0.50400001928E-02 0. -1.
    10030    2    1    2    0    0  0.00000000000E+00  0.00000000000E+00  0.68503174977E+03  0.13011144245E+04  0.11061782169E+04 0.  0.
        3    1    3    3  502    0 -0.37134061050E+03 -0.40400852757E+03  0.26110264791E+03  0.60769346080E+03  0.10100000352E+00 0. -1.
       -3    1    3    3    0  502  0.37134061050E+03  0.40400852757E+03  0.42392910186E+03  0.69342096374E+03  0.10100000352E+00 0.  1.
</event>
<event>
 5   0  0.3320192E-03  0.1107689E+04  0.7818609E-02  0.9197730E-01
       -1   -1    0    0    0  501  0.00000000000E+00  0.00000000000E+00  0.86436187095E+03  0.86436187097E+03  0.50400001928E-02 0.  1.
        1   -1    0    0  501    0  0.00000000000E+00  0.00000000000E+00 -0.35487890365E+03  0.35487890369E+03  0.50400001928E-02 0. -1.
    10030    2    1    2    0    0  0.00000000000E+00  0.00000000000E+00  0.50948296730E+03  0.12192407747E+04  0.11076891137E+04 0.  0.
        2    1    3    3  502    0  0.12598041679E+03 -0.96372070552E+02 -0.32934407134E+03  0.36554911945E+03  0.25500000920E-02 0. -1.
       -2    1    3    3    0  502 -0.12598041679E+03  0.96372070552E+02  0.83882703864E+03  0.85369165520E+03  0.25500000920E-02 0.  1.
</event>
<event>
 5   0  0.5723194E-03  0.1146399E+04  0.7818609E-02  0.9161112E-01
        2   -1    0    0  501    0  0.00000000000E+00  0.00000000000E+00  0.83419888912E+03  0.83419888912E+03  0.25500000920E-02 0.  1.
       -2   -1    0    0    0  501  0.00000000000E+00  0.00000000000E+00 -0.39386042213E+03  0.39386042214E+03  0.25500000920E-02 0. -1.
    10030    2    1    2    0    0  0.00000000000E+00  0.00000000000E+00  0.44033846699E+03  0.12280593113E+04  0.11463994533E+04 0.  0.
        1    1    3    3  502    0  0.12411316353E+03  0.66678752708E+01  0.81958949274E+03  0.82896047828E+03  0.50400001928E-02 0.  1.
       -1    1    3    3    0  502 -0.12411316353E+03 -0.66678752708E+01 -0.37925102575E+03  0.39909883297E+03  0.50400001928E-02 0. -1.
</event>
<event>
 5   0  0.3316784E-03  0.1112119E+04  0.7818609E-02  0.9193460E-01
        1   -1    0    0  501    0  0.00000000000E+00  0.00000000000E+00  0.10392183035E+04  0.10392183035E+04  0.50400001928E-02 0. -1.
       -1   -1    0    0    0  501  0.00000000000E+00  0.00000000000E+00 -0.29753343132E+03  0.29753343136E+03  0.50400001928E-02 0.  1.
    10030    2    1    2    0    0  0.00000000000E+00  0.00000000000E+00  0.74168487215E+03  0.13367517348E+04  0.11121190364E+04 0.  0.
        4    1    3    3  502    0 -0.26839172854E+03  0.68022323897E+02  0.95046832188E+03  0.98997616148E+03  0.12699999809E+01 0. -1.
       -4    1    3    3    0  502  0.26839172854E+03 -0.68022323897E+02 -0.20878344974E+03  0.34677557336E+03  0.12699999809E+01 0.  1.
</event>
<event>
 5   0  0.5723194E-03  0.1099964E+04  0.7818609E-02  0.9205227E-01
       -2   -1    0    0    0  501  0.00000000000E+00  0.00000000000E+00  0.13025940071E+03  0.13025940073E+03  0.25500000920E-02 0.  1.
        2   -1    0    0  501    0  0.00000000000E+00  0.00000000000E+00 -0.23221367265E+04  0.23221367265E+04  0.25500000920E-02 0. -1.
    10030    2    1    2    0    0  0.00000000000E+00  0.00000000000E+00 -0.21918773258E+04  0.24523961272E+04  0.10999638874E+04 0.  0.
        1    1    3    3  502    0  0.15774193233E+03 -0.50265669356E+03 -0.14479908413E+04  0.15408516299E+04  0.50400001928E-02 0. -1.
       -1    1    3    3    0  502 -0.15774193233E+03  0.50265669356E+03 -0.74388648442E+03  0.91154449728E+03  0.50400001928E-02 0.  1.
</event>
<event>
 5   0  0.2185750E-03  0.1113838E+04  0.7818609E-02  0.9191808E-01
        3   -1    0    0  501    0  0.00000000000E+00  0.00000000000E+00  0.35510000616E+03  0.35510002052E+03  0.10100000352E+00 0. -1.
       -3   -1    0    0    0  501  0.00000000000E+00  0.00000000000E+00 -0.87344058038E+03  0.87344058622E+03  0.10100000352E+00 0.  1.
    10030    2    1    2    0    0  0.00000000000E+00  0.00000000000E+00 -0.51834057423E+03  0.12285406067E+04  0.11138379916E+04 0.  0.
        1    1    3    3  502    0 -0.25038444105E+03  0.19224138214E+03 -0.76523201477E+03  0.82778569315E+03  0.50400001928E-02 0.  1.
       -1    1    3    3    0  502  0.25038444105E+03 -0.19224138214E+03  0.24689144055E+03  0.40075491359E+03  0.50400001928E-02 0. -1.
</event>
<event>
 5   0  0.5627232E-03  0.1099401E+04  0.7818609E-02  0.9205776E-01
       -2   -1    0    0    0  501  0.00000000000E+00  0.00000000000E+00  0.27892404236E+03  0.27892404237E+03  0.25500000920E-02 0. -1.
        2   -1    0    0  501    0  0.00000000000E+00  0.00000000000E+00 -0.10833438859E+04  0.10833438859E+04  0.25500000920E-02 0.  1.
    10030    2    1    2    0    0  0.00000000000E+00  0.00000000000E+00 -0.80441984355E+03  0.13622679283E+04  0.10994010295E+04 0.  0.
        2    1    3    3  502    0 -0.45646283612E+03 -0.21157085460E+03 -0.67663663219E+03  0.84318306393E+03  0.25500000920E-02 0.  1.
       -2    1    3    3    0  502  0.45646283612E+03  0.21157085460E+03 -0.12778321136E+03  0.51908486434E+03  0.25500000920E-02 0. -1.
</event>
<event>
 5   0  0.3316784E-03  0.1147486E+04  0.7818609E-02  0.9160106E-01
       -1   -1    0    0    0  501  0.00000000000E+00  0.00000000000E+00  0.33292781960E+03  0.33292781964E+03  0.50400001928E-02 0.  1.
        1   -1    0    0  501    0  0.00000000000E+00  0.00000000000E+00 -0.98874575156E+03  0.98874575157E+03  0.50400001928E-02 0. -1.
    10030    2    1    2    0    0  0.00000000000E+00  0.00000000000E+00 -0.65581793195E+03  0.13216735712E+04  0.11474858905E+04 0.  0.
        4    1    3    3  502    0 -0.26491515009E+03 -0.31036383585E+03  0.13664417392E+03  0.43032428530E+03  0.12699999809E+01 0.  1.
       -4    1    3    3    0  502  0.26491515009E+03  0.31036383585E+03 -0.79246210588E+03  0.89134928592E+03  0.12699999809E+01 0. -1.
</event>
<event>
 5   0  0.5946359E-03  0.1169306E+04  0.7818609E-02  0.9140155E-01
        2   -1    0    0  501    0  0.00000000000E+00  0.00000000000E+00  0.48888057672E+03  0.48888057672E+03  0.25500000920E-02 0. -1.
       -2   -1    0    0    0  501  0.00000000000E+00  0.00000000000E+00 -0.69918784738E+03  0.69918784739E+03  0.25500000920E-02 0.  1.
    10030    2    1    2    0    0  0.00000000000E+00  0.00000000000E+00 -0.21030727066E+03  0.11880684241E+04  0.11693063894E+04 0.  0.
        4    1    3    3  502    0  0.67102287841E+02 -0.55668469933E+03  0.63084510119E+02  0.56425334719E+03  0.12699999809E+01 0. -1.
       -4    1    3    3    0  502 -0.67102287841E+02  0.55668469933E+03 -0.27339178078E+03  0.62381507692E+03  0.12699999809E+01 0.  1.
</event>
<event>
 5   0  0.3328741E-03  0.1081752E+04  0.7818609E-02  0.9223162E-01
        1   -1    0    0  501    0  0.00000000000E+00  0.00000000000E+00  0.89202936726E+03  0.89202936728E+03  0.50400001928E-02 0. -1.
       -1   -1    0    0    0  501  0.00000000000E+00  0.00000000000E+00 -0.32795665063E+03  0.32795665067E+03  0.50400001928E-02 0.  1.
    10030    2    1    2    0    0  0.00000000000E+00  0.00000000000E+00  0.56407271663E+03  0.12199860179E+04  0.10817522149E+04 0.  0.
        3    1    3    3  502    0 -0.46488190702E+03 -0.10666827008E+03  0.56968536690E+03  0.74299040019E+03  0.10100000352E+00 0. -1.
       -3    1    3    3    0  502  0.46488190702E+03  0.10666827008E+03 -0.56126502734E+01  0.47699561776E+03  0.10100000352E+00 0.  1.
</event>
<event>
 5   0  0.5941585E-03  0.1097403E+04  0.7818609E-02  0.9207727E-01
        2   -1    0    0  501    0  0.00000000000E+00  0.00000000000E+00  0.11698624927E+04  0.11698624927E+04  0.25500000920E-02 0. -1.
       -2   -1    0    0    0  501  0.00000000000E+00  0.00000000000E+00 -0.25735778535E+03  0.25735778537E+03  0.25500000920E-02 0.  1.
    10030    2    1    2    0    0  0.00000000000E+00  0.00000000000E+00  0.91250470735E+03  0.14272202781E+04  0.10974027890E+04 0.  0.
        5    1    3    3  502    0  0.47580881104E+03 -0.80866472927E+02  0.11681862337E+03  0.49659046695E+03  0.46999998093E+01 0.  1.
       -5    1    3    3    0  502 -0.47580881104E+03  0.80866472927E+02  0.79568608398E+03  0.93062981112E+03  0.46999998093E+01 0. -1.
</event>
<event>
 5   0  0.5941585E-03  0.1112805E+04  0.7818609E-02  0.9192800E-01
        2   -1    0    0  501    0  0.00000000000E+00  0.00000000000E+00  0.10602174374E+04  0.10602174374E+04  0.25500000920E-02 0. -1.
       -2   -1    0    0    0  501  0.00000000000E+00  0.00000000000E+00 -0.29200021754E+03  0.29200021755E+03  0.25500000920E-02 0.  1.
    10030    2    1    2    0    0  0.00000000000E+00  0.00000000000E+00  0.76821721987E+03  0.13522176550E+04  0.11128049647E+04 0.  0.
        5    1    3    3  502    0 -0.46573423005E+01 -0.30893939470E+03  0.94636217982E+03  0.99553438204E+03  0.46999998093E+01 0. -1.
       -5    1    3    3    0  502  0.46573423005E+01  0.30893939470E+03 -0.17814495994E+03  0.35668327293E+03  0.46999998093E+01 0.  1.
</event>
<event>
 5   0  0.5723194E-03  0.1081066E+04  0.7818609E-02  0.9223845E-01
        2   -1    0    0  501    0  0.00000000000E+00  0.00000000000E+00  0.36380542392E+03  0.36380542393E+03  0.25500000920E-02 0.  1.
       -2   -1    0    0    0  501  0.00000000000E+00  0.00000000000E+00 -0.80311029249E+03  0.80311029250E+03  0.25500000920E-02 0. -1.
    10030    2    1    2    0    0  0.00000000000E+00  0.00000000000E+00 -0.43930486857E+03  0.11669157164E+04  0.10810659192E+04 0.  0.
        1    1    3    3  502    0  0.89584390505E+02  0.42125669083E+03  0.13292614462E+03  0.45072377632E+03  0.50400001928E-02 0.  1.
       -1    1    3    3    0  502 -0.89584390505E+02 -0.42125669083E+03 -0.57223101319E+03  0.71619194011E+03  0.50400001928E-02 0. -1.
</event>
<event>
 5   0  0.3320192E-03  0.1096131E+04  0.7818609E-02  0.9208971E-01
       -1   -1    0    0    0  501  0.00000000000E+00  0.00000000000E+00  0.55627710422E+03  0.55627710424E+03  0.50400001928E-02 0. -1.
        1   -1    0    0  501    0  0.00000000000E+00  0.00000000000E+00 -0.53997484793E+03  0.53997484796E+03  0.50400001928E-02 0.  1.
    10030    2    1    2    0    0  0.00000000000E+00  0.00000000000E+00  0.16302256283E+02  0.10962519522E+04  0.10961307309E+04 0.  0.
        2    1    3    3  502    0  0.36423606317E+03  0.36078295843E+03 -0.18563147245E+03  0.54524425387E+03  0.25500000920E-02 0.  1.
       -2    1    3    3    0  502 -0.36423606317E+03 -0.36078295843E+03  0.20193372874E+03  0.55100769833E+03  0.25500000920E-02 0. -1.
</event>
<event>
 5   0  0.3328741E-03  0.1106264E+04  0.7818609E-02  0.9199108E-01
       -1   -1    0    0    0  501  0.00000000000E+00  0.00000000000E+00  0.34005523468E+03  0.34005523472E+03  0.50400001928E-02 0. -1.
        1   -1    0    0  501    0  0.00000000000E+00  0.00000000000E+00 -0.89972151386E+03  0.89972151387E+03  0.50400001928E-02 0.  1.
    10030    2    1    2    0    0  0.00000000000E+00  0.00000000000E+00 -0.55966627918E+03  0.12397767486E+04  0.11062640021E+04 0.  0.
        3    1    3    3  502    0 -0.23647530990E+03  0.88571073184E+02  0.27168835796E+03  0.37091775537E+03  0.10100000352E+00 0. -1.
       -3    1    3    3    0  502  0.23647530990E+03 -0.88571073184E+02 -0.83135463714E+03  0.86885899322E+03  0.10100000352E+00 0.  1.
</event>
<event>
 5   0  0.3328741E-03  0.1104709E+04  0.7818609E-02  0.9200614E-01
       -1   -1    0    0    0  501  0.00000000000E+00  0.00000000000E+00  0.41123183198E+03  0.41123183201E+03  0.50400001928E-02 0. -1.
        1   -1    0    0  501    0  0.00000000000E+00  0.00000000000E+00 -0.74190628115E+03  0.74190628116E+03  0.50400001928E-02 0.  1.
    10030    2    1    2    0    0  0.00000000000E+00  0.00000000000E+00 -0.33067444916E+03  0.11531381132E+04  0.11047089738E+04 0.  0.
        3    1    3    3  502    0 -0.49094278916E+03  0.25062945107E+03 -0.12835047819E+03  0.56596271911E+03  0.10100000352E+00 0.  1.
       -3    1    3    3    0  502  0.49094278916E+03 -0.25062945107E+03 -0.20232397097E+03  0.58717539407E+03  0.10100000352E+00 0. -1.
</event>
<event>
 5   0  0.5946359E-03  0.1092254E+04  0.7818609E-02  0.9212775E-01
       -2   -1    0    0    0  501  0.00000000000E+00  0.00000000000E+00  0.62015576276E+03  0.62015576276E+03  0.25500000920E-02 0. -1.
        2   -1    0    0  501    0  0.00000000000E+00  0.00000000000E+00 -0.48093479869E+03  0.48093479869E+03  0.25500000920E-02 0.  1.
    10030    2    1    2    0    0  0.00000000000E+00  0.00000000000E+00  0.13922096407E+03  0.11010905615E+04  0.10922536096E+04 0.  0.
        4    1    3    3  502    0 -0.32828943313E+02 -0.50353233529E+03 -0.14095819060E+03  0.52392115494E+03  0.12699999809E+01 0.  1.
       -4    1    3    3    0  502  0.32828943313E+02  0.50353233529E+03  0.28017915467E+03  0.57716940651E+03  0.12699999809E+01 0. -1.
</event>
<event>
 5   0  0.3241189E-03  0.1100656E+04  0.7818609E-02  0.9204553E-01
        1   -1    0    0  501    0  0.00000000000E+00  0.00000000000E+00  0.52542924920E+03  0.52542924922E+03  0.50400001928E-02 0. -1.
       -1   -1    0    0    0  501  0.00000000000E+00  0.00000000000E+00 -0.57640687221E+03  0.57640687223E+03  0.50400001928E-02 0.  1.
    10030    2    1    2    0    0  0.00000000000E+00  0.00000000000E+00 -0.50977623011E+02  0.11018361215E+04  0.11006562227E+04 0.  0.
        5    1    3    3  502    0  0.11122071289E+03 -0.45356016846E+03  0.26594535231E+03  0.53743454839E+03  0.46999998093E+01 0. -1.
       -5    1    3    3    0  502 -0.11122071289E+03  0.45356016846E+03 -0.31692297532E+03  0.56440157306E+03  0.46999998093E+01 0.  1.
</event>
<event>
 5   0  0.3316784E-03  0.1092244E+04  0.7818609E-02  0.9212784E-01
        1   -1    0    0  501    0  0.00000000000E+00  0.00000000000E+00  0.19266783574E+04  0.19266783574E+04  0.50400001928E-02 0.  1.
       -1   -1    0    0    0  501  0.00000000000E+00  0.00000000000E+00 -0.15479971133E+03  0.15479971141E+03  0.50400001928E-02 0. -1.
    10030    2    1    2    0    0  0.00000000000E+00  0.00000000000E+00  0.17718786460E+04  0.20814780688E+04  0.10922440270E+04 0.  0.
        4    1    3    3  502    0 -0.82826511173E+02  0.43518384031E+03  0.14945750339E+04  0.15588461601E+04  0.12699999809E+01 0.  1.
       -4    1    3    3    0  502  0.82826511173E+02 -0.43518384031E+03  0.27730361214E+03  0.52263190873E+03  0.12699999809E+01 0. -1.
</event>
<event>
 5   0  0.3320192E-03  0.1112940E+04  0.7818609E-02  0.9192671E-01
       -1   -1    0    0    0  501  0.00000000000E+00  0.00000000000E+00  0.15297066205E+03  0.15297066213E+03  0.50400001928E-02 0. -1.
        1   -1    0    0  501    0  0.00000000000E+00  0.00000000000E+00 -0.20243015524E+04  0.20243015524E+04  0.50400001928E-02 0.  1.
    10030    2    1    2    0    0  0.00000000000E+00  0.00000000000E+00 -0.18713308903E+04  0.21772722145E+04  0.11129397985E+04 0.  0.
        2    1    3    3  502    0 -0.71185618941E+01 -0.43716383792E+03 -0.26223517403E+03  0.50983348420E+03  0.25500000920E-02 0. -1.
       -2    1    3    3    0  502  0.71185618941E+01  0.43716383792E+03 -0.16090957163E+04  0.16674387303E+04  0.25500000920E-02 0.  1.
</event>
<event>
 5   0  0.5500363E-03  0.1096208E+04  0.7818609E-02  0.9208895E-01
       -2   -1    0    0    0  501  0.00000000000E+00  0.00000000000E+00  0.21519629654E+03  0.21519629656E+03  0.25500000920E-02 0. -1.
        2   -1    0    0  501    0  0.00000000000E+00  0.00000000000E+00 -0.13960191353E+04  0.13960191353E+04  0.25500000920E-02 0.  1.
    10030    2    1    2    0    0  0.00000000000E+00  0.00000000000E+00 -0.11808228388E+04  0.16112154319E+04  0.10962082792E+04 0.  0.
        3    1    3    3  502    0 -0.78778775281E+02  0.50770034107E+03 -0.30978817998E+03  0.59994537953E+03  0.10100000352E+00 0. -1.
       -3    1    3    3    0  502  0.78778775281E+02 -0.50770034107E+03 -0.87103465878E+03  0.10112700523E+04  0.10100000352E+00 0.  1.
</event>
<event>
 5   0  0.5946359E-03  0.9441719E+03  0.7818609E-02  0.9371989E-01
       -2   -1    0    0    0  501  0.00000000000E+00  0.00000000000E+00  0.64569583785E+03  0.64569583786E+03  0.25500000920E-02 0.  1.
        2   -1    0    0  501    0  0.00000000000E+00  0.00000000000E+00 -0.34515500449E+03  0.34515500450E+03  0.25500000920E-02 0. -1.
    10030    2    1    2    0    0  0.00000000000E+00  0.00000000000E+00  0.30054083336E+03  0.99085084236E+03  0.94417191194E+03 0.  0.
        4    1    3    3  502    0 -0.11722568064E+02  0.13737995093E+03 -0.32355201665E+03  0.35170753460E+03  0.12699999809E+01 0. -1.
       -4    1    3    3    0  502  0.11722568064E+02 -0.13737995093E+03  0.62409285001E+03  0.63914330776E+03  0.12699999809E+01 0.  1.
</event>
<event>
 5   0  0.5500363E-03  0.1184985E+04  0.7818609E-02  0.9126102E-01
        2   -1    0    0  501    0  0.00000000000E+00  0.00000000000E+00  0.69097631584E+03  0.69097631585E+03  0.25500000920E-02 0.  1.
       -2   -1    0    0    0  501  0.00000000000E+00  0.00000000000E+00 -0.50804510310E+03  0.50804510310E+03  0.25500000920E-02 0. -1.
    10030    2    1    2    0    0  0.00000000000E+00  0.00000000000E+00  0.18293121275E+03  0.11990214190E+04  0.11849846136E+04 0.  0.
        3    1    3    3  502    0 -0.11502926188E+03  0.56170734376E+03  0.24256722558E+03  0.62256384432E+03  0.10100000352E+00 0.  1.
       -3    1    3    3    0  502  0.11502926188E+03 -0.56170734376E+03 -0.59636012829E+02  0.57645757464E+03  0.10100000352E+00 0. -1.
</event>
<event>
 5   0  0.5500363E-03  0.1105807E+04  0.7818609E-02  0.9199551E-01
       -2   -1    0    0    0  501  0.00000000000E+00  0.00000000000E+00  0.33345589331E+03  0.33345589332E+03  0.25500000920E-02 0.  1.
        2   -1    0    0  501    0  0.00000000000E+00  0.00000000000E+00 -0.91676914313E+03  0.91676914313E+03  0.25500000920E-02 0. -1.
    10030    2    1    2    0    0  0.00000000000E+00  0.00000000000E+00 -0.58331324982E+03  0.12502250364E+04  0.11058066261E+04 0.  0.
        3    1    3    3  502    0  0.27429880938E+03 -0.20057933236E+03 -0.78477216369E+03  0.85518376066E+03  0.10100000352E+00 0. -1.
       -3    1    3    3    0  502 -0.27429880938E+03  0.20057933236E+03  0.20145891387E+03  0.39504127579E+03  0.10100000352E+00 0.  1.
</event>
<event>
 5   0  0.3241189E-03  0.1104986E+04  0.7818609E-02  0.9200346E-01
       -1   -1    0    0    0  501  0.00000000000E+00  0.00000000000E+00  0.60189283153E+03  0.60189283155E+03  0.50400001928E-02 0. -1.
        1   -1    0    0  501    0  0.00000000000E+00  0.00000000000E+00 -0.50714732445E+03  0.50714732448E+03  0.50400001928E-02 0.  1.
    10030    2    1    2    0    0  0.00000000000E+00  0.00000000000E+00  0.94745507079E+02  0.11090401560E+04  0.11049856816E+04 0.  0.
        5    1    3    3  502    0 -0.34075989260E+03 -0.24482363163E+03 -0.31334873327E+03  0.52370357421E+03  0.46999998093E+01 0.  1.
       -5    1    3    3    0  502  0.34075989260E+03  0.24482363163E+03  0.40809424034E+03  0.58533658181E+03  0.46999998093E+01 0. -1.
</event>
<event>
 5   0  0.3316784E-03  0.1085648E+04  0.7818609E-02  0.9219294E-01
        1   -1    0    0  501    0  0.00000000000E+00  0.00000000000E+00  0.53747774510E+03  0.53747774512E+03  0.50400001928E-02 0. -1.
       -1   -1    0    0    0  501  0.00000000000E+00  0.00000000000E+00 -0.54822355560E+03  0.54822355562E+03  0.50400001928E-02 0.  1.
    10030    2    1    2    0    0  0.00000000000E+00  0.00000000000E+00 -0.10745810503E+02  0.10857013007E+04  0.10856481207E+04 0.  0.
        4    1    3    3  502    0 -0.18727085903E+03 -0.28989523871E+03  0.41363058176E+03  0.53870353176E+03  0.12699999809E+01 0. -1.
       -4    1    3    3    0  502  0.18727085903E+03  0.28989523871E+03 -0.42437639226E+03  0.54699776898E+03  0.12699999809E+01 0.  1.
</event>
<event>
 5   0  0.3241189E-03  0.1028989E+04  0.7818609E-02  0.9277310E-01
       -1   -1    0    0    0  501  0.00000000000E+00  0.00000000000E+00  0.32926495759E+03  0.32926495763E+03  0.50400001928E-02 0.  1.
        1   -1    0    0  501    0  0.00000000000E+00  0.00000000000E+00 -0.80392559169E+03  0.80392559170E+03  0.50400001928E-02 0. -1.
    10030    2    1    2    0    0  0.00000000000E+00  0.00000000000E+00 -0.47466063409E+03  0.11331905493E+04  0.10289888744E+04 0.  0.
        5    1    3    3  502    0  0.14774536524E+03  0.40331229316E+03  0.74530149931E+02  0.43596597575E+03  0.46999998093E+01 0.  1.
       -5    1    3    3    0  502 -0.14774536524E+03 -0.40331229316E+03 -0.54919078402E+03  0.69722457359E+03  0.46999998093E+01 0. -1.
</event>
<event>
 5   0  0.3215352E-03  0.1117133E+04  0.7818609E-02  0.9188652E-01
       -1   -1    0    0    0  501  0.00000000000E+00  0.00000000000E+00  0.37254238454E+03  0.37254238457E+03  0.50400001928E-02 0. -1.
        1   -1    0    0  501    0  0.00000000000E+00  0.00000000000E+00 -0.83747942622E+03  0.83747942624E+03  0.50400001928E-02 0.  1.
    10030    2    1    2    0    0  0.00000000000E+00  0.00000000000E+00 -0.46493704168E+03  0.12100218108E+04  0.11171330851E+04 0.  0.
        1    1    3    3  502    0  0.10490785282E+03 -0.46633391737E+03 -0.54550351724E+03  0.72529102256E+03  0.50400001928E-02 0.  1.
       -1    1    3    3    0  502 -0.10490785282E+03  0.46633391737E+03  0.80566475554E+02  0.48473078825E+03  0.50400001928E-02 0. -1.
</event>
<event>
 5   0  0.5946359E-03  0.1105596E+04  0.7818609E-02  0.9199755E-01
        2   -1    0    0  501    0  0.00000000000E+00  0.00000000000E+00  0.20586336010E+04  0.20586336010E+04  0.25500000920E-02 0. -1.
       -2   -1    0    0    0  501  0.00000000000E+00  0.00000000000E+00 -0.14844101836E+03  0.14844101838E+03  0.25500000920E-02 0.  1.
    10030    2    1    2    0    0  0.00000000000E+00  0.00000000000E+00  0.19101925827E+04  0.22070746194E+04  0.11055960713E+04 0.  0.
        4    1    3    3  502    0  0.89826770887E+02  0.42713530738E+03  0.16322742065E+04  0.16896254371E+04  0.12699999809E+01 0. -1.
       -4    1    3    3    0  502 -0.89826770887E+02 -0.42713530738E+03  0.27791837620E+03  0.51744918235E+03  0.12699999809E+01 0.  1.
</event>
<event>
 5   0  0.5723194E-03  0.1101256E+04  0.7818609E-02  0.9203968E-01
       -2   -1    0    0    0  501  0.00000000000E+00  0.00000000000E+00  0.24205598290E+03  0.24205598291E+03  0.25500000920E-02 0. -1.
        2   -1    0    0  501    0  0.00000000000E+00  0.00000000000E+00 -0.12525668521E+04  0.12525668521E+04  0.25500000920E-02 0.  1.
    10030    2    1    2    0    0  0.00000000000E+00  0.00000000000E+00 -0.10105108692E+04  0.14946228350E+04  0.11012561928E+04 0.  0.
        1    1    3    3  502    0  0.40241669225E+03  0.35212017040E+03 -0.32693234811E+03  0.62674761178E+03  0.50400001928E-02 0. -1.
       -1    1    3    3    0  502 -0.40241669225E+03 -0.35212017040E+03 -0.68357852110E+03  0.86787522326E+03  0.50400001928E-02 0.  1.
</event>
<event>
 5   0  0.5627232E-03  0.1099655E+04  0.7818609E-02  0.9205528E-01
       -2   -1    0    0    0  501  0.00000000000E+00  0.00000000000E+00  0.26401539211E+03  0.26401539212E+03  0.25500000920E-02 0.  1.
        2   -1    0    0  501    0  0.00000000000E+00  0.00000000000E+00 -0.11450481533E+04  0.11450481533E+04  0.25500000920E-02 0. -1.
    10030    2    1    2    0    0  0.00000000000E+00  0.00000000000E+00 -0.88103276120E+03  0.14090635454E+04  0.10996551045E+04 0.  0.
        2    1    3    3  502    0  0.43390123786E+03  0.33118379487E+03 -0.35593297690E+03  0.65164505234E+03  0.25500000920E-02 0. -1.
       -2    1    3    3    0  502 -0.43390123786E+03 -0.33118379487E+03 -0.52509978430E+03  0.75741849309E+03  0.25500000920E-02 0.  1.
</event>
<event>
 5   0  0.3328741E-03  0.1093520E+04  0.7818609E-02  0.9211531E-01
        1   -1    0    0  501    0  0.00000000000E+00  0.00000000000E+00  0.53162165458E+03  0.53162165460E+03  0.50400001928E-02 0. -1.
       -1   -1    0    0    0  501  0.00000000000E+00  0.00000000000E+00 -0.56232904744E+03  0.56232904747E+03  0.50400001928E-02 0.  1.
    10030    2    1    2    0    0  0.00000000000E+00  0.00000000000E+00 -0.30707392867E+02  0.10939507021E+04  0.10935196361E+04 0.  0.
        3    1    3    3  502    0 -0.33087820088E+03 -0.39082804045E+03 -0.20705216460E+03  0.55235636150E+03  0.10100000352E+00 0.  1.
       -3    1    3    3    0  502  0.33087820088E+03  0.39082804045E+03  0.17634477173E+03  0.54159434057E+03  0.10100000352E+00 0. -1.
</event>
<event>
 5   0  0.5500363E-03  0.1099143E+04  0.7818609E-02  0.9206028E-01
        2   -1    0    0  501    0  0.00000000000E+00  0.00000000000E+00  0.49207968770E+03  0.49207968771E+03  0.25500000920E-02 0.  1.
       -2   -1    0    0    0  501  0.00000000000E+00  0.00000000000E+00 -0.61378035644E+03  0.61378035644E+03  0.25500000920E-02 0. -1.
    10030    2    1    2    0    0  0.00000000000E+00  0.00000000000E+00 -0.12170066874E+03  0.11058600442E+04  0.10991430228E+04 0.  0.
        3    1    3    3  502    0 -0.15593131956E+03  0.18692691156E+03 -0.55658099954E+03  0.60748552735E+03  0.10100000352E+00 0. -1.
       -3    1    3    3    0  502  0.15593131956E+03 -0.18692691156E+03  0.43488033080E+03  0.49837451681E+03  0.10100000352E+00 0.  1.
</event>
<event>
 5   0  0.5941585E-03  0.1069925E+04  0.7818609E-02  0.9235012E-01
       -2   -1    0    0    0  501  0.00000000000E+00  0.00000000000E+00  0.32235412008E+03  0.32235412009E+03  0.25500000920E-02 0. -1.
        2   -1    0    0  501    0  0.00000000000E+00  0.00000000000E+00 -0.88779580221E+03  0.88779580222E+03  0.25500000920E-02 0.  1.
    10030    2    1    2    0    0  0.00000000000E+00  0.00000000000E+00 -0.56544168213E+03  0.12101499223E+04  0.10699245481E+04 0.  0.
        5    1    3    3  502    0 -0.41839278995E+02  0.20006330178E+03  0.27642462033E+03  0.34381464586E+03  0.46999998093E+01 0. -1.
       -5    1    3    3    0  502  0.41839278995E+02 -0.20006330178E+03 -0.84186630247E+03  0.86633527644E+03  0.46999998093E+01 0.  1.
</event>
<event>
 5   0  0.5723194E-03  0.1093717E+04  0.7818609E-02  0.9211338E-01
       -2   -1    0    0    0  501  0.00000000000E+00  0.00000000000E+00  0.63002789294E+03  0.63002789295E+03  0.25500000920E-02 0.  1.
        2   -1    0    0  501    0  0.00000000000E+00  0.00000000000E+00 -0.47466798928E+03  0.47466798929E+03  0.25500000920E-02 0. -1.
    10030    2    1    2    0    0  0.00000000000E+00  0.00000000000E+00  0.15535990366E+03  0.11046958822E+04  0.10937167332E+04 0.  0.
        1    1    3    3  502    0  0.48902715845E+03 -0.10567962176E+03  0.30066369213E+03  0.58370746094E+03  0.50400001928E-02 0. -1.
       -1    1    3    3    0  502 -0.48902715845E+03  0.10567962176E+03 -0.14530378848E+03  0.52098842130E+03  0.50400001928E-02 0.  1.
</event>
<event>
 5   0  0.3328741E-03  0.1112136E+04  0.7818609E-02  0.9193443E-01
        1   -1    0    0  501    0  0.00000000000E+00  0.00000000000E+00  0.59388042234E+03  0.59388042236E+03  0.50400001928E-02 0.  1.
       -1   -1    0    0    0  501  0.00000000000E+00  0.00000000000E+00 -0.52066330260E+03  0.52066330263E+03  0.50400001928E-02 0. -1.
    10030    2    1    2    0    0  0.00000000000E+00  0.00000000000E+00  0.73217119736E+02  0.11145437250E+04  0.11121362184E+04 0.  0.
        3    1    3    3  502    0 -0.39545116505E+03 -0.38416082215E+02 -0.35327643980E+03  0.53165935751E+03  0.10100000352E+00 0. -1.
       -3    1    3    3    0  502  0.39545116505E+03  0.38416082215E+02  0.42649355953E+03  0.58288436747E+03  0.10100000352E+00 0.  1.
</event>
<event>
 5   0  0.3316784E-03  0.1101392E+04  0.7818609E-02  0.9203836E-01
        1   -1    0    0  501    0  0.00000000000E+00  0.00000000000E+00  0.63683332240E+03  0.63683332242E+03  0.50400001928E-02 0.  1.
       -1   -1    0    0    0  501  0.00000000000E+00  0.00000000000E+00 -0.47620974883E+03  0.47620974886E+03  0.50400001928E-02 0. -1.
    10030    2    1    2    0    0  0.00000000000E+00  0.00000000000E+00  0.16062357357E+03  0.11130430713E+04  0.11013922762E+04 0.  0.
        4    1    3    3  502    0  0.11821686375E+03 -0.62594869523E+02 -0.45954066094E+03  0.47861526984E+03  0.12699999809E+01 0. -1.
       -4    1    3    3    0  502 -0.11821686375E+03  0.62594869523E+02  0.62016423452E+03  0.63442780144E+03  0.12699999809E+01 0.  1.
</event>
<event>
 5   0  0.3328741E-03  0.1107498E+04  0.7818609E-02  0.9197915E-01
       -1   -1    0    0    0  501  0.00000000000E+00  0.00000000000E+00  0.31276188315E+03  0.31276188319E+03  0.50400001928E-02 0.  1.
        1   -1    0    0  501    0  0.00000000000E+00  0.00000000000E+00 -0.98041966329E+03  0.98041966330E+03  0.50400001928E-02 0. -1.
    10030    2    1    2    0    0  0.00000000000E+00  0.00000000000E+00 -0.66765778014E+03  0.12931815465E+04  0.11074979010E+04 0.  0.
        3    1    3    3  502    0 -0.42695320801E+03 -0.25629636844E+03 -0.51021085207E+02  0.50057969560E+03  0.10100000352E+00 0.  1.
       -3    1    3    3    0  502  0.42695320801E+03  0.25629636844E+03 -0.61663669494E+03  0.79260185090E+03  0.10100000352E+00 0. -1.
</event>
<event>
 5   0  0.5723194E-03  0.1090255E+04  0.7818609E-02  0.9214742E-01
        2   -1    0    0  501    0  0.00000000000E+00  0.00000000000E+00  0.25459030522E+03  0.25459030523E+03  0.25500000920E-02 0.  1.
       -2   -1    0    0    0  501  0.00000000000E+00  0.00000000000E+00 -0.11672245959E+04  0.11672245959E+04  0.25500000920E-02 0. -1.
    10030    2    1    2    0    0  0.00000000000E+00  0.00000000000E+00 -0.91263429067E+03  0.14218149011E+04  0.10902551374E+04 0.  0.
        1    1    3    3  502    0  0.24080565472E+03  0.45812762602E+03 -0.23310518574E+03  0.56763219845E+03  0.50400001928E-02 0.  1.
       -1    1    3    3    0  502 -0.24080565472E+03 -0.45812762602E+03 -0.67952910494E+03  0.85418270268E+03  0.50400001928E-02 0. -1.
</event>
<event>
 5   0  0.5941585E-03  0.1095314E+04  0.7818609E-02  0.9209772E-01
        2   -1    0    0  501    0  0.00000000000E+00  0.00000000000E+00  0.81530073120E+03  0.81530073121E+03  0.25500000920E-02 0. -1.
       -2   -1    0    0    0  501  0.00000000000E+00  0.00000000000E+00 -0.36787408642E+03  0.36787408643E+03  0.25500000920E-02 0.  1.
    10030    2    1    2    0    0  0.00000000000E+00  0.00000000000E+00  0.44742664478E+03  0.11831748176E+04  0.10953136750E+04 0.  0.
        5    1    3    3  502    0  0.38978296849E+03 -0.31063284395E+03  0.46881132986E+03  0.68427310284E+03  0.46999998093E+01 0. -1.
       -5    1    3    3    0  502 -0.38978296849E+03  0.31063284395E+03 -0.21384685083E+02  0.49890171480E+03  0.46999998093E+01 0.  1.
</event>
<event>
 5   0  0.5627232E-03  0.1090904E+04  0.7818609E-02  0.9214103E-01
       -2   -1    0    0    0  501  0.00000000000E+00  0.00000000000E+00  0.61666388247E+03  0.61666388247E+03  0.25500000920E-02 0.  1.
        2   -1    0    0  501    0  0.00000000000E+00  0.00000000000E+00 -0.48246343764E+03  0.48246343765E+03  0.25500000920E-02 0. -1.
    10030    2    1    2    0    0  0.00000000000E+00  0.00000000000E+00  0.13420044483E+03  0.10991273201E+04  0.10909038026E+04 0.  0.
        2    1    3    3  502    0  0.50532220128E+03  0.19949731892E+03  0.18070577758E+02  0.54357727431E+03  0.25500000920E-02 0. -1.
       -2    1    3    3    0  502 -0.50532220128E+03 -0.19949731892E+03  0.11612986707E+03  0.55555004581E+03  0.25500000920E-02 0.  1.
</event>
<event>
 5   0  0.5500363E-03  0.1100328E+04  0.7818609E-02  0.9204872E-01
       -2   -1    0    0    0  501  0.00000000000E+00  0.00000000000E+00  0.40063619886E+03  0.40063619886E+03  0.25500000920E-02 0.  1.
        2   -1    0    0  501    0  0.00000000000E+00  0.00000000000E+00 -0.75549948996E+03  0.75549948996E+03  0.25500000920E-02 0. -1.
    10030    2    1    2    0    0  0.00000000000E+00  0.00000000000E+00 -0.35486329110E+03  0.11561356888E+04  0.11003280309E+04 0.  0.
        3    1    3    3  502    0  0.29060308855E+02 -0.33615204864E+03 -0.63402650655E+03  0.71821467721E+03  0.10100000352E+00 0. -1.
       -3    1    3    3    0  502 -0.29060308855E+02  0.33615204864E+03  0.27916321545E+03  0.43792101161E+03  0.10100000352E+00 0.  1.
</event>
<event>
 5   0  0.5627232E-03  0.1121287E+04  0.7818609E-02  0.9184689E-01
        2   -1    0    0  501    0  0.00000000000E+00  0.00000000000E+00  0.16292449975E+04  0.16292449975E+04  0.25500000920E-02 0. -1.
       -2   -1    0    0    0  501  0.00000000000E+00  0.00000000000E+00 -0.19292429408E+03  0.19292429410E+03  0.25500000920E-02 0.  1.
    10030    2    1    2    0    0  0.00000000000E+00  0.00000000000E+00  0.14363207035E+04  0.18221692916E+04  0.11212866557E+04 0.  0.
        2    1    3    3  502    0  0.46800576923E+02 -0.34718729573E+03  0.14294726776E+04  0.14717749313E+04  0.25500000920E-02 0. -1.
       -2    1    3    3    0  502 -0.46800576923E+02  0.34718729573E+03  0.68480258588E+01  0.35039436037E+03  0.25500000920E-02 0.  1.
</event>
<event>
 5   0  0.5500363E-03  0.1111099E+04  0.7818609E-02  0.9194441E-01
       -2   -1    0    0    0  501  0.00000000000E+00  0.00000000000E+00  0.21463460553E+03  0.21463460554E+03  0.25500000920E-02 0.  1.
        2   -1    0    0  501    0  0.00000000000E+00  0.00000000000E+00 -0.14379555234E+04  0.14379555234E+04  0.25500000920E-02 0. -1.
    10030    2    1    2    0    0  0.00000000000E+00  0.00000000000E+00 -0.12233209178E+04  0.16525901289E+04  0.11110985853E+04 0.  0.
        3    1    3    3  502    0  0.45617669136E+03 -0.18369423044E+03 -0.22726155682E+03  0.54174585318E+03  0.10100000352E+00 0.  1.
       -3    1    3    3    0  502 -0.45617669136E+03  0.18369423044E+03 -0.99605936102E+03  0.11108442757E+04  0.10100000352E+00 0. -1.
</event>
<event>
 5   0  0.5500363E-03  0.1094131E+04  0.7818609E-02  0.9210931E-01
        2   -1    0    0  501    0  0.00000000000E+00  0.00000000000E+00  0.20347208724E+04  0.20347208724E+04  0.25500000920E-02 0. -1.
       -2   -1    0    0    0  501  0.00000000000E+00  0.00000000000E+00 -0.14708680964E+03  0.14708680966E+03  0.25500000920E-02 0.  1.
    10030    2    1    2    0    0  0.00000000000E+00  0.00000000000E+00  0.18876340627E+04  0.21818076820E+04  0.10941308910E+04 0.  0.
        3    1    3    3  502    0 -0.17021459000E+03  0.24332553885E+03  0.18600197540E+04  0.18835747450E+04  0.10100000352E+00 0. -1.
       -3    1    3    3    0  502  0.17021459000E+03 -0.24332553885E+03  0.27614308774E+02  0.29823293708E+03  0.10100000352E+00 0.  1.
</event>
<event>
 5   0  0.5946359E-03  0.1097387E+04  0.7818609E-02  0.9207742E-01
        2   -1    0    0  501    0  0.00000000000E+00  0.00000000000E+00  0.30205159402E+03  0.30205159403E+03  0.25500000920E-02 0.  1.
       -2   -1    0    0    0  501  0.00000000000E+00  0.00000000000E+00 -0.99673253098E+03  0.99673253098E+03  0.25500000920E-02 0. -1.
    10030    2    1    2    0    0  0.00000000000E+00  0.00000000000E+00 -0.69468093696E+03  0.12987841250E+04  0.10973871692E+04 0.  0.
        4    1    3    3  502    0 -0.15679113869E+03  0.86151455217E+02 -0.96124331462E+03  0.97775040639E+03  0.12699999809E+01 0. -1.
       -4    1    3    3    0  502  0.15679113869E+03 -0.86151455217E+02  0.26656237766E+03  0.32103371862E+03  0.12699999809E+01 0.  1.
</event>
<event>
 5   0  0.3241189E-03  0.1097435E+04  0.7818609E-02  0.9207696E-01
        1   -1    0    0  501    0  0.00000000000E+00  0.00000000000E+00  0.76531680598E+03  0.76531680600E+03  0.50400001928E-02 0. -1.
       -1   -1    0    0    0  501  0.00000000000E+00  0.00000000000E+00 -0.39341973793E+03  0.39341973796E+03  0.50400001928E-02 0.  1.
    10030    2    1    2    0    0  0.00000000000E+00  0.00000000000E+00  0.37189706805E+03  0.11587365440E+04  0.10974347129E+04 0.  0.
        5    1    3    3  502    0 -0.10296450119E+03  0.45247116024E+03  0.49511306658E+03  0.67859478192E+03  0.46999998093E+01 0. -1.
       -5    1    3    3    0  502  0.10296450119E+03 -0.45247116024E+03 -0.12321599853E+03  0.48014176203E+03  0.46999998093E+01 0.  1.
</event>
<event>
 5   0  0.3320192E-03  0.1104865E+04  0.7818609E-02  0.9200463E-01
       -1   -1    0    0    0  501  0.00000000000E+00  0.00000000000E+00  0.85830322904E+03  0.85830322905E+03  0.50400001928E-02 0. -1.
        1   -1    0    0  501    0  0.00000000000E+00  0.00000000000E+00 -0.35556397515E+03  0.35556397519E+03  0.50400001928E-02 0.  1.
    10030    2    1    2    0    0  0.00000000000E+00  0.00000000000E+00  0.50273925389E+03  0.12138672042E+04  0.11048650742E+04 0.  0.
        2    1    3    3  502    0 -0.41478668073E+03  0.36487373594E+03  0.25239693543E+03  0.60735907560E+03  0.25500000920E-02 0.  1.
       -2    1    3    3    0  502  0.41478668073E+03 -0.36487373594E+03  0.25034231846E+03  0.60650812864E+03  0.25500000920E-02 0. -1.
</event>
<event>
 5   0  0.3320192E-03  0.1104777E+04  0.7818609E-02  0.9200549E-01
       -1   -1    0    0    0  501  0.00000000000E+00  0.00000000000E+00  0.11924613318E+04  0.11924613318E+04  0.50400001928E-02 0.  1.
        1   -1    0    0  501    0  0.00000000000E+00  0.00000000000E+00 -0.25588497257E+03  0.25588497262E+03  0.50400001928E-02 0. -1.
    10030    2    1    2    0    0  0.00000000000E+00  0.00000000000E+00  0.93657635920E+03  0.14483463044E+04  0.11047767833E+04 0.  0.
        2    1    3    3  502    0 -0.13458499581E+03 -0.32915548173E+03  0.10224435854E+04  0.10825189779E+04  0.25500000920E-02 0.  1.
       -2    1    3    3    0  502  0.13458499581E+03  0.32915548173E+03 -0.85867226196E+02  0.36582732647E+03  0.25500000920E-02 0. -1.
</event>
<event>
 5   0  0.3328741E-03  0.1121425E+04  0.7818609E-02  0.9184557E-01
        1   -1    0    0  501    0  0.00000000000E+00  0.00000000000E+00  0.28027598395E+03  0.28027598400E+03  0.50400001928E-02 0.  1.
       -1   -1    0    0    0  501  0.00000000000E+00  0.00000000000E+00 -0.11217466938E+04  0.11217466938E+04  0.50400001928E-02 0. -1.
    10030    2    1    2    0    0  0.00000000000E+00  0.00000000000E+00 -0.84147070984E+03  0.14020226778E+04  0.11214252688E+04 0.  0.
        3    1    3    3  502    0 -0.51647078563E+03  0.37173705429E+02 -0.15179469493E+03  0.53959762452E+03  0.10100000352E+00 0.  1.
       -3    1    3    3    0  502  0.51647078563E+03 -0.37173705429E+02 -0.68967601491E+03  0.86242505328E+03  0.10100000352E+00 0. -1.
</event>
<event>
 5   0  0.5723194E-03  0.1070651E+04  0.7818609E-02  0.9234280E-01
       -2   -1    0    0    0  501  0.00000000000E+00  0.00000000000E+00  0.66897756214E+03  0.66897756215E+03  0.25500000920E-02 0.  1.
        2   -1    0    0  501    0  0.00000000000E+00  0.00000000000E+00 -0.42837483498E+03  0.42837483498E+03  0.25500000920E-02 0. -1.
    10030    2    1    2    0    0  0.00000000000E+00  0.00000000000E+00  0.24060272716E+03  0.10973523971E+04  0.10706505551E+04 0.  0.
        1    1    3    3  502    0 -0.26271116345E+03 -0.36457458799E+03  0.41848904970E+03  0.61405608079E+03  0.50400001928E-02 0.  1.
       -1    1    3    3    0  502  0.26271116345E+03  0.36457458799E+03 -0.17788632254E+03  0.48329631634E+03  0.50400001928E-02 0. -1.
</event>
<event>
 5   0  0.3328741E-03  0.1249612E+04  0.7818609E-02  0.9070506E-01
        1   -1    0    0  501    0  0.00000000000E+00  0.00000000000E+00  0.60808402638E+03  0.60808402640E+03  0.50400001928E-02 0.  1.
       -1   -1    0    0    0  501  0.00000000000E+00  0.00000000000E+00 -0.64198808889E+03  0.64198808891E+03  0.50400001928E-02 0. -1.
    10030    2    1    2    0    0  0.00000000000E+00  0.00000000000E+00 -0.33904062509E+02  0.12500721153E+04  0.12496122631E+04 0.  0.
        3    1    3    3  502    0 -0.10899356159E+03  0.39132848811E+02 -0.63115819750E+03  0.64169436401E+03  0.10100000352E+00 0. -1.
       -3    1    3    3    0  502  0.10899356159E+03 -0.39132848811E+02  0.59725413499E+03  0.60837775131E+03  0.10100000352E+00 0.  1.
</event>
<event>
 5   0  0.5500363E-03  0.1123299E+04  0.7818609E-02  0.9182776E-01
        2   -1    0    0  501    0  0.00000000000E+00  0.00000000000E+00  0.83647514021E+03  0.83647514022E+03  0.25500000920E-02 0.  1.
       -2   -1    0    0    0  501  0.00000000000E+00  0.00000000000E+00 -0.37711853050E+03  0.37711853051E+03  0.25500000920E-02 0. -1.
    10030    2    1    2    0    0  0.00000000000E+00  0.00000000000E+00  0.45935660971E+03  0.12135936707E+04  0.11232992045E+04 0.  0.
        3    1    3    3  502    0  0.23160333723E+03 -0.43091173093E+03 -0.68408113197E+02  0.49396832472E+03  0.10100000352E+00 0. -1.
       -3    1    3    3    0  502 -0.23160333723E+03  0.43091173093E+03  0.52776472291E+03  0.71962534601E+03  0.10100000352E+00 0.  1.
</event>
<event>
 5   0  0.3215352E-03  0.1115581E+04  0.7818609E-02  0.9190137E-01
        1   -1    0    0  501    0  0.00000000000E+00  0.00000000000E+00  0.16937016545E+04  0.16937016546E+04  0.50400001928E-02 0.  1.
       -1   -1    0    0    0  501  0.00000000000E+00  0.00000000000E+00 -0.18369848573E+03  0.18369848580E+03  0.50400001928E-02 0. -1.
    10030    2    1    2    0    0  0.00000000000E+00  0.00000000000E+00  0.15100031688E+04  0.18774001404E+04  0.11155813360E+04 0.  0.
        1    1    3    3  502    0  0.32006055027E+02 -0.12796263201E+03 -0.15707424443E+03  0.20511250824E+03  0.50400001928E-02 0. -1.
       -1    1    3    3    0  502 -0.32006055027E+02  0.12796263201E+03  0.16670774132E+04  0.16722876321E+04  0.50400001928E-02 0.  1.
</event>
<event>
 5   0  0.5946359E-03  0.1040965E+04  0.7818609E-02  0.9264722E-01
       -2   -1    0    0    0  501  0.00000000000E+00  0.00000000000E+00  0.16654709858E+03  0.16654709860E+03  0.25500000920E-02 0.  1.
        2   -1    0    0  501    0  0.00000000000E+00  0.00000000000E+00 -0.16265798652E+04  0.16265798652E+04  0.25500000920E-02 0. -1.
    10030    2    1    2    0    0  0.00000000000E+00  0.00000000000E+00 -0.14600327666E+04  0.17931269638E+04  0.10409652390E+04 0.  0.
        4    1    3    3  502    0 -0.88966001471E+02 -0.14584355783E+03  0.11687329705E+03  0.20699341352E+03  0.12699999809E+01 0.  1.
       -4    1    3    3    0  502  0.88966001471E+02  0.14584355783E+03 -0.15769060637E+04  0.15861335503E+04  0.12699999809E+01 0. -1.
</event>
<event>
 5   0  0.5946359E-03  0.1139129E+04  0.7818609E-02  0.9167871E-01
       -2   -1    0    0    0  501  0.00000000000E+00  0.00000000000E+00  0.52905993321E+03  0.52905993322E+03  0.25500000920E-02 0.  1.
        2   -1    0    0  501    0  0.00000000000E+00  0.00000000000E+00 -0.61317011451E+03  0.61317011451E+03  0.25500000920E-02 0. -1.
    10030    2    1    2    0    0  0.00000000000E+00  0.00000000000E+00 -0.84110181293E+02  0.11422300477E+04  0.11391290354E+04 0.  0.
        4    1    3    3  502    0  0.17277123413E+03 -0.45238753282E+03  0.25859065626E+03  0.54897642900E+03  0.12699999809E+01 0.  1.
       -4    1    3    3    0  502 -0.17277123413E+03  0.45238753282E+03 -0.34270083755E+03  0.59325361874E+03  0.12699999809E+01 0. -1.
</event>
<event>
 5   0  0.3241189E-03  0.1123363E+04  0.7818609E-02  0.9182715E-01
        1   -1    0    0  501    0  0.00000000000E+00  0.00000000000E+00  0.58845210422E+03  0.58845210424E+03  0.50400001928E-02 0.  1.
       -1   -1    0    0    0  501  0.00000000000E+00  0.00000000000E+00 -0.53612893485E+03  0.53612893487E+03  0.50400001928E-02 0. -1.
    10030    2    1    2    0    0  0.00000000000E+00  0.00000000000E+00  0.52323169369E+02  0.11245810391E+04  0.11233631646E+04 0.  0.
        5    1    3    3  502    0  0.19126294219E+03 -0.72884313887E+02  0.54976827720E+03  0.58665226914E+03  0.46999998093E+01 0.  1.
       -5    1    3    3    0  502 -0.19126294219E+03  0.72884313887E+02 -0.49744510784E+03  0.53792876998E+03  0.46999998093E+01 0. -1.
</event>
<event>
 5   0  0.3328741E-03  0.1062087E+04  0.7818609E-02  0.9242953E-01
       -1   -1    0    0    0  501  0.00000000000E+00  0.00000000000E+00  0.44394386087E+03  0.44394386089E+03  0.50400001928E-02 0. -1.
        1   -1    0    0  501    0  0.00000000000E+00  0.00000000000E+00 -0.63523185206E+03  0.63523185208E+03  0.50400001928E-02 0.  1.
    10030    2    1    2    0    0  0.00000000000E+00  0.00000000000E+00 -0.19128799119E+03  0.10791757130E+04  0.10620871546E+04 0.  0.
        3    1    3    3  502    0  0.48379374130E+03 -0.53166820812E+02  0.12019834803E+03  0.50132898184E+03  0.10100000352E+00 0. -1.
       -3    1    3    3    0  502 -0.48379374130E+03  0.53166820812E+02 -0.31148633923E+03  0.57784673114E+03  0.10100000352E+00 0.  1.
</event>
<event>
 5   0  0.3320192E-03  0.1035428E+04  0.7818609E-02  0.9270520E-01
        1   -1    0    0  501    0  0.00000000000E+00  0.00000000000E+00  0.91772183537E+03  0.91772183538E+03  0.50400001928E-02 0.  1.
       -1   -1    0    0    0  501  0.00000000000E+00  0.00000000000E+00 -0.29205761314E+03  0.29205761319E+03  0.50400001928E-02 0. -1.
    10030    2    1    2    0    0  0.00000000000E+00  0.00000000000E+00  0.62566422223E+03  0.12097794486E+04  0.10354277354E+04 0.  0.
        2    1    3    3  502    0 -0.26629865940E+03 -0.44389584049E+03  0.32254839234E+03  0.60991471421E+03  0.25500000920E-02 0.  1.
       -2    1    3    3    0  502  0.26629865940E+03  0.44389584049E+03  0.30311582989E+03  0.59986473437E+03  0.25500000920E-02 0. -1.
</event>
<event>
 5   0  0.5946359E-03  0.1108471E+04  0.7818609E-02  0.9196975E-01
       -2   -1    0    0    0  501  0.00000000000E+00  0.00000000000E+00  0.49633496681E+03  0.49633496682E+03  0.25500000920E-02 0. -1.
        2   -1    0    0  501    0  0.00000000000E+00  0.00000000000E+00 -0.61889002401E+03  0.61889002401E+03  0.25500000920E-02 0.  1.
    10030    2    1    2    0    0  0.00000000000E+00  0.00000000000E+00 -0.12255505719E+03  0.11152249908E+04  0.11084705851E+04 0.  0.
        4    1    3    3  502    0  0.13905255772E+03  0.37770742066E+03 -0.44461977729E+03  0.59973900047E+03  0.12699999809E+01 0.  1.
       -4    1    3    3    0  502 -0.13905255772E+03 -0.37770742066E+03  0.32206472009E+03  0.51548599036E+03  0.12699999809E+01 0. -1.
</event>
<event>
 5   0  0.3328741E-03  0.1100424E+04  0.7818609E-02  0.9204779E-01
       -1   -1    0    0    0  501  0.00000000000E+00  0.00000000000E+00  0.30601552470E+03  0.30601552474E+03  0.50400001928E-02 0.  1.
        1   -1    0    0  501    0  0.00000000000E+00  0.00000000000E+00 -0.98927373485E+03  0.98927373486E+03  0.50400001928E-02 0. -1.
    10030    2    1    2    0    0  0.00000000000E+00  0.00000000000E+00 -0.68325821015E+03  0.12952892596E+04  0.11004237749E+04 0.  0.
        3    1    3    3  502    0 -0.10195638744E+03 -0.35062071073E+03 -0.82609979304E+03  0.90320034655E+03  0.10100000352E+00 0. -1.
       -3    1    3    3    0  502  0.10195638744E+03  0.35062071073E+03  0.14284158290E+03  0.39208891305E+03  0.10100000352E+00 0.  1.
</event>
<event>
 5   0  0.5627232E-03  0.1109906E+04  0.7818609E-02  0.9195590E-01
        2   -1    0    0  501    0  0.00000000000E+00  0.00000000000E+00  0.37439141603E+03  0.37439141604E+03  0.25500000920E-02 0. -1.
       -2   -1    0    0    0  501  0.00000000000E+00  0.00000000000E+00 -0.82259602256E+03  0.82259602257E+03  0.25500000920E-02 0.  1.
    10030    2    1    2    0    0  0.00000000000E+00  0.00000000000E+00 -0.44820460653E+03  0.11969874386E+04  0.11099061036E+04 0.  0.
        2    1    3    3  502    0 -0.22444219773E+03 -0.13787474488E+03  0.30267698719E+03  0.40124444417E+03  0.25500000920E-02 0. -1.
       -2    1    3    3    0  502  0.22444219773E+03  0.13787474488E+03 -0.75088159372E+03  0.79574299444E+03  0.25500000920E-02 0.  1.
</event>
<event>
 5   0  0.5946359E-03  0.1190926E+04  0.7818609E-02  0.9120836E-01
       -2   -1    0    0    0  501  0.00000000000E+00  0.00000000000E+00  0.80605361325E+03  0.80605361326E+03  0.25500000920E-02 0.  1.
        2   -1    0    0  501    0  0.00000000000E+00  0.00000000000E+00 -0.43989145008E+03  0.43989145009E+03  0.25500000920E-02 0. -1.
    10030    2    1    2    0    0  0.00000000000E+00  0.00000000000E+00  0.36616216317E+03  0.12459450633E+04  0.11909258462E+04 0.  0.
        4    1    3    3  502    0 -0.88727033607E+01  0.32148978691E+03  0.70737181296E+03  0.77705270260E+03  0.12699999809E+01 0.  1.
       -4    1    3    3    0  502  0.88727033607E+01 -0.32148978691E+03 -0.34120964979E+03  0.46889236074E+03  0.12699999809E+01 0. -1.
</event>
<event>
 5   0  0.3241189E-03  0.1059276E+04  0.7818609E-02  0.9245819E-01
        1   -1    0    0  501    0  0.00000000000E+00  0.00000000000E+00  0.52939866294E+03  0.52939866296E+03  0.50400001928E-02 0. -1.
       -1   -1    0    0    0  501  0.00000000000E+00  0.00000000000E+00 -0.52987771665E+03  0.52987771668E+03  0.50400001928E-02 0.  1.
    10030    2    1    2    0    0  0.00000000000E+00  0.00000000000E+00 -0.47905371290E+00  0.10592763796E+04  0.10592762713E+04 0.  0.
        5    1    3    3  502    0  0.33858365656E+03 -0.39020273072E+03 -0.11684743386E+03  0.52969092530E+03  0.46999998093E+01 0. -1.
       -5    1    3    3    0  502 -0.33858365656E+03  0.39020273072E+03  0.11636838015E+03  0.52958545434E+03  0.46999998093E+01 0.  1.
</event>
<event>
 5   0  0.3320192E-03  0.1040932E+04  0.7818609E-02  0.9264757E-01
        1   -1    0    0  501    0  0.00000000000E+00  0.00000000000E+00  0.11177844467E+04  0.11177844467E+04  0.50400001928E-02 0. -1.
       -1   -1    0    0    0  501  0.00000000000E+00  0.00000000000E+00 -0.24234084486E+03  0.24234084491E+03  0.50400001928E-02 0.  1.
    10030    2    1    2    0    0  0.00000000000E+00  0.00000000000E+00  0.87544360182E+03  0.13601252916E+04  0.10409319425E+04 0.  0.
        2    1    3    3  502    0 -0.14077608860E+03  0.88982018951E+02 -0.20658532138E+03  0.26535486020E+03  0.25500000920E-02 0.  1.
       -2    1    3    3    0  502  0.14077608860E+03 -0.88982018951E+02  0.10820289232E+04  0.10947704314E+04  0.25500000920E-02 0. -1.
</event>
<event>
 5   0  0.5627232E-03  0.1109044E+04  0.7818609E-02  0.9196421E-01
       -2   -1    0    0    0  501  0.00000000000E+00  0.00000000000E+00  0.15408160070E+03  0.15408160072E+03  0.25500000920E-02 0. -1.
        2   -1    0    0  501    0  0.00000000000E+00  0.00000000000E+00 -0.19956627768E+04  0.19956627768E+04  0.25500000920E-02 0.  1.
    10030    2    1    2    0    0  0.00000000000E+00  0.00000000000E+00 -0.18415811761E+04  0.21497443775E+04  0.11090444809E+04 0.  0.
        2    1    3    3  502    0 -0.15664603642E+03 -0.26579470670E+03 -0.18139381000E+04  0.18399881080E+04  0.25500000920E-02 0.  1.
       -2    1    3    3    0  502  0.15664603642E+03  0.26579470670E+03 -0.27643076040E+02  0.30975626950E+03  0.25500000920E-02 0. -1.
</event>
<event>
 5   0  0.5500363E-03  0.1153007E+04  0.7818609E-02  0.9155014E-01
       -2   -1    0    0    0  501  0.00000000000E+00  0.00000000000E+00  0.30126555094E+03  0.30126555095E+03  0.25500000920E-02 0.  1.
        2   -1    0    0  501    0  0.00000000000E+00  0.00000000000E+00 -0.11032009053E+04  0.11032009053E+04  0.25500000920E-02 0. -1.
    10030    2    1    2    0    0  0.00000000000E+00  0.00000000000E+00 -0.80193535435E+03  0.14044664562E+04  0.11530072481E+04 0.  0.
        3    1    3    3  502    0  0.36509231560E+03  0.44564237552E+03 -0.42728779400E+03  0.71726173387E+03  0.10100000352E+00 0.  1.
       -3    1    3    3    0  502 -0.36509231560E+03 -0.44564237552E+03 -0.37464756035E+03  0.68720472237E+03  0.10100000352E+00 0. -1.
</event>
<event>
 5   0  0.5941585E-03  0.1106429E+04  0.7818609E-02  0.9198948E-01
        2   -1    0    0  501    0  0.00000000000E+00  0.00000000000E+00  0.77415388840E+03  0.77415388841E+03  0.25500000920E-02 0.  1.
       -2   -1    0    0    0  501  0.00000000000E+00  0.00000000000E+00 -0.39533024890E+03  0.39533024890E+03  0.25500000920E-02 0. -1.
    10030    2    1    2    0    0  0.00000000000E+00  0.00000000000E+00  0.37882363951E+03  0.11694841373E+04  0.11064293008E+04 0.  0.
        5    1    3    3  502    0  0.26401733268E+03  0.47814202853E+03  0.96664934432E+02  0.55469915355E+03  0.46999998093E+01 0. -1.
       -5    1    3    3    0  502 -0.26401733268E+03 -0.47814202853E+03  0.28215870508E+03  0.61478498376E+03  0.46999998093E+01 0.  1.
</event>
<event>
 5   0  0.3320192E-03  0.1078151E+04  0.7818609E-02  0.9226753E-01
        1   -1    0    0  501    0  0.00000000000E+00  0.00000000000E+00  0.29264031615E+03  0.29264031619E+03  0.50400001928E-02 0.  1.
       -1   -1    0    0    0  501  0.00000000000E+00  0.00000000000E+00 -0.99303573980E+03  0.99303573982E+03  0.50400001928E-02 0. -1.
    10030    2    1    2    0    0  0.00000000000E+00  0.00000000000E+00 -0.70039542366E+03  0.12856760560E+04  0.10781508111E+04 0.  0.
        2    1    3    3  502    0  0.40227315649E+03 -0.23430897127E+03 -0.67432032507E+03  0.81940971880E+03  0.25500000920E-02 0. -1.
       -2    1    3    3    0  502 -0.40227315649E+03  0.23430897127E+03 -0.26075098585E+02  0.46626633721E+03  0.25500000920E-02 0.  1.
</event>
<event>
 5   0  0.5627232E-03  0.1093756E+04  0.7818609E-02  0.9211299E-01
        2   -1    0    0  501    0  0.00000000000E+00  0.00000000000E+00  0.15246718024E+04  0.15246718024E+04  0.25500000920E-02 0. -1.
       -2   -1    0    0    0  501  0.00000000000E+00  0.00000000000E+00 -0.19615734531E+03  0.19615734533E+03  0.25500000920E-02 0.  1.
    10030    2    1    2    0    0  0.00000000000E+00  0.00000000000E+00  0.13285144571E+04  0.17208291477E+04  0.10937560482E+04 0.  0.
        2    1    3    3  502    0  0.31454939021E+03  0.41216394129E+03  0.39059373393E+03  0.64914089254E+03  0.25500000920E-02 0. -1.
       -2    1    3    3    0  502 -0.31454939021E+03 -0.41216394129E+03  0.93792072316E+03  0.10716882552E+04  0.25500000920E-02 0.  1.
</event>
<event>
 5   0  0.3320192E-03  0.1171985E+04  0.7818609E-02  0.9137738E-01
       -1   -1    0    0    0  501  0.00000000000E+00  0.00000000000E+00  0.15276631317E+04  0.15276631317E+04  0.50400001928E-02 0. -1.
        1   -1    0    0  501    0  0.00000000000E+00  0.00000000000E+00 -0.22477940549E+03  0.22477940555E+03  0.50400001928E-02 0.  1.
    10030    2    1    2    0    0  0.00000000000E+00  0.00000000000E+00  0.13028837262E+04  0.17524425373E+04  0.11719850009E+04 0.  0.
        2    1    3    3  502    0  0.49451824833E+03 -0.11005662500E+03  0.21109234804E+03  0.54883580244E+03  0.25500000920E-02 0.  1.
       -2    1    3    3    0  502 -0.49451824833E+03  0.11005662500E+03  0.10917913782E+04  0.12036067348E+04  0.25500000920E-02 0. -1.
</event>
<event>
 5   0  0.5941585E-03  0.9848722E+03  0.7818609E-02  0.9325294E-01
        2   -1    0    0  501    0  0.00000000000E+00  0.00000000000E+00  0.77261409174E+03  0.77261409174E+03  0.25500000920E-02 0.  1.
       -2   -1    0    0    0  501  0.00000000000E+00  0.00000000000E+00 -0.31386082069E+03  0.31386082070E+03  0.25500000920E-02 0. -1.
    10030    2    1    2    0    0  0.00000000000E+00  0.00000000000E+00  0.45875327105E+03  0.10864749124E+04  0.98487216006E+03 0.  0.
        5    1    3    3  502    0 -0.31122160767E+03  0.20914412707E+03 -0.12272271849E+03  0.39456699127E+03  0.46999998093E+01 0. -1.
       -5    1    3    3    0  502  0.31122160767E+03 -0.20914412707E+03  0.58147598954E+03  0.69190792117E+03  0.46999998093E+01 0.  1.
</event>
<event>
 5   0  0.3215352E-03  0.1100055E+04  0.7818609E-02  0.9205138E-01
       -1   -1    0    0    0  501  0.00000000000E+00  0.00000000000E+00  0.37934980341E+03  0.37934980344E+03  0.50400001928E-02 0. -1.
        1   -1    0    0  501    0  0.00000000000E+00  0.00000000000E+00 -0.79749732776E+03  0.79749732777E+03  0.50400001928E-02 0.  1.
    10030    2    1    2    0    0  0.00000000000E+00  0.00000000000E+00 -0.41814752435E+03  0.11768471312E+04  0.11000553705E+04 0.  0.
        1    1    3    3  502    0  0.54907074861E+03  0.22740620911E+02 -0.18433756947E+03  0.57963450757E+03  0.50400001928E-02 0.  1.
       -1    1    3    3    0  502 -0.54907074861E+03 -0.22740620911E+02 -0.23380995488E+03  0.59721262365E+03  0.50400001928E-02 0. -1.
</event>
<event>
 5   0  0.3320192E-03  0.1114023E+04  0.7818609E-02  0.9191631E-01
        1   -1    0    0  501    0  0.00000000000E+00  0.00000000000E+00  0.12371762885E+04  0.12371762885E+04  0.50400001928E-02 0. -1.
       -1   -1    0    0    0  501  0.00000000000E+00  0.00000000000E+00 -0.25078208040E+03  0.25078208046E+03  0.50400001928E-02 0.  1.
    10030    2    1    2    0    0  0.00000000000E+00  0.00000000000E+00  0.98639420812E+03  0.14879583690E+04  0.11140226991E+04 0.  0.
        2    1    3    3  502    0 -0.48845607142E+02  0.53062285591E+02  0.12309135680E+04  0.12330246191E+04  0.25500000920E-02 0. -1.
       -2    1    3    3    0  502  0.48845607142E+02 -0.53062285591E+02 -0.24451935985E+03  0.25493374989E+03  0.25500000920E-02 0.  1.
</event>
<event>
 5   0  0.3215352E-03  0.1136635E+04  0.7818609E-02  0.9170203E-01
       -1   -1    0    0    0  501  0.00000000000E+00  0.00000000000E+00  0.33183842517E+03  0.33183842521E+03  0.50400001928E-02 0.  1.
        1   -1    0    0  501    0  0.00000000000E+00  0.00000000000E+00 -0.97331940595E+03  0.97331940596E+03  0.50400001928E-02 0. -1.
    10030    2    1    2    0    0  0.00000000000E+00  0.00000000000E+00 -0.64148098078E+03  0.13051578312E+04  0.11366349966E+04 0.  0.
        1    1    3    3  502    0  0.15124393801E+03 -0.46192799561E+03  0.17427996991E+02  0.48637016460E+03  0.50400001928E-02 0.  1.
       -1    1    3    3    0  502 -0.15124393801E+03  0.46192799561E+03 -0.65890897777E+03  0.81878766656E+03  0.50400001928E-02 0. -1.
</event>
<event>
 5   0  0.5941585E-03  0.1097816E+04  0.7818609E-02  0.9207323E-01
        2   -1    0    0  501    0  0.00000000000E+00  0.00000000000E+00  0.70317155344E+03  0.70317155344E+03  0.25500000920E-02 0. -1.
       -2   -1    0    0    0  501  0.00000000000E+00  0.00000000000E+00 -0.42848726670E+03  0.42848726671E+03  0.25500000920E-02 0.  1.
    10030    2    1    2    0    0  0.00000000000E+00  0.00000000000E+00  0.27468428674E+03  0.11316588202E+04  0.10978161175E+04 0.  0.
        5    1    3    3  502    0  0.45831650523E+03 -0.78868685116E+02 -0.16319957843E+03  0.49287978337E+03  0.46999998093E+01 0.  1.
       -5    1    3    3    0  502 -0.45831650523E+03  0.78868685116E+02  0.43788386516E+03  0.63877903678E+03  0.46999998093E+01 0. -1.
</event>
<event>
 5   0  0.3241189E-03  0.1071246E+04  0.7818609E-02  0.9233680E-01
        1   -1    0    0  501    0  0.00000000000E+00  0.00000000000E+00  0.59930214160E+03  0.59930214162E+03  0.50400001928E-02 0. -1.
       -1   -1    0    0    0  501  0.00000000000E+00  0.00000000000E+00 -0.47870977789E+03  0.47870977791E+03  0.50400001928E-02 0.  1.
    10030    2    1    2    0    0  0.00000000000E+00  0.00000000000E+00  0.12059236372E+03  0.10780119195E+04  0.10712456210E+04 0.  0.
        5    1    3    3  502    0 -0.17156348595E+01  0.25200194244E+03 -0.41530063235E+03  0.48580307494E+03  0.46999998093E+01 0.  1.
       -5    1    3    3    0  502  0.17156348595E+01 -0.25200194244E+03  0.53589299606E+03  0.59220884460E+03  0.46999998093E+01 0. -1.
</event>
<event>
 5   0  0.3328741E-03  0.1111843E+04  0.7818609E-02  0.9193726E-01
       -1   -1    0    0    0  501  0.00000000000E+00  0.00000000000E+00  0.25604025019E+03  0.25604025024E+03  0.50400001928E-02 0.  1.
        1   -1    0    0  501    0  0.00000000000E+00  0.00000000000E+00 -0.12070309313E+04  0.12070309313E+04  0.50400001928E-02 0. -1.
    10030    2    1    2    0    0  0.00000000000E+00  0.00000000000E+00 -0.95099068110E+03  0.14630711815E+04  0.11118426178E+04 0.  0.
        3    1    3    3  502    0 -0.17112695632E+03 -0.42221215144E+03 -0.89473002356E+03  0.10040365338E+04  0.10100000352E+00 0. -1.
       -3    1    3    3    0  502  0.17112695632E+03  0.42221215144E+03 -0.56260657533E+02  0.45903464771E+03  0.10100000352E+00 0.  1.
</event>
<event>
 5   0  0.5723194E-03  0.1096576E+04  0.7818609E-02  0.9208535E-01
        2   -1    0    0  501    0  0.00000000000E+00  0.00000000000E+00  0.21287391095E+03  0.21287391097E+03  0.25500000920E-02 0.  1.
       -2   -1    0    0    0  501  0.00000000000E+00  0.00000000000E+00 -0.14121965234E+04  0.14121965234E+04  0.25500000920E-02 0. -1.
    10030    2    1    2    0    0  0.00000000000E+00  0.00000000000E+00 -0.11993226125E+04  0.16250704344E+04  0.10965761205E+04 0.  0.
        1    1    3    3  502    0 -0.50033191656E+03  0.37365748075E+02 -0.92734165824E+03  0.10543674772E+04  0.50400001928E-02 0. -1.
       -1    1    3    3    0  502  0.50033191656E+03 -0.37365748075E+02 -0.27198095424E+03  0.57070295719E+03  0.50400001928E-02 0.  1.
</event>
<event>
 5   0  0.3328741E-03  0.1044654E+04  0.7818609E-02  0.9260880E-01
        1   -1    0    0  501    0  0.00000000000E+00  0.00000000000E+00  0.15655929661E+04  0.15655929661E+04  0.50400001928E-02 0. -1.
       -1   -1    0    0    0  501  0.00000000000E+00  0.00000000000E+00 -0.17426349812E+03  0.17426349819E+03  0.50400001928E-02 0.  1.
    10030    2    1    2    0    0  0.00000000000E+00  0.00000000000E+00  0.13913294680E+04  0.17398564643E+04  0.10446544060E+04 0.  0.
        3    1    3    3  502    0 -0.30996445201E+02 -0.23468637894E+03 -0.79792085476E+02  0.24981045450E+03  0.10100000352E+00 0.  1.
       -3    1    3    3    0  502  0.30996445201E+02  0.23468637894E+03  0.14711215535E+04  0.14900460098E+04  0.10100000352E+00 0. -1.
</event>
<event>
 5   0  0.5500363E-03  0.1105490E+04  0.7818609E-02  0.9199858E-01
       -2   -1    0    0    0  501  0.00000000000E+00  0.00000000000E+00  0.59910921152E+03  0.59910921152E+03  0.25500000920E-02 0. -1.
        2   -1    0    0  501    0  0.00000000000E+00  0.00000000000E+00 -0.50996839091E+03  0.50996839092E+03  0.25500000920E-02 0.  1.
    10030    2    1    2    0    0  0.00000000000E+00  0.00000000000E+00  0.89140820606E+02  0.11090776024E+04  0.11054895035E+04 0.  0.
        3    1    3    3  502    0  0.53626897889E+03 -0.70180264904E+00 -0.89811497676E+02  0.54373801187E+03  0.10100000352E+00 0. -1.
       -3    1    3    3    0  502 -0.53626897889E+03  0.70180264904E+00  0.17895231828E+03  0.56533959057E+03  0.10100000352E+00 0.  1.
</event>
<event>
 5   0  0.3215352E-03  0.1104914E+04  0.7818609E-02  0.9200416E-01
       -1   -1    0    0    0  501  0.00000000000E+00  0.00000000000E+00  0.35827752438E+03  0.35827752442E+03  0.50400001928E-02 0.  1.
        1   -1    0    0  501    0  0.00000000000E+00  0.00000000000E+00 -0.85187741801E+03  0.85187741803E+03  0.50400001928E-02 0. -1.
    10030    2    1    2    0    0  0.00000000000E+00  0.00000000000E+00 -0.49359989363E+03  0.12101549424E+04  0.11049136300E+04 0.  0.
        1    1    3    3  502    0  0.24943750950E+03  0.98150702735E+02  0.28228090187E+03  0.38927514586E+03  0.50400001928E-02 0.  1.
       -1    1    3    3    0  502 -0.24943750950E+03 -0.98150702735E+02 -0.77588079550E+03  0.82087979659E+03  0.50400001928E-02 0. -1.
</event>
<event>
 5   0  0.3215352E-03  0.1106100E+04  0.7818609E-02  0.9199267E-01
       -1   -1    0    0    0  501  0.00000000000E+00  0.00000000000E+00  0.55706978352E+03  0.55706978354E+03  0.50400001928E-02 0. -1.
        1   -1    0    0  501    0  0.00000000000E+00  0.00000000000E+00 -0.54905895039E+03  0.54905895041E+03  0.50400001928E-02 0.  1.
    10030    2    1    2    0    0  0.00000000000E+00  0.00000000000E+00  0.80108331327E+01  0.11061287340E+04  0.11060997254E+04 0.  0.
        1    1    3    3  502    0 -0.50908919383E+03 -0.13708372017E+03  0.17104391653E+03  0.55427409737E+03  0.50400001928E-02 0. -1.
       -1    1    3    3    0  502  0.50908919383E+03  0.13708372017E+03 -0.16303308340E+03  0.55185463658E+03  0.50400001928E-02 0.  1.
</event>
<event>
 5   0  0.5723194E-03  0.1095797E+04  0.7818609E-02  0.9209298E-01
       -2   -1    0    0    0  501  0.00000000000E+00  0.00000000000E+00  0.25797246468E+03  0.25797246470E+03  0.25500000920E-02 0.  1.
        2   -1    0    0  501    0  0.00000000000E+00  0.00000000000E+00 -0.11636618664E+04  0.11636618664E+04  0.25500000920E-02 0. -1.
    10030    2    1    2    0    0  0.00000000000E+00  0.00000000000E+00 -0.90568940176E+03  0.14216343311E+04  0.10957969150E+04 0.  0.
        1    1    3    3  502    0  0.29873233348E+03 -0.44197768769E+03 -0.61492253112E+03  0.81407309426E+03  0.50400001928E-02 0. -1.
       -1    1    3    3    0  502 -0.29873233348E+03  0.44197768769E+03 -0.29076687064E+03  0.60756123689E+03  0.50400001928E-02 0.  1.
</event>
<event>
 5   0  0.3215352E-03  0.1087937E+04  0.7818609E-02  0.9217030E-01
        1   -1    0    0  501    0  0.00000000000E+00  0.00000000000E+00  0.43659504852E+03  0.43659504854E+03  0.50400001928E-02 0.  1.
       -1   -1    0    0    0  501  0.00000000000E+00  0.00000000000E+00 -0.67774818643E+03  0.67774818645E+03  0.50400001928E-02 0. -1.
    10030    2    1    2    0    0  0.00000000000E+00  0.00000000000E+00 -0.24115313791E+03  0.11143432350E+04  0.10879365834E+04 0.  0.
        1    1    3    3  502    0 -0.53662744690E+03  0.40328266507E+02 -0.39238024878E+02  0.53956928051E+03  0.50400001928E-02 0.  1.
       -1    1    3    3    0  502  0.53662744690E+03 -0.40328266507E+02 -0.20191511303E+03  0.57477395448E+03  0.50400001928E-02 0. -1.
</event>
<event>
 5   0  0.3215352E-03  0.1104505E+04  0.7818609E-02  0.9200812E-01
        1   -1    0    0  501    0  0.00000000000E+00  0.00000000000E+00  0.48043932478E+03  0.48043932480E+03  0.50400001928E-02 0.  1.
       -1   -1    0    0    0  501  0.00000000000E+00  0.00000000000E+00 -0.63480038638E+03  0.63480038640E+03  0.50400001928E-02 0. -1.
    10030    2    1    2    0    0  0.00000000000E+00  0.00000000000E+00 -0.15436106160E+03  0.11152397112E+04  0.11045054441E+04 0.  0.
        1    1    3    3  502    0 -0.40468205585E+02  0.45213372636E+03 -0.39475346884E+03  0.60157533473E+03  0.50400001928E-02 0. -1.
       -1    1    3    3    0  502  0.40468205585E+02 -0.45213372636E+03  0.24039240724E+03  0.51366437647E+03  0.50400001928E-02 0.  1.
</event>
<event>
 5   0  0.5500363E-03  0.1105023E+04  0.7818609E-02  0.9200310E-01
        2   -1    0    0  501    0  0.00000000000E+00  0.00000000000E+00  0.14892877403E+04  0.14892877403E+04  0.25500000920E-02 0.  1.
       -2   -1    0    0    0  501  0.00000000000E+00  0.00000000000E+00 -0.20497656233E+03  0.20497656235E+03  0.25500000920E-02 0. -1.
    10030    2    1    2    0    0  0.00000000000E+00  0.00000000000E+00  0.12843111780E+04  0.16942643027E+04  0.11050232239E+04 0.  0.
        3    1    3    3  502    0 -0.25746872925E+03  0.72629541097E+00 -0.10737450894E+03  0.27896230824E+03  0.10100000352E+00 0. -1.
       -3    1    3    3    0  502  0.25746872925E+03 -0.72629541097E+00  0.13916856869E+04  0.14153019944E+04  0.10100000352E+00 0.  1.
</event>
<event>
 5   0  0.5941585E-03  0.1089019E+04  0.7818609E-02  0.9215961E-01
       -2   -1    0    0    0  501  0.00000000000E+00  0.00000000000E+00  0.23050775124E+03  0.23050775125E+03  0.25500000920E-02 0. -1.
        2   -1    0    0  501    0  0.00000000000E+00  0.00000000000E+00 -0.12862510599E+04  0.12862510599E+04  0.25500000920E-02 0.  1.
    10030    2    1    2    0    0  0.00000000000E+00  0.00000000000E+00 -0.10557433086E+04  0.15167588111E+04  0.10890194477E+04 0.  0.
        5    1    3    3  502    0 -0.10458971636E+03 -0.87004080008E+02 -0.12621691829E+04  0.12694888164E+04  0.46999998093E+01 0.  1.
       -5    1    3    3    0  502  0.10458971636E+03  0.87004080008E+02  0.20642587429E+03  0.24726999470E+03  0.46999998093E+01 0. -1.
</event>
<event>
 5   0  0.5627232E-03  0.1082737E+04  0.7818609E-02  0.9222183E-01
       -2   -1    0    0    0  501  0.00000000000E+00  0.00000000000E+00  0.33380042732E+03  0.33380042733E+03  0.25500000920E-02 0. -1.
        2   -1    0    0  501    0  0.00000000000E+00  0.00000000000E+00 -0.87800852033E+03  0.87800852033E+03  0.25500000920E-02 0.  1.
    10030    2    1    2    0    0  0.00000000000E+00  0.00000000000E+00 -0.54420809301E+03  0.12118089477E+04  0.10827365687E+04 0.  0.
        2    1    3    3  502    0  0.72365478029E+02  0.24555046349E+03  0.26178092492E+03  0.36614347623E+03  0.25500000920E-02 0. -1.
       -2    1    3    3    0  502 -0.72365478029E+02 -0.24555046349E+03 -0.80598901793E+03  0.84566547143E+03  0.25500000920E-02 0.  1.
</event>
<event>
 5   0  0.5627232E-03  0.1101224E+04  0.7818609E-02  0.9204000E-01
       -2   -1    0    0    0  501  0.00000000000E+00  0.00000000000E+00  0.22050072639E+03  0.22050072641E+03  0.25500000920E-02 0.  1.
        2   -1    0    0  501    0  0.00000000000E+00  0.00000000000E+00 -0.13749320126E+04  0.13749320126E+04  0.25500000920E-02 0. -1.
    10030    2    1    2    0    0  0.00000000000E+00  0.00000000000E+00 -0.11544312862E+04  0.15954327390E+04  0.11012238783E+04 0.  0.
        2    1    3    3  502    0  0.55014886890E+03 -0.15079615274E+02 -0.60155925845E+03  0.81533104576E+03  0.25500000920E-02 0.  1.
       -2    1    3    3    0  502 -0.55014886890E+03  0.15079615274E+02 -0.55287202777E+03  0.78010169327E+03  0.25500000920E-02 0. -1.
</event>
<event>
 5   0  0.5500363E-03  0.1049707E+04  0.7818609E-02  0.9255647E-01
        2   -1    0    0  501    0  0.00000000000E+00  0.00000000000E+00  0.19553778613E+03  0.19553778615E+03  0.25500000920E-02 0.  1.
       -2   -1    0    0    0  501  0.00000000000E+00  0.00000000000E+00 -0.14087874240E+04  0.14087874240E+04  0.25500000920E-02 0. -1.
    10030    2    1    2    0    0  0.00000000000E+00  0.00000000000E+00 -0.12132496378E+04  0.16043252101E+04  0.10497069572E+04 0.  0.
        3    1    3    3  502    0 -0.20749680869E+03 -0.25872313753E+02  0.12912686220E+03  0.24576016556E+03  0.10100000352E+00 0.  1.
       -3    1    3    3    0  502  0.20749680869E+03  0.25872313753E+02 -0.13423765000E+04  0.13585650445E+04  0.10100000352E+00 0. -1.
</event>
<event>
 5   0  0.3320192E-03  0.1075099E+04  0.7818609E-02  0.9229808E-01
        1   -1    0    0  501    0  0.00000000000E+00  0.00000000000E+00  0.33584326108E+03  0.33584326112E+03  0.50400001928E-02 0. -1.
       -1   -1    0    0    0  501  0.00000000000E+00  0.00000000000E+00 -0.86039992533E+03  0.86039992534E+03  0.50400001928E-02 0.  1.
    10030    2    1    2    0    0  0.00000000000E+00  0.00000000000E+00 -0.52455666425E+03  0.11962431865E+04  0.10750990964E+04 0.  0.
        2    1    3    3  502    0 -0.27291570379E+03 -0.37593339425E+03  0.38661712855E+02  0.46615837044E+03  0.25500000920E-02 0. -1.
       -2    1    3    3    0  502  0.27291570379E+03  0.37593339425E+03 -0.56321837710E+03  0.73008481603E+03  0.25500000920E-02 0.  1.
</event>
<event>
 5   0  0.5723194E-03  0.1099380E+04  0.7818609E-02  0.9205796E-01
       -2   -1    0    0    0  501  0.00000000000E+00  0.00000000000E+00  0.18418854804E+03  0.18418854806E+03  0.25500000920E-02 0. -1.
        2   -1    0    0  501    0  0.00000000000E+00  0.00000000000E+00 -0.16404890898E+04  0.16404890898E+04  0.25500000920E-02 0.  1.
    10030    2    1    2    0    0  0.00000000000E+00  0.00000000000E+00 -0.14563005418E+04  0.18246776379E+04  0.10993803774E+04 0.  0.
        1    1    3    3  502    0  0.10736337214E+03 -0.48559557722E+03 -0.11167877660E+04  0.12225157965E+04  0.50400001928E-02 0.  1.
       -1    1    3    3    0  502 -0.10736337214E+03  0.48559557722E+03 -0.33951277574E+03  0.60216184137E+03  0.50400001928E-02 0. -1.
</event>
<event>
 5   0  0.3328741E-03  0.1098876E+04  0.7818609E-02  0.9206288E-01
       -1   -1    0    0    0  501  0.00000000000E+00  0.00000000000E+00  0.16323039086E+03  0.16323039094E+03  0.50400001928E-02 0. -1.
        1   -1    0    0  501    0  0.00000000000E+00  0.00000000000E+00 -0.18494232611E+04  0.18494232611E+04  0.50400001928E-02 0.  1.
    10030    2    1    2    0    0  0.00000000000E+00  0.00000000000E+00 -0.16861928702E+04  0.20126536520E+04  0.10988759382E+04 0.  0.
        3    1    3    3  502    0  0.12514765677E+03 -0.16570337160E+03 -0.17747856641E+04  0.17868921923E+04  0.10100000352E+00 0.  1.
       -3    1    3    3    0  502 -0.12514765677E+03  0.16570337160E+03  0.88592793878E+02  0.22576145969E+03  0.10100000352E+00 0. -1.
</event>
<event>
 5   0  0.3328741E-03  0.1105901E+04  0.7818609E-02  0.9199460E-01
       -1   -1    0    0    0  501  0.00000000000E+00  0.00000000000E+00  0.37712073708E+03  0.37712073711E+03  0.50400001928E-02 0. -1.
        1   -1    0    0  501    0  0.00000000000E+00  0.00000000000E+00 -0.81075934094E+03  0.81075934096E+03  0.50400001928E-02 0.  1.
    10030    2    1    2    0    0  0.00000000000E+00  0.00000000000E+00 -0.43363860386E+03  0.11878800781E+04  0.11059008279E+04 0.  0.
        3    1    3    3  502    0 -0.38904497425E+03  0.12549951752E+03  0.18313766478E+03  0.44793474452E+03  0.10100000352E+00 0. -1.
       -3    1    3    3    0  502  0.38904497425E+03 -0.12549951752E+03 -0.61677626864E+03  0.73994533355E+03  0.10100000352E+00 0.  1.
</event>
<event>
 5   0  0.3316784E-03  0.1064347E+04  0.7818609E-02  0.9240656E-01
        1   -1    0    0  501    0  0.00000000000E+00  0.00000000000E+00  0.15512684273E+04  0.15512684273E+04  0.50400001928E-02 0.  1.
       -1   -1    0    0    0  501  0.00000000000E+00  0.00000000000E+00 -0.18256577163E+03  0.18256577170E+03  0.50400001928E-02 0. -1.
    10030    2    1    2    0    0  0.00000000000E+00  0.00000000000E+00  0.13687026556E+04  0.17338341990E+04  0.10643467809E+04 0.  0.
        4    1    3    3  502    0  0.30210827841E+03  0.35641950449E+03  0.26934419578E+03  0.53930713305E+03  0.12699999809E+01 0. -1.
       -4    1    3    3    0  502 -0.30210827841E+03 -0.35641950449E+03  0.10993584599E+04  0.11945270659E+04  0.12699999809E+01 0.  1.
</event>
<event>
 5   0  0.5946359E-03  0.1093063E+04  0.7818609E-02  0.9211979E-01
       -2   -1    0    0    0  501  0.00000000000E+00  0.00000000000E+00  0.22445042298E+03  0.22445042300E+03  0.25500000920E-02 0.  1.
        2   -1    0    0  501    0  0.00000000000E+00  0.00000000000E+00 -0.13307921639E+04  0.13307921639E+04  0.25500000920E-02 0. -1.
    10030    2    1    2    0    0  0.00000000000E+00  0.00000000000E+00 -0.11063417409E+04  0.15552425869E+04  0.10930633360E+04 0.  0.
        4    1    3    3  502    0  0.30332712329E+03 -0.96087803611E+02  0.79076346124E+02  0.32786413519E+03  0.12699999809E+01 0.  1.
       -4    1    3    3    0  502 -0.30332712329E+03  0.96087803611E+02 -0.11854180871E+04  0.12273784517E+04  0.12699999809E+01 0. -1.
</event>
<event>
 5   0  0.3328741E-03  0.1089739E+04  0.7818609E-02  0.9215251E-01
        1   -1    0    0  501    0  0.00000000000E+00  0.00000000000E+00  0.62120252949E+03  0.62120252951E+03  0.50400001928E-02 0.  1.
       -1   -1    0    0    0  501  0.00000000000E+00  0.00000000000E+00 -0.47791658500E+03  0.47791658502E+03  0.50400001928E-02 0. -1.
    10030    2    1    2    0    0  0.00000000000E+00  0.00000000000E+00  0.14328594450E+03  0.10991191145E+04  0.10897394028E+04 0.  0.
        3    1    3    3  502    0 -0.37310137275E+02  0.49202889987E+03  0.30471310388E+03  0.57994359254E+03  0.10100000352E+00 0.  1.
       -3    1    3    3    0  502  0.37310137275E+02 -0.49202889987E+03 -0.16142715938E+03  0.51917552200E+03  0.10100000352E+00 0. -1.
</event>
<event>
 5   0  0.5941585E-03  0.1106152E+04  0.7818609E-02  0.9199216E-01
        2   -1    0    0  501    0  0.00000000000E+00  0.00000000000E+00  0.11306679963E+04  0.11306679963E+04  0.25500000920E-02 0. -1.
       -2   -1    0    0    0  501  0.00000000000E+00  0.00000000000E+00 -0.27054203993E+03  0.27054203995E+03  0.25500000920E-02 0.  1.
    10030    2    1    2    0    0  0.00000000000E+00  0.00000000000E+00  0.86012595634E+03  0.14012100362E+04  0.11061522973E+04 0.  0.
        5    1    3    3  502    0  0.16746514509E+03 -0.35693806179E+03  0.92135948642E+03  0.10021849869E+04  0.46999998093E+01 0. -1.
       -5    1    3    3    0  502 -0.16746514509E+03  0.35693806179E+03 -0.61233530082E+02  0.39902504931E+03  0.46999998093E+01 0.  1.
</event>
<event>
 5   0  0.3328741E-03  0.1285112E+04  0.7818609E-02  0.9041456E-01
       -1   -1    0    0    0  501  0.00000000000E+00  0.00000000000E+00  0.30718095228E+03  0.30718095232E+03  0.50400001928E-02 0. -1.
        1   -1    0    0  501    0  0.00000000000E+00  0.00000000000E+00 -0.13440874187E+04  0.13440874187E+04  0.50400001928E-02 0.  1.
    10030    2    1    2    0    0  0.00000000000E+00  0.00000000000E+00 -0.10369064664E+04  0.16512683711E+04  0.12851117512E+04 0.  0.
        3    1    3    3  502    0  0.60190091194E+03 -0.20426854625E+03 -0.63945234236E+03  0.90161502601E+03  0.10100000352E+00 0.  1.
       -3    1    3    3    0  502 -0.60190091194E+03  0.20426854625E+03 -0.39745412408E+03  0.74965334504E+03  0.10100000352E+00 0. -1.
</event>
<event>
 5   0  0.5723194E-03  0.1095387E+04  0.7818609E-02  0.9209699E-01
        2   -1    0    0  501    0  0.00000000000E+00  0.00000000000E+00  0.23365210152E+03  0.23365210153E+03  0.25500000920E-02 0.  1.
       -2   -1    0    0    0  501  0.00000000000E+00  0.00000000000E+00 -0.12838248597E+04  0.12838248598E+04  0.25500000920E-02 0. -1.
    10030    2    1    2    0    0  0.00000000000E+00  0.00000000000E+00 -0.10501727582E+04  0.15174769613E+04  0.10953873771E+04 0.  0.
        1    1    3    3  502    0 -0.49387732608E+03  0.86604981603E+02 -0.83034155522E+03  0.96999089398E+03  0.50400001928E-02 0. -1.
       -1    1    3    3    0  502  0.49387732608E+03 -0.86604981603E+02 -0.21983120300E+03  0.54748606730E+03  0.50400001928E-02 0.  1.
</event>
<event>
 5   0  0.3328741E-03  0.1099598E+04  0.7818609E-02  0.9205584E-01
       -1   -1    0    0    0  501  0.00000000000E+00  0.00000000000E+00  0.34073438669E+03  0.34073438673E+03  0.50400001928E-02 0. -1.
        1   -1    0    0  501    0  0.00000000000E+00  0.00000000000E+00 -0.88713956852E+03  0.88713956853E+03  0.50400001928E-02 0.  1.
    10030    2    1    2    0    0  0.00000000000E+00  0.00000000000E+00 -0.54640518183E+03  0.12278739553E+04  0.10995980299E+04 0.  0.
        3    1    3    3  502    0  0.41756956396E+03  0.29072264807E+03 -0.50581850310E+03  0.71745129948E+03  0.10100000352E+00 0.  1.
       -3    1    3    3    0  502 -0.41756956396E+03 -0.29072264807E+03 -0.40586678729E+02  0.51042265578E+03  0.10100000352E+00 0. -1.
</event>
<event>
 5   0  0.5941585E-03  0.1104155E+04  0.7818609E-02  0.9201151E-01
       -2   -1    0    0    0  501  0.00000000000E+00  0.00000000000E+00  0.30675822955E+03  0.30675822956E+03  0.25500000920E-02 0. -1.
        2   -1    0    0  501    0  0.00000000000E+00  0.00000000000E+00 -0.99358260477E+03  0.99358260477E+03  0.25500000920E-02 0.  1.
    10030    2    1    2    0    0  0.00000000000E+00  0.00000000000E+00 -0.68682437522E+03  0.13003408343E+04  0.11041551354E+04 0.  0.
        5    1    3    3  502    0 -0.30884231409E+02  0.32641754316E+03  0.17964895186E+03  0.37389581989E+03  0.46999998093E+01 0. -1.
       -5    1    3    3    0  502  0.30884231409E+02 -0.32641754316E+03 -0.86647332708E+03  0.92644501443E+03  0.46999998093E+01 0.  1.
</event>
<event>
 5   0  0.5500363E-03  0.1114387E+04  0.7818609E-02  0.9191281E-01
       -2   -1    0    0    0  501  0.00000000000E+00  0.00000000000E+00  0.33413315669E+03  0.33413315670E+03  0.25500000920E-02 0. -1.
        2   -1    0    0  501    0  0.00000000000E+00  0.00000000000E+00 -0.92916501059E+03  0.92916501060E+03  0.25500000920E-02 0.  1.
    10030    2    1    2    0    0  0.00000000000E+00  0.00000000000E+00 -0.59503185390E+03  0.12632981673E+04  0.11143874337E+04 0.  0.
        3    1    3    3  502    0  0.14969674940E+02  0.24221438692E+03 -0.86610906178E+03  0.89946473944E+03  0.10100000352E+00 0.  1.
       -3    1    3    3    0  502 -0.14969674940E+02 -0.24221438692E+03  0.27107720787E+03  0.36383342786E+03  0.10100000352E+00 0. -1.
</event>
<event>
 5   0  0.5500363E-03  0.1067349E+04  0.7818609E-02  0.9237614E-01
        2   -1    0    0  501    0  0.00000000000E+00  0.00000000000E+00  0.85999119905E+03  0.85999119906E+03  0.25500000920E-02 0. -1.
       -2   -1    0    0    0  501  0.00000000000E+00  0.00000000000E+00 -0.33117584804E+03  0.33117584805E+03  0.25500000920E-02 0.  1.
    10030    2    1    2    0    0  0.00000000000E+00  0.00000000000E+00  0.52881535101E+03  0.11911670471E+04  0.10673487053E+04 0.  0.
        3    1    3    3  502    0 -0.22745785058E+03  0.38193279128E+03 -0.65142109954E+02  0.44928079809E+03  0.10100000352E+00 0.  1.
       -3    1    3    3    0  502  0.22745785058E+03 -0.38193279128E+03  0.59395746096E+03  0.74188624902E+03  0.10100000352E+00 0. -1.
</event>
<event>
 5   0  0.3215352E-03  0.9424170E+03  0.7818609E-02  0.9374058E-01
        1   -1    0    0  501    0  0.00000000000E+00  0.00000000000E+00  0.20568193871E+03  0.20568193877E+03  0.50400001928E-02 0.  1.
       -1   -1    0    0    0  501  0.00000000000E+00  0.00000000000E+00 -0.10795183856E+04  0.10795183856E+04  0.50400001928E-02 0. -1.
    10030    2    1    2    0    0  0.00000000000E+00  0.00000000000E+00 -0.87383644687E+03  0.12852003244E+04  0.94241696604E+03 0.  0.
        1    1    3    3  502    0  0.38771385254E+03  0.19307437781E+03 -0.68999058728E+03  0.81466972288E+03  0.50400001928E-02 0. -1.
       -1    1    3    3    0  502 -0.38771385254E+03 -0.19307437781E+03 -0.18384585959E+03  0.47053060149E+03  0.50400001928E-02 0.  1.
</event>
<event>
 5   0  0.3316784E-03  0.1080227E+04  0.7818609E-02  0.9224681E-01
       -1   -1    0    0    0  501  0.00000000000E+00  0.00000000000E+00  0.60997552927E+03  0.60997552929E+03  0.50400001928E-02 0.  1.
        1   -1    0    0  501    0  0.00000000000E+00  0.00000000000E+00 -0.47825321873E+03  0.47825321875E+03  0.50400001928E-02 0. -1.
    10030    2    1    2    0    0  0.00000000000E+00  0.00000000000E+00  0.13172231054E+03  0.10882287480E+04  0.10802273099E+04 0.  0.
        4    1    3    3  502    0  0.14677656228E+03  0.51874472901E+03  0.32728419430E+02  0.54010389320E+03  0.12699999809E+01 0.  1.
       -4    1    3    3    0  502 -0.14677656228E+03 -0.51874472901E+03  0.98993891110E+02  0.54812485484E+03  0.12699999809E+01 0. -1.
</event>
<event>
 5   0  0.3215352E-03  0.1068285E+04  0.7818609E-02  0.9236667E-01
       -1   -1    0    0    0  501  0.00000000000E+00  0.00000000000E+00  0.16787025462E+03  0.16787025469E+03  0.50400001928E-02 0.  1.
        1   -1    0    0  501    0  0.00000000000E+00  0.00000000000E+00 -0.16995751436E+04  0.16995751436E+04  0.50400001928E-02 0. -1.
    10030    2    1    2    0    0  0.00000000000E+00  0.00000000000E+00 -0.15317048889E+04  0.18674453983E+04  0.10682848163E+04 0.  0.
        1    1    3    3  502    0  0.42088392461E+03  0.29383747300E+03 -0.50760754619E+03  0.72190661412E+03  0.50400001928E-02 0. -1.
       -1    1    3    3    0  502 -0.42088392461E+03 -0.29383747300E+03 -0.10240973427E+04  0.11455387841E+04  0.50400001928E-02 0.  1.
</event>
<event>
 5   0  0.2185750E-03  0.1102021E+04  0.7818609E-02  0.9203225E-01
       -3   -1    0    0    0  501  0.00000000000E+00  0.00000000000E+00  0.10260000876E+04  0.10260000925E+04  0.10100000352E+00 0.  1.
        3   -1    0    0  501    0  0.00000000000E+00  0.00000000000E+00 -0.29591850083E+03  0.29591851807E+03  0.10100000352E+00 0. -1.
    10030    2    1    2    0    0  0.00000000000E+00  0.00000000000E+00  0.73008158674E+03  0.13219186106E+04  0.11020207302E+04 0.  0.
        2    1    3    3  502    0 -0.40372700901E+03  0.23866026992E+03  0.18088940441E+02  0.46934148763E+03  0.25500000920E-02 0. -1.
       -2    1    3    3    0  502  0.40372700901E+03 -0.23866026992E+03  0.71199264630E+03  0.85257712298E+03  0.25500000920E-02 0.  1.
</event>
<event>
 5   0  0.3328741E-03  0.1102250E+04  0.7818609E-02  0.9203002E-01
       -1   -1    0    0    0  501  0.00000000000E+00  0.00000000000E+00  0.60669035672E+03  0.60669035674E+03  0.50400001928E-02 0. -1.
        1   -1    0    0  501    0  0.00000000000E+00  0.00000000000E+00 -0.50064870470E+03  0.50064870473E+03  0.50400001928E-02 0.  1.
    10030    2    1    2    0    0  0.00000000000E+00  0.00000000000E+00  0.10604165202E+03  0.11073390615E+04  0.11022499558E+04 0.  0.
        3    1    3    3  502    0 -0.47801833529E+03  0.26021033842E+03  0.14018420264E+03  0.56201652108E+03  0.10100000352E+00 0. -1.
       -3    1    3    3    0  502  0.47801833529E+03 -0.26021033842E+03 -0.34142550622E+02  0.54532254039E+03  0.10100000352E+00 0.  1.
</event>
<event>
 5   0  0.3316784E-03  0.1113819E+04  0.7818609E-02  0.9191827E-01
        1   -1    0    0  501    0  0.00000000000E+00  0.00000000000E+00  0.65891421828E+03  0.65891421830E+03  0.50400001928E-02 0.  1.
       -1   -1    0    0    0  501  0.00000000000E+00  0.00000000000E+00 -0.47069566236E+03  0.47069566238E+03  0.50400001928E-02 0. -1.
    10030    2    1    2    0    0  0.00000000000E+00  0.00000000000E+00  0.18821855592E+03  0.11296098807E+04  0.11138187724E+04 0.  0.
        4    1    3    3  502    0  0.18149698192E+03 -0.10175005405E+02  0.62797691686E+03  0.65375936413E+03  0.12699999809E+01 0.  1.
       -4    1    3    3    0  502 -0.18149698192E+03  0.10175005405E+02 -0.43975836094E+03  0.47585051655E+03  0.12699999809E+01 0. -1.
</event>
<event>
 5   0  0.3320192E-03  0.1109704E+04  0.7818609E-02  0.9195785E-01
       -1   -1    0    0    0  501  0.00000000000E+00  0.00000000000E+00  0.84907565077E+03  0.84907565078E+03  0.50400001928E-02 0.  1.
        1   -1    0    0  501    0  0.00000000000E+00  0.00000000000E+00 -0.36258331720E+03  0.36258331723E+03  0.50400001928E-02 0. -1.
    10030    2    1    2    0    0  0.00000000000E+00  0.00000000000E+00  0.48649233357E+03  0.12116589680E+04  0.11097038633E+04 0.  0.
        2    1    3    3  502    0  0.54504417334E+03 -0.98232387098E+02  0.20641394797E+03  0.59104100593E+03  0.25500000920E-02 0. -1.
       -2    1    3    3    0  502 -0.54504417334E+03  0.98232387098E+02  0.28007838560E+03  0.62061796208E+03  0.25500000920E-02 0.  1.
</event>
<event>
 5   0  0.5627232E-03  0.1088993E+04  0.7818609E-02  0.9215987E-01
        2   -1    0    0  501    0  0.00000000000E+00  0.00000000000E+00  0.11440986845E+04  0.11440986845E+04  0.25500000920E-02 0.  1.
       -2   -1    0    0    0  501  0.00000000000E+00  0.00000000000E+00 -0.25913538613E+03  0.25913538614E+03  0.25500000920E-02 0. -1.
    10030    2    1    2    0    0  0.00000000000E+00  0.00000000000E+00  0.88496329838E+03  0.14032340707E+04  0.10889930292E+04 0.  0.
        2    1    3    3  502    0 -0.43252918029E+03 -0.16083221203E+03  0.70071966563E+02  0.46675322466E+03  0.25500000920E-02 0. -1.
       -2    1    3    3    0  502  0.43252918029E+03  0.16083221203E+03  0.81489133182E+03  0.93648084599E+03  0.25500000920E-02 0.  1.
</event>
<event>
 5   0  0.3241189E-03  0.1101260E+04  0.7818609E-02  0.9203965E-01
        1   -1    0    0  501    0  0.00000000000E+00  0.00000000000E+00  0.27051066871E+03  0.27051066876E+03  0.50400001928E-02 0.  1.
       -1   -1    0    0    0  501  0.00000000000E+00  0.00000000000E+00 -0.11208185142E+04  0.11208185142E+04  0.50400001928E-02 0. -1.
    10030    2    1    2    0    0  0.00000000000E+00  0.00000000000E+00 -0.85030784544E+03  0.13913291829E+04  0.11012599435E+04 0.  0.
        5    1    3    3  502    0  0.36448350349E+03 -0.90227261939E+02  0.83639515503E+02  0.38471657316E+03  0.46999998093E+01 0.  1.
       -5    1    3    3    0  502 -0.36448350349E+03  0.90227261939E+02 -0.93394736095E+03  0.10066126098E+04  0.46999998093E+01 0. -1.
</event>
<event>
 5   0  0.3328741E-03  0.1152491E+04  0.7818609E-02  0.9155489E-01
       -1   -1    0    0    0  501  0.00000000000E+00  0.00000000000E+00  0.60665352785E+03  0.60665352787E+03  0.50400001928E-02 0. -1.
        1   -1    0    0  501    0  0.00000000000E+00  0.00000000000E+00 -0.54736162412E+03  0.54736162414E+03  0.50400001928E-02 0.  1.
    10030    2    1    2    0    0  0.00000000000E+00  0.00000000000E+00  0.59291903724E+02  0.11540151520E+04  0.11524909723E+04 0.  0.
        3    1    3    3  502    0 -0.54336798742E+03 -0.12578999835E+03  0.17470629881E+03  0.58446060131E+03  0.10100000352E+00 0. -1.
       -3    1    3    3    0  502  0.54336798742E+03  0.12578999835E+03 -0.11541439509E+03  0.56955455070E+03  0.10100000352E+00 0.  1.
</event>
<event>
 5   0  0.5627232E-03  0.1093966E+04  0.7818609E-02  0.9211093E-01
        2   -1    0    0  501    0  0.00000000000E+00  0.00000000000E+00  0.14481270515E+04  0.14481270515E+04  0.25500000920E-02 0. -1.
       -2   -1    0    0    0  501  0.00000000000E+00  0.00000000000E+00 -0.20660513094E+03  0.20660513095E+03  0.25500000920E-02 0.  1.
    10030    2    1    2    0    0  0.00000000000E+00  0.00000000000E+00  0.12415219206E+04  0.16547321824E+04  0.10939661404E+04 0.  0.
        2    1    3    3  502    0 -0.13721042665E+03  0.11143528997E+03 -0.16221320959E+03  0.23991175545E+03  0.25500000920E-02 0.  1.
       -2    1    3    3    0  502  0.13721042665E+03 -0.11143528997E+03  0.14037351301E+04  0.14148204270E+04  0.25500000920E-02 0. -1.
</event>
<event>
 5   0  0.3320192E-03  0.1092136E+04  0.7818609E-02  0.9212890E-01
        1   -1    0    0  501    0  0.00000000000E+00  0.00000000000E+00  0.54557319549E+03  0.54557319551E+03  0.50400001928E-02 0.  1.
       -1   -1    0    0    0  501  0.00000000000E+00  0.00000000000E+00 -0.54656346735E+03  0.54656346737E+03  0.50400001928E-02 0. -1.
    10030    2    1    2    0    0  0.00000000000E+00  0.00000000000E+00 -0.99027185641E+00  0.10921366629E+04  0.10921362139E+04 0.  0.
        2    1    3    3  502    0  0.30639611775E+03 -0.90087076939E+02  0.44244535255E+03  0.54566670451E+03  0.25500000920E-02 0.  1.
       -2    1    3    3    0  502 -0.30639611775E+03  0.90087076939E+02 -0.44343562441E+03  0.54646995838E+03  0.25500000920E-02 0. -1.
</event>
<event>
 5   0  0.3241189E-03  0.1128755E+04  0.7818609E-02  0.9177610E-01
       -1   -1    0    0    0  501  0.00000000000E+00  0.00000000000E+00  0.14749650676E+04  0.14749650676E+04  0.50400001928E-02 0. -1.
        1   -1    0    0  501    0  0.00000000000E+00  0.00000000000E+00 -0.21595206029E+03  0.21595206035E+03  0.50400001928E-02 0.  1.
    10030    2    1    2    0    0  0.00000000000E+00  0.00000000000E+00  0.12590130073E+04  0.16909171279E+04  0.11287546151E+04 0.  0.
        5    1    3    3  502    0  0.11643605944E+03  0.53804788535E+03  0.81569020411E+03  0.98408611511E+03  0.46999998093E+01 0. -1.
       -5    1    3    3    0  502 -0.11643605944E+03 -0.53804788535E+03  0.44332280316E+03  0.70683101281E+03  0.46999998093E+01 0.  1.
</event>
<event>
 5   0  0.5723194E-03  0.1065525E+04  0.7818609E-02  0.9239461E-01
       -2   -1    0    0    0  501  0.00000000000E+00  0.00000000000E+00  0.20586778049E+03  0.20586778051E+03  0.25500000920E-02 0. -1.
        2   -1    0    0  501    0  0.00000000000E+00  0.00000000000E+00 -0.13787286612E+04  0.13787286612E+04  0.25500000920E-02 0.  1.
    10030    2    1    2    0    0  0.00000000000E+00  0.00000000000E+00 -0.11728608807E+04  0.15845964417E+04  0.10655248648E+04 0.  0.
        1    1    3    3  502    0  0.49681163414E+02  0.12173535951E+03 -0.13542211945E+04  0.13605891222E+04  0.50400001928E-02 0.  1.
       -1    1    3    3    0  502 -0.49681163414E+02 -0.12173535951E+03  0.18136031380E+03  0.22400731952E+03  0.50400001928E-02 0. -1.
</event>
<event>
 5   0  0.5627232E-03  0.1118413E+04  0.7818609E-02  0.9187428E-01
       -2   -1    0    0    0  501  0.00000000000E+00  0.00000000000E+00  0.49600489543E+03  0.49600489543E+03  0.25500000920E-02 0. -1.
        2   -1    0    0  501    0  0.00000000000E+00  0.00000000000E+00 -0.63046184709E+03  0.63046184710E+03  0.25500000920E-02 0.  1.
    10030    2    1    2    0    0  0.00000000000E+00  0.00000000000E+00 -0.13445695167E+03  0.11264667425E+04  0.11184134523E+04 0.  0.
        2    1    3    3  502    0 -0.52479400651E+03 -0.17296532756E+03  0.19334596059E+02  0.55290105844E+03  0.25500000920E-02 0. -1.
       -2    1    3    3    0  502  0.52479400651E+03  0.17296532756E+03 -0.15379154773E+03  0.57356568409E+03  0.25500000920E-02 0.  1.
</event>
<event>
 5   0  0.5946359E-03  0.1119858E+04  0.7818609E-02  0.9186050E-01
       -2   -1    0    0    0  501  0.00000000000E+00  0.00000000000E+00  0.34762807074E+03  0.34762807075E+03  0.25500000920E-02 0.  1.
        2   -1    0    0  501    0  0.00000000000E+00  0.00000000000E+00 -0.90188534862E+03  0.90188534862E+03  0.25500000920E-02 0. -1.
    10030    2    1    2    0    0  0.00000000000E+00  0.00000000000E+00 -0.55425727788E+03  0.12495134194E+04  0.11198583192E+04 0.  0.
        4    1    3    3  502    0  0.36006924703E+03 -0.42879885161E+03 -0.27617331043E+03  0.62433294651E+03  0.12699999809E+01 0. -1.
       -4    1    3    3    0  502 -0.36006924703E+03  0.42879885161E+03 -0.27808396745E+03  0.62518047286E+03  0.12699999809E+01 0.  1.
</event>
<event>
 5   0  0.5941585E-03  0.1095669E+04  0.7818609E-02  0.9209423E-01
       -2   -1    0    0    0  501  0.00000000000E+00  0.00000000000E+00  0.83380211705E+03  0.83380211705E+03  0.25500000920E-02 0.  1.
        2   -1    0    0  501    0  0.00000000000E+00  0.00000000000E+00 -0.35994489835E+03  0.35994489836E+03  0.25500000920E-02 0. -1.
    10030    2    1    2    0    0  0.00000000000E+00  0.00000000000E+00  0.47385721869E+03  0.11937470154E+04  0.10956693265E+04 0.  0.
        5    1    3    3  502    0  0.18160814478E+03 -0.26924396453E+03  0.71758445121E+03  0.78766957876E+03  0.46999998093E+01 0.  1.
       -5    1    3    3    0  502 -0.18160814478E+03  0.26924396453E+03 -0.24372723252E+03  0.40607743665E+03  0.46999998093E+01 0. -1.
</event>
<event>
 5   0  0.5946359E-03  0.1099649E+04  0.7818609E-02  0.9205534E-01
        2   -1    0    0  501    0  0.00000000000E+00  0.00000000000E+00  0.18522158996E+03  0.18522158998E+03  0.25500000920E-02 0. -1.
       -2   -1    0    0    0  501  0.00000000000E+00  0.00000000000E+00 -0.16321382818E+04  0.16321382818E+04  0.25500000920E-02 0.  1.
    10030    2    1    2    0    0  0.00000000000E+00  0.00000000000E+00 -0.14469166919E+04  0.18173598718E+04  0.10996494853E+04 0.  0.
        4    1    3    3  502    0 -0.49852564937E+03 -0.18393712166E+03 -0.95685955497E+03  0.10945056001E+04  0.12699999809E+01 0.  1.
       -4    1    3    3    0  502  0.49852564937E+03  0.18393712166E+03 -0.49005713689E+03  0.72285427171E+03  0.12699999809E+01 0. -1.
</event>
<event>
 5   0  0.5723194E-03  0.1097932E+04  0.7818609E-02  0.9207210E-01
        2   -1    0    0  501    0  0.00000000000E+00  0.00000000000E+00  0.31896502774E+03  0.31896502775E+03  0.25500000920E-02 0. -1.
       -2   -1    0    0    0  501  0.00000000000E+00  0.00000000000E+00 -0.94481720358E+03  0.94481720358E+03  0.25500000920E-02 0.  1.
    10030    2    1    2    0    0  0.00000000000E+00  0.00000000000E+00 -0.62585217584E+03  0.12637822313E+04  0.10979319570E+04 0.  0.
        1    1    3    3  502    0  0.80454305175E+02  0.18606720385E+03  0.27430449151E+03  0.34108188703E+03  0.50400001928E-02 0. -1.
       -1    1    3    3    0  502 -0.80454305175E+02 -0.18606720385E+03 -0.90015666735E+03  0.92270034430E+03  0.50400001928E-02 0.  1.
</event>
<event>
 5   0  0.3320192E-03  0.1124320E+04  0.7818609E-02  0.9181807E-01
       -1   -1    0    0    0  501  0.00000000000E+00  0.00000000000E+00  0.66259462343E+03  0.66259462345E+03  0.50400001928E-02 0. -1.
        1   -1    0    0  501    0  0.00000000000E+00  0.00000000000E+00 -0.47694918885E+03  0.47694918888E+03  0.50400001928E-02 0.  1.
    10030    2    1    2    0    0  0.00000000000E+00  0.00000000000E+00  0.18564543457E+03  0.11395438123E+04  0.11243201825E+04 0.  0.
        2    1    3    3  502    0 -0.50618171495E+02  0.36904451616E+03 -0.33391014394E+03  0.50025197493E+03  0.25500000920E-02 0.  1.
       -2    1    3    3    0  502  0.50618171495E+02 -0.36904451616E+03  0.51955557851E+03  0.63929183740E+03  0.25500000920E-02 0. -1.
</event>
<event>
 5   0  0.5627232E-03  0.1106240E+04  0.7818609E-02  0.9199131E-01
        2   -1    0    0  501    0  0.00000000000E+00  0.00000000000E+00  0.46178724228E+03  0.46178724228E+03  0.25500000920E-02 0. -1.
       -2   -1    0    0    0  501  0.00000000000E+00  0.00000000000E+00 -0.66251642422E+03  0.66251642422E+03  0.25500000920E-02 0.  1.
    10030    2    1    2    0    0  0.00000000000E+00  0.00000000000E+00 -0.20072918194E+03  0.11243036665E+04  0.11062398158E+04 0.  0.
        2    1    3    3  502    0 -0.45458987940E+02  0.32652436892E+03  0.35102391658E+03  0.48156253291E+03  0.25500000920E-02 0. -1.
       -2    1    3    3    0  502  0.45458987940E+02 -0.32652436892E+03 -0.55175309853E+03  0.64274113360E+03  0.25500000920E-02 0.  1.
</event>
<event>
 5   0  0.5500363E-03  0.1106313E+04  0.7818609E-02  0.9199061E-01
        2   -1    0    0  501    0  0.00000000000E+00  0.00000000000E+00  0.80104786068E+03  0.80104786068E+03  0.25500000920E-02 0.  1.
       -2   -1    0    0    0  501  0.00000000000E+00  0.00000000000E+00 -0.38197711253E+03  0.38197711254E+03  0.25500000920E-02 0. -1.
    10030    2    1    2    0    0  0.00000000000E+00  0.00000000000E+00  0.41907074815E+03  0.11830249732E+04  0.11063127023E+04 0.  0.
        3    1    3    3  502    0 -0.48967479964E+03 -0.70138369812E+02  0.47425090703E+03  0.68528441785E+03  0.10100000352E+00 0.  1.
       -3    1    3    3    0  502  0.48967479964E+03  0.70138369812E+02 -0.55180158885E+02  0.49774055537E+03  0.10100000352E+00 0. -1.
</event>
<event>
 5   0  0.2185750E-03  0.1094116E+04  0.7818609E-02  0.9210946E-01
       -4   -1    0    0    0  501  0.00000000000E+00  0.00000000000E+00  0.36828277070E+03  0.36828496045E+03  0.12699999809E+01 0.  1.
        4   -1    0    0  501    0  0.00000000000E+00  0.00000000000E+00 -0.81261018791E+03  0.81261118033E+03  0.12699999809E+01 0. -1.
    10030    2    1    2    0    0  0.00000000000E+00  0.00000000000E+00 -0.44432741721E+03  0.11808961408E+04  0.10941155522E+04 0.  0.
        4    1    3    3  502    0 -0.52353047616E+03 -0.10830262440E+03 -0.34736889204E+03  0.63755813694E+03  0.12699999809E+01 0. -1.
       -4    1    3    3    0  502  0.52353047616E+03  0.10830262440E+03 -0.96958525165E+02  0.54333800384E+03  0.12699999809E+01 0.  1.
</event>
<event>
 5   0  0.5723194E-03  0.1073563E+04  0.7818609E-02  0.9231349E-01
        2   -1    0    0  501    0  0.00000000000E+00  0.00000000000E+00  0.11877359612E+04  0.11877359612E+04  0.25500000920E-02 0. -1.
       -2   -1    0    0    0  501  0.00000000000E+00  0.00000000000E+00 -0.24259122935E+03  0.24259122936E+03  0.25500000920E-02 0.  1.
    10030    2    1    2    0    0  0.00000000000E+00  0.00000000000E+00  0.94514473188E+03  0.14303271906E+04  0.10735629036E+04 0.  0.
        1    1    3    3  502    0  0.40212680816E+03 -0.20799168160E+03  0.88347426484E+02  0.46127191249E+03  0.50400001928E-02 0.  1.
       -1    1    3    3    0  502 -0.40212680816E+03  0.20799168160E+03  0.85679730540E+03  0.96905527810E+03  0.50400001928E-02 0. -1.
</event>
<event>
 5   0  0.3215352E-03  0.1148345E+04  0.7818609E-02  0.9159312E-01
        1   -1    0    0  501    0  0.00000000000E+00  0.00000000000E+00  0.23923910870E+03  0.23923910875E+03  0.50400001928E-02 0.  1.
       -1   -1    0    0    0  501  0.00000000000E+00  0.00000000000E+00 -0.13780109008E+04  0.13780109008E+04  0.50400001928E-02 0. -1.
    10030    2    1    2    0    0  0.00000000000E+00  0.00000000000E+00 -0.11387717921E+04  0.16172500095E+04  0.11483450696E+04 0.  0.
        1    1    3    3  502    0  0.23496277366E+03 -0.16907029706E+03  0.12895579474E+03  0.31689409489E+03  0.50400001928E-02 0.  1.
       -1    1    3    3    0  502 -0.23496277366E+03  0.16907029706E+03 -0.12677275868E+04  0.13003559146E+04  0.50400001928E-02 0. -1.
</event>
<event>
 5   0  0.5627232E-03  0.1090947E+04  0.7818609E-02  0.9214060E-01
       -2   -1    0    0    0  501  0.00000000000E+00  0.00000000000E+00  0.36008826068E+03  0.36008826069E+03  0.25500000920E-02 0.  1.
        2   -1    0    0  501    0  0.00000000000E+00  0.00000000000E+00 -0.82630148102E+03  0.82630148103E+03  0.25500000920E-02 0. -1.
    10030    2    1    2    0    0  0.00000000000E+00  0.00000000000E+00 -0.46621322034E+03  0.11863897417E+04  0.10909472272E+04 0.  0.
        2    1    3    3  502    0 -0.25420268092E+03 -0.43188392625E+03 -0.46735505010E+03  0.68524701502E+03  0.25500000920E-02 0.  1.
       -2    1    3    3    0  502  0.25420268092E+03  0.43188392625E+03  0.11418297587E+01  0.50114272669E+03  0.25500000920E-02 0. -1.
</event>
<event>
 5   0  0.3241189E-03  0.1092850E+04  0.7818609E-02  0.9212189E-01
       -1   -1    0    0    0  501  0.00000000000E+00  0.00000000000E+00  0.55587582765E+03  0.55587582768E+03  0.50400001928E-02 0. -1.
        1   -1    0    0  501    0  0.00000000000E+00  0.00000000000E+00 -0.53713465754E+03  0.53713465756E+03  0.50400001928E-02 0.  1.
    10030    2    1    2    0    0  0.00000000000E+00  0.00000000000E+00  0.18741170117E+02  0.10930104852E+04  0.10928498018E+04 0.  0.
        5    1    3    3  502    0 -0.47379907250E+03  0.26599412399E+03 -0.48254266388E+02  0.54551718518E+03  0.46999998093E+01 0. -1.
       -5    1    3    3    0  502  0.47379907250E+03 -0.26599412399E+03  0.66995436504E+02  0.54749330006E+03  0.46999998093E+01 0.  1.
</event>
<event>
 5   0  0.5941585E-03  0.1003893E+04  0.7818609E-02  0.9304285E-01
        2   -1    0    0  501    0  0.00000000000E+00  0.00000000000E+00  0.73954009296E+03  0.73954009297E+03  0.25500000920E-02 0.  1.
       -2   -1    0    0    0  501  0.00000000000E+00  0.00000000000E+00 -0.34068502810E+03  0.34068502811E+03  0.25500000920E-02 0. -1.
    10030    2    1    2    0    0  0.00000000000E+00  0.00000000000E+00  0.39885506486E+03  0.10802251211E+04  0.10038928974E+04 0.  0.
        5    1    3    3  502    0  0.22293481595E+02 -0.60669037967E+02 -0.33616447474E+03  0.34235416686E+03  0.46999998093E+01 0. -1.
       -5    1    3    3    0  502 -0.22293481595E+02  0.60669037967E+02  0.73501953960E+03  0.73787095422E+03  0.46999998093E+01 0.  1.
</event>
<event>
 5   0  0.3316784E-03  0.1091169E+04  0.7818609E-02  0.9213842E-01
        1   -1    0    0  501    0  0.00000000000E+00  0.00000000000E+00  0.35771409732E+03  0.35771409736E+03  0.50400001928E-02 0. -1.
       -1   -1    0    0    0  501  0.00000000000E+00  0.00000000000E+00 -0.83212375511E+03  0.83212375513E+03  0.50400001928E-02 0.  1.
    10030    2    1    2    0    0  0.00000000000E+00  0.00000000000E+00 -0.47440965779E+03  0.11898378525E+04  0.10911689108E+04 0.  0.
        4    1    3    3  502    0 -0.16302909414E+02 -0.47987475871E+03  0.45287262546E+02  0.48228427090E+03  0.12699999809E+01 0. -1.
       -4    1    3    3    0  502  0.16302909414E+02  0.47987475871E+03 -0.51969692034E+03  0.70755358159E+03  0.12699999809E+01 0.  1.
</event>
<event>
 5   0  0.5946359E-03  0.1148136E+04  0.7818609E-02  0.9159505E-01
        2   -1    0    0  501    0  0.00000000000E+00  0.00000000000E+00  0.64703292839E+03  0.64703292840E+03  0.25500000920E-02 0. -1.
       -2   -1    0    0    0  501  0.00000000000E+00  0.00000000000E+00 -0.50933154198E+03  0.50933154199E+03  0.25500000920E-02 0.  1.
    10030    2    1    2    0    0  0.00000000000E+00  0.00000000000E+00  0.13770138641E+03  0.11563644704E+04  0.11481363667E+04 0.  0.
        4    1    3    3  502    0  0.32952804790E+03  0.15631504148E+03 -0.37764285178E+03  0.52501320264E+03  0.12699999809E+01 0.  1.
       -4    1    3    3    0  502 -0.32952804790E+03 -0.15631504148E+03  0.51534423819E+03  0.63135126774E+03  0.12699999809E+01 0. -1.
</event>
<event>
 5   0  0.3215352E-03  0.1188757E+04  0.7818609E-02  0.9122755E-01
       -1   -1    0    0    0  501  0.00000000000E+00  0.00000000000E+00  0.37483380326E+03  0.37483380329E+03  0.50400001928E-02 0.  1.
        1   -1    0    0  501    0  0.00000000000E+00  0.00000000000E+00 -0.94251296112E+03  0.94251296114E+03  0.50400001928E-02 0. -1.
    10030    2    1    2    0    0  0.00000000000E+00  0.00000000000E+00 -0.56767915787E+03  0.13173467644E+04  0.11887568597E+04 0.  0.
        1    1    3    3  502    0 -0.16624447524E+03  0.18277017064E+03 -0.88291230184E+03  0.91682947902E+03  0.50400001928E-02 0. -1.
       -1    1    3    3    0  502  0.16624447524E+03 -0.18277017064E+03  0.31523314397E+03  0.40051728541E+03  0.50400001928E-02 0.  1.
</event>
<event>
 5   0  0.5723194E-03  0.1092020E+04  0.7818609E-02  0.9213005E-01
       -2   -1    0    0    0  501  0.00000000000E+00  0.00000000000E+00  0.20830958609E+03  0.20830958610E+03  0.25500000920E-02 0. -1.
        2   -1    0    0  501    0  0.00000000000E+00  0.00000000000E+00 -0.14311721963E+04  0.14311721963E+04  0.25500000920E-02 0.  1.
    10030    2    1    2    0    0  0.00000000000E+00  0.00000000000E+00 -0.12228626102E+04  0.16394817824E+04  0.10920199409E+04 0.  0.
        1    1    3    3  502    0 -0.10462993502E+03  0.53159343215E+03 -0.50974033219E+03  0.74389125999E+03  0.50400001928E-02 0. -1.
       -1    1    3    3    0  502  0.10462993502E+03 -0.53159343215E+03 -0.71312227804E+03  0.89559052243E+03  0.50400001928E-02 0.  1.
</event>
<event>
 5   0  0.3316784E-03  0.1119219E+04  0.7818609E-02  0.9186660E-01
        1   -1    0    0  501    0  0.00000000000E+00  0.00000000000E+00  0.86148277865E+03  0.86148277866E+03  0.50400001928E-02 0. -1.
       -1   -1    0    0    0  501  0.00000000000E+00  0.00000000000E+00 -0.36351601051E+03  0.36351601054E+03  0.50400001928E-02 0.  1.
    10030    2    1    2    0    0  0.00000000000E+00  0.00000000000E+00  0.49796676814E+03  0.12249987892E+04  0.11192189828E+04 0.  0.
        4    1    3    3  502    0  0.25000399170E+02 -0.53872816770E+03  0.85508140396E+02  0.54604607278E+03  0.12699999809E+01 0.  1.
       -4    1    3    3    0  502 -0.25000399170E+02  0.53872816770E+03  0.41245862775E+03  0.67895271642E+03  0.12699999809E+01 0. -1.
</event>
<event>
 5   0  0.2185750E-03  0.1101994E+04  0.7818609E-02  0.9203251E-01
        3   -1    0    0  501    0  0.00000000000E+00  0.00000000000E+00  0.31360548183E+03  0.31360549809E+03  0.10100000352E+00 0. -1.
       -3   -1    0    0    0  501  0.00000000000E+00  0.00000000000E+00 -0.96808740382E+03  0.96808740909E+03  0.10100000352E+00 0.  1.
    10030    2    1    2    0    0  0.00000000000E+00  0.00000000000E+00 -0.65448192200E+03  0.12816929072E+04  0.11019937033E+04 0.  0.
        3    1    3    3  502    0 -0.14289820210E+02 -0.38078979388E+03  0.13564297798E+03  0.40448002888E+03  0.10100000352E+00 0. -1.
       -3    1    3    3    0  502  0.14289820210E+02  0.38078979388E+03 -0.79012489998E+03  0.87721287830E+03  0.10100000352E+00 0.  1.
</event>
<event>
 5   0  0.5500363E-03  0.1141797E+04  0.7818609E-02  0.9165384E-01
       -2   -1    0    0    0  501  0.00000000000E+00  0.00000000000E+00  0.43812971544E+03  0.43812971545E+03  0.25500000920E-02 0. -1.
        2   -1    0    0  501    0  0.00000000000E+00  0.00000000000E+00 -0.74390125863E+03  0.74390125863E+03  0.25500000920E-02 0.  1.
    10030    2    1    2    0    0  0.00000000000E+00  0.00000000000E+00 -0.30577154318E+03  0.11820309741E+04  0.11417972618E+04 0.  0.
        3    1    3    3  502    0  0.80878806663E+02 -0.37228076099E+03 -0.59306356747E+03  0.70488208349E+03  0.10100000352E+00 0. -1.
       -3    1    3    3    0  502 -0.80878806663E+02  0.37228076099E+03  0.28729202428E+03  0.47714889059E+03  0.10100000352E+00 0.  1.
</event>
<event>
 5   0  0.3328741E-03  0.1094093E+04  0.7818609E-02  0.9210968E-01
       -1   -1    0    0    0  501  0.00000000000E+00  0.00000000000E+00  0.98567561977E+03  0.98567561978E+03  0.50400001928E-02 0. -1.
        1   -1    0    0  501    0  0.00000000000E+00  0.00000000000E+00 -0.30360908522E+03  0.30360908527E+03  0.50400001928E-02 0.  1.
    10030    2    1    2    0    0  0.00000000000E+00  0.00000000000E+00  0.68206653454E+03  0.12892847050E+04  0.10940933658E+04 0.  0.
        3    1    3    3  502    0 -0.91475140430E+02  0.14141637582E+03  0.95436290989E+03  0.96911034802E+03  0.10100000352E+00 0. -1.
       -3    1    3    3    0  502  0.91475140430E+02 -0.14141637582E+03 -0.27229637535E+03  0.32017435702E+03  0.10100000352E+00 0.  1.
</event>
<event>
 5   0  0.5723194E-03  0.1086135E+04  0.7818609E-02  0.9218812E-01
        2   -1    0    0  501    0  0.00000000000E+00  0.00000000000E+00  0.22945553677E+04  0.22945553677E+04  0.25500000920E-02 0. -1.
       -2   -1    0    0    0  501  0.00000000000E+00  0.00000000000E+00 -0.12853124566E+03  0.12853124568E+03  0.25500000920E-02 0.  1.
    10030    2    1    2    0    0  0.00000000000E+00  0.00000000000E+00  0.21660241221E+04  0.24230866134E+04  0.10861345399E+04 0.  0.
        1    1    3    3  502    0  0.44823486215E+03  0.11259918712E+02  0.39945674795E+03  0.60050559608E+03  0.50400001928E-02 0.  1.
       -1    1    3    3    0  502 -0.44823486215E+03 -0.11259918712E+02  0.17665673741E+04  0.18225810173E+04  0.50400001928E-02 0. -1.
</event>
<event>
 5   0  0.3316784E-03  0.1022237E+04  0.7818609E-02  0.9284486E-01
        1   -1    0    0  501    0  0.00000000000E+00  0.00000000000E+00  0.43066054054E+03  0.43066054057E+03  0.50400001928E-02 0. -1.
       -1   -1    0    0    0  501  0.00000000000E+00  0.00000000000E+00 -0.60660797199E+03  0.60660797201E+03  0.50400001928E-02 0.  1.
    10030    2    1    2    0    0  0.00000000000E+00  0.00000000000E+00 -0.17594743145E+03  0.10372685126E+04  0.10222369924E+04 0.  0.
        4    1    3    3  502    0  0.13281489566E+03  0.39217551861E+03  0.21609764800E+03  0.46705592842E+03  0.12699999809E+01 0. -1.
       -4    1    3    3    0  502 -0.13281489566E+03 -0.39217551861E+03 -0.39204507945E+03  0.57021258415E+03  0.12699999809E+01 0.  1.
</event>
<event>
 5   0  0.5500363E-03  0.1057449E+04  0.7818609E-02  0.9247687E-01
        2   -1    0    0  501    0  0.00000000000E+00  0.00000000000E+00  0.82364232738E+03  0.82364232738E+03  0.25500000920E-02 0.  1.
       -2   -1    0    0    0  501  0.00000000000E+00  0.00000000000E+00 -0.33940679837E+03  0.33940679838E+03  0.25500000920E-02 0. -1.
    10030    2    1    2    0    0  0.00000000000E+00  0.00000000000E+00  0.48423552901E+03  0.11630491258E+04  0.10574493942E+04 0.  0.
        3    1    3    3  502    0 -0.11836337268E+03  0.18584715400E+03 -0.28650413916E+03  0.36143282170E+03  0.10100000352E+00 0. -1.
       -3    1    3    3    0  502  0.11836337268E+03 -0.18584715400E+03  0.77073966817E+03  0.80161630406E+03  0.10100000352E+00 0.  1.
</event>
<event>
 5   0  0.3316784E-03  0.1061129E+04  0.7818609E-02  0.9243928E-01
       -1   -1    0    0    0  501  0.00000000000E+00  0.00000000000E+00  0.23465027858E+03  0.23465027864E+03  0.50400001928E-02 0.  1.
        1   -1    0    0  501    0  0.00000000000E+00  0.00000000000E+00 -0.11996530716E+04  0.11996530716E+04  0.50400001928E-02 0. -1.
    10030    2    1    2    0    0  0.00000000000E+00  0.00000000000E+00 -0.96500279299E+03  0.14343033502E+04  0.10611294501E+04 0.  0.
        4    1    3    3  502    0  0.41958934145E+03  0.26064244736E+03 -0.74427892466E+03  0.89327623466E+03  0.12699999809E+01 0. -1.
       -4    1    3    3    0  502 -0.41958934145E+03 -0.26064244736E+03 -0.22072386834E+03  0.54102711556E+03  0.12699999809E+01 0.  1.
</event>
<event>
 5   0  0.2185750E-03  0.1110341E+04  0.7818609E-02  0.9195171E-01
       -3   -1    0    0    0  501  0.00000000000E+00  0.00000000000E+00  0.14445384629E+04  0.14445384664E+04  0.10100000352E+00 0.  1.
        3   -1    0    0  501    0  0.00000000000E+00  0.00000000000E+00 -0.21336508552E+03  0.21336510943E+03  0.10100000352E+00 0. -1.
    10030    2    1    2    0    0  0.00000000000E+00  0.00000000000E+00  0.12311733774E+04  0.16579035759E+04  0.11103406602E+04 0.  0.
        2    1    3    3  502    0 -0.50088658757E+03  0.20122285352E+03  0.42184477744E+03  0.68507738735E+03  0.25500000920E-02 0. -1.
       -2    1    3    3    0  502  0.50088658757E+03 -0.20122285352E+03  0.80932859994E+03  0.97282618852E+03  0.25500000920E-02 0.  1.
</event>
<event>
 5   0  0.3316784E-03  0.9911897E+03  0.7818609E-02  0.9318261E-01
       -1   -1    0    0    0  501  0.00000000000E+00  0.00000000000E+00  0.41978082921E+03  0.41978082924E+03  0.50400001928E-02 0.  1.
        1   -1    0    0  501    0  0.00000000000E+00  0.00000000000E+00 -0.58510120052E+03  0.58510120054E+03  0.50400001928E-02 0. -1.
    10030    2    1    2    0    0  0.00000000000E+00  0.00000000000E+00 -0.16532037131E+03  0.10048820298E+04  0.99118972381E+03 0.  0.
        4    1    3    3  502    0  0.45181227144E+03 -0.75863316262E+02 -0.27427662006E+03  0.53396521290E+03  0.12699999809E+01 0. -1.
       -4    1    3    3    0  502 -0.45181227144E+03  0.75863316262E+02  0.10895624875E+03  0.47091681688E+03  0.12699999809E+01 0.  1.
</event>
<event>
 5   0  0.3241189E-03  0.1126333E+04  0.7818609E-02  0.9179899E-01
        1   -1    0    0  501    0  0.00000000000E+00  0.00000000000E+00  0.18512249989E+04  0.18512249989E+04  0.50400001928E-02 0.  1.
       -1   -1    0    0    0  501  0.00000000000E+00  0.00000000000E+00 -0.17132252486E+03  0.17132252493E+03  0.50400001928E-02 0. -1.
    10030    2    1    2    0    0  0.00000000000E+00  0.00000000000E+00  0.16799024740E+04  0.20225475238E+04  0.11263330608E+04 0.  0.
        5    1    3    3  502    0  0.29848776357E+03 -0.18231697594E+03  0.47401714625E+02  0.35299212068E+03  0.46999998093E+01 0. -1.
       -5    1    3    3    0  502 -0.29848776357E+03  0.18231697594E+03  0.16325007594E+04  0.16695554031E+04  0.46999998093E+01 0.  1.
</event>
<event>
 5   0  0.5627232E-03  0.8613612E+03  0.7818609E-02  0.9475214E-01
       -2   -1    0    0    0  501  0.00000000000E+00  0.00000000000E+00  0.69550054304E+03  0.69550054305E+03  0.25500000920E-02 0. -1.
        2   -1    0    0  501    0  0.00000000000E+00  0.00000000000E+00 -0.26669394744E+03  0.26669394745E+03  0.25500000920E-02 0.  1.
    10030    2    1    2    0    0  0.00000000000E+00  0.00000000000E+00  0.42880659561E+03  0.96219449050E+03  0.86136121407E+03 0.  0.
        2    1    3    3  502    0  0.40181419357E+02 -0.41274930606E+03  0.34423870950E+03  0.53895902000E+03  0.25500000920E-02 0. -1.
       -2    1    3    3    0  502 -0.40181419357E+02  0.41274930606E+03  0.84567886103E+02  0.42323547049E+03  0.25500000920E-02 0.  1.
</event>
<event>
 5   0  0.5946359E-03  0.9876796E+03  0.7818609E-02  0.9322162E-01
       -2   -1    0    0    0  501  0.00000000000E+00  0.00000000000E+00  0.22485241736E+03  0.22485241737E+03  0.25500000920E-02 0. -1.
        2   -1    0    0  501    0  0.00000000000E+00  0.00000000000E+00 -0.10846125808E+04  0.10846125808E+04  0.25500000920E-02 0.  1.
    10030    2    1    2    0    0  0.00000000000E+00  0.00000000000E+00 -0.85976016347E+03  0.13094649982E+04  0.98767962560E+03 0.  0.
        4    1    3    3  502    0  0.33665238133E+01  0.33002259913E+03  0.57159300882E+02  0.33495529254E+03  0.12699999809E+01 0. -1.
       -4    1    3    3    0  502 -0.33665238133E+01 -0.33002259913E+03 -0.91691946436E+03  0.97450970567E+03  0.12699999809E+01 0.  1.
</event>
<event>
 5   0  0.5941585E-03  0.1108490E+04  0.7818609E-02  0.9196956E-01
       -2   -1    0    0    0  501  0.00000000000E+00  0.00000000000E+00  0.62717906533E+03  0.62717906533E+03  0.25500000920E-02 0.  1.
        2   -1    0    0  501    0  0.00000000000E+00  0.00000000000E+00 -0.48979252690E+03  0.48979252691E+03  0.25500000920E-02 0. -1.
    10030    2    1    2    0    0  0.00000000000E+00  0.00000000000E+00  0.13738653843E+03  0.11169715922E+04  0.11084901790E+04 0.  0.
        5    1    3    3  502    0 -0.54735658478E+03  0.94890920787E+01 -0.18433647394E+02  0.54776926084E+03  0.46999998093E+01 0. -1.
       -5    1    3    3    0  502  0.54735658478E+03 -0.94890920787E+01  0.15582018582E+03  0.56920233140E+03  0.46999998093E+01 0.  1.
</event>
<event>
 5   0  0.2185750E-03  0.1032170E+04  0.7818609E-02  0.9273949E-01
       -4   -1    0    0    0  501  0.00000000000E+00  0.00000000000E+00  0.70632695601E+03  0.70632809776E+03  0.12699999809E+01 0. -1.
        4   -1    0    0  501    0  0.00000000000E+00  0.00000000000E+00 -0.37708017270E+03  0.37708231137E+03  0.12699999809E+01 0.  1.
    10030    2    1    2    0    0  0.00000000000E+00  0.00000000000E+00  0.32924678330E+03  0.10834104091E+04  0.10321698844E+04 0.  0.
        2    1    3    3  502    0 -0.12155253064E+03  0.17130175502E+03  0.65943246078E+03  0.69207693164E+03  0.25500000920E-02 0. -1.
       -2    1    3    3    0  502  0.12155253064E+03 -0.17130175502E+03 -0.33018567748E+03  0.39133347748E+03  0.25500000920E-02 0.  1.
</event>
<event>
 5   0  0.3316784E-03  0.1093798E+04  0.7818609E-02  0.9211258E-01
       -1   -1    0    0    0  501  0.00000000000E+00  0.00000000000E+00  0.50683204177E+03  0.50683204179E+03  0.50400001928E-02 0. -1.
        1   -1    0    0  501    0  0.00000000000E+00  0.00000000000E+00 -0.59013330965E+03  0.59013330967E+03  0.50400001928E-02 0.  1.
    10030    2    1    2    0    0  0.00000000000E+00  0.00000000000E+00 -0.83301267882E+02  0.10969653515E+04  0.10937979160E+04 0.  0.
        4    1    3    3  502    0 -0.33950303566E+03  0.41359286929E+03  0.71705365519E+02  0.53987465683E+03  0.12699999809E+01 0.  1.
       -4    1    3    3    0  502  0.33950303566E+03 -0.41359286929E+03 -0.15500663340E+03  0.55709069463E+03  0.12699999809E+01 0. -1.
</event>
<event>
 5   0  0.3215352E-03  0.1101861E+04  0.7818609E-02  0.9203380E-01
       -1   -1    0    0    0  501  0.00000000000E+00  0.00000000000E+00  0.61878638283E+03  0.61878638285E+03  0.50400001928E-02 0. -1.
        1   -1    0    0  501    0  0.00000000000E+00  0.00000000000E+00 -0.49051570886E+03  0.49051570889E+03  0.50400001928E-02 0.  1.
    10030    2    1    2    0    0  0.00000000000E+00  0.00000000000E+00  0.12827067397E+03  0.11093020917E+04  0.11018610461E+04 0.  0.
        1    1    3    3  502    0  0.29326400510E+02 -0.54930817765E+03  0.94753370590E+02  0.55819146631E+03  0.50400001928E-02 0. -1.
       -1    1    3    3    0  502 -0.29326400510E+02  0.54930817765E+03  0.33517303379E+02  0.55111062542E+03  0.50400001928E-02 0.  1.
</event>
<event>
 5   0  0.5500363E-03  0.8238302E+03  0.7818609E-02  0.9526150E-01
       -2   -1    0    0    0  501  0.00000000000E+00  0.00000000000E+00  0.14380416241E+03  0.14380416243E+03  0.25500000920E-02 0. -1.
        2   -1    0    0  501    0  0.00000000000E+00  0.00000000000E+00 -0.11798965159E+04  0.11798965159E+04  0.25500000920E-02 0.  1.
    10030    2    1    2    0    0  0.00000000000E+00  0.00000000000E+00 -0.10360923535E+04  0.13237006784E+04  0.82383015293E+03 0.  0.
        3    1    3    3  502    0 -0.78488812749E+02  0.31781812999E+03 -0.11633857302E+03  0.34742413740E+03  0.10100000352E+00 0. -1.
       -3    1    3    3    0  502  0.78488812749E+02 -0.31781812999E+03 -0.91975378051E+03  0.97627654096E+03  0.10100000352E+00 0.  1.
</event>
<event>
 5   0  0.5723194E-03  0.1111908E+04  0.7818609E-02  0.9193663E-01
       -2   -1    0    0    0  501  0.00000000000E+00  0.00000000000E+00  0.38651006929E+03  0.38651006930E+03  0.25500000920E-02 0. -1.
        2   -1    0    0  501    0  0.00000000000E+00  0.00000000000E+00 -0.79968054529E+03  0.79968054529E+03  0.25500000920E-02 0.  1.
    10030    2    1    2    0    0  0.00000000000E+00  0.00000000000E+00 -0.41317047600E+03  0.11861906146E+04  0.11119075195E+04 0.  0.
        1    1    3    3  502    0 -0.86765206028E+02  0.39487618764E+03 -0.61369359348E+03  0.73489810943E+03  0.50400001928E-02 0.  1.
       -1    1    3    3    0  502  0.86765206028E+02 -0.39487618764E+03  0.20052311749E+03  0.45129250516E+03  0.50400001928E-02 0. -1.
</event>
<event>
 5   0  0.2185750E-03  0.1104900E+04  0.7818609E-02  0.9200429E-01
        3   -1    0    0  501    0  0.00000000000E+00  0.00000000000E+00  0.47155201076E+03  0.47155202158E+03  0.10100000352E+00 0. -1.
       -3   -1    0    0    0  501  0.00000000000E+00  0.00000000000E+00 -0.64722662657E+03  0.64722663445E+03  0.10100000352E+00 0.  1.
    10030    2    1    2    0    0  0.00000000000E+00  0.00000000000E+00 -0.17567461581E+03  0.11187786560E+04  0.11049000455E+04 0.  0.
        3    1    3    3  502    0 -0.70393099259E+02 -0.53500768380E+03 -0.20769906954E+03  0.57821044943E+03  0.10100000352E+00 0. -1.
       -3    1    3    3    0  502  0.70393099259E+02  0.53500768380E+03  0.32024453737E+02  0.54056820660E+03  0.10100000352E+00 0.  1.
</event>
<event>
 5   0  0.5941585E-03  0.1085397E+04  0.7818609E-02  0.9219543E-01
       -2   -1    0    0    0  501  0.00000000000E+00  0.00000000000E+00  0.80421781808E+03  0.80421781808E+03  0.25500000920E-02 0.  1.
        2   -1    0    0  501    0  0.00000000000E+00  0.00000000000E+00 -0.36622111152E+03  0.36622111153E+03  0.25500000920E-02 0. -1.
    10030    2    1    2    0    0  0.00000000000E+00  0.00000000000E+00  0.43799670656E+03  0.11704389296E+04  0.10853967814E+04 0.  0.
        5    1    3    3  502    0 -0.16651743944E+03 -0.47662001042E+03  0.43962723731E+01  0.50491198162E+03  0.46999998093E+01 0.  1.
       -5    1    3    3    0  502  0.16651743944E+03  0.47662001042E+03  0.43360043419E+03  0.66552694799E+03  0.46999998093E+01 0. -1.
</event>
<event>
 5   0  0.3328741E-03  0.1111238E+04  0.7818609E-02  0.9194307E-01
       -1   -1    0    0    0  501  0.00000000000E+00  0.00000000000E+00  0.82037810996E+03  0.82037810998E+03  0.50400001928E-02 0.  1.
        1   -1    0    0  501    0  0.00000000000E+00  0.00000000000E+00 -0.37630499546E+03  0.37630499549E+03  0.50400001928E-02 0. -1.
    10030    2    1    2    0    0  0.00000000000E+00  0.00000000000E+00  0.44407311451E+03  0.11966831055E+04  0.11112378341E+04 0.  0.
        3    1    3    3  502    0 -0.31928741250E+02  0.52627051103E+03  0.33250681399E+02  0.52828563611E+03  0.10100000352E+00 0. -1.
       -3    1    3    3    0  502  0.31928741250E+02 -0.52627051103E+03  0.41082243311E+03  0.66839746936E+03  0.10100000352E+00 0.  1.
</event>
<event>
 5   0  0.2185750E-03  0.1104867E+04  0.7818609E-02  0.9200461E-01
        3   -1    0    0  501    0  0.00000000000E+00  0.00000000000E+00  0.26112856496E+03  0.26112858449E+03  0.10100000352E+00 0.  1.
       -3   -1    0    0    0  501  0.00000000000E+00  0.00000000000E+00 -0.11687077032E+04  0.11687077075E+04  0.10100000352E+00 0. -1.
    10030    2    1    2    0    0  0.00000000000E+00  0.00000000000E+00 -0.90757913820E+03  0.14298362920E+04  0.11048673811E+04 0.  0.
        5    1    3    3  502    0 -0.98263539484E+02  0.69746857870E+02  0.24388720218E+03  0.27207242558E+03  0.46999998093E+01 0.  1.
       -5    1    3    3    0  502  0.98263539484E+02 -0.69746857870E+02 -0.11514663404E+04  0.11577638664E+04  0.46999998093E+01 0. -1.
</event>
<event>
 5   0  0.5627232E-03  0.1116442E+04  0.7818609E-02  0.9189313E-01
       -2   -1    0    0    0  501  0.00000000000E+00  0.00000000000E+00  0.21393027430E+03  0.21393027432E+03  0.25500000920E-02 0. -1.
        2   -1    0    0  501    0  0.00000000000E+00  0.00000000000E+00 -0.14565999600E+04  0.14565999600E+04  0.25500000920E-02 0.  1.
    10030    2    1    2    0    0  0.00000000000E+00  0.00000000000E+00 -0.12426696857E+04  0.16705302343E+04  0.11164422583E+04 0.  0.
        2    1    3    3  502    0  0.19273899264E+03 -0.21395282520E+03  0.94212751258E+02  0.30298543397E+03  0.25500000920E-02 0. -1.
       -2    1    3    3    0  502 -0.19273899264E+03  0.21395282520E+03 -0.13368824370E+04  0.13675448004E+04  0.25500000920E-02 0.  1.
</event>
<event>
 5   0  0.3215352E-03  0.1143076E+04  0.7818609E-02  0.9164195E-01
       -1   -1    0    0    0  501  0.00000000000E+00  0.00000000000E+00  0.37055330953E+03  0.37055330957E+03  0.50400001928E-02 0. -1.
        1   -1    0    0  501    0  0.00000000000E+00  0.00000000000E+00 -0.88153545897E+03  0.88153545898E+03  0.50400001928E-02 0.  1.
    10030    2    1    2    0    0  0.00000000000E+00  0.00000000000E+00 -0.51098214943E+03  0.12520887685E+04  0.11430763436E+04 0.  0.
        1    1    3    3  502    0  0.44741451061E+03  0.23563165995E+03  0.36283799918E+02  0.50696995733E+03  0.50400001928E-02 0. -1.
       -1    1    3    3    0  502 -0.44741451061E+03 -0.23563165995E+03 -0.54726594935E+03  0.74511881121E+03  0.50400001928E-02 0.  1.
</event>
<event>
 5   0  0.5500363E-03  0.1110577E+04  0.7818609E-02  0.9194944E-01
        2   -1    0    0  501    0  0.00000000000E+00  0.00000000000E+00  0.56752679582E+03  0.56752679583E+03  0.25500000920E-02 0.  1.
       -2   -1    0    0    0  501  0.00000000000E+00  0.00000000000E+00 -0.54331428423E+03  0.54331428424E+03  0.25500000920E-02 0. -1.
    10030    2    1    2    0    0  0.00000000000E+00  0.00000000000E+00  0.24212511590E+02  0.11108410801E+04  0.11105771740E+04 0.  0.
        3    1    3    3  502    0  0.43316715502E+03 -0.34503528213E+03  0.52886945651E+02  0.55630941869E+03  0.10100000352E+00 0. -1.
       -3    1    3    3    0  502 -0.43316715502E+03  0.34503528213E+03 -0.28674434061E+02  0.55453166138E+03  0.10100000352E+00 0.  1.
</event>
<event>
 5   0  0.5627232E-03  0.1031552E+04  0.7818609E-02  0.9274601E-01
        2   -1    0    0  501    0  0.00000000000E+00  0.00000000000E+00  0.88983979117E+03  0.88983979118E+03  0.25500000920E-02 0. -1.
       -2   -1    0    0    0  501  0.00000000000E+00  0.00000000000E+00 -0.29895809657E+03  0.29895809658E+03  0.25500000920E-02 0.  1.
    10030    2    1    2    0    0  0.00000000000E+00  0.00000000000E+00  0.59088169460E+03  0.11887978878E+04  0.10315518605E+04 0.  0.
        2    1    3    3  502    0 -0.24250766957E+02 -0.37793267284E+03  0.69896411220E+03  0.79496668801E+03  0.25500000920E-02 0. -1.
       -2    1    3    3    0  502  0.24250766957E+02  0.37793267284E+03 -0.10808241760E+03  0.39383119975E+03  0.25500000920E-02 0.  1.
</event>
<event>
 5   0  0.3215352E-03  0.1052938E+04  0.7818609E-02  0.9252316E-01
        1   -1    0    0  501    0  0.00000000000E+00  0.00000000000E+00  0.45606657418E+03  0.45606657421E+03  0.50400001928E-02 0. -1.
       -1   -1    0    0    0  501  0.00000000000E+00  0.00000000000E+00 -0.60773947123E+03  0.60773947126E+03  0.50400001928E-02 0.  1.
    10030    2    1    2    0    0  0.00000000000E+00  0.00000000000E+00 -0.15167289705E+03  0.10638060455E+04  0.10529380963E+04 0.  0.
        1    1    3    3  502    0  0.18580515074E+02 -0.50090567838E+03  0.86815670186E+02  0.50871278222E+03  0.50400001928E-02 0. -1.
       -1    1    3    3    0  502 -0.18580515074E+02  0.50090567838E+03 -0.23848856724E+03  0.55509326325E+03  0.50400001928E-02 0.  1.
</event>
<event>
 5   0  0.5941585E-03  0.1076311E+04  0.7818609E-02  0.9228593E-01
       -2   -1    0    0    0  501  0.00000000000E+00  0.00000000000E+00  0.68143098916E+03  0.68143098917E+03  0.25500000920E-02 0.  1.
        2   -1    0    0  501    0  0.00000000000E+00  0.00000000000E+00 -0.42500458836E+03  0.42500458837E+03  0.25500000920E-02 0. -1.
    10030    2    1    2    0    0  0.00000000000E+00  0.00000000000E+00  0.25642640080E+03  0.11064355775E+04  0.10763109161E+04 0.  0.
        5    1    3    3  502    0 -0.26465334687E+03 -0.34851816467E+03 -0.19373428730E+03  0.47860356161E+03  0.46999998093E+01 0. -1.
       -5    1    3    3    0  502  0.26465334687E+03  0.34851816467E+03  0.45016068811E+03  0.62783201593E+03  0.46999998093E+01 0.  1.
</event>
<event>
 5   0  0.5627232E-03  0.1160472E+04  0.7818609E-02  0.9148177E-01
       -2   -1    0    0    0  501  0.00000000000E+00  0.00000000000E+00  0.27995795389E+03  0.27995795390E+03  0.25500000920E-02 0. -1.
        2   -1    0    0  501    0  0.00000000000E+00  0.00000000000E+00 -0.12025864001E+04  0.12025864001E+04  0.25500000920E-02 0.  1.
    10030    2    1    2    0    0  0.00000000000E+00  0.00000000000E+00 -0.92262844616E+03  0.14825443540E+04  0.11604716764E+04 0.  0.
        2    1    3    3  502    0 -0.21574161261E+03  0.43530193028E+03 -0.86660014205E+03  0.99349283849E+03  0.25500000920E-02 0.  1.
       -2    1    3    3    0  502  0.21574161261E+03 -0.43530193028E+03 -0.56028304114E+02  0.48905151548E+03  0.25500000920E-02 0. -1.
</event>
<event>
 5   0  0.5941585E-03  0.1105451E+04  0.7818609E-02  0.9199895E-01
        2   -1    0    0  501    0  0.00000000000E+00  0.00000000000E+00  0.11175873101E+04  0.11175873101E+04  0.25500000920E-02 0. -1.
       -2   -1    0    0    0  501  0.00000000000E+00  0.00000000000E+00 -0.27336184374E+03  0.27336184375E+03  0.25500000920E-02 0.  1.
    10030    2    1    2    0    0  0.00000000000E+00  0.00000000000E+00  0.84422546637E+03  0.13909491539E+04  0.11054514510E+04 0.  0.
        5    1    3    3  502    0 -0.14413684165E+03  0.52596646202E+03  0.53512895411E+03  0.76406886850E+03  0.46999998093E+01 0.  1.
       -5    1    3    3    0  502  0.14413684165E+03 -0.52596646202E+03  0.30909651226E+03  0.62688028536E+03  0.46999998093E+01 0. -1.
</event>
<event>
 5   0  0.3215352E-03  0.1118474E+04  0.7818609E-02  0.9187371E-01
        1   -1    0    0  501    0  0.00000000000E+00  0.00000000000E+00  0.71542427971E+03  0.71542427973E+03  0.50400001928E-02 0. -1.
       -1   -1    0    0    0  501  0.00000000000E+00  0.00000000000E+00 -0.43714753577E+03  0.43714753580E+03  0.50400001928E-02 0.  1.
    10030    2    1    2    0    0  0.00000000000E+00  0.00000000000E+00  0.27827674394E+03  0.11525718155E+04  0.11184738905E+04 0.  0.
        1    1    3    3  502    0 -0.14288237597E+03  0.22026291413E+03 -0.36969104285E+03  0.45343422003E+03  0.50400001928E-02 0.  1.
       -1    1    3    3    0  502  0.14288237597E+03 -0.22026291413E+03  0.64796778679E+03  0.69913759550E+03  0.50400001928E-02 0. -1.
</event>
<event>
 5   0  0.5946359E-03  0.1097109E+04  0.7818609E-02  0.9208014E-01
        2   -1    0    0  501    0  0.00000000000E+00  0.00000000000E+00  0.13246409317E+04  0.13246409317E+04  0.25500000920E-02 0. -1.
       -2   -1    0    0    0  501  0.00000000000E+00  0.00000000000E+00 -0.22716500650E+03  0.22716500651E+03  0.25500000920E-02 0.  1.
    10030    2    1    2    0    0  0.00000000000E+00  0.00000000000E+00  0.10974759252E+04  0.15518059382E+04  0.10971090481E+04 0.  0.
        4    1    3    3  502    0  0.25631049012E+03 -0.13601366401E+03  0.12072030739E+04  0.12415859449E+04  0.12699999809E+01 0. -1.
       -4    1    3    3    0  502 -0.25631049012E+03  0.13601366401E+03 -0.10972714872E+03  0.31021999325E+03  0.12699999809E+01 0.  1.
</event>
<event>
 5   0  0.5500363E-03  0.1091967E+04  0.7818609E-02  0.9213057E-01
        2   -1    0    0  501    0  0.00000000000E+00  0.00000000000E+00  0.78371470578E+03  0.78371470579E+03  0.25500000920E-02 0.  1.
       -2   -1    0    0    0  501  0.00000000000E+00  0.00000000000E+00 -0.38036546930E+03  0.38036546931E+03  0.25500000920E-02 0. -1.
    10030    2    1    2    0    0  0.00000000000E+00  0.00000000000E+00  0.40334923648E+03  0.11640801751E+04  0.10919670542E+04 0.  0.
        3    1    3    3  502    0 -0.42318343614E+03  0.28850966415E+03  0.40331103628E+03  0.65190631928E+03  0.10100000352E+00 0. -1.
       -3    1    3    3    0  502  0.42318343614E+03 -0.28850966415E+03  0.38200203900E-01  0.51217385582E+03  0.10100000352E+00 0.  1.
</event>
<event>
 5   0  0.2185750E-03  0.1031103E+04  0.7818609E-02  0.9275074E-01
        4   -1    0    0  501    0  0.00000000000E+00  0.00000000000E+00  0.42386501255E+03  0.42386691515E+03  0.12699999809E+01 0. -1.
       -4   -1    0    0    0  501  0.00000000000E+00  0.00000000000E+00 -0.62706664342E+03  0.62706792948E+03  0.12699999809E+01 0.  1.
    10030    2    1    2    0    0  0.00000000000E+00  0.00000000000E+00 -0.20320163087E+03  0.10509348446E+04  0.10311028779E+04 0.  0.
        2    1    3    3  502    0  0.44061505357E+03  0.94855950808E+02  0.15352137000E+03  0.47613872757E+03  0.25500000920E-02 0. -1.
       -2    1    3    3    0  502 -0.44061505357E+03 -0.94855950808E+02 -0.35672300087E+03  0.57479611707E+03  0.25500000920E-02 0.  1.
</event>
<event>
 5   0  0.5500363E-03  0.1053195E+04  0.7818609E-02  0.9252051E-01
        2   -1    0    0  501    0  0.00000000000E+00  0.00000000000E+00  0.13002181891E+04  0.13002181891E+04  0.25500000920E-02 0.  1.
       -2   -1    0    0    0  501  0.00000000000E+00  0.00000000000E+00 -0.21327578719E+03  0.21327578721E+03  0.25500000920E-02 0. -1.
    10030    2    1    2    0    0  0.00000000000E+00  0.00000000000E+00  0.10869424019E+04  0.15134939763E+04  0.10531952484E+04 0.  0.
        3    1    3    3  502    0  0.46004681282E+03 -0.24924187797E+03  0.45796415750E+03  0.69533859628E+03  0.10100000352E+00 0.  1.
       -3    1    3    3    0  502 -0.46004681282E+03  0.24924187797E+03  0.62897824437E+03  0.81815537999E+03  0.10100000352E+00 0. -1.
</event>
<event>
 5   0  0.3328741E-03  0.1036873E+04  0.7818609E-02  0.9269003E-01
        1   -1    0    0  501    0  0.00000000000E+00  0.00000000000E+00  0.76756695447E+03  0.76756695449E+03  0.50400001928E-02 0. -1.
       -1   -1    0    0    0  501  0.00000000000E+00  0.00000000000E+00 -0.35016668268E+03  0.35016668272E+03  0.50400001928E-02 0.  1.
    10030    2    1    2    0    0  0.00000000000E+00  0.00000000000E+00  0.41740027179E+03  0.11177336372E+04  0.10368729415E+04 0.  0.
        3    1    3    3  502    0  0.39758217704E+03 -0.10293667093E+03 -0.13237412532E+03  0.43149793160E+03  0.10100000352E+00 0.  1.
       -3    1    3    3    0  502 -0.39758217704E+03  0.10293667093E+03  0.54977439711E+03  0.68623570560E+03  0.10100000352E+00 0. -1.
</event>
<event>
 5   0  0.3328741E-03  0.1107205E+04  0.7818609E-02  0.9198197E-01
       -1   -1    0    0    0  501  0.00000000000E+00  0.00000000000E+00  0.27851658773E+03  0.27851658778E+03  0.50400001928E-02 0. -1.
        1   -1    0    0  501    0  0.00000000000E+00  0.00000000000E+00 -0.11003863535E+04  0.11003863535E+04  0.50400001928E-02 0.  1.
    10030    2    1    2    0    0  0.00000000000E+00  0.00000000000E+00 -0.82186976581E+03  0.13789029413E+04  0.11072052247E+04 0.  0.
        3    1    3    3  502    0 -0.54243758316E+03 -0.79878408761E+02 -0.31562587929E+03  0.63264429002E+03  0.10100000352E+00 0. -1.
       -3    1    3    3    0  502  0.54243758316E+03  0.79878408761E+02 -0.50624388652E+03  0.74625865131E+03  0.10100000352E+00 0.  1.
</event>
<event>
 5   0  0.5946359E-03  0.1106812E+04  0.7818609E-02  0.9198578E-01
       -2   -1    0    0    0  501  0.00000000000E+00  0.00000000000E+00  0.81288091940E+03  0.81288091940E+03  0.25500000920E-02 0.  1.
        2   -1    0    0  501    0  0.00000000000E+00  0.00000000000E+00 -0.37675640296E+03  0.37675640297E+03  0.25500000920E-02 0. -1.
    10030    2    1    2    0    0  0.00000000000E+00  0.00000000000E+00  0.43612451643E+03  0.11896373224E+04  0.11068118020E+04 0.  0.
        4    1    3    3  502    0 -0.10423540760E+03 -0.76304138844E+02  0.79644714323E+03  0.80685624907E+03  0.12699999809E+01 0.  1.
       -4    1    3    3    0  502  0.10423540760E+03  0.76304138844E+02 -0.36032262679E+03  0.38278107331E+03  0.12699999809E+01 0. -1.
</event>
<event>
 5   0  0.3241189E-03  0.1147775E+04  0.7818609E-02  0.9159838E-01
       -1   -1    0    0    0  501  0.00000000000E+00  0.00000000000E+00  0.52725089992E+03  0.52725089995E+03  0.50400001928E-02 0.  1.
        1   -1    0    0  501    0  0.00000000000E+00  0.00000000000E+00 -0.62464967852E+03  0.62464967854E+03  0.50400001928E-02 0. -1.
    10030    2    1    2    0    0  0.00000000000E+00  0.00000000000E+00 -0.97398778594E+02  0.11519005785E+04  0.11477754226E+04 0.  0.
        5    1    3    3  502    0  0.83767424841E+02  0.22487901994E+03  0.47445856314E+03  0.53171474797E+03  0.46999998093E+01 0.  1.
       -5    1    3    3    0  502 -0.83767424841E+02 -0.22487901994E+03 -0.57185734173E+03  0.62018583051E+03  0.46999998093E+01 0. -1.
</event>
<event>
 5   0  0.2185750E-03  0.1100729E+04  0.7818609E-02  0.9204482E-01
        3   -1    0    0  501    0  0.00000000000E+00  0.00000000000E+00  0.79361482613E+03  0.79361483256E+03  0.10100000352E+00 0.  1.
       -3   -1    0    0    0  501  0.00000000000E+00  0.00000000000E+00 -0.38167242013E+03  0.38167243349E+03  0.10100000352E+00 0. -1.
    10030    2    1    2    0    0  0.00000000000E+00  0.00000000000E+00  0.41194240600E+03  0.11752872660E+04  0.11007286731E+04 0.  0.
        1    1    3    3  502    0 -0.24269428561E+03 -0.58537188538E+01 -0.32141469311E+03  0.40279298313E+03  0.50400001928E-02 0. -1.
       -1    1    3    3    0  502  0.24269428561E+03  0.58537188538E+01  0.73335709911E+03  0.77249428291E+03  0.50400001928E-02 0.  1.
</event>
<event>
 5   0  0.3328741E-03  0.1080794E+04  0.7818609E-02  0.9224116E-01
        1   -1    0    0  501    0  0.00000000000E+00  0.00000000000E+00  0.14037723590E+04  0.14037723590E+04  0.50400001928E-02 0.  1.
       -1   -1    0    0    0  501  0.00000000000E+00  0.00000000000E+00 -0.20803141336E+03  0.20803141343E+03  0.50400001928E-02 0. -1.
    10030    2    1    2    0    0  0.00000000000E+00  0.00000000000E+00  0.11957409457E+04  0.16118037725E+04  0.10807936860E+04 0.  0.
        3    1    3    3  502    0  0.42084992415E+02  0.40479626435E+03  0.11280692733E+04  0.11992378654E+04  0.10100000352E+00 0.  1.
       -3    1    3    3    0  502 -0.42084992415E+02 -0.40479626435E+03  0.67671672334E+02  0.41256590705E+03  0.10100000352E+00 0. -1.
</event>
<event>
 5   0  0.2185750E-03  0.1103261E+04  0.7818609E-02  0.9202019E-01
       -3   -1    0    0    0  501  0.00000000000E+00  0.00000000000E+00  0.19936373823E+04  0.19936373849E+04  0.10100000352E+00 0.  1.
        3   -1    0    0  501    0  0.00000000000E+00  0.00000000000E+00 -0.15263367710E+03  0.15263371052E+03  0.10100000352E+00 0. -1.
    10030    2    1    2    0    0  0.00000000000E+00  0.00000000000E+00  0.18410037052E+04  0.21462710954E+04  0.11032610626E+04 0.  0.
        4    1    3    3  502    0  0.46168671521E+03  0.12195766736E+03  0.38325643118E+03  0.61230335665E+03  0.12699999809E+01 0. -1.
       -4    1    3    3    0  502 -0.46168671521E+03 -0.12195766736E+03  0.14577472741E+04  0.15339677388E+04  0.12699999809E+01 0.  1.
</event>
<event>
 5   0  0.3328741E-03  0.1091523E+04  0.7818609E-02  0.9213494E-01
       -1   -1    0    0    0  501  0.00000000000E+00  0.00000000000E+00  0.29968045342E+03  0.29968045346E+03  0.50400001928E-02 0. -1.
        1   -1    0    0  501    0  0.00000000000E+00  0.00000000000E+00 -0.99391034926E+03  0.99391034927E+03  0.50400001928E-02 0.  1.
    10030    2    1    2    0    0  0.00000000000E+00  0.00000000000E+00 -0.69422989584E+03  0.12935908027E+04  0.10915227971E+04 0.  0.
        3    1    3    3  502    0  0.33390624290E+02 -0.39665324204E+03  0.95377674593E+02  0.40932339199E+03  0.10100000352E+00 0. -1.
       -3    1    3    3    0  502 -0.33390624290E+02  0.39665324204E+03 -0.78960757044E+03  0.88426741075E+03  0.10100000352E+00 0.  1.
</event>
<event>
 5   0  0.5723194E-03  0.1100112E+04  0.7818609E-02  0.9205083E-01
       -2   -1    0    0    0  501  0.00000000000E+00  0.00000000000E+00  0.51664678562E+03  0.51664678562E+03  0.25500000920E-02 0. -1.
        2   -1    0    0  501    0  0.00000000000E+00  0.00000000000E+00 -0.58562561533E+03  0.58562561534E+03  0.25500000920E-02 0.  1.
    10030    2    1    2    0    0  0.00000000000E+00  0.00000000000E+00 -0.68978829715E+02  0.11022724010E+04  0.11001119793E+04 0.  0.
        1    1    3    3  502    0 -0.11831993763E+03 -0.38644812603E+03 -0.40834389483E+03  0.57453154676E+03  0.50400001928E-02 0.  1.
       -1    1    3    3    0  502  0.11831993763E+03  0.38644812603E+03  0.33936506511E+03  0.52774085420E+03  0.50400001928E-02 0. -1.
</event>
<event>
 5   0  0.3320192E-03  0.1098595E+04  0.7818609E-02  0.9206562E-01
       -1   -1    0    0    0  501  0.00000000000E+00  0.00000000000E+00  0.53625012316E+03  0.53625012319E+03  0.50400001928E-02 0. -1.
        1   -1    0    0  501    0  0.00000000000E+00  0.00000000000E+00 -0.56266259158E+03  0.56266259160E+03  0.50400001928E-02 0.  1.
    10030    2    1    2    0    0  0.00000000000E+00  0.00000000000E+00 -0.26412468417E+02  0.10989127148E+04  0.10985952559E+04 0.  0.
        2    1    3    3  502    0  0.43641764968E+03  0.32590839712E+03 -0.84298818212E+02  0.55116507421E+03  0.25500000920E-02 0. -1.
       -2    1    3    3    0  502 -0.43641764968E+03 -0.32590839712E+03  0.57886349795E+02  0.54774764058E+03  0.25500000920E-02 0.  1.
</event>
<event>
 5   0  0.3328741E-03  0.1095914E+04  0.7818609E-02  0.9209183E-01
        1   -1    0    0  501    0  0.00000000000E+00  0.00000000000E+00  0.78108439645E+03  0.78108439647E+03  0.50400001928E-02 0.  1.
       -1   -1    0    0    0  501  0.00000000000E+00  0.00000000000E+00 -0.38441031119E+03  0.38441031122E+03  0.50400001928E-02 0. -1.
    10030    2    1    2    0    0  0.00000000000E+00  0.00000000000E+00  0.39667408527E+03  0.11654947077E+04  0.10959140403E+04 0.  0.
        3    1    3    3  502    0 -0.53021769415E+03 -0.27466866359E+02  0.54189268281E+02  0.53368691096E+03  0.10100000352E+00 0. -1.
       -3    1    3    3    0  502  0.53021769415E+03  0.27466866359E+02  0.34248481699E+03  0.63180779673E+03  0.10100000352E+00 0.  1.
</event>
<event>
 5   0  0.3320192E-03  0.1108539E+04  0.7818609E-02  0.9196909E-01
        1   -1    0    0  501    0  0.00000000000E+00  0.00000000000E+00  0.11242567765E+04  0.11242567765E+04  0.50400001928E-02 0. -1.
       -1   -1    0    0    0  501  0.00000000000E+00  0.00000000000E+00 -0.27326019688E+03  0.27326019693E+03  0.50400001928E-02 0.  1.
    10030    2    1    2    0    0  0.00000000000E+00  0.00000000000E+00  0.85099657964E+03  0.13975169735E+04  0.11085389089E+04 0.  0.
        2    1    3    3  502    0  0.21461784150E+03  0.21713238238E+02  0.10691663513E+04  0.10907103049E+04  0.25500000920E-02 0. -1.
       -2    1    3    3    0  502 -0.21461784150E+03 -0.21713238238E+02 -0.21816977161E+03  0.30680666853E+03  0.25500000920E-02 0.  1.
</event>
<event>
 5   0  0.3328741E-03  0.1110479E+04  0.7818609E-02  0.9195038E-01
       -1   -1    0    0    0  501  0.00000000000E+00  0.00000000000E+00  0.18595121134E+03  0.18595121141E+03  0.50400001928E-02 0. -1.
        1   -1    0    0  501    0  0.00000000000E+00  0.00000000000E+00 -0.16579119826E+04  0.16579119826E+04  0.50400001928E-02 0.  1.
    10030    2    1    2    0    0  0.00000000000E+00  0.00000000000E+00 -0.14719607713E+04  0.18438631941E+04  0.11104787104E+04 0.  0.
        3    1    3    3  502    0  0.26988574502E+03  0.37342008226E+03 -0.12504697158E+04  0.13326497640E+04  0.10100000352E+00 0.  1.
       -3    1    3    3    0  502 -0.26988574502E+03 -0.37342008226E+03 -0.22149105553E+03  0.51121343007E+03  0.10100000352E+00 0. -1.
</event>
<event>
 5   0  0.5941585E-03  0.1096569E+04  0.7818609E-02  0.9208543E-01
       -2   -1    0    0    0  501  0.00000000000E+00  0.00000000000E+00  0.34541960275E+03  0.34541960276E+03  0.25500000920E-02 0. -1.
        2   -1    0    0  501    0  0.00000000000E+00  0.00000000000E+00 -0.87029155684E+03  0.87029155684E+03  0.25500000920E-02 0.  1.
    10030    2    1    2    0    0  0.00000000000E+00  0.00000000000E+00 -0.52487195409E+03  0.12157111596E+04  0.10965687646E+04 0.  0.
        5    1    3    3  502    0 -0.25473929878E+03 -0.28806655970E+03 -0.69568878086E+03  0.79490843685E+03  0.46999998093E+01 0.  1.
       -5    1    3    3    0  502  0.25473929878E+03  0.28806655970E+03  0.17081682677E+03  0.42080272275E+03  0.46999998093E+01 0. -1.
</event>
<event>
 5   0  0.5723194E-03  0.1097716E+04  0.7818609E-02  0.9207421E-01
       -2   -1    0    0    0  501  0.00000000000E+00  0.00000000000E+00  0.49579918132E+03  0.49579918132E+03  0.25500000920E-02 0.  1.
        2   -1    0    0  501    0  0.00000000000E+00  0.00000000000E+00 -0.60759479062E+03  0.60759479063E+03  0.25500000920E-02 0. -1.
    10030    2    1    2    0    0  0.00000000000E+00  0.00000000000E+00 -0.11179560931E+03  0.11033939720E+04  0.10977158098E+04 0.  0.
        1    1    3    3  502    0  0.47731032764E+03 -0.22179591077E+03 -0.21235132955E+03  0.56754881913E+03  0.50400001928E-02 0. -1.
       -1    1    3    3    0  502 -0.47731032764E+03  0.22179591077E+03  0.10055572024E+03  0.53584515282E+03  0.50400001928E-02 0.  1.
</event>
<event>
 5   0  0.3215352E-03  0.1186919E+04  0.7818609E-02  0.9124384E-01
        1   -1    0    0  501    0  0.00000000000E+00  0.00000000000E+00  0.19605609573E+04  0.19605609573E+04  0.50400001928E-02 0.  1.
       -1   -1    0    0    0  501  0.00000000000E+00  0.00000000000E+00 -0.17963950060E+03  0.17963950067E+03  0.50400001928E-02 0. -1.
    10030    2    1    2    0    0  0.00000000000E+00  0.00000000000E+00  0.17809214567E+04  0.21402004580E+04  0.11869190223E+04 0.  0.
        1    1    3    3  502    0  0.39527923851E+03 -0.44121054473E+03  0.82590445694E+03  0.10163811260E+04  0.50400001928E-02 0.  1.
       -1    1    3    3    0  502 -0.39527923851E+03  0.44121054473E+03  0.95501699977E+03  0.11238193320E+04  0.50400001928E-02 0. -1.
</event>
<event>
 5   0  0.5627232E-03  0.1230267E+04  0.7818609E-02  0.9086768E-01
       -2   -1    0    0    0  501  0.00000000000E+00  0.00000000000E+00  0.26498079871E+03  0.26498079872E+03  0.25500000920E-02 0.  1.
        2   -1    0    0  501    0  0.00000000000E+00  0.00000000000E+00 -0.14279883375E+04  0.14279883375E+04  0.25500000920E-02 0. -1.
    10030    2    1    2    0    0  0.00000000000E+00  0.00000000000E+00 -0.11630075388E+04  0.16929691362E+04  0.12302674347E+04 0.  0.
        2    1    3    3  502    0  0.58233021076E+03  0.19668561287E+03 -0.54791496863E+03  0.82341029719E+03  0.25500000920E-02 0.  1.
       -2    1    3    3    0  502 -0.58233021076E+03 -0.19668561287E+03 -0.61509257016E+03  0.86955883904E+03  0.25500000920E-02 0. -1.
</event>
<event>
 5   0  0.5941585E-03  0.1105914E+04  0.7818609E-02  0.9199447E-01
        2   -1    0    0  501    0  0.00000000000E+00  0.00000000000E+00  0.46038313179E+03  0.46038313180E+03  0.25500000920E-02 0.  1.
       -2   -1    0    0    0  501  0.00000000000E+00  0.00000000000E+00 -0.66414518596E+03  0.66414518597E+03  0.25500000920E-02 0. -1.
    10030    2    1    2    0    0  0.00000000000E+00  0.00000000000E+00 -0.20376205417E+03  0.11245283178E+04  0.11059136326E+04 0.  0.
        5    1    3    3  502    0 -0.41737655295E+02 -0.55121441898E+03 -0.89027727016E+02  0.55993516922E+03  0.46999998093E+01 0. -1.
       -5    1    3    3    0  502  0.41737655295E+02  0.55121441898E+03 -0.11473432715E+03  0.56459314854E+03  0.46999998093E+01 0.  1.
</event>
<event>
 5   0  0.3320192E-03  0.1094286E+04  0.7818609E-02  0.9210779E-01
       -1   -1    0    0    0  501  0.00000000000E+00  0.00000000000E+00  0.20044904067E+03  0.20044904074E+03  0.50400001928E-02 0.  1.
        1   -1    0    0  501    0  0.00000000000E+00  0.00000000000E+00 -0.14934745180E+04  0.14934745180E+04  0.50400001928E-02 0. -1.
    10030    2    1    2    0    0  0.00000000000E+00  0.00000000000E+00 -0.12930254773E+04  0.16939235588E+04  0.10942861316E+04 0.  0.
        2    1    3    3  502    0  0.25675800603E+03  0.38065663693E+03 -0.18589986720E+03  0.49536139286E+03  0.25500000920E-02 0.  1.
       -2    1    3    3    0  502 -0.25675800603E+03 -0.38065663693E+03 -0.11071256101E+04  0.11985621659E+04  0.25500000920E-02 0. -1.
</event>
<event>
 5   0  0.5627232E-03  0.1089673E+04  0.7818609E-02  0.9215316E-01
       -2   -1    0    0    0  501  0.00000000000E+00  0.00000000000E+00  0.42025112242E+03  0.42025112243E+03  0.25500000920E-02 0. -1.
        2   -1    0    0  501    0  0.00000000000E+00  0.00000000000E+00 -0.70635602242E+03  0.70635602243E+03  0.25500000920E-02 0.  1.
    10030    2    1    2    0    0  0.00000000000E+00  0.00000000000E+00 -0.28610490001E+03  0.11266071449E+04  0.10896731827E+04 0.  0.
        2    1    3    3  502    0 -0.31048428837E+03  0.44218100850E+03 -0.70514792433E+02  0.54488244013E+03  0.25500000920E-02 0. -1.
       -2    1    3    3    0  502  0.31048428837E+03 -0.44218100850E+03 -0.21559010757E+03  0.58172470473E+03  0.25500000920E-02 0.  1.
</event>
<event>
 5   0  0.5500363E-03  0.1101425E+04  0.7818609E-02  0.9203804E-01
        2   -1    0    0  501    0  0.00000000000E+00  0.00000000000E+00  0.61446306089E+03  0.61446306090E+03  0.25500000920E-02 0. -1.
       -2   -1    0    0    0  501  0.00000000000E+00  0.00000000000E+00 -0.49357643349E+03  0.49357643349E+03  0.25500000920E-02 0.  1.
    10030    2    1    2    0    0  0.00000000000E+00  0.00000000000E+00  0.12088662740E+03  0.11080394944E+04  0.11014254148E+04 0.  0.
        3    1    3    3  502    0 -0.35175855251E+03 -0.42373155395E+03  0.59032453979E+02  0.55386582301E+03  0.10100000352E+00 0.  1.
       -3    1    3    3    0  502  0.35175855251E+03  0.42373155395E+03  0.61854173423E+02  0.55417367138E+03  0.10100000352E+00 0. -1.
</event>
<event>
 5   0  0.2185750E-03  0.1102947E+04  0.7818609E-02  0.9202324E-01
        3   -1    0    0  501    0  0.00000000000E+00  0.00000000000E+00  0.28522219806E+03  0.28522221594E+03  0.10100000352E+00 0. -1.
       -3   -1    0    0    0  501  0.00000000000E+00  0.00000000000E+00 -0.10662670895E+04  0.10662670943E+04  0.10100000352E+00 0.  1.
    10030    2    1    2    0    0  0.00000000000E+00  0.00000000000E+00 -0.78104489141E+03  0.13514893102E+04  0.11029470673E+04 0.  0.
        2    1    3    3  502    0 -0.47530543620E+03  0.14872901526E+03 -0.10032678714E+03  0.50803645724E+03  0.25500000920E-02 0. -1.
       -2    1    3    3    0  502  0.47530543620E+03 -0.14872901526E+03 -0.68071810427E+03  0.84345285295E+03  0.25500000920E-02 0.  1.
</event>
<event>
 5   0  0.3241189E-03  0.1100477E+04  0.7818609E-02  0.9204727E-01
        1   -1    0    0  501    0  0.00000000000E+00  0.00000000000E+00  0.36879740997E+03  0.36879741001E+03  0.50400001928E-02 0. -1.
       -1   -1    0    0    0  501  0.00000000000E+00  0.00000000000E+00 -0.82094502546E+03  0.82094502548E+03  0.50400001928E-02 0.  1.
    10030    2    1    2    0    0  0.00000000000E+00  0.00000000000E+00 -0.45214761549E+03  0.11897424355E+04  0.11004769859E+04 0.  0.
        5    1    3    3  502    0  0.16054291683E+03  0.51180256394E+03 -0.35859056362E+03  0.64523265177E+03  0.46999998093E+01 0.  1.
       -5    1    3    3    0  502 -0.16054291683E+03 -0.51180256394E+03 -0.93557051869E+02  0.54450978371E+03  0.46999998093E+01 0. -1.
</event>
<event>
 5   0  0.5723194E-03  0.1096464E+04  0.7818609E-02  0.9208645E-01
       -2   -1    0    0    0  501  0.00000000000E+00  0.00000000000E+00  0.29955571559E+03  0.29955571560E+03  0.25500000920E-02 0.  1.
        2   -1    0    0  501    0  0.00000000000E+00  0.00000000000E+00 -0.10033463436E+04  0.10033463436E+04  0.25500000920E-02 0. -1.
    10030    2    1    2    0    0  0.00000000000E+00  0.00000000000E+00 -0.70379062801E+03  0.13029020592E+04  0.10964636464E+04 0.  0.
        1    1    3    3  502    0 -0.41550819333E+03  0.24829801381E+03 -0.65776788079E+03  0.81667468886E+03  0.50400001928E-02 0. -1.
       -1    1    3    3    0  502  0.41550819333E+03 -0.24829801381E+03 -0.46022747215E+02  0.48622737035E+03  0.50400001928E-02 0.  1.
</event>
<event>
 5   0  0.3316784E-03  0.1084460E+04  0.7818609E-02  0.9220472E-01
        1   -1    0    0  501    0  0.00000000000E+00  0.00000000000E+00  0.91613702968E+03  0.91613702970E+03  0.50400001928E-02 0. -1.
       -1   -1    0    0    0  501  0.00000000000E+00  0.00000000000E+00 -0.32092716960E+03  0.32092716964E+03  0.50400001928E-02 0.  1.
    10030    2    1    2    0    0  0.00000000000E+00  0.00000000000E+00  0.59520986008E+03  0.12370641993E+04  0.10844597990E+04 0.  0.
        4    1    3    3  502    0 -0.36290764054E+03 -0.35006904829E+03  0.70142654457E+02  0.50908928393E+03  0.12699999809E+01 0.  1.
       -4    1    3    3    0  502  0.36290764054E+03  0.35006904829E+03  0.52506720562E+03  0.72797491541E+03  0.12699999809E+01 0. -1.
</event>
<event>
 5   0  0.3320192E-03  0.1098633E+04  0.7818609E-02  0.9206525E-01
        1   -1    0    0  501    0  0.00000000000E+00  0.00000000000E+00  0.35335553064E+03  0.35335553067E+03  0.50400001928E-02 0. -1.
       -1   -1    0    0    0  501  0.00000000000E+00  0.00000000000E+00 -0.85395170886E+03  0.85395170888E+03  0.50400001928E-02 0.  1.
    10030    2    1    2    0    0  0.00000000000E+00  0.00000000000E+00 -0.50059617822E+03  0.12073072395E+04  0.10986328946E+04 0.  0.
        2    1    3    3  502    0  0.45308655399E+03  0.28591266312E+03 -0.38360312718E+03  0.65892703354E+03  0.25500000920E-02 0. -1.
       -2    1    3    3    0  502 -0.45308655399E+03 -0.28591266312E+03 -0.11699305104E+03  0.54838020601E+03  0.25500000920E-02 0.  1.
</event>
<event>
 5   0  0.5946359E-03  0.1085350E+04  0.7818609E-02  0.9219590E-01
       -2   -1    0    0    0  501  0.00000000000E+00  0.00000000000E+00  0.41220340836E+03  0.41220340836E+03  0.25500000920E-02 0. -1.
        2   -1    0    0  501    0  0.00000000000E+00  0.00000000000E+00 -0.71444338904E+03  0.71444338905E+03  0.25500000920E-02 0.  1.
    10030    2    1    2    0    0  0.00000000000E+00  0.00000000000E+00 -0.30223998069E+03  0.11266467974E+04  0.10853497133E+04 0.  0.
        4    1    3    3  502    0  0.44592268899E+03  0.24069763639E+03  0.50464826377E+02  0.50924523397E+03  0.12699999809E+01 0. -1.
       -4    1    3    3    0  502 -0.44592268899E+03 -0.24069763639E+03 -0.35270480706E+03  0.61740156344E+03  0.12699999809E+01 0.  1.
</event>
<event>
 5   0  0.5627232E-03  0.1036720E+04  0.7818609E-02  0.9269164E-01
       -2   -1    0    0    0  501  0.00000000000E+00  0.00000000000E+00  0.28425710113E+03  0.28425710114E+03  0.25500000920E-02 0. -1.
        2   -1    0    0  501    0  0.00000000000E+00  0.00000000000E+00 -0.94525995675E+03  0.94525995675E+03  0.25500000920E-02 0.  1.
    10030    2    1    2    0    0  0.00000000000E+00  0.00000000000E+00 -0.66100285561E+03  0.12295170579E+04  0.10367195477E+04 0.  0.
        2    1    3    3  502    0  0.28859641681E+03 -0.94371510244E+02 -0.82875370678E+03  0.88262482417E+03  0.25500000920E-02 0.  1.
       -2    1    3    3    0  502 -0.28859641681E+03  0.94371510244E+02  0.16775085116E+03  0.34689223372E+03  0.25500000920E-02 0. -1.
</event>
<event>
 5   0  0.5941585E-03  0.8974751E+03  0.7818609E-02  0.9428743E-01
        2   -1    0    0  501    0  0.00000000000E+00  0.00000000000E+00  0.20111237574E+04  0.20111237574E+04  0.25500000920E-02 0. -1.
       -2   -1    0    0    0  501  0.00000000000E+00  0.00000000000E+00 -0.10012580862E+03  0.10012580865E+03  0.25500000920E-02 0.  1.
    10030    2    1    2    0    0  0.00000000000E+00  0.00000000000E+00  0.19109979488E+04  0.21112495660E+04  0.89747510823E+03 0.  0.
        5    1    3    3  502    0 -0.33280105863E+03 -0.78608766140E+02  0.27204783255E+03  0.43699885118E+03  0.46999998093E+01 0.  1.
       -5    1    3    3    0  502  0.33280105863E+03  0.78608766140E+02  0.16389501162E+04  0.16742507149E+04  0.46999998093E+01 0. -1.
</event>
<event>
 5   0  0.2185750E-03  0.1128068E+04  0.7818609E-02  0.9178259E-01
       -4   -1    0    0    0  501  0.00000000000E+00  0.00000000000E+00  0.50780251142E+03  0.50780409954E+03  0.12699999809E+01 0.  1.
        4   -1    0    0  501    0  0.00000000000E+00  0.00000000000E+00 -0.62648868884E+03  0.62648997609E+03  0.12699999809E+01 0. -1.
    10030    2    1    2    0    0  0.00000000000E+00  0.00000000000E+00 -0.11868617742E+03  0.11342940756E+04  0.11280676581E+04 0.  0.
        5    1    3    3  502    0  0.59578087580E+02  0.15798871379E+03  0.48177413804E+03  0.51052756271E+03  0.46999998093E+01 0.  1.
       -5    1    3    3    0  502 -0.59578087580E+02 -0.15798871379E+03 -0.60046031546E+03  0.62376651292E+03  0.46999998093E+01 0. -1.
</event>
<event>
 5   0  0.5946359E-03  0.1117521E+04  0.7818609E-02  0.9188281E-01
       -2   -1    0    0    0  501  0.00000000000E+00  0.00000000000E+00  0.21371367581E+03  0.21371367582E+03  0.25500000920E-02 0. -1.
        2   -1    0    0  501    0  0.00000000000E+00  0.00000000000E+00 -0.14608952386E+04  0.14608952386E+04  0.25500000920E-02 0.  1.
    10030    2    1    2    0    0  0.00000000000E+00  0.00000000000E+00 -0.12471815628E+04  0.16746089144E+04  0.11175209912E+04 0.  0.
        4    1    3    3  502    0 -0.27408442556E+03  0.96999443449E+02  0.91433254316E+02  0.30478322995E+03  0.12699999809E+01 0. -1.
       -4    1    3    3    0  502  0.27408442556E+03 -0.96999443449E+02 -0.13386148171E+04  0.13698256845E+04  0.12699999809E+01 0.  1.
</event>
<event>
 5   0  0.5500363E-03  0.1101807E+04  0.7818609E-02  0.9203433E-01
        2   -1    0    0  501    0  0.00000000000E+00  0.00000000000E+00  0.13565025822E+04  0.13565025822E+04  0.25500000920E-02 0. -1.
       -2   -1    0    0    0  501  0.00000000000E+00  0.00000000000E+00 -0.22373316808E+03  0.22373316809E+03  0.25500000920E-02 0.  1.
    10030    2    1    2    0    0  0.00000000000E+00  0.00000000000E+00  0.11327694141E+04  0.15802357503E+04  0.11018069164E+04 0.  0.
        3    1    3    3  502    0 -0.30980568162E+03  0.44486011193E+03  0.70701550107E+03  0.89092705005E+03  0.10100000352E+00 0.  1.
       -3    1    3    3    0  502  0.30980568162E+03 -0.44486011193E+03  0.42575391304E+03  0.68930870023E+03  0.10100000352E+00 0. -1.
</event>
<event>
 5   0  0.3328741E-03  0.1081851E+04  0.7818609E-02  0.9223064E-01
       -1   -1    0    0    0  501  0.00000000000E+00  0.00000000000E+00  0.72385817881E+03  0.72385817883E+03  0.50400001928E-02 0. -1.
        1   -1    0    0  501    0  0.00000000000E+00  0.00000000000E+00 -0.40422357935E+03  0.40422357938E+03  0.50400001928E-02 0.  1.
    10030    2    1    2    0    0  0.00000000000E+00  0.00000000000E+00  0.31963459946E+03  0.11280817582E+04  0.10818512726E+04 0.  0.
        3    1    3    3  502    0 -0.41917247711E+03 -0.21930097677E+03  0.43332761170E+03  0.64153823989E+03  0.10100000352E+00 0. -1.
       -3    1    3    3    0  502  0.41917247711E+03  0.21930097677E+03 -0.11369301225E+03  0.48654351831E+03  0.10100000352E+00 0.  1.
</event>
<event>
 5   0  0.5500363E-03  0.1076866E+04  0.7818609E-02  0.9228038E-01
        2   -1    0    0  501    0  0.00000000000E+00  0.00000000000E+00  0.32271062110E+03  0.32271062111E+03  0.25500000920E-02 0.  1.
       -2   -1    0    0    0  501  0.00000000000E+00  0.00000000000E+00 -0.89835851271E+03  0.89835851271E+03  0.25500000920E-02 0. -1.
    10030    2    1    2    0    0  0.00000000000E+00  0.00000000000E+00 -0.57564789161E+03  0.12210691338E+04  0.10768655136E+04 0.  0.
        3    1    3    3  502    0 -0.41604889991E+03 -0.85811809209E+02 -0.66295724374E+03  0.78738343324E+03  0.10100000352E+00 0. -1.
       -3    1    3    3    0  502  0.41604889991E+03  0.85811809209E+02  0.87309352125E+02  0.43368570058E+03  0.10100000352E+00 0.  1.
</event>
<event>
 5   0  0.3320192E-03  0.1104382E+04  0.7818609E-02  0.9200932E-01
       -1   -1    0    0    0  501  0.00000000000E+00  0.00000000000E+00  0.27931807957E+03  0.27931807962E+03  0.50400001928E-02 0.  1.
        1   -1    0    0  501    0  0.00000000000E+00  0.00000000000E+00 -0.10916396123E+04  0.10916396124E+04  0.50400001928E-02 0. -1.
    10030    2    1    2    0    0  0.00000000000E+00  0.00000000000E+00 -0.81232153278E+03  0.13709576920E+04  0.11043816010E+04 0.  0.
        2    1    3    3  502    0 -0.32270186263E+03  0.40523010703E+03 -0.16877861506E+03  0.54482488260E+03  0.25500000920E-02 0.  1.
       -2    1    3    3    0  502  0.32270186263E+03 -0.40523010703E+03 -0.64354291771E+03  0.82613280938E+03  0.25500000920E-02 0. -1.
</event>
<event>
 5   0  0.3215352E-03  0.1086660E+04  0.7818609E-02  0.9218292E-01
       -1   -1    0    0    0  501  0.00000000000E+00  0.00000000000E+00  0.98860887556E+03  0.98860887558E+03  0.50400001928E-02 0. -1.
        1   -1    0    0  501    0  0.00000000000E+00  0.00000000000E+00 -0.29860919342E+03  0.29860919346E+03  0.50400001928E-02 0.  1.
    10030    2    1    2    0    0  0.00000000000E+00  0.00000000000E+00  0.68999968214E+03  0.12872180690E+04  0.10866603866E+04 0.  0.
        1    1    3    3  502    0 -0.38569939219E+03 -0.37726628241E+03  0.42097672205E+03  0.68433564098E+03  0.50400001928E-02 0.  1.
       -1    1    3    3    0  502  0.38569939219E+03  0.37726628241E+03  0.26902296010E+03  0.60288242806E+03  0.50400001928E-02 0. -1.
</event>
<event>
 5   0  0.5946359E-03  0.1099747E+04  0.7818609E-02  0.9205438E-01
       -2   -1    0    0    0  501  0.00000000000E+00  0.00000000000E+00  0.68986616185E+03  0.68986616186E+03  0.25500000920E-02 0.  1.
        2   -1    0    0  501    0  0.00000000000E+00  0.00000000000E+00 -0.43828951501E+03  0.43828951501E+03  0.25500000920E-02 0. -1.
    10030    2    1    2    0    0  0.00000000000E+00  0.00000000000E+00  0.25157664685E+03  0.11281556769E+04  0.10997474356E+04 0.  0.
        4    1    3    3  502    0  0.61967850036E+02 -0.36491106792E+03 -0.29136000422E+03  0.47105452644E+03  0.12699999809E+01 0. -1.
       -4    1    3    3    0  502 -0.61967850036E+02  0.36491106792E+03  0.54293665106E+03  0.65710115043E+03  0.12699999809E+01 0.  1.
</event>
<event>
 5   0  0.5946359E-03  0.1106376E+04  0.7818609E-02  0.9199000E-01
        2   -1    0    0  501    0  0.00000000000E+00  0.00000000000E+00  0.99537294505E+03  0.99537294505E+03  0.25500000920E-02 0. -1.
       -2   -1    0    0    0  501  0.00000000000E+00  0.00000000000E+00 -0.30743940568E+03  0.30743940569E+03  0.25500000920E-02 0.  1.
    10030    2    1    2    0    0  0.00000000000E+00  0.00000000000E+00  0.68793353937E+03  0.13028123507E+04  0.11063758252E+04 0.  0.
        4    1    3    3  502    0  0.21824285521E+03 -0.31699399612E+03 -0.12395194387E+03  0.40432763288E+03  0.12699999809E+01 0.  1.
       -4    1    3    3    0  502 -0.21824285521E+03  0.31699399612E+03  0.81188548324E+03  0.89848471786E+03  0.12699999809E+01 0. -1.
</event>
<event>
 5   0  0.5946359E-03  0.1093102E+04  0.7818609E-02  0.9211941E-01
        2   -1    0    0  501    0  0.00000000000E+00  0.00000000000E+00  0.76648148611E+03  0.76648148612E+03  0.25500000920E-02 0.  1.
       -2   -1    0    0    0  501  0.00000000000E+00  0.00000000000E+00 -0.38972648670E+03  0.38972648671E+03  0.25500000920E-02 0. -1.
    10030    2    1    2    0    0  0.00000000000E+00  0.00000000000E+00  0.37675499941E+03  0.11562079728E+04  0.10931022582E+04 0.  0.
        4    1    3    3  502    0  0.95581510801E+01 -0.18754105538E+03  0.73128666016E+03  0.75501311110E+03  0.12699999809E+01 0.  1.
       -4    1    3    3    0  502 -0.95581510801E+01  0.18754105538E+03 -0.35453166075E+03  0.40119486173E+03  0.12699999809E+01 0. -1.
</event>
<event>
 5   0  0.2185750E-03  0.1101830E+04  0.7818609E-02  0.9203410E-01
        3   -1    0    0  501    0  0.00000000000E+00  0.00000000000E+00  0.32646506345E+03  0.32646507907E+03  0.10100000352E+00 0. -1.
       -3   -1    0    0    0  501  0.00000000000E+00  0.00000000000E+00 -0.92967808994E+03  0.92967809543E+03  0.10100000352E+00 0.  1.
    10030    2    1    2    0    0  0.00000000000E+00  0.00000000000E+00 -0.60321302649E+03  0.12561431745E+04  0.11018301682E+04 0.  0.
        1    1    3    3  502    0  0.43791668232E+03  0.28706348381E+03 -0.49685499383E+03  0.72183193979E+03  0.50400001928E-02 0.  1.
       -1    1    3    3    0  502 -0.43791668232E+03 -0.28706348381E+03 -0.10635803267E+03  0.53431123470E+03  0.50400001928E-02 0. -1.
</event>
<event>
 5   0  0.3215352E-03  0.1094062E+04  0.7818609E-02  0.9210998E-01
        1   -1    0    0  501    0  0.00000000000E+00  0.00000000000E+00  0.13840880943E+04  0.13840880943E+04  0.50400001928E-02 0.  1.
       -1   -1    0    0    0  501  0.00000000000E+00  0.00000000000E+00 -0.21620236781E+03  0.21620236787E+03  0.50400001928E-02 0. -1.
    10030    2    1    2    0    0  0.00000000000E+00  0.00000000000E+00  0.11678857265E+04  0.16002904622E+04  0.10940623809E+04 0.  0.
        1    1    3    3  502    0 -0.95331245439E+02  0.41567422739E+03  0.82830279028E+02  0.43443522512E+03  0.50400001928E-02 0. -1.
       -1    1    3    3    0  502  0.95331245439E+02 -0.41567422739E+03  0.10850554475E+04  0.11658552371E+04  0.50400001928E-02 0.  1.
</event>
<event>
 5   0  0.2185750E-03  0.1077713E+04  0.7818609E-02  0.9227190E-01
        3   -1    0    0  501    0  0.00000000000E+00  0.00000000000E+00  0.15765237758E+03  0.15765240993E+03  0.10100000352E+00 0. -1.
       -3   -1    0    0    0  501  0.00000000000E+00  0.00000000000E+00 -0.18418152309E+04  0.18418152336E+04  0.10100000352E+00 0.  1.
    10030    2    1    2    0    0  0.00000000000E+00  0.00000000000E+00 -0.16841628533E+04  0.19994676436E+04  0.10777134783E+04 0.  0.
        3    1    3    3  502    0 -0.28970370303E+03  0.13995223477E+03 -0.16440541667E+04  0.16752399758E+04  0.10100000352E+00 0.  1.
       -3    1    3    3    0  502  0.28970370303E+03 -0.13995223477E+03 -0.40108686622E+02  0.32422766771E+03  0.10100000352E+00 0. -1.
</event>
<event>
 5   0  0.5500363E-03  0.1089475E+04  0.7818609E-02  0.9215511E-01
       -2   -1    0    0    0  501  0.00000000000E+00  0.00000000000E+00  0.26254533613E+03  0.26254533614E+03  0.25500000920E-02 0.  1.
        2   -1    0    0  501    0  0.00000000000E+00  0.00000000000E+00 -0.11302391725E+04  0.11302391725E+04  0.25500000920E-02 0. -1.
    10030    2    1    2    0    0  0.00000000000E+00  0.00000000000E+00 -0.86769383637E+03  0.13927845086E+04  0.10894751460E+04 0.  0.
        3    1    3    3  502    0 -0.19495014090E+03 -0.47983982916E+03 -0.64961710538E+03  0.83081539038E+03  0.10100000352E+00 0.  1.
       -3    1    3    3    0  502  0.19495014090E+03  0.47983982916E+03 -0.21807673099E+03  0.56196911827E+03  0.10100000352E+00 0. -1.
</event>
<event>
 5   0  0.5500363E-03  0.1106006E+04  0.7818609E-02  0.9199358E-01
       -2   -1    0    0    0  501  0.00000000000E+00  0.00000000000E+00  0.29166688813E+03  0.29166688815E+03  0.25500000920E-02 0. -1.
        2   -1    0    0  501    0  0.00000000000E+00  0.00000000000E+00 -0.10484985731E+04  0.10484985731E+04  0.25500000920E-02 0.  1.
    10030    2    1    2    0    0  0.00000000000E+00  0.00000000000E+00 -0.75683168499E+03  0.13401654613E+04  0.11060059964E+04 0.  0.
        3    1    3    3  502    0  0.12996120606E+03  0.44180097638E+03 -0.74939557354E+03  0.87958612634E+03  0.10100000352E+00 0.  1.
       -3    1    3    3    0  502 -0.12996120606E+03 -0.44180097638E+03 -0.74361114471E+01  0.46057933493E+03  0.10100000352E+00 0. -1.
</event>
<event>
 5   0  0.2185750E-03  0.1093714E+04  0.7818609E-02  0.9211340E-01
       -4   -1    0    0    0  501  0.00000000000E+00  0.00000000000E+00  0.52334345790E+03  0.52334499885E+03  0.12699999809E+01 0.  1.
        4   -1    0    0  501    0  0.00000000000E+00  0.00000000000E+00 -0.57142393945E+03  0.57142535075E+03  0.12699999809E+01 0. -1.
    10030    2    1    2    0    0  0.00000000000E+00  0.00000000000E+00 -0.48080481555E+02  0.10947703496E+04  0.10937140329E+04 0.  0.
        5    1    3    3  502    0 -0.39019252711E+03 -0.38259233591E+03 -0.44144526416E+02  0.54826812138E+03  0.46999998093E+01 0. -1.
       -5    1    3    3    0  502  0.39019252711E+03  0.38259233591E+03 -0.39359551388E+01  0.54650222822E+03  0.46999998093E+01 0.  1.
</event>
<event>
 5   0  0.3215352E-03  0.1091130E+04  0.7818609E-02  0.9213881E-01
       -1   -1    0    0    0  501  0.00000000000E+00  0.00000000000E+00  0.36909989421E+03  0.36909989425E+03  0.50400001928E-02 0. -1.
        1   -1    0    0  501    0  0.00000000000E+00  0.00000000000E+00 -0.80639700867E+03  0.80639700868E+03  0.50400001928E-02 0.  1.
    10030    2    1    2    0    0  0.00000000000E+00  0.00000000000E+00 -0.43729711446E+03  0.11754969029E+04  0.10911297826E+04 0.  0.
        1    1    3    3  502    0 -0.46296861740E+03  0.12991781566E+03 -0.49630169978E+03  0.69103831786E+03  0.50400001928E-02 0.  1.
       -1    1    3    3    0  502  0.46296861740E+03 -0.12991781566E+03  0.59004585324E+02  0.48445858506E+03  0.50400001928E-02 0. -1.
</event>
<event>
 5   0  0.3320192E-03  0.1090335E+04  0.7818609E-02  0.9214664E-01
        1   -1    0    0  501    0  0.00000000000E+00  0.00000000000E+00  0.58305035203E+03  0.58305035205E+03  0.50400001928E-02 0. -1.
       -1   -1    0    0    0  501  0.00000000000E+00  0.00000000000E+00 -0.50974572798E+03  0.50974572801E+03  0.50400001928E-02 0.  1.
    10030    2    1    2    0    0  0.00000000000E+00  0.00000000000E+00  0.73304624041E+02  0.10927960801E+04  0.10903346755E+04 0.  0.
        2    1    3    3  502    0  0.22297591101E+02 -0.54056656276E+03 -0.30566481192E+02  0.54188901181E+03  0.25500000920E-02 0.  1.
       -2    1    3    3    0  502 -0.22297591101E+02  0.54056656276E+03  0.10387110523E+03  0.55090706825E+03  0.25500000920E-02 0. -1.
</event>
<event>
 5   0  0.5500363E-03  0.1106403E+04  0.7818609E-02  0.9198973E-01
        2   -1    0    0  501    0  0.00000000000E+00  0.00000000000E+00  0.81633592103E+03  0.81633592103E+03  0.25500000920E-02 0.  1.
       -2   -1    0    0    0  501  0.00000000000E+00  0.00000000000E+00 -0.37488502354E+03  0.37488502355E+03  0.25500000920E-02 0. -1.
    10030    2    1    2    0    0  0.00000000000E+00  0.00000000000E+00  0.44145089749E+03  0.11912209446E+04  0.11064033821E+04 0.  0.
        3    1    3    3  502    0 -0.28152340185E+03 -0.34553969342E+03 -0.13208260796E+03  0.46486442221E+03  0.10100000352E+00 0.  1.
       -3    1    3    3    0  502  0.28152340185E+03  0.34553969342E+03  0.57353350545E+03  0.72635652237E+03  0.10100000352E+00 0. -1.
</event>
<event>
 5   0  0.3320192E-03  0.1092337E+04  0.7818609E-02  0.9212694E-01
        1   -1    0    0  501    0  0.00000000000E+00  0.00000000000E+00  0.12461515366E+04  0.12461515366E+04  0.50400001928E-02 0. -1.
       -1   -1    0    0    0  501  0.00000000000E+00  0.00000000000E+00 -0.23937680839E+03  0.23937680844E+03  0.50400001928E-02 0.  1.
    10030    2    1    2    0    0  0.00000000000E+00  0.00000000000E+00  0.10067747282E+04  0.14855283450E+04  0.10923365372E+04 0.  0.
        2    1    3    3  502    0  0.45807442134E+03 -0.28981991840E+03  0.59433181556E+03  0.80439919666E+03  0.25500000920E-02 0.  1.
       -2    1    3    3    0  502 -0.45807442134E+03  0.28981991840E+03  0.41244291265E+03  0.68112914839E+03  0.25500000920E-02 0. -1.
</event>
<event>
 5   0  0.5627232E-03  0.1110157E+04  0.7818609E-02  0.9195348E-01
        2   -1    0    0  501    0  0.00000000000E+00  0.00000000000E+00  0.38693727144E+03  0.38693727145E+03  0.25500000920E-02 0. -1.
       -2   -1    0    0    0  501  0.00000000000E+00  0.00000000000E+00 -0.79628438627E+03  0.79628438628E+03  0.25500000920E-02 0.  1.
    10030    2    1    2    0    0  0.00000000000E+00  0.00000000000E+00 -0.40934711484E+03  0.11832216577E+04  0.11101569398E+04 0.  0.
        2    1    3    3  502    0  0.15376917714E+02  0.27684961195E+03 -0.71718524696E+03  0.76891926474E+03  0.25500000920E-02 0.  1.
       -2    1    3    3    0  502 -0.15376917714E+02 -0.27684961195E+03  0.30783813212E+03  0.41430239298E+03  0.25500000920E-02 0. -1.
</event>
<event>
 5   0  0.3328741E-03  0.1096472E+04  0.7818609E-02  0.9208637E-01
       -1   -1    0    0    0  501  0.00000000000E+00  0.00000000000E+00  0.44621091127E+03  0.44621091129E+03  0.50400001928E-02 0. -1.
        1   -1    0    0  501    0  0.00000000000E+00  0.00000000000E+00 -0.67358924960E+03  0.67358924961E+03  0.50400001928E-02 0.  1.
    10030    2    1    2    0    0  0.00000000000E+00  0.00000000000E+00 -0.22737833833E+03  0.11198001609E+04  0.10964722941E+04 0.  0.
        3    1    3    3  502    0  0.26463572235E+03  0.39788249728E+03 -0.38814505826E+03  0.61562906334E+03  0.10100000352E+00 0.  1.
       -3    1    3    3    0  502 -0.26463572235E+03 -0.39788249728E+03  0.16076671992E+03  0.50417109756E+03  0.10100000352E+00 0. -1.
</event>
<event>
 5   0  0.3215352E-03  0.1161488E+04  0.7818609E-02  0.9147250E-01
        1   -1    0    0  501    0  0.00000000000E+00  0.00000000000E+00  0.36856686958E+03  0.36856686961E+03  0.50400001928E-02 0.  1.
       -1   -1    0    0    0  501  0.00000000000E+00  0.00000000000E+00 -0.91506832709E+03  0.91506832711E+03  0.50400001928E-02 0. -1.
    10030    2    1    2    0    0  0.00000000000E+00  0.00000000000E+00 -0.54650145752E+03  0.12836351967E+04  0.11614884740E+04 0.  0.
        1    1    3    3  502    0 -0.31653715915E+03  0.27057126342E+03  0.17411451755E+03  0.45135401511E+03  0.50400001928E-02 0.  1.
       -1    1    3    3    0  502  0.31653715915E+03 -0.27057126342E+03 -0.72061597507E+03  0.83228118161E+03  0.50400001928E-02 0. -1.
</event>
<event>
 5   0  0.5946359E-03  0.1127646E+04  0.7818609E-02  0.9178657E-01
        2   -1    0    0  501    0  0.00000000000E+00  0.00000000000E+00  0.18640129095E+04  0.18640129095E+04  0.25500000920E-02 0. -1.
       -2   -1    0    0    0  501  0.00000000000E+00  0.00000000000E+00 -0.17054409951E+03  0.17054409953E+03  0.25500000920E-02 0.  1.
    10030    2    1    2    0    0  0.00000000000E+00  0.00000000000E+00  0.16934688100E+04  0.20345570090E+04  0.11276460493E+04 0.  0.
        4    1    3    3  502    0  0.51108139376E+02  0.40252890144E+02 -0.16374700498E+03  0.17620167881E+03  0.12699999809E+01 0.  1.
       -4    1    3    3    0  502 -0.51108139376E+02 -0.40252890144E+02  0.18572158150E+04  0.18583553302E+04  0.12699999809E+01 0. -1.
</event>
<event>
 5   0  0.5941585E-03  0.1105715E+04  0.7818609E-02  0.9199639E-01
        2   -1    0    0  501    0  0.00000000000E+00  0.00000000000E+00  0.73902027419E+03  0.73902027419E+03  0.25500000920E-02 0. -1.
       -2   -1    0    0    0  501  0.00000000000E+00  0.00000000000E+00 -0.41359025739E+03  0.41359025740E+03  0.25500000920E-02 0.  1.
    10030    2    1    2    0    0  0.00000000000E+00  0.00000000000E+00  0.32543001679E+03  0.11526105316E+04  0.11057153077E+04 0.  0.
        5    1    3    3  502    0  0.23425120480E+03 -0.36424102042E+03 -0.19549311337E+03  0.47516817579E+03  0.46999998093E+01 0.  1.
       -5    1    3    3    0  502 -0.23425120480E+03  0.36424102042E+03  0.52092313016E+03  0.67744235581E+03  0.46999998093E+01 0. -1.
</event>
<event>
 5   0  0.3320192E-03  0.1077912E+04  0.7818609E-02  0.9226992E-01
       -1   -1    0    0    0  501  0.00000000000E+00  0.00000000000E+00  0.93763626412E+03  0.93763626413E+03  0.50400001928E-02 0.  1.
        1   -1    0    0  501    0  0.00000000000E+00  0.00000000000E+00 -0.30979328286E+03  0.30979328290E+03  0.50400001928E-02 0. -1.
    10030    2    1    2    0    0  0.00000000000E+00  0.00000000000E+00  0.62784298126E+03  0.12474295470E+04  0.10779117152E+04 0.  0.
        2    1    3    3  502    0  0.35174886089E+03  0.28835476989E+03  0.64852458448E+03  0.79212364637E+03  0.25500000920E-02 0.  1.
       -2    1    3    3    0  502 -0.35174886089E+03 -0.28835476989E+03 -0.20681603221E+02  0.45530590066E+03  0.25500000920E-02 0. -1.
</event>
<event>
 5   0  0.3320192E-03  0.1064979E+04  0.7818609E-02  0.9240014E-01
        1   -1    0    0  501    0  0.00000000000E+00  0.00000000000E+00  0.82231211238E+03  0.82231211239E+03  0.50400001928E-02 0. -1.
       -1   -1    0    0    0  501  0.00000000000E+00  0.00000000000E+00 -0.34481445987E+03  0.34481445991E+03  0.50400001928E-02 0.  1.
    10030    2    1    2    0    0  0.00000000000E+00  0.00000000000E+00  0.47749765250E+03  0.11671265723E+04  0.10649790738E+04 0.  0.
        2    1    3    3  502    0 -0.47109043938E+03 -0.19023804042E+03  0.41350653355E+03  0.65506058300E+03  0.25500000920E-02 0. -1.
       -2    1    3    3    0  502  0.47109043938E+03  0.19023804042E+03  0.63991118951E+02  0.51206598931E+03  0.25500000920E-02 0.  1.
</event>
<event>
 5   0  0.3215352E-03  0.1114555E+04  0.7818609E-02  0.9191121E-01
        1   -1    0    0  501    0  0.00000000000E+00  0.00000000000E+00  0.42023455315E+03  0.42023455318E+03  0.50400001928E-02 0.  1.
       -1   -1    0    0    0  501  0.00000000000E+00  0.00000000000E+00 -0.73901140696E+03  0.73901140697E+03  0.50400001928E-02 0. -1.
    10030    2    1    2    0    0  0.00000000000E+00  0.00000000000E+00 -0.31877685380E+03  0.11592459602E+04  0.11145548500E+04 0.  0.
        1    1    3    3  502    0 -0.33713619293E+03  0.43514048932E+03 -0.24976370447E+03  0.60447495079E+03  0.50400001928E-02 0. -1.
       -1    1    3    3    0  502  0.33713619293E+03 -0.43514048932E+03 -0.69013149331E+02  0.55477100937E+03  0.50400001928E-02 0.  1.
</event>
<event>
 5   0  0.3241189E-03  0.1122450E+04  0.7818609E-02  0.9183583E-01
        1   -1    0    0  501    0  0.00000000000E+00  0.00000000000E+00  0.14832389348E+04  0.14832389348E+04  0.50400001928E-02 0.  1.
       -1   -1    0    0    0  501  0.00000000000E+00  0.00000000000E+00 -0.21235525932E+03  0.21235525938E+03  0.50400001928E-02 0. -1.
    10030    2    1    2    0    0  0.00000000000E+00  0.00000000000E+00  0.12708836754E+04  0.16955941941E+04  0.11224501569E+04 0.  0.
        5    1    3    3  502    0 -0.22258615884E+03  0.29062576129E+03 -0.71370169315E+01  0.36617066819E+03  0.46999998093E+01 0. -1.
       -5    1    3    3    0  502  0.22258615884E+03 -0.29062576129E+03  0.12780206924E+04  0.13294235260E+04  0.46999998093E+01 0.  1.
</event>
<event>
 5   0  0.3328741E-03  0.1091233E+04  0.7818609E-02  0.9213779E-01
        1   -1    0    0  501    0  0.00000000000E+00  0.00000000000E+00  0.52729746458E+03  0.52729746461E+03  0.50400001928E-02 0. -1.
       -1   -1    0    0    0  501  0.00000000000E+00  0.00000000000E+00 -0.56457244875E+03  0.56457244878E+03  0.50400001928E-02 0.  1.
    10030    2    1    2    0    0  0.00000000000E+00  0.00000000000E+00 -0.37274984169E+02  0.10918699134E+04  0.10912334687E+04 0.  0.
        3    1    3    3  502    0 -0.15795790395E+03 -0.17877418852E+03  0.47234891576E+03  0.52917333486E+03  0.10100000352E+00 0. -1.
       -3    1    3    3    0  502  0.15795790395E+03  0.17877418852E+03 -0.50962389993E+03  0.56269657853E+03  0.10100000352E+00 0.  1.
</event>
<event>
 5   0  0.5723194E-03  0.1102006E+04  0.7818609E-02  0.9203238E-01
        2   -1    0    0  501    0  0.00000000000E+00  0.00000000000E+00  0.26502349496E+03  0.26502349497E+03  0.25500000920E-02 0.  1.
       -2   -1    0    0    0  501  0.00000000000E+00  0.00000000000E+00 -0.11455759823E+04  0.11455759823E+04  0.25500000920E-02 0. -1.
    10030    2    1    2    0    0  0.00000000000E+00  0.00000000000E+00 -0.88055248736E+03  0.14105994773E+04  0.11020064439E+04 0.  0.
        1    1    3    3  502    0  0.97871453481E+02 -0.24988835552E+03  0.17571076428E+03  0.32077606572E+03  0.50400001928E-02 0.  1.
       -1    1    3    3    0  502 -0.97871453481E+02  0.24988835552E+03 -0.10562632516E+04  0.10898234116E+04  0.50400001928E-02 0. -1.
</event>
<event>
 5   0  0.3241189E-03  0.1081086E+04  0.7818609E-02  0.9223825E-01
        1   -1    0    0  501    0  0.00000000000E+00  0.00000000000E+00  0.97706502023E+03  0.97706502024E+03  0.50400001928E-02 0. -1.
       -1   -1    0    0    0  501  0.00000000000E+00  0.00000000000E+00 -0.29904534671E+03  0.29904534676E+03  0.50400001928E-02 0.  1.
    10030    2    1    2    0    0  0.00000000000E+00  0.00000000000E+00  0.67801967351E+03  0.12761103670E+04  0.10810860239E+04 0.  0.
        5    1    3    3  502    0  0.97067427664E+02 -0.31747386255E+03 -0.16449946421E+03  0.37053191852E+03  0.46999998093E+01 0.  1.
       -5    1    3    3    0  502 -0.97067427664E+02  0.31747386255E+03  0.84251913773E+03  0.90557844848E+03  0.46999998093E+01 0. -1.
</event>
<event>
 5   0  0.3215352E-03  0.1085247E+04  0.7818609E-02  0.9219692E-01
       -1   -1    0    0    0  501  0.00000000000E+00  0.00000000000E+00  0.85316245435E+03  0.85316245437E+03  0.50400001928E-02 0.  1.
        1   -1    0    0  501    0  0.00000000000E+00  0.00000000000E+00 -0.34511628292E+03  0.34511628296E+03  0.50400001928E-02 0. -1.
    10030    2    1    2    0    0  0.00000000000E+00  0.00000000000E+00  0.50804617143E+03  0.11982787373E+04  0.10852469857E+04 0.  0.
        1    1    3    3  502    0  0.26081376973E+03  0.39016469581E+03 -0.46720191966E+02  0.47163024574E+03  0.50400001928E-02 0. -1.
       -1    1    3    3    0  502 -0.26081376973E+03 -0.39016469581E+03  0.55476636340E+03  0.72664849158E+03  0.50400001928E-02 0.  1.
</event>
<event>
 5   0  0.3215352E-03  0.1089218E+04  0.7818609E-02  0.9215765E-01
       -1   -1    0    0    0  501  0.00000000000E+00  0.00000000000E+00  0.17941057885E+04  0.17941057885E+04  0.50400001928E-02 0. -1.
        1   -1    0    0  501    0  0.00000000000E+00  0.00000000000E+00 -0.16531860372E+03  0.16531860379E+03  0.50400001928E-02 0.  1.
    10030    2    1    2    0    0  0.00000000000E+00  0.00000000000E+00  0.16287871847E+04  0.19594243923E+04  0.10892181856E+04 0.  0.
        1    1    3    3  502    0 -0.42407339399E+03  0.34121541680E+03  0.78157316130E+03  0.95242995052E+03  0.50400001928E-02 0. -1.
       -1    1    3    3    0  502  0.42407339399E+03 -0.34121541680E+03  0.84721402344E+03  0.10069944417E+04  0.50400001928E-02 0.  1.
</event>
<event>
 5   0  0.3316784E-03  0.1107869E+04  0.7818609E-02  0.9197556E-01
       -1   -1    0    0    0  501  0.00000000000E+00  0.00000000000E+00  0.10720583579E+04  0.10720583579E+04  0.50400001928E-02 0.  1.
        1   -1    0    0  501    0  0.00000000000E+00  0.00000000000E+00 -0.28621891683E+03  0.28621891688E+03  0.50400001928E-02 0. -1.
    10030    2    1    2    0    0  0.00000000000E+00  0.00000000000E+00  0.78583944109E+03  0.13582772748E+04  0.11078689129E+04 0.  0.
        4    1    3    3  502    0 -0.35550129945E+03 -0.23040411755E+03  0.83048350425E+03  0.93229378150E+03  0.12699999809E+01 0.  1.
       -4    1    3    3    0  502  0.35550129945E+03  0.23040411755E+03 -0.44644063163E+02  0.42598349331E+03  0.12699999809E+01 0. -1.
</event>
<event>
 5   0  0.3328741E-03  0.1049261E+04  0.7818609E-02  0.9256107E-01
        1   -1    0    0  501    0  0.00000000000E+00  0.00000000000E+00  0.53976797126E+03  0.53976797128E+03  0.50400001928E-02 0.  1.
       -1   -1    0    0    0  501  0.00000000000E+00  0.00000000000E+00 -0.50991762301E+03  0.50991762303E+03  0.50400001928E-02 0. -1.
    10030    2    1    2    0    0  0.00000000000E+00  0.00000000000E+00  0.29850348250E+02  0.10496855943E+04  0.10492610751E+04 0.  0.
        3    1    3    3  502    0  0.32729283934E+02  0.20874047879E+03 -0.46547052313E+03  0.51118158380E+03  0.10100000352E+00 0. -1.
       -3    1    3    3    0  502 -0.32729283934E+02 -0.20874047879E+03  0.49532087138E+03  0.53850401051E+03  0.10100000352E+00 0.  1.
</event>
<event>
 5   0  0.5723194E-03  0.1010129E+04  0.7818609E-02  0.9297505E-01
        2   -1    0    0  501    0  0.00000000000E+00  0.00000000000E+00  0.43928104969E+03  0.43928104970E+03  0.25500000920E-02 0. -1.
       -2   -1    0    0    0  501  0.00000000000E+00  0.00000000000E+00 -0.58069863192E+03  0.58069863192E+03  0.25500000920E-02 0.  1.
    10030    2    1    2    0    0  0.00000000000E+00  0.00000000000E+00 -0.14141758223E+03  0.10199796816E+04  0.10101285158E+04 0.  0.
        1    1    3    3  502    0 -0.11975778309E+03  0.10437741832E+03  0.41339701519E+03  0.44286980509E+03  0.50400001928E-02 0. -1.
       -1    1    3    3    0  502  0.11975778309E+03 -0.10437741832E+03 -0.55481459741E+03  0.57710987653E+03  0.50400001928E-02 0.  1.
</event>
<event>
 5   0  0.5500363E-03  0.1123704E+04  0.7818609E-02  0.9182391E-01
        2   -1    0    0  501    0  0.00000000000E+00  0.00000000000E+00  0.12373779827E+04  0.12373779827E+04  0.25500000920E-02 0.  1.
       -2   -1    0    0    0  501  0.00000000000E+00  0.00000000000E+00 -0.25511834287E+03  0.25511834288E+03  0.25500000920E-02 0. -1.
    10030    2    1    2    0    0  0.00000000000E+00  0.00000000000E+00  0.98225963980E+03  0.14924963256E+04  0.11237042680E+04 0.  0.
        3    1    3    3  502    0  0.30865421637E+03  0.11901400124E+03 -0.11206008254E+03  0.34926956648E+03  0.10100000352E+00 0. -1.
       -3    1    3    3    0  502 -0.30865421637E+03 -0.11901400124E+03  0.10943197223E+04  0.11432267591E+04  0.10100000352E+00 0.  1.
</event>
<event>
 5   0  0.3328741E-03  0.1097921E+04  0.7818609E-02  0.9207220E-01
        1   -1    0    0  501    0  0.00000000000E+00  0.00000000000E+00  0.11006922100E+04  0.11006922100E+04  0.50400001928E-02 0.  1.
       -1   -1    0    0    0  501  0.00000000000E+00  0.00000000000E+00 -0.27378941506E+03  0.27378941511E+03  0.50400001928E-02 0. -1.
    10030    2    1    2    0    0  0.00000000000E+00  0.00000000000E+00  0.82690279492E+03  0.13744816251E+04  0.10979214478E+04 0.  0.
        3    1    3    3  502    0 -0.51686195036E+02  0.22573078088E+03  0.10365528152E+04  0.10621052665E+04  0.10100000352E+00 0.  1.
       -3    1    3    3    0  502  0.51686195036E+02 -0.22573078088E+03 -0.20965002030E+03  0.31237635859E+03  0.10100000352E+00 0. -1.
</event>
<event>
 5   0  0.2185750E-03  0.1099760E+04  0.7818609E-02  0.9205426E-01
        4   -1    0    0  501    0  0.00000000000E+00  0.00000000000E+00  0.50506840666E+03  0.50507000337E+03  0.12699999809E+01 0. -1.
       -4   -1    0    0    0  501  0.00000000000E+00  0.00000000000E+00 -0.59866435694E+03  0.59866570402E+03  0.12699999809E+01 0.  1.
    10030    2    1    2    0    0  0.00000000000E+00  0.00000000000E+00 -0.93595950277E+02  0.11037357074E+04  0.10997601147E+04 0.  0.
        4    1    3    3  502    0 -0.74823932838E+02 -0.54225918649E+03 -0.99167237781E+02  0.55630872742E+03  0.12699999809E+01 0. -1.
       -4    1    3    3    0  502  0.74823932838E+02  0.54225918649E+03  0.55712875049E+01  0.54742697997E+03  0.12699999809E+01 0.  1.
</event>
<event>
 5   0  0.3316784E-03  0.1088843E+04  0.7818609E-02  0.9216135E-01
       -1   -1    0    0    0  501  0.00000000000E+00  0.00000000000E+00  0.51652852729E+03  0.51652852732E+03  0.50400001928E-02 0.  1.
        1   -1    0    0  501    0  0.00000000000E+00  0.00000000000E+00 -0.57382108284E+03  0.57382108287E+03  0.50400001928E-02 0. -1.
    10030    2    1    2    0    0  0.00000000000E+00  0.00000000000E+00 -0.57292555550E+02  0.10903496102E+04  0.10888433476E+04 0.  0.
        4    1    3    3  502    0 -0.54378061687E+03 -0.56359128222E+01 -0.28380974484E+01  0.54381871106E+03  0.12699999809E+01 0. -1.
       -4    1    3    3    0  502  0.54378061687E+03  0.56359128222E+01 -0.54454458102E+02  0.54653089913E+03  0.12699999809E+01 0.  1.
</event>
<event>
 5   0  0.3320192E-03  0.1103388E+04  0.7818609E-02  0.9201896E-01
        1   -1    0    0  501    0  0.00000000000E+00  0.00000000000E+00  0.17679707901E+04  0.17679707901E+04  0.50400001928E-02 0.  1.
       -1   -1    0    0    0  501  0.00000000000E+00  0.00000000000E+00 -0.17215558449E+03  0.17215558457E+03  0.50400001928E-02 0. -1.
    10030    2    1    2    0    0  0.00000000000E+00  0.00000000000E+00  0.15958152056E+04  0.19401263747E+04  0.11033875925E+04 0.  0.
        2    1    3    3  502    0  0.17220402244E+03  0.50580002927E+03  0.55631610949E+03  0.77134655547E+03  0.25500000920E-02 0.  1.
       -2    1    3    3    0  502 -0.17220402244E+03 -0.50580002927E+03  0.10394990961E+04  0.11687798192E+04  0.25500000920E-02 0. -1.
</event>
<event>
 5   0  0.3215352E-03  0.1111713E+04  0.7818609E-02  0.9193850E-01
        1   -1    0    0  501    0  0.00000000000E+00  0.00000000000E+00  0.69897438973E+03  0.69897438975E+03  0.50400001928E-02 0. -1.
       -1   -1    0    0    0  501  0.00000000000E+00  0.00000000000E+00 -0.44204255054E+03  0.44204255057E+03  0.50400001928E-02 0.  1.
    10030    2    1    2    0    0  0.00000000000E+00  0.00000000000E+00  0.25693183919E+03  0.11410169403E+04  0.11117129522E+04 0.  0.
        1    1    3    3  502    0  0.34646102604E+03  0.38943991816E+03 -0.69697803673E+02  0.52588637203E+03  0.50400001928E-02 0.  1.
       -1    1    3    3    0  502 -0.34646102604E+03 -0.38943991816E+03  0.32662964286E+03  0.61513056829E+03  0.50400001928E-02 0. -1.
</event>
<event>
 5   0  0.3241189E-03  0.1121715E+04  0.7818609E-02  0.9184282E-01
       -1   -1    0    0    0  501  0.00000000000E+00  0.00000000000E+00  0.45944619495E+03  0.45944619497E+03  0.50400001928E-02 0. -1.
        1   -1    0    0  501    0  0.00000000000E+00  0.00000000000E+00 -0.68465241992E+03  0.68465241994E+03  0.50400001928E-02 0.  1.
    10030    2    1    2    0    0  0.00000000000E+00  0.00000000000E+00 -0.22520622498E+03  0.11440986149E+04  0.11217146682E+04 0.  0.
        5    1    3    3  502    0  0.20568867167E+03  0.28984270516E+03 -0.55510642368E+03  0.65915237616E+03  0.46999998093E+01 0.  1.
       -5    1    3    3    0  502 -0.20568867167E+03 -0.28984270516E+03  0.32990019870E+03  0.48494623876E+03  0.46999998093E+01 0. -1.
</event>
<event>
 5   0  0.5941585E-03  0.1120885E+04  0.7818609E-02  0.9185072E-01
        2   -1    0    0  501    0  0.00000000000E+00  0.00000000000E+00  0.12663922103E+04  0.12663922103E+04  0.25500000920E-02 0.  1.
       -2   -1    0    0    0  501  0.00000000000E+00  0.00000000000E+00 -0.24802417634E+03  0.24802417635E+03  0.25500000920E-02 0. -1.
    10030    2    1    2    0    0  0.00000000000E+00  0.00000000000E+00  0.10183680340E+04  0.15144163867E+04  0.11208851590E+04 0.  0.
        5    1    3    3  502    0 -0.35278154645E+03  0.34855440119E+03  0.86183862771E+03  0.99435049168E+03  0.46999998093E+01 0.  1.
       -5    1    3    3    0  502  0.35278154645E+03 -0.34855440119E+03  0.15652940628E+03  0.52006589499E+03  0.46999998093E+01 0. -1.
</event>
<event>
 5   0  0.5946359E-03  0.1086917E+04  0.7818609E-02  0.9218038E-01
       -2   -1    0    0    0  501  0.00000000000E+00  0.00000000000E+00  0.50483770284E+03  0.50483770285E+03  0.25500000920E-02 0. -1.
        2   -1    0    0  501    0  0.00000000000E+00  0.00000000000E+00 -0.58503369397E+03  0.58503369398E+03  0.25500000920E-02 0.  1.
    10030    2    1    2    0    0  0.00000000000E+00  0.00000000000E+00 -0.80195991133E+02  0.10898713968E+04  0.10869168619E+04 0.  0.
        4    1    3    3  502    0 -0.71224596908E+02 -0.17076750546E+03 -0.55247719051E+03  0.58263808926E+03  0.12699999809E+01 0.  1.
       -4    1    3    3    0  502  0.71224596908E+02  0.17076750546E+03  0.47228119938E+03  0.50723330757E+03  0.12699999809E+01 0. -1.
</event>
<event>
 5   0  0.3241189E-03  0.1106778E+04  0.7818609E-02  0.9198611E-01
       -1   -1    0    0    0  501  0.00000000000E+00  0.00000000000E+00  0.61731252503E+03  0.61731252505E+03  0.50400001928E-02 0. -1.
        1   -1    0    0  501    0  0.00000000000E+00  0.00000000000E+00 -0.49608467334E+03  0.49608467337E+03  0.50400001928E-02 0.  1.
    10030    2    1    2    0    0  0.00000000000E+00  0.00000000000E+00  0.12122785169E+03  0.11133971984E+04  0.11067778139E+04 0.  0.
        5    1    3    3  502    0  0.17361557518E+02  0.55274283642E+03  0.40718752544E+02  0.55453239193E+03  0.46999998093E+01 0. -1.
       -5    1    3    3    0  502 -0.17361557518E+02 -0.55274283642E+03  0.80509099143E+02  0.55886480649E+03  0.46999998093E+01 0.  1.
</event>
<event>
 5   0  0.2185750E-03  0.1098744E+04  0.7818609E-02  0.9206417E-01
        3   -1    0    0  501    0  0.00000000000E+00  0.00000000000E+00  0.27901167955E+03  0.27901169783E+03  0.10100000352E+00 0. -1.
       -3   -1    0    0    0  501  0.00000000000E+00  0.00000000000E+00 -0.10817091320E+04  0.10817091367E+04  0.10100000352E+00 0.  1.
    10030    2    1    2    0    0  0.00000000000E+00  0.00000000000E+00 -0.80269745245E+03  0.13607208345E+04  0.10987438234E+04 0.  0.
        2    1    3    3  502    0 -0.42170258145E+03  0.19754025314E+03 -0.76231382768E+03  0.89329591440E+03  0.25500000920E-02 0.  1.
       -2    1    3    3    0  502  0.42170258145E+03 -0.19754025314E+03 -0.40383624772E+02  0.46742492014E+03  0.25500000920E-02 0. -1.
</event>
<event>
 5   0  0.5500363E-03  0.1097571E+04  0.7818609E-02  0.9207562E-01
       -2   -1    0    0    0  501  0.00000000000E+00  0.00000000000E+00  0.51573531583E+03  0.51573531584E+03  0.25500000920E-02 0. -1.
        2   -1    0    0  501    0  0.00000000000E+00  0.00000000000E+00 -0.58395398432E+03  0.58395398432E+03  0.25500000920E-02 0.  1.
    10030    2    1    2    0    0  0.00000000000E+00  0.00000000000E+00 -0.68218668490E+02  0.10996893002E+04  0.10975713053E+04 0.  0.
        3    1    3    3  502    0  0.12690764901E+03 -0.48659493172E+03 -0.25427299446E+03  0.56350239118E+03  0.10100000352E+00 0. -1.
       -3    1    3    3    0  502 -0.12690764901E+03  0.48659493172E+03  0.18605432597E+03  0.53618690898E+03  0.10100000352E+00 0.  1.
</event>
<event>
 5   0  0.5946359E-03  0.1100153E+04  0.7818609E-02  0.9205043E-01
       -2   -1    0    0    0  501  0.00000000000E+00  0.00000000000E+00  0.26454835037E+03  0.26454835038E+03  0.25500000920E-02 0.  1.
        2   -1    0    0  501    0  0.00000000000E+00  0.00000000000E+00 -0.11437768000E+04  0.11437768000E+04  0.25500000920E-02 0. -1.
    10030    2    1    2    0    0  0.00000000000E+00  0.00000000000E+00 -0.87922844959E+03  0.14083251503E+04  0.11001531996E+04 0.  0.
        4    1    3    3  502    0 -0.39257891397E+03  0.29774446774E+03 -0.12654065628E+03  0.50870828808E+03  0.12699999809E+01 0.  1.
       -4    1    3    3    0  502  0.39257891397E+03 -0.29774446774E+03 -0.75268779331E+03  0.89961686226E+03  0.12699999809E+01 0. -1.
</event>
<event>
 5   0  0.5946359E-03  0.1032757E+04  0.7818609E-02  0.9273330E-01
       -2   -1    0    0    0  501  0.00000000000E+00  0.00000000000E+00  0.98727909187E+02  0.98727909220E+02  0.25500000920E-02 0. -1.
        2   -1    0    0  501    0  0.00000000000E+00  0.00000000000E+00 -0.27008223197E+04  0.27008223197E+04  0.25500000920E-02 0.  1.
    10030    2    1    2    0    0  0.00000000000E+00  0.00000000000E+00 -0.26020944106E+04  0.27995502290E+04  0.10327565846E+04 0.  0.
        4    1    3    3  502    0  0.36826280632E+03  0.10066153966E+03 -0.35851998767E+03  0.52372553360E+03  0.12699999809E+01 0. -1.
       -4    1    3    3    0  502 -0.36826280632E+03 -0.10066153966E+03 -0.22435744229E+04  0.22758246954E+04  0.12699999809E+01 0.  1.
</event>
<event>
 5   0  0.3316784E-03  0.1071978E+04  0.7818609E-02  0.9232942E-01
       -1   -1    0    0    0  501  0.00000000000E+00  0.00000000000E+00  0.29532288966E+03  0.29532288970E+03  0.50400001928E-02 0.  1.
        1   -1    0    0  501    0  0.00000000000E+00  0.00000000000E+00 -0.97278090855E+03  0.97278090856E+03  0.50400001928E-02 0. -1.
    10030    2    1    2    0    0  0.00000000000E+00  0.00000000000E+00 -0.67745801889E+03  0.12681037983E+04  0.10719784866E+04 0.  0.
        4    1    3    3  502    0 -0.34017304867E+03 -0.11358543615E+03  0.13247312731E+03  0.38232198041E+03  0.12699999809E+01 0.  1.
       -4    1    3    3    0  502  0.34017304867E+03  0.11358543615E+03 -0.80993114620E+03  0.88578181785E+03  0.12699999809E+01 0. -1.
</event>
<event>
 5   0  0.3328741E-03  0.1106848E+04  0.7818609E-02  0.9198543E-01
       -1   -1    0    0    0  501  0.00000000000E+00  0.00000000000E+00  0.19193086894E+03  0.19193086901E+03  0.50400001928E-02 0. -1.
        1   -1    0    0  501    0  0.00000000000E+00  0.00000000000E+00 -0.15957723294E+04  0.15957723294E+04  0.50400001928E-02 0.  1.
    10030    2    1    2    0    0  0.00000000000E+00  0.00000000000E+00 -0.14038414605E+04  0.17877031984E+04  0.11068477219E+04 0.  0.
        3    1    3    3  502    0 -0.65964333980E+02  0.47010855422E+03 -0.11613808895E+04  0.12546549034E+04  0.10100000352E+00 0.  1.
       -3    1    3    3    0  502  0.65964333980E+02 -0.47010855422E+03 -0.24246057101E+03  0.53304829500E+03  0.10100000352E+00 0. -1.
</event>
<event>
 5   0  0.3328741E-03  0.1300735E+04  0.7818609E-02  0.9028983E-01
        1   -1    0    0  501    0  0.00000000000E+00  0.00000000000E+00  0.11490497968E+04  0.11490497968E+04  0.50400001928E-02 0.  1.
       -1   -1    0    0    0  501  0.00000000000E+00  0.00000000000E+00 -0.36811073211E+03  0.36811073215E+03  0.50400001928E-02 0. -1.
    10030    2    1    2    0    0  0.00000000000E+00  0.00000000000E+00  0.78093906469E+03  0.15171605290E+04  0.13007345032E+04 0.  0.
        3    1    3    3  502    0  0.32170864612E+03 -0.10086451583E+02 -0.26869874647E+03  0.41928178597E+03  0.10100000352E+00 0. -1.
       -3    1    3    3    0  502 -0.32170864612E+03  0.10086451583E+02  0.10496378112E+04  0.10978787430E+04  0.10100000352E+00 0.  1.
</event>
<event>
 5   0  0.5723194E-03  0.9899314E+03  0.7818609E-02  0.9319657E-01
        2   -1    0    0  501    0  0.00000000000E+00  0.00000000000E+00  0.12236436345E+04  0.12236436345E+04  0.25500000920E-02 0. -1.
       -2   -1    0    0    0  501  0.00000000000E+00  0.00000000000E+00 -0.20021435992E+03  0.20021435994E+03  0.25500000920E-02 0.  1.
    10030    2    1    2    0    0  0.00000000000E+00  0.00000000000E+00  0.10234292746E+04  0.14238579944E+04  0.98993136544E+03 0.  0.
        1    1    3    3  502    0 -0.99857338184E+02  0.29964130327E+03 -0.36431909034E+02  0.31793660159E+03  0.50400001928E-02 0.  1.
       -1    1    3    3    0  502  0.99857338184E+02 -0.29964130327E+03  0.10598611836E+04  0.11059213929E+04  0.50400001928E-02 0. -1.
</event>
<event>
 5   0  0.3316784E-03  0.1107113E+04  0.7818609E-02  0.9198287E-01
       -1   -1    0    0    0  501  0.00000000000E+00  0.00000000000E+00  0.47680011455E+03  0.47680011457E+03  0.50400001928E-02 0. -1.
        1   -1    0    0  501    0  0.00000000000E+00  0.00000000000E+00 -0.64266883640E+03  0.64266883642E+03  0.50400001928E-02 0.  1.
    10030    2    1    2    0    0  0.00000000000E+00  0.00000000000E+00 -0.16586872185E+03  0.11194689510E+04  0.11071125956E+04 0.  0.
        4    1    3    3  502    0 -0.13751281227E+03 -0.54131363644E+02 -0.62235148009E+03  0.63965846805E+03  0.12699999809E+01 0.  1.
       -4    1    3    3    0  502  0.13751281227E+03  0.54131363644E+02  0.45648275824E+03  0.47981048294E+03  0.12699999809E+01 0. -1.
</event>
<event>
 5   0  0.5500363E-03  0.1092165E+04  0.7818609E-02  0.9212862E-01
        2   -1    0    0  501    0  0.00000000000E+00  0.00000000000E+00  0.64741548872E+03  0.64741548872E+03  0.25500000920E-02 0. -1.
       -2   -1    0    0    0  501  0.00000000000E+00  0.00000000000E+00 -0.46061039693E+03  0.46061039694E+03  0.25500000920E-02 0.  1.
    10030    2    1    2    0    0  0.00000000000E+00  0.00000000000E+00  0.18680509179E+03  0.11080258857E+04  0.10921653817E+04 0.  0.
        3    1    3    3  502    0  0.75112067076E+02 -0.86080579726E+02 -0.44835091639E+03  0.46267725604E+03  0.10100000352E+00 0.  1.
       -3    1    3    3    0  502 -0.75112067076E+02  0.86080579726E+02  0.63515600818E+03  0.64534862962E+03  0.10100000352E+00 0. -1.
</event>
<event>
 5   0  0.3241189E-03  0.1107793E+04  0.7818609E-02  0.9197629E-01
        1   -1    0    0  501    0  0.00000000000E+00  0.00000000000E+00  0.33549382987E+03  0.33549382991E+03  0.50400001928E-02 0. -1.
       -1   -1    0    0    0  501  0.00000000000E+00  0.00000000000E+00 -0.91447683760E+03  0.91447683761E+03  0.50400001928E-02 0.  1.
    10030    2    1    2    0    0  0.00000000000E+00  0.00000000000E+00 -0.57898300773E+03  0.12499706675E+04  0.11077930070E+04 0.  0.
        5    1    3    3  502    0  0.27428816816E+03 -0.23413213533E+03  0.18485219408E+03  0.40527062519E+03  0.46999998093E+01 0. -1.
       -5    1    3    3    0  502 -0.27428816816E+03  0.23413213533E+03 -0.76383520181E+03  0.84470004233E+03  0.46999998093E+01 0.  1.
</event>
<event>
 5   0  0.5500363E-03  0.1137217E+04  0.7818609E-02  0.9169658E-01
        2   -1    0    0  501    0  0.00000000000E+00  0.00000000000E+00  0.93421827736E+03  0.93421827737E+03  0.25500000920E-02 0. -1.
       -2   -1    0    0    0  501  0.00000000000E+00  0.00000000000E+00 -0.34608142808E+03  0.34608142809E+03  0.25500000920E-02 0.  1.
    10030    2    1    2    0    0  0.00000000000E+00  0.00000000000E+00  0.58813684928E+03  0.12802997055E+04  0.11372169460E+04 0.  0.
        3    1    3    3  502    0  0.14754064193E+03  0.13224113171E+03  0.89409858346E+03  0.91578831892E+03  0.10100000352E+00 0. -1.
       -3    1    3    3    0  502 -0.14754064193E+03 -0.13224113171E+03 -0.30596173417E+03  0.36451138653E+03  0.10100000352E+00 0.  1.
</event>
<event>
 5   0  0.5723194E-03  0.1072049E+04  0.7818609E-02  0.9232871E-01
       -2   -1    0    0    0  501  0.00000000000E+00  0.00000000000E+00  0.32694876711E+03  0.32694876712E+03  0.25500000920E-02 0. -1.
        2   -1    0    0  501    0  0.00000000000E+00  0.00000000000E+00 -0.87879893163E+03  0.87879893164E+03  0.25500000920E-02 0.  1.
    10030    2    1    2    0    0  0.00000000000E+00  0.00000000000E+00 -0.55185016452E+03  0.12057476988E+04  0.10720489303E+04 0.  0.
        1    1    3    3  502    0 -0.25736530054E+03 -0.46995675294E+03 -0.29283247016E+03  0.61061207256E+03  0.50400001928E-02 0. -1.
       -1    1    3    3    0  502  0.25736530054E+03  0.46995675294E+03 -0.25901769436E+03  0.59513562620E+03  0.50400001928E-02 0.  1.
</event>
<event>
 5   0  0.3241189E-03  0.9841290E+03  0.7818609E-02  0.9326125E-01
       -1   -1    0    0    0  501  0.00000000000E+00  0.00000000000E+00  0.32830352429E+03  0.32830352432E+03  0.50400001928E-02 0.  1.
        1   -1    0    0  501    0  0.00000000000E+00  0.00000000000E+00 -0.73751097213E+03  0.73751097215E+03  0.50400001928E-02 0. -1.
    10030    2    1    2    0    0  0.00000000000E+00  0.00000000000E+00 -0.40920744784E+03  0.10658144965E+04  0.98412895777E+03 0.  0.
        5    1    3    3  502    0  0.67492001118E+02  0.30998936307E+03 -0.61192913551E+03  0.68929524321E+03  0.46999998093E+01 0. -1.
       -5    1    3    3    0  502 -0.67492001118E+02 -0.30998936307E+03  0.20272168766E+03  0.37651925326E+03  0.46999998093E+01 0.  1.
</event>
<event>
 5   0  0.3320192E-03  0.1109292E+04  0.7818609E-02  0.9196183E-01
        1   -1    0    0  501    0  0.00000000000E+00  0.00000000000E+00  0.14422778059E+04  0.14422778059E+04  0.50400001928E-02 0. -1.
       -1   -1    0    0    0  501  0.00000000000E+00  0.00000000000E+00 -0.21329590624E+03  0.21329590630E+03  0.50400001928E-02 0.  1.
    10030    2    1    2    0    0  0.00000000000E+00  0.00000000000E+00  0.12289818997E+04  0.16555737122E+04  0.11092915788E+04 0.  0.
        2    1    3    3  502    0  0.10656387190E+03 -0.30739858246E+03 -0.55924844022E+02  0.33011715417E+03  0.25500000920E-02 0.  1.
       -2    1    3    3    0  502 -0.10656387190E+03  0.30739858246E+03  0.12849067437E+04  0.13254565581E+04  0.25500000920E-02 0. -1.
</event>
<event>
 5   0  0.5627232E-03  0.1099362E+04  0.7818609E-02  0.9205814E-01
       -2   -1    0    0    0  501  0.00000000000E+00  0.00000000000E+00  0.83569619968E+03  0.83569619968E+03  0.25500000920E-02 0.  1.
        2   -1    0    0  501    0  0.00000000000E+00  0.00000000000E+00 -0.36155381941E+03  0.36155381942E+03  0.25500000920E-02 0. -1.
    10030    2    1    2    0    0  0.00000000000E+00  0.00000000000E+00  0.47414238027E+03  0.11972500191E+04  0.10993619111E+04 0.  0.
        2    1    3    3  502    0  0.23725336100E+03 -0.35596610752E+03  0.61298456172E+03  0.74749655512E+03  0.25500000920E-02 0.  1.
       -2    1    3    3    0  502 -0.23725336100E+03  0.35596610752E+03 -0.13884218145E+03  0.44975346398E+03  0.25500000920E-02 0. -1.
</event>
<event>
 5   0  0.5627232E-03  0.1095297E+04  0.7818609E-02  0.9209788E-01
       -2   -1    0    0    0  501  0.00000000000E+00  0.00000000000E+00  0.22366223436E+03  0.22366223438E+03  0.25500000920E-02 0.  1.
        2   -1    0    0  501    0  0.00000000000E+00  0.00000000000E+00 -0.13409447699E+04  0.13409447699E+04  0.25500000920E-02 0. -1.
    10030    2    1    2    0    0  0.00000000000E+00  0.00000000000E+00 -0.11172825355E+04  0.15646070043E+04  0.10952966784E+04 0.  0.
        2    1    3    3  502    0 -0.44977212037E+03 -0.38158847145E+02 -0.10016252176E+04  0.10986373990E+04  0.25500000920E-02 0. -1.
       -2    1    3    3    0  502  0.44977212037E+03  0.38158847145E+02 -0.11565731793E+03  0.46596960531E+03  0.25500000920E-02 0.  1.
</event>
<event>
 5   0  0.3328741E-03  0.1097417E+04  0.7818609E-02  0.9207713E-01
        1   -1    0    0  501    0  0.00000000000E+00  0.00000000000E+00  0.34102442608E+03  0.34102442612E+03  0.50400001928E-02 0. -1.
       -1   -1    0    0    0  501  0.00000000000E+00  0.00000000000E+00 -0.88287223340E+03  0.88287223342E+03  0.50400001928E-02 0.  1.
    10030    2    1    2    0    0  0.00000000000E+00  0.00000000000E+00 -0.54184780733E+03  0.12238966595E+04  0.10974169613E+04 0.  0.
        3    1    3    3  502    0 -0.32881678054E+03  0.11099881368E+03 -0.74492546553E+03  0.82179995815E+03  0.10100000352E+00 0. -1.
       -3    1    3    3    0  502  0.32881678054E+03 -0.11099881368E+03  0.20307765821E+03  0.40209670139E+03  0.10100000352E+00 0.  1.
</event>
<event>
 5   0  0.3320192E-03  0.1090979E+04  0.7818609E-02  0.9214029E-01
        1   -1    0    0  501    0  0.00000000000E+00  0.00000000000E+00  0.33584803042E+03  0.33584803046E+03  0.50400001928E-02 0. -1.
       -1   -1    0    0    0  501  0.00000000000E+00  0.00000000000E+00 -0.88599241004E+03  0.88599241006E+03  0.50400001928E-02 0.  1.
    10030    2    1    2    0    0  0.00000000000E+00  0.00000000000E+00 -0.55014437962E+03  0.12218404405E+04  0.10909790207E+04 0.  0.
        2    1    3    3  502    0 -0.27809244326E+03  0.36389435308E+03  0.56788632735E+02  0.46149697293E+03  0.25500000920E-02 0. -1.
       -2    1    3    3    0  502  0.27809244326E+03 -0.36389435308E+03 -0.60693301236E+03  0.76034346759E+03  0.25500000920E-02 0.  1.
</event>
<event>
 5   0  0.5723194E-03  0.1078686E+04  0.7818609E-02  0.9226218E-01
       -2   -1    0    0    0  501  0.00000000000E+00  0.00000000000E+00  0.73582078911E+03  0.73582078912E+03  0.25500000920E-02 0. -1.
        2   -1    0    0  501    0  0.00000000000E+00  0.00000000000E+00 -0.39532871456E+03  0.39532871457E+03  0.25500000920E-02 0.  1.
    10030    2    1    2    0    0  0.00000000000E+00  0.00000000000E+00  0.34049207455E+03  0.11311495037E+04  0.10786863987E+04 0.  0.
        1    1    3    3  502    0 -0.42211873730E+03  0.30864821167E+03  0.31750067199E+02  0.52388549678E+03  0.50400001928E-02 0.  1.
       -1    1    3    3    0  502  0.42211873730E+03 -0.30864821167E+03  0.30874200735E+03  0.60726400690E+03  0.50400001928E-02 0. -1.
</event>
<event>
 5   0  0.3316784E-03  0.1112587E+04  0.7818609E-02  0.9193010E-01
       -1   -1    0    0    0  501  0.00000000000E+00  0.00000000000E+00  0.59660024530E+03  0.59660024533E+03  0.50400001928E-02 0.  1.
        1   -1    0    0  501    0  0.00000000000E+00  0.00000000000E+00 -0.51870963637E+03  0.51870963639E+03  0.50400001928E-02 0. -1.
    10030    2    1    2    0    0  0.00000000000E+00  0.00000000000E+00  0.77890608938E+02  0.11153098817E+04  0.11125867091E+04 0.  0.
        4    1    3    3  502    0 -0.15751839552E+03 -0.41924014882E+03 -0.29184165094E+03  0.53455356087E+03  0.12699999809E+01 0. -1.
       -4    1    3    3    0  502  0.15751839552E+03  0.41924014882E+03  0.36973225988E+03  0.58075632085E+03  0.12699999809E+01 0.  1.
</event>
<event>
 5   0  0.5723194E-03  0.1095903E+04  0.7818609E-02  0.9209194E-01
        2   -1    0    0  501    0  0.00000000000E+00  0.00000000000E+00  0.14095077014E+04  0.14095077014E+04  0.25500000920E-02 0.  1.
       -2   -1    0    0    0  501  0.00000000000E+00  0.00000000000E+00 -0.21301841538E+03  0.21301841540E+03  0.25500000920E-02 0. -1.
    10030    2    1    2    0    0  0.00000000000E+00  0.00000000000E+00  0.11964892860E+04  0.16225261168E+04  0.10959034575E+04 0.  0.
        1    1    3    3  502    0  0.31473329213E+03  0.73212416438E+02 -0.56939593007E+02  0.32811464517E+03  0.50400001928E-02 0. -1.
       -1    1    3    3    0  502 -0.31473329213E+03 -0.73212416438E+02  0.12534288790E+04  0.12944114716E+04  0.50400001928E-02 0.  1.
</event>
<event>
 5   0  0.3215352E-03  0.1018357E+04  0.7818609E-02  0.9288638E-01
        1   -1    0    0  501    0  0.00000000000E+00  0.00000000000E+00  0.40324259575E+03  0.40324259579E+03  0.50400001928E-02 0. -1.
       -1   -1    0    0    0  501  0.00000000000E+00  0.00000000000E+00 -0.64294442009E+03  0.64294442011E+03  0.50400001928E-02 0.  1.
    10030    2    1    2    0    0  0.00000000000E+00  0.00000000000E+00 -0.23970182434E+03  0.10461870159E+04  0.10183566702E+04 0.  0.
        1    1    3    3  502    0 -0.59820230430E+02  0.46076377437E+03  0.94121852379E+02  0.47406817955E+03  0.50400001928E-02 0. -1.
       -1    1    3    3    0  502  0.59820230430E+02 -0.46076377437E+03 -0.33382367672E+03  0.57211883635E+03  0.50400001928E-02 0.  1.
</event>
<event>
 5   0  0.5946359E-03  0.1083306E+04  0.7818609E-02  0.9221617E-01
       -2   -1    0    0    0  501  0.00000000000E+00  0.00000000000E+00  0.36326775512E+03  0.36326775513E+03  0.25500000920E-02 0. -1.
        2   -1    0    0  501    0  0.00000000000E+00  0.00000000000E+00 -0.80763586620E+03  0.80763586620E+03  0.25500000920E-02 0.  1.
    10030    2    1    2    0    0  0.00000000000E+00  0.00000000000E+00 -0.44436811108E+03  0.11709036213E+04  0.10833061766E+04 0.  0.
        4    1    3    3  502    0 -0.19063223393E+02  0.50052858639E+03  0.62594065305E+00  0.50089347868E+03  0.12699999809E+01 0. -1.
       -4    1    3    3    0  502  0.19063223393E+02 -0.50052858639E+03 -0.44499405173E+03  0.67001014265E+03  0.12699999809E+01 0.  1.
</event>
<event>
 5   0  0.2185750E-03  0.1089548E+04  0.7818609E-02  0.9215439E-01
        3   -1    0    0  501    0  0.00000000000E+00  0.00000000000E+00  0.19849218799E+04  0.19849218825E+04  0.10100000352E+00 0.  1.
       -3   -1    0    0    0  501  0.00000000000E+00  0.00000000000E+00 -0.14951656358E+03  0.14951659769E+03  0.10100000352E+00 0. -1.
    10030    2    1    2    0    0  0.00000000000E+00  0.00000000000E+00  0.18354053163E+04  0.21344384802E+04  0.10895480487E+04 0.  0.
        2    1    3    3  502    0 -0.35793644805E+03  0.88862189450E+02  0.13222955886E+03  0.39179030846E+03  0.25500000920E-02 0. -1.
       -2    1    3    3    0  502  0.35793644805E+03 -0.88862189450E+02  0.17031757575E+04  0.17426481717E+04  0.25500000920E-02 0.  1.
</event>
<event>
 5   0  0.5500363E-03  0.1126362E+04  0.7818609E-02  0.9179872E-01
       -2   -1    0    0    0  501  0.00000000000E+00  0.00000000000E+00  0.36439521809E+03  0.36439521810E+03  0.25500000920E-02 0. -1.
        2   -1    0    0  501    0  0.00000000000E+00  0.00000000000E+00 -0.87040851034E+03  0.87040851034E+03  0.25500000920E-02 0.  1.
    10030    2    1    2    0    0  0.00000000000E+00  0.00000000000E+00 -0.50601329225E+03  0.12348037284E+04  0.11263617518E+04 0.  0.
        3    1    3    3  502    0  0.37557462367E+03 -0.23156741237E+03 -0.63669228051E+03  0.77463335500E+03  0.10100000352E+00 0.  1.
       -3    1    3    3    0  502 -0.37557462367E+03  0.23156741237E+03  0.13067898827E+03  0.46017037344E+03  0.10100000352E+00 0. -1.
</event>
<event>
 5   0  0.5627232E-03  0.1058008E+04  0.7818609E-02  0.9247115E-01
       -2   -1    0    0    0  501  0.00000000000E+00  0.00000000000E+00  0.66142922528E+03  0.66142922528E+03  0.25500000920E-02 0. -1.
        2   -1    0    0  501    0  0.00000000000E+00  0.00000000000E+00 -0.42309157981E+03  0.42309157981E+03  0.25500000920E-02 0.  1.
    10030    2    1    2    0    0  0.00000000000E+00  0.00000000000E+00  0.23833764547E+03  0.10845208051E+04  0.10580078182E+04 0.  0.
        2    1    3    3  502    0  0.16679748524E+03  0.49855211651E+03  0.58790113183E+02  0.52899139065E+03  0.25500000920E-02 0.  1.
       -2    1    3    3    0  502 -0.16679748524E+03 -0.49855211651E+03  0.17954753229E+03  0.55552941445E+03  0.25500000920E-02 0. -1.
</event>
<event>
 5   0  0.5723194E-03  0.1102409E+04  0.7818609E-02  0.9202847E-01
       -2   -1    0    0    0  501  0.00000000000E+00  0.00000000000E+00  0.30959993533E+03  0.30959993534E+03  0.25500000920E-02 0. -1.
        2   -1    0    0  501    0  0.00000000000E+00  0.00000000000E+00 -0.98135237215E+03  0.98135237216E+03  0.25500000920E-02 0.  1.
    10030    2    1    2    0    0  0.00000000000E+00  0.00000000000E+00 -0.67175243683E+03  0.12909523075E+04  0.11024094175E+04 0.  0.
        1    1    3    3  502    0 -0.42323919657E+03 -0.83742605173E+01  0.77523348777E+02  0.43036195857E+03  0.50400001928E-02 0. -1.
       -1    1    3    3    0  502  0.42323919657E+03  0.83742605173E+01 -0.74927578561E+03  0.86059034893E+03  0.50400001928E-02 0.  1.
</event>
<event>
 5   0  0.3320192E-03  0.1113436E+04  0.7818609E-02  0.9192194E-01
       -1   -1    0    0    0  501  0.00000000000E+00  0.00000000000E+00  0.54129194337E+03  0.54129194339E+03  0.50400001928E-02 0. -1.
        1   -1    0    0  501    0  0.00000000000E+00  0.00000000000E+00 -0.57258409186E+03  0.57258409188E+03  0.50400001928E-02 0.  1.
    10030    2    1    2    0    0  0.00000000000E+00  0.00000000000E+00 -0.31292148488E+02  0.11138760353E+04  0.11134364029E+04 0.  0.
        2    1    3    3  502    0 -0.47396252239E+03  0.25067737390E+03 -0.16555696026E+03  0.56114946806E+03  0.25500000920E-02 0.  1.
       -2    1    3    3    0  502  0.47396252239E+03 -0.25067737390E+03  0.13426481177E+03  0.55272656721E+03  0.25500000920E-02 0. -1.
</event>
<event>
 5   0  0.5627232E-03  0.1099192E+04  0.7818609E-02  0.9205980E-01
       -2   -1    0    0    0  501  0.00000000000E+00  0.00000000000E+00  0.30616889684E+03  0.30616889685E+03  0.25500000920E-02 0.  1.
        2   -1    0    0  501    0  0.00000000000E+00  0.00000000000E+00 -0.98656554991E+03  0.98656554991E+03  0.25500000920E-02 0. -1.
    10030    2    1    2    0    0  0.00000000000E+00  0.00000000000E+00 -0.68039665307E+03  0.12927344468E+04  0.10991918597E+04 0.  0.
        2    1    3    3  502    0  0.38853746944E+02 -0.45653079014E+03 -0.69716382457E+03  0.83424659082E+03  0.25500000920E-02 0. -1.
       -2    1    3    3    0  502 -0.38853746944E+02  0.45653079014E+03  0.16767171500E+02  0.45848785594E+03  0.25500000920E-02 0.  1.
</event>
<event>
 5   0  0.3328741E-03  0.1084473E+04  0.7818609E-02  0.9220459E-01
       -1   -1    0    0    0  501  0.00000000000E+00  0.00000000000E+00  0.16120257328E+03  0.16120257336E+03  0.50400001928E-02 0. -1.
        1   -1    0    0  501    0  0.00000000000E+00  0.00000000000E+00 -0.18239175503E+04  0.18239175503E+04  0.50400001928E-02 0.  1.
    10030    2    1    2    0    0  0.00000000000E+00  0.00000000000E+00 -0.16627149770E+04  0.19851201236E+04  0.10844725956E+04 0.  0.
        3    1    3    3  502    0  0.18602988521E+03 -0.47597115857E+03 -0.49951505018E+03  0.71461245269E+03  0.10100000352E+00 0. -1.
       -3    1    3    3    0  502 -0.18602988521E+03  0.47597115857E+03 -0.11631999268E+04  0.12705076709E+04  0.10100000352E+00 0.  1.
</event>
<event>
 5   0  0.3316784E-03  0.1094038E+04  0.7818609E-02  0.9211022E-01
       -1   -1    0    0    0  501  0.00000000000E+00  0.00000000000E+00  0.12517694895E+04  0.12517694895E+04  0.50400001928E-02 0. -1.
        1   -1    0    0  501    0  0.00000000000E+00  0.00000000000E+00 -0.23904561745E+03  0.23904561750E+03  0.50400001928E-02 0.  1.
    10030    2    1    2    0    0  0.00000000000E+00  0.00000000000E+00  0.10127238720E+04  0.14908151070E+04  0.10940384098E+04 0.  0.
        4    1    3    3  502    0  0.32332607538E+03  0.23607044438E+02  0.11067596877E+04  0.11532630501E+04  0.12699999809E+01 0. -1.
       -4    1    3    3    0  502 -0.32332607538E+03 -0.23607044438E+02 -0.94035815664E+02  0.33755205686E+03  0.12699999809E+01 0.  1.
</event>
<event>
 5   0  0.3320192E-03  0.1115259E+04  0.7818609E-02  0.9190446E-01
        1   -1    0    0  501    0  0.00000000000E+00  0.00000000000E+00  0.91701555250E+03  0.91701555251E+03  0.50400001928E-02 0. -1.
       -1   -1    0    0    0  501  0.00000000000E+00  0.00000000000E+00 -0.33908996481E+03  0.33908996485E+03  0.50400001928E-02 0.  1.
    10030    2    1    2    0    0  0.00000000000E+00  0.00000000000E+00  0.57792558769E+03  0.12561055174E+04  0.11152592012E+04 0.  0.
        2    1    3    3  502    0  0.82799556707E+02 -0.52566224476E+03  0.10125981703E+03  0.54169189832E+03  0.25500000920E-02 0.  1.
       -2    1    3    3    0  502 -0.82799556707E+02  0.52566224476E+03  0.47666577066E+03  0.71441361905E+03  0.25500000920E-02 0. -1.
</event>
<event>
 5   0  0.3241189E-03  0.1097994E+04  0.7818609E-02  0.9207149E-01
       -1   -1    0    0    0  501  0.00000000000E+00  0.00000000000E+00  0.23960709609E+03  0.23960709614E+03  0.50400001928E-02 0. -1.
        1   -1    0    0  501    0  0.00000000000E+00  0.00000000000E+00 -0.12578829252E+04  0.12578829252E+04  0.50400001928E-02 0.  1.
    10030    2    1    2    0    0  0.00000000000E+00  0.00000000000E+00 -0.10182758291E+04  0.14974900213E+04  0.10979939435E+04 0.  0.
        5    1    3    3  502    0 -0.36919388603E+03 -0.39315929100E+03 -0.36940414409E+03  0.65372766903E+03  0.46999998093E+01 0. -1.
       -5    1    3    3    0  502  0.36919388603E+03  0.39315929100E+03 -0.64887168501E+03  0.84376235231E+03  0.46999998093E+01 0.  1.
</event>
<event>
 5   0  0.5500363E-03  0.1212269E+04  0.7818609E-02  0.9102185E-01
        2   -1    0    0  501    0  0.00000000000E+00  0.00000000000E+00  0.68427883929E+03  0.68427883930E+03  0.25500000920E-02 0. -1.
       -2   -1    0    0    0  501  0.00000000000E+00  0.00000000000E+00 -0.53691423540E+03  0.53691423541E+03  0.25500000920E-02 0.  1.
    10030    2    1    2    0    0  0.00000000000E+00  0.00000000000E+00  0.14736460389E+03  0.12211930747E+04  0.12122690292E+04 0.  0.
        3    1    3    3  502    0  0.29031293450E+03 -0.44564078421E+03 -0.21918407489E+03  0.57525557571E+03  0.10100000352E+00 0.  1.
       -3    1    3    3    0  502 -0.29031293450E+03  0.44564078421E+03  0.36654867878E+03  0.64593749900E+03  0.10100000352E+00 0. -1.
</event>
<event>
 5   0  0.5946359E-03  0.1104775E+04  0.7818609E-02  0.9200550E-01
       -2   -1    0    0    0  501  0.00000000000E+00  0.00000000000E+00  0.71119091429E+03  0.71119091429E+03  0.25500000920E-02 0. -1.
        2   -1    0    0  501    0  0.00000000000E+00  0.00000000000E+00 -0.42904395902E+03  0.42904395903E+03  0.25500000920E-02 0.  1.
    10030    2    1    2    0    0  0.00000000000E+00  0.00000000000E+00  0.28214695527E+03  0.11402348733E+04  0.11047753898E+04 0.  0.
        4    1    3    3  502    0 -0.35663653266E+03  0.61288691608E+02 -0.28967648301E+03  0.46352993199E+03  0.12699999809E+01 0.  1.
       -4    1    3    3    0  502  0.35663653266E+03 -0.61288691608E+02  0.57182343828E+03  0.67670494132E+03  0.12699999809E+01 0. -1.
</event>
<event>
 5   0  0.5941585E-03  0.1082292E+04  0.7818609E-02  0.9222625E-01
        2   -1    0    0  501    0  0.00000000000E+00  0.00000000000E+00  0.11302231253E+04  0.11302231253E+04  0.25500000920E-02 0. -1.
       -2   -1    0    0    0  501  0.00000000000E+00  0.00000000000E+00 -0.25909844768E+03  0.25909844769E+03  0.25500000920E-02 0.  1.
    10030    2    1    2    0    0  0.00000000000E+00  0.00000000000E+00  0.87112467766E+03  0.13893215730E+04  0.10822921183E+04 0.  0.
        5    1    3    3  502    0 -0.10357798068E+03  0.10222917399E+03  0.11046043019E+04  0.11141597533E+04  0.46999998093E+01 0. -1.
       -5    1    3    3    0  502  0.10357798068E+03 -0.10222917399E+03 -0.23347962424E+03  0.27516181972E+03  0.46999998093E+01 0.  1.
</event>
<event>
 5   0  0.3320192E-03  0.1069713E+04  0.7818609E-02  0.9235225E-01
       -1   -1    0    0    0  501  0.00000000000E+00  0.00000000000E+00  0.31499971725E+03  0.31499971729E+03  0.50400001928E-02 0. -1.
        1   -1    0    0  501    0  0.00000000000E+00  0.00000000000E+00 -0.90816468150E+03  0.90816468152E+03  0.50400001928E-02 0.  1.
    10030    2    1    2    0    0  0.00000000000E+00  0.00000000000E+00 -0.59316496425E+03  0.12231643988E+04  0.10697132661E+04 0.  0.
        2    1    3    3  502    0 -0.18290420760E+03  0.44446757771E+03 -0.28258082448E+02  0.48146017076E+03  0.25500000920E-02 0. -1.
       -2    1    3    3    0  502  0.18290420760E+03 -0.44446757771E+03 -0.56490688181E+03  0.74170422805E+03  0.25500000920E-02 0.  1.
</event>
<event>
 5   0  0.2185750E-03  0.1094057E+04  0.7818609E-02  0.9211004E-01
        4   -1    0    0  501    0  0.00000000000E+00  0.00000000000E+00  0.56225774287E+03  0.56225917717E+03  0.12699999809E+01 0.  1.
       -4   -1    0    0    0  501  0.00000000000E+00  0.00000000000E+00 -0.53220895027E+03  0.53221046555E+03  0.12699999809E+01 0. -1.
    10030    2    1    2    0    0  0.00000000000E+00  0.00000000000E+00  0.30048792600E+02  0.10944696427E+04  0.10940570684E+04 0.  0.
        5    1    3    3  502    0  0.13464965222E+03 -0.24091636972E+03  0.48748090973E+03  0.56020617044E+03  0.46999998093E+01 0.  1.
       -5    1    3    3    0  502 -0.13464965222E+03  0.24091636972E+03 -0.45743211713E+03  0.53426347229E+03  0.46999998093E+01 0. -1.
</event>
<event>
 5   0  0.2185750E-03  0.1095318E+04  0.7818609E-02  0.9209768E-01
        3   -1    0    0  501    0  0.00000000000E+00  0.00000000000E+00  0.30973482563E+03  0.30973484210E+03  0.10100000352E+00 0.  1.
       -3   -1    0    0    0  501  0.00000000000E+00  0.00000000000E+00 -0.96834501225E+03  0.96834501751E+03  0.10100000352E+00 0. -1.
    10030    2    1    2    0    0  0.00000000000E+00  0.00000000000E+00 -0.65861018662E+03  0.12780798596E+04  0.10953176478E+04 0.  0.
        4    1    3    3  502    0 -0.30006910218E+03  0.39288115111E+03 -0.60427656978E+03  0.78073609540E+03  0.12699999809E+01 0. -1.
       -4    1    3    3    0  502  0.30006910218E+03 -0.39288115111E+03 -0.54333616837E+02  0.49734376421E+03  0.12699999809E+01 0.  1.
</event>
<event>
 5   0  0.2185750E-03  0.1083327E+04  0.7818609E-02  0.9221597E-01
       -3   -1    0    0    0  501  0.00000000000E+00  0.00000000000E+00  0.13963450482E+04  0.13963450519E+04  0.10100000352E+00 0. -1.
        3   -1    0    0  501    0  0.00000000000E+00  0.00000000000E+00 -0.21011932714E+03  0.21011935142E+03  0.10100000352E+00 0.  1.
    10030    2    1    2    0    0  0.00000000000E+00  0.00000000000E+00  0.11862257211E+04  0.16064644033E+04  0.10833265517E+04 0.  0.
        2    1    3    3  502    0 -0.31789084299E+03  0.40497518041E+03  0.34347599122E+03  0.61889840956E+03  0.25500000920E-02 0.  1.
       -2    1    3    3    0  502  0.31789084299E+03 -0.40497518041E+03  0.84274972985E+03  0.98756599373E+03  0.25500000920E-02 0. -1.
</event>
<event>
 5   0  0.3316784E-03  0.1099256E+04  0.7818609E-02  0.9205917E-01
       -1   -1    0    0    0  501  0.00000000000E+00  0.00000000000E+00  0.29455993470E+03  0.29455993474E+03  0.50400001928E-02 0. -1.
        1   -1    0    0  501    0  0.00000000000E+00  0.00000000000E+00 -0.10255671037E+04  0.10255671037E+04  0.50400001928E-02 0.  1.
    10030    2    1    2    0    0  0.00000000000E+00  0.00000000000E+00 -0.73100716896E+03  0.13201270384E+04  0.10992560741E+04 0.  0.
        4    1    3    3  502    0  0.68698390897E+02 -0.45985857277E+03 -0.13527294152E+02  0.46516016215E+03  0.12699999809E+01 0. -1.
       -4    1    3    3    0  502 -0.68698390897E+02  0.45985857277E+03 -0.71747987480E+03  0.85496687626E+03  0.12699999809E+01 0.  1.
</event>
<event>
 5   0  0.3215352E-03  0.1076693E+04  0.7818609E-02  0.9228210E-01
        1   -1    0    0  501    0  0.00000000000E+00  0.00000000000E+00  0.88969925643E+03  0.88969925645E+03  0.50400001928E-02 0. -1.
       -1   -1    0    0    0  501  0.00000000000E+00  0.00000000000E+00 -0.32574740386E+03  0.32574740390E+03  0.50400001928E-02 0.  1.
    10030    2    1    2    0    0  0.00000000000E+00  0.00000000000E+00  0.56395185257E+03  0.12154466603E+04  0.10766934996E+04 0.  0.
        1    1    3    3  502    0  0.48296543570E+03  0.19549481729E+03  0.43486751092E+03  0.67866308854E+03  0.50400001928E-02 0. -1.
       -1    1    3    3    0  502 -0.48296543570E+03 -0.19549481729E+03  0.12908434165E+03  0.53678357180E+03  0.50400001928E-02 0.  1.
</event>
<event>
 5   0  0.5946359E-03  0.1087975E+04  0.7818609E-02  0.9216992E-01
       -2   -1    0    0    0  501  0.00000000000E+00  0.00000000000E+00  0.35989269827E+03  0.35989269828E+03  0.25500000920E-02 0.  1.
        2   -1    0    0  501    0  0.00000000000E+00  0.00000000000E+00 -0.82225136196E+03  0.82225136197E+03  0.25500000920E-02 0. -1.
    10030    2    1    2    0    0  0.00000000000E+00  0.00000000000E+00 -0.46235866369E+03  0.11821440603E+04  0.10879747448E+04 0.  0.
        4    1    3    3  502    0 -0.34794611050E+03  0.73820823485E+02 -0.67839214619E+03  0.76598533061E+03  0.12699999809E+01 0. -1.
       -4    1    3    3    0  502  0.34794611050E+03 -0.73820823485E+02  0.21603348250E+03  0.41615872964E+03  0.12699999809E+01 0.  1.
</event>
<event>
 5   0  0.5941585E-03  0.1112367E+04  0.7818609E-02  0.9193222E-01
        2   -1    0    0  501    0  0.00000000000E+00  0.00000000000E+00  0.79182375452E+03  0.79182375453E+03  0.25500000920E-02 0.  1.
       -2   -1    0    0    0  501  0.00000000000E+00  0.00000000000E+00 -0.39066760650E+03  0.39066760651E+03  0.25500000920E-02 0. -1.
    10030    2    1    2    0    0  0.00000000000E+00  0.00000000000E+00  0.40115614803E+03  0.11824913610E+04  0.11123666499E+04 0.  0.
        5    1    3    3  502    0 -0.47142273763E+03  0.28375828185E+03  0.11448067160E+03  0.56203743135E+03  0.46999998093E+01 0. -1.
       -5    1    3    3    0  502  0.47142273763E+03 -0.28375828185E+03  0.28667547642E+03  0.62045392968E+03  0.46999998093E+01 0.  1.
</event>
<event>
 5   0  0.3241189E-03  0.1107351E+04  0.7818609E-02  0.9198056E-01
       -1   -1    0    0    0  501  0.00000000000E+00  0.00000000000E+00  0.10234415650E+04  0.10234415650E+04  0.50400001928E-02 0. -1.
        1   -1    0    0  501    0  0.00000000000E+00  0.00000000000E+00 -0.29953512416E+03  0.29953512420E+03  0.50400001928E-02 0.  1.
    10030    2    1    2    0    0  0.00000000000E+00  0.00000000000E+00  0.72390644087E+03  0.13229766892E+04  0.11073512474E+04 0.  0.
        5    1    3    3  502    0  0.51373847123E+03 -0.91789319251E+02  0.58283822251E+03  0.78235220941E+03  0.46999998093E+01 0. -1.
       -5    1    3    3    0  502 -0.51373847123E+03  0.91789319251E+02  0.14106821835E+03  0.54062447982E+03  0.46999998093E+01 0.  1.
</event>
<event>
 5   0  0.5723194E-03  0.1104649E+04  0.7818609E-02  0.9200672E-01
       -2   -1    0    0    0  501  0.00000000000E+00  0.00000000000E+00  0.13777055725E+03  0.13777055727E+03  0.25500000920E-02 0.  1.
        2   -1    0    0  501    0  0.00000000000E+00  0.00000000000E+00 -0.22142798272E+04  0.22142798272E+04  0.25500000920E-02 0. -1.
    10030    2    1    2    0    0  0.00000000000E+00  0.00000000000E+00 -0.20765092700E+04  0.23520503845E+04  0.11046493846E+04 0.  0.
        1    1    3    3  502    0 -0.40510742049E+03  0.35279826057E+03 -0.76488356132E+03  0.93467935529E+03  0.50400001928E-02 0. -1.
       -1    1    3    3    0  502  0.40510742049E+03 -0.35279826057E+03 -0.13116257086E+04  0.14173710292E+04  0.50400001928E-02 0.  1.
</event>
<event>
 5   0  0.5627232E-03  0.1118574E+04  0.7818609E-02  0.9187275E-01
       -2   -1    0    0    0  501  0.00000000000E+00  0.00000000000E+00  0.27193441221E+03  0.27193441222E+03  0.25500000920E-02 0. -1.
        2   -1    0    0  501    0  0.00000000000E+00  0.00000000000E+00 -0.11502849807E+04  0.11502849808E+04  0.25500000920E-02 0.  1.
    10030    2    1    2    0    0  0.00000000000E+00  0.00000000000E+00 -0.87835056854E+03  0.14222193930E+04  0.11185742177E+04 0.  0.
        2    1    3    3  502    0 -0.14335386780E+03 -0.23731252129E+03  0.17841082933E+03  0.32969377944E+03  0.25500000920E-02 0. -1.
       -2    1    3    3    0  502  0.14335386780E+03  0.23731252129E+03 -0.10567613979E+04  0.10925256135E+04  0.25500000920E-02 0.  1.
</event>
<event>
 5   0  0.5627232E-03  0.1099338E+04  0.7818609E-02  0.9205837E-01
        2   -1    0    0  501    0  0.00000000000E+00  0.00000000000E+00  0.27998771709E+04  0.27998771709E+04  0.25500000920E-02 0. -1.
       -2   -1    0    0    0  501  0.00000000000E+00  0.00000000000E+00 -0.10791046771E+03  0.10791046774E+03  0.25500000920E-02 0.  1.
    10030    2    1    2    0    0  0.00000000000E+00  0.00000000000E+00  0.26919667031E+04  0.29077876386E+04  0.10993380828E+04 0.  0.
        2    1    3    3  502    0  0.48061984896E+03  0.23233587037E+03  0.16924794881E+04  0.17746724243E+04  0.25500000920E-02 0.  1.
       -2    1    3    3    0  502 -0.48061984896E+03 -0.23233587037E+03  0.99948721504E+03  0.11331152143E+04  0.25500000920E-02 0. -1.
</event>
<event>
 5   0  0.3316784E-03  0.1101850E+04  0.7818609E-02  0.9203391E-01
       -1   -1    0    0    0  501  0.00000000000E+00  0.00000000000E+00  0.57705982305E+03  0.57705982307E+03  0.50400001928E-02 0. -1.
        1   -1    0    0  501    0  0.00000000000E+00  0.00000000000E+00 -0.52597347990E+03  0.52597347993E+03  0.50400001928E-02 0.  1.
    10030    2    1    2    0    0  0.00000000000E+00  0.00000000000E+00  0.51086343145E+02  0.11030333030E+04  0.11018496508E+04 0.  0.
        4    1    3    3  502    0 -0.32799877043E+03  0.43882880090E+03  0.83593743627E+02  0.55420522984E+03  0.12699999809E+01 0.  1.
       -4    1    3    3    0  502  0.32799877043E+03 -0.43882880090E+03 -0.32507400482E+02  0.54882807316E+03  0.12699999809E+01 0. -1.
</event>
<event>
 5   0  0.3215352E-03  0.1105848E+04  0.7818609E-02  0.9199510E-01
        1   -1    0    0  501    0  0.00000000000E+00  0.00000000000E+00  0.66879502740E+03  0.66879502742E+03  0.50400001928E-02 0. -1.
       -1   -1    0    0    0  501  0.00000000000E+00  0.00000000000E+00 -0.45712824940E+03  0.45712824943E+03  0.50400001928E-02 0.  1.
    10030    2    1    2    0    0  0.00000000000E+00  0.00000000000E+00  0.21166677800E+03  0.11259232768E+04  0.11058482719E+04 0.  0.
        1    1    3    3  502    0  0.50030350258E+03 -0.88143638489E+01 -0.13368992409E+03  0.51793270174E+03  0.50400001928E-02 0.  1.
       -1    1    3    3    0  502 -0.50030350258E+03  0.88143638489E+01  0.34535670209E+03  0.60799057510E+03  0.50400001928E-02 0. -1.
</event>
<event>
 5   0  0.5941585E-03  0.1100290E+04  0.7818609E-02  0.9204910E-01
        2   -1    0    0  501    0  0.00000000000E+00  0.00000000000E+00  0.21818671901E+04  0.21818671901E+04  0.25500000920E-02 0.  1.
       -2   -1    0    0    0  501  0.00000000000E+00  0.00000000000E+00 -0.13871576583E+03  0.13871576586E+03  0.25500000920E-02 0. -1.
    10030    2    1    2    0    0  0.00000000000E+00  0.00000000000E+00  0.20431514243E+04  0.23205829560E+04  0.11002897405E+04 0.  0.
        5    1    3    3  502    0 -0.10754791933E+03  0.24326134127E+03  0.59459891793E+01  0.26608284404E+03  0.46999998093E+01 0. -1.
       -5    1    3    3    0  502  0.10754791933E+03 -0.24326134127E+03  0.20372054351E+04  0.20545001119E+04  0.46999998093E+01 0.  1.
</event>
<event>
 5   0  0.3241189E-03  0.1130846E+04  0.7818609E-02  0.9175638E-01
        1   -1    0    0  501    0  0.00000000000E+00  0.00000000000E+00  0.58730408646E+03  0.58730408648E+03  0.50400001928E-02 0.  1.
       -1   -1    0    0    0  501  0.00000000000E+00  0.00000000000E+00 -0.54435719634E+03  0.54435719636E+03  0.50400001928E-02 0. -1.
    10030    2    1    2    0    0  0.00000000000E+00  0.00000000000E+00  0.42946890125E+02  0.11316612828E+04  0.11308460654E+04 0.  0.
        5    1    3    3  502    0 -0.16567103210E+03 -0.53684593515E+03 -0.42059856484E+02  0.56341953329E+03  0.46999998093E+01 0.  1.
       -5    1    3    3    0  502  0.16567103210E+03  0.53684593515E+03  0.85006746609E+02  0.56824174955E+03  0.46999998093E+01 0. -1.
</event>
<event>
 5   0  0.5627232E-03  0.1078552E+04  0.7818609E-02  0.9226353E-01
       -2   -1    0    0    0  501  0.00000000000E+00  0.00000000000E+00  0.10537364715E+04  0.10537364715E+04  0.25500000920E-02 0.  1.
        2   -1    0    0  501    0  0.00000000000E+00  0.00000000000E+00 -0.27598782487E+03  0.27598782489E+03  0.25500000920E-02 0. -1.
    10030    2    1    2    0    0  0.00000000000E+00  0.00000000000E+00  0.77774864660E+03  0.13297242964E+04  0.10785516896E+04 0.  0.
        2    1    3    3  502    0  0.42172752957E+03 -0.13257116143E+03  0.76965094586E+03  0.88757636320E+03  0.25500000920E-02 0.  1.
       -2    1    3    3    0  502 -0.42172752957E+03  0.13257116143E+03  0.80977007425E+01  0.44214793317E+03  0.25500000920E-02 0. -1.
</event>
<event>
 5   0  0.5946359E-03  0.1072196E+04  0.7818609E-02  0.9232724E-01
        2   -1    0    0  501    0  0.00000000000E+00  0.00000000000E+00  0.27610987404E+03  0.27610987405E+03  0.25500000920E-02 0. -1.
       -2   -1    0    0    0  501  0.00000000000E+00  0.00000000000E+00 -0.10408929145E+04  0.10408929145E+04  0.25500000920E-02 0.  1.
    10030    2    1    2    0    0  0.00000000000E+00  0.00000000000E+00 -0.76478304045E+03  0.13170027885E+04  0.10721955260E+04 0.  0.
        4    1    3    3  502    0  0.10645365265E+03  0.45653421791E+03 -0.62925124757E+02  0.47298737458E+03  0.12699999809E+01 0. -1.
       -4    1    3    3    0  502 -0.10645365265E+03 -0.45653421791E+03 -0.70185791570E+03  0.84401541397E+03  0.12699999809E+01 0.  1.
</event>
<event>
 5   0  0.3316784E-03  0.1096217E+04  0.7818609E-02  0.9208887E-01
       -1   -1    0    0    0  501  0.00000000000E+00  0.00000000000E+00  0.42241441249E+03  0.42241441252E+03  0.50400001928E-02 0.  1.
        1   -1    0    0  501    0  0.00000000000E+00  0.00000000000E+00 -0.71120440419E+03  0.71120440421E+03  0.50400001928E-02 0. -1.
    10030    2    1    2    0    0  0.00000000000E+00  0.00000000000E+00 -0.28878999170E+03  0.11336188167E+04  0.10962171146E+04 0.  0.
        4    1    3    3  502    0 -0.27511311221E+03 -0.12316489950E+03  0.32900624132E+03  0.44621019341E+03  0.12699999809E+01 0.  1.
       -4    1    3    3    0  502  0.27511311221E+03  0.12316489950E+03 -0.61779623302E+03  0.68740862332E+03  0.12699999809E+01 0. -1.
</event>
<event>
 5   0  0.5941585E-03  0.1099891E+04  0.7818609E-02  0.9205298E-01
       -2   -1    0    0    0  501  0.00000000000E+00  0.00000000000E+00  0.55195337221E+03  0.55195337222E+03  0.25500000920E-02 0. -1.
        2   -1    0    0  501    0  0.00000000000E+00  0.00000000000E+00 -0.54794534800E+03  0.54794534800E+03  0.25500000920E-02 0.  1.
    10030    2    1    2    0    0  0.00000000000E+00  0.00000000000E+00  0.40080242165E+01  0.10998987202E+04  0.10998914176E+04 0.  0.
        5    1    3    3  502    0 -0.20545224087E+03  0.49262087917E+03 -0.13040622751E+03  0.54946685801E+03  0.46999998093E+01 0.  1.
       -5    1    3    3    0  502  0.20545224087E+03 -0.49262087917E+03  0.13441425173E+03  0.55043186221E+03  0.46999998093E+01 0. -1.
</event>
<event>
 5   0  0.5500363E-03  0.1106892E+04  0.7818609E-02  0.9198501E-01
        2   -1    0    0  501    0  0.00000000000E+00  0.00000000000E+00  0.18507906970E+04  0.18507906970E+04  0.25500000920E-02 0. -1.
       -2   -1    0    0    0  501  0.00000000000E+00  0.00000000000E+00 -0.16549804774E+03  0.16549804776E+03  0.25500000920E-02 0.  1.
    10030    2    1    2    0    0  0.00000000000E+00  0.00000000000E+00  0.16852926493E+04  0.20162887448E+04  0.11068915885E+04 0.  0.
        3    1    3    3  502    0 -0.45222503393E+03 -0.17858395825E+03  0.13242547456E+04  0.14106914450E+04  0.10100000352E+00 0. -1.
       -3    1    3    3    0  502  0.45222503393E+03  0.17858395825E+03  0.36103790367E+03  0.60559729982E+03  0.10100000352E+00 0.  1.
</event>
<event>
 5   0  0.5946359E-03  0.1093058E+04  0.7818609E-02  0.9211985E-01
       -2   -1    0    0    0  501  0.00000000000E+00  0.00000000000E+00  0.48192859021E+03  0.48192859021E+03  0.25500000920E-02 0. -1.
        2   -1    0    0  501    0  0.00000000000E+00  0.00000000000E+00 -0.61978870334E+03  0.61978870334E+03  0.25500000920E-02 0.  1.
    10030    2    1    2    0    0  0.00000000000E+00  0.00000000000E+00 -0.13786011313E+03  0.11017172936E+04  0.10930579052E+04 0.  0.
        4    1    3    3  502    0 -0.21390544720E+03 -0.22798275651E+02 -0.57532140992E+03  0.61422442098E+03  0.12699999809E+01 0.  1.
       -4    1    3    3    0  502  0.21390544720E+03  0.22798275651E+02  0.43746129679E+03  0.48749287257E+03  0.12699999809E+01 0. -1.
</event>
<event>
 5   0  0.3320192E-03  0.1108704E+04  0.7818609E-02  0.9196749E-01
        1   -1    0    0  501    0  0.00000000000E+00  0.00000000000E+00  0.54911512982E+03  0.54911512985E+03  0.50400001928E-02 0.  1.
       -1   -1    0    0    0  501  0.00000000000E+00  0.00000000000E+00 -0.55963916278E+03  0.55963916280E+03  0.50400001928E-02 0. -1.
    10030    2    1    2    0    0  0.00000000000E+00  0.00000000000E+00 -0.10524032956E+02  0.11087542926E+04  0.11087043457E+04 0.  0.
        2    1    3    3  502    0  0.13957649889E+03  0.22873374327E+02 -0.54129133247E+03  0.55946500955E+03  0.25500000920E-02 0. -1.
       -2    1    3    3    0  502 -0.13957649889E+03 -0.22873374327E+02  0.53076729951E+03  0.54928928310E+03  0.25500000920E-02 0.  1.
</event>
<event>
 5   0  0.5941585E-03  0.1089840E+04  0.7818609E-02  0.9215151E-01
        2   -1    0    0  501    0  0.00000000000E+00  0.00000000000E+00  0.69684974472E+03  0.69684974473E+03  0.25500000920E-02 0.  1.
       -2   -1    0    0    0  501  0.00000000000E+00  0.00000000000E+00 -0.42611449709E+03  0.42611449709E+03  0.25500000920E-02 0. -1.
    10030    2    1    2    0    0  0.00000000000E+00  0.00000000000E+00  0.27073524763E+03  0.11229642418E+04  0.10898399488E+04 0.  0.
        5    1    3    3  502    0 -0.36440136757E+03  0.13551143967E+03 -0.25802690485E+03  0.46663870456E+03  0.46999998093E+01 0. -1.
       -5    1    3    3    0  502  0.36440136757E+03 -0.13551143967E+03  0.52876215248E+03  0.65632553726E+03  0.46999998093E+01 0.  1.
</event>
<event>
 5   0  0.3241189E-03  0.1040868E+04  0.7818609E-02  0.9264823E-01
       -1   -1    0    0    0  501  0.00000000000E+00  0.00000000000E+00  0.10651924331E+04  0.10651924331E+04  0.50400001928E-02 0.  1.
        1   -1    0    0  501    0  0.00000000000E+00  0.00000000000E+00 -0.25427480354E+03  0.25427480359E+03  0.50400001928E-02 0. -1.
    10030    2    1    2    0    0  0.00000000000E+00  0.00000000000E+00  0.81091762952E+03  0.13194672367E+04  0.10408680929E+04 0.  0.
        5    1    3    3  502    0  0.24604919323E+03  0.23544876286E+03  0.90430077946E+03  0.96631170703E+03  0.46999998093E+01 0.  1.
       -5    1    3    3    0  502 -0.24604919323E+03 -0.23544876286E+03 -0.93383149940E+02  0.35315552964E+03  0.46999998093E+01 0. -1.
</event>
<event>
 5   0  0.5946359E-03  0.1101745E+04  0.7818609E-02  0.9203493E-01
        2   -1    0    0  501    0  0.00000000000E+00  0.00000000000E+00  0.90373165900E+03  0.90373165901E+03  0.25500000920E-02 0. -1.
       -2   -1    0    0    0  501  0.00000000000E+00  0.00000000000E+00 -0.33578604347E+03  0.33578604348E+03  0.25500000920E-02 0.  1.
    10030    2    1    2    0    0  0.00000000000E+00  0.00000000000E+00  0.56794561553E+03  0.12395177025E+04  0.11017449399E+04 0.  0.
        4    1    3    3  502    0 -0.47072647333E+03 -0.23976153260E+03  0.45967465323E+03  0.70026523899E+03  0.12699999809E+01 0. -1.
       -4    1    3    3    0  502  0.47072647333E+03  0.23976153260E+03  0.10827096230E+03  0.53925246350E+03  0.12699999809E+01 0.  1.
</event>
<event>
 5   0  0.3215352E-03  0.1098331E+04  0.7818609E-02  0.9206820E-01
       -1   -1    0    0    0  501  0.00000000000E+00  0.00000000000E+00  0.32568567854E+03  0.32568567858E+03  0.50400001928E-02 0. -1.
        1   -1    0    0  501    0  0.00000000000E+00  0.00000000000E+00 -0.92599401873E+03  0.92599401875E+03  0.50400001928E-02 0.  1.
    10030    2    1    2    0    0  0.00000000000E+00  0.00000000000E+00 -0.60030834019E+03  0.12516796973E+04  0.10983314442E+04 0.  0.
        1    1    3    3  502    0  0.46376173601E+03  0.55120299529E+02  0.29094829754E+02  0.46793130303E+03  0.50400001928E-02 0. -1.
       -1    1    3    3    0  502 -0.46376173601E+03 -0.55120299529E+02 -0.62940316994E+03  0.78374839430E+03  0.50400001928E-02 0.  1.
</event>
<event>
 5   0  0.5941585E-03  0.1092208E+04  0.7818609E-02  0.9212819E-01
        2   -1    0    0  501    0  0.00000000000E+00  0.00000000000E+00  0.69368597838E+03  0.69368597839E+03  0.25500000920E-02 0.  1.
       -2   -1    0    0    0  501  0.00000000000E+00  0.00000000000E+00 -0.42992051158E+03  0.42992051159E+03  0.25500000920E-02 0. -1.
    10030    2    1    2    0    0  0.00000000000E+00  0.00000000000E+00  0.26376546680E+03  0.11236064900E+04  0.10922084613E+04 0.  0.
        5    1    3    3  502    0 -0.14623074545E+03  0.26806286242E+03  0.59762994468E+03  0.67113692336E+03  0.46999998093E+01 0.  1.
       -5    1    3    3    0  502  0.14623074545E+03 -0.26806286242E+03 -0.33386447788E+03  0.45246956661E+03  0.46999998093E+01 0. -1.
</event>
<event>
 5   0  0.3241189E-03  0.1100025E+04  0.7818609E-02  0.9205167E-01
       -1   -1    0    0    0  501  0.00000000000E+00  0.00000000000E+00  0.23084943997E+03  0.23084944003E+03  0.50400001928E-02 0.  1.
        1   -1    0    0  501    0  0.00000000000E+00  0.00000000000E+00 -0.13104380160E+04  0.13104380161E+04  0.50400001928E-02 0. -1.
    10030    2    1    2    0    0  0.00000000000E+00  0.00000000000E+00 -0.10795885761E+04  0.15412874561E+04  0.11000252400E+04 0.  0.
        5    1    3    3  502    0 -0.30490711994E+03  0.10720208250E+03  0.83721927885E+02  0.33390431188E+03  0.46999998093E+01 0.  1.
       -5    1    3    3    0  502  0.30490711994E+03 -0.10720208250E+03 -0.11633105040E+04  0.12073831442E+04  0.46999998093E+01 0. -1.
</event>
<event>
 5   0  0.3241189E-03  0.1110562E+04  0.7818609E-02  0.9194958E-01
       -1   -1    0    0    0  501  0.00000000000E+00  0.00000000000E+00  0.14032981784E+03  0.14032981793E+03  0.50400001928E-02 0.  1.
        1   -1    0    0  501    0  0.00000000000E+00  0.00000000000E+00 -0.21972299342E+04  0.21972299342E+04  0.50400001928E-02 0. -1.
    10030    2    1    2    0    0  0.00000000000E+00  0.00000000000E+00 -0.20569001164E+04  0.23375597522E+04  0.11105617975E+04 0.  0.
        5    1    3    3  502    0  0.38052390283E+03  0.38040627182E+03 -0.73979143468E+03  0.91477911492E+03  0.46999998093E+01 0.  1.
       -5    1    3    3    0  502 -0.38052390283E+03 -0.38040627182E+03 -0.13171086817E+04  0.14227806372E+04  0.46999998093E+01 0. -1.
</event>
<event>
 5   0  0.5941585E-03  0.1110520E+04  0.7818609E-02  0.9194999E-01
       -2   -1    0    0    0  501  0.00000000000E+00  0.00000000000E+00  0.16524361768E+03  0.16524361770E+03  0.25500000920E-02 0.  1.
        2   -1    0    0  501    0  0.00000000000E+00  0.00000000000E+00 -0.18658117788E+04  0.18658117788E+04  0.25500000920E-02 0. -1.
    10030    2    1    2    0    0  0.00000000000E+00  0.00000000000E+00 -0.17005681611E+04  0.20310553965E+04  0.11105196770E+04 0.  0.
        5    1    3    3  502    0  0.27227401457E+03  0.48320234709E+03 -0.89775692186E+03  0.10552759014E+04  0.46999998093E+01 0. -1.
       -5    1    3    3    0  502 -0.27227401457E+03 -0.48320234709E+03 -0.80281123922E+03  0.97577949510E+03  0.46999998093E+01 0.  1.
</event>
<event>
 5   0  0.3316784E-03  0.1104666E+04  0.7818609E-02  0.9200656E-01
       -1   -1    0    0    0  501  0.00000000000E+00  0.00000000000E+00  0.16404527507E+03  0.16404527515E+03  0.50400001928E-02 0. -1.
        1   -1    0    0  501    0  0.00000000000E+00  0.00000000000E+00 -0.18596817680E+04  0.18596817680E+04  0.50400001928E-02 0.  1.
    10030    2    1    2    0    0  0.00000000000E+00  0.00000000000E+00 -0.16956364930E+04  0.20237270432E+04  0.11046664786E+04 0.  0.
        4    1    3    3  502    0  0.28037932038E+03  0.47273274470E+03 -0.74778503241E+03  0.92804788605E+03  0.12699999809E+01 0.  1.
       -4    1    3    3    0  502 -0.28037932038E+03 -0.47273274470E+03 -0.94785146055E+03  0.10956791571E+04  0.12699999809E+01 0. -1.
</event>
<event>
 5   0  0.3316784E-03  0.1007233E+04  0.7818609E-02  0.9300647E-01
       -1   -1    0    0    0  501  0.00000000000E+00  0.00000000000E+00  0.20783050739E+03  0.20783050745E+03  0.50400001928E-02 0.  1.
        1   -1    0    0  501    0  0.00000000000E+00  0.00000000000E+00 -0.12203684739E+04  0.12203684739E+04  0.50400001928E-02 0. -1.
    10030    2    1    2    0    0  0.00000000000E+00  0.00000000000E+00 -0.10125379665E+04  0.14281989813E+04  0.10072334371E+04 0.  0.
        4    1    3    3  502    0 -0.49605285237E+03  0.56632166965E+02 -0.41272183583E+03  0.64777817295E+03  0.12699999809E+01 0. -1.
       -4    1    3    3    0  502  0.49605285237E+03 -0.56632166965E+02 -0.59981613067E+03  0.78042080840E+03  0.12699999809E+01 0.  1.
</event>
<event>
 5   0  0.3241189E-03  0.1041600E+04  0.7818609E-02  0.9264059E-01
        1   -1    0    0  501    0  0.00000000000E+00  0.00000000000E+00  0.10936723927E+04  0.10936723927E+04  0.50400001928E-02 0.  1.
       -1   -1    0    0    0  501  0.00000000000E+00  0.00000000000E+00 -0.24800185196E+03  0.24800185201E+03  0.50400001928E-02 0. -1.
    10030    2    1    2    0    0  0.00000000000E+00  0.00000000000E+00  0.84567054071E+03  0.13416742447E+04  0.10416002666E+04 0.  0.
        5    1    3    3  502    0 -0.10818600211E+03 -0.40015142416E+03  0.16759468054E+02  0.41488352954E+03  0.46999998093E+01 0. -1.
       -5    1    3    3    0  502  0.10818600211E+03  0.40015142416E+03  0.82891107266E+03  0.92679071515E+03  0.46999998093E+01 0.  1.
</event>
<event>
 5   0  0.3316784E-03  0.1104577E+04  0.7818609E-02  0.9200742E-01
        1   -1    0    0  501    0  0.00000000000E+00  0.00000000000E+00  0.25334282933E+03  0.25334282938E+03  0.50400001928E-02 0.  1.
       -1   -1    0    0    0  501  0.00000000000E+00  0.00000000000E+00 -0.12039922917E+04  0.12039922917E+04  0.50400001928E-02 0. -1.
    10030    2    1    2    0    0  0.00000000000E+00  0.00000000000E+00 -0.95064946240E+03  0.14573351211E+04  0.11045774101E+04 0.  0.
        4    1    3    3  502    0 -0.23379131410E+03  0.96575357627E+02 -0.11230700012E+04  0.11512050289E+04  0.12699999809E+01 0. -1.
       -4    1    3    3    0  502  0.23379131410E+03 -0.96575357627E+02  0.17242053877E+03  0.30613009218E+03  0.12699999809E+01 0.  1.
</event>
<event>
 5   0  0.3316784E-03  0.1223458E+04  0.7818609E-02  0.9092568E-01
        1   -1    0    0  501    0  0.00000000000E+00  0.00000000000E+00  0.36289743939E+03  0.36289743943E+03  0.50400001928E-02 0.  1.
       -1   -1    0    0    0  501  0.00000000000E+00  0.00000000000E+00 -0.10311796418E+04  0.10311796419E+04  0.50400001928E-02 0. -1.
    10030    2    1    2    0    0  0.00000000000E+00  0.00000000000E+00 -0.66828220245E+03  0.13940770813E+04  0.12234581343E+04 0.  0.
        4    1    3    3  502    0  0.16563668896E+03  0.22384692431E+03 -0.95477135044E+03  0.99455160891E+03  0.12699999809E+01 0. -1.
       -4    1    3    3    0  502 -0.16563668896E+03 -0.22384692431E+03  0.28648914800E+03  0.39952547237E+03  0.12699999809E+01 0.  1.
</event>
<event>
 5   0  0.3316784E-03  0.1112339E+04  0.7818609E-02  0.9193249E-01
       -1   -1    0    0    0  501  0.00000000000E+00  0.00000000000E+00  0.20183255413E+03  0.20183255419E+03  0.50400001928E-02 0. -1.
        1   -1    0    0  501    0  0.00000000000E+00  0.00000000000E+00 -0.15325788169E+04  0.15325788169E+04  0.50400001928E-02 0.  1.
    10030    2    1    2    0    0  0.00000000000E+00  0.00000000000E+00 -0.13307462628E+04  0.17344113711E+04  0.11123386123E+04 0.  0.
        4    1    3    3  502    0  0.51828256224E+03  0.12741254582E+03 -0.90929405701E+03  0.10543567073E+04  0.12699999809E+01 0.  1.
       -4    1    3    3    0  502 -0.51828256224E+03 -0.12741254582E+03 -0.42145220575E+03  0.68005466383E+03  0.12699999809E+01 0. -1.
</event>
<event>
 5   0  0.3215352E-03  0.1072991E+04  0.7818609E-02  0.9231924E-01
        1   -1    0    0  501    0  0.00000000000E+00  0.00000000000E+00  0.10924937863E+04  0.10924937864E+04  0.50400001928E-02 0.  1.
       -1   -1    0    0    0  501  0.00000000000E+00  0.00000000000E+00 -0.26345895341E+03  0.26345895346E+03  0.50400001928E-02 0. -1.
    10030    2    1    2    0    0  0.00000000000E+00  0.00000000000E+00  0.82903483294E+03  0.13559527398E+04  0.10729907168E+04 0.  0.
        1    1    3    3  502    0 -0.19056770664E+03  0.34434866589E+03  0.87527088112E+03  0.95968284859E+03  0.50400001928E-02 0.  1.
       -1    1    3    3    0  502  0.19056770664E+03 -0.34434866589E+03 -0.46236048186E+02  0.39626989123E+03  0.50400001928E-02 0. -1.
</event>
<event>
 5   0  0.5627232E-03  0.1101487E+04  0.7818609E-02  0.9203744E-01
        2   -1    0    0  501    0  0.00000000000E+00  0.00000000000E+00  0.41276275302E+03  0.41276275303E+03  0.25500000920E-02 0. -1.
       -2   -1    0    0    0  501  0.00000000000E+00  0.00000000000E+00 -0.73484919533E+03  0.73484919533E+03  0.25500000920E-02 0.  1.
    10030    2    1    2    0    0  0.00000000000E+00  0.00000000000E+00 -0.32208644231E+03  0.11476119484E+04  0.11014869530E+04 0.  0.
        2    1    3    3  502    0  0.28758823090E+03 -0.22550584823E+03  0.26822769660E+03  0.45332766888E+03  0.25500000920E-02 0. -1.
       -2    1    3    3    0  502 -0.28758823090E+03  0.22550584823E+03 -0.59031413891E+03  0.69428427948E+03  0.25500000920E-02 0.  1.
</event>
<event>
 5   0  0.3215352E-03  0.1098986E+04  0.7818609E-02  0.9206181E-01
        1   -1    0    0  501    0  0.00000000000E+00  0.00000000000E+00  0.25096715688E+03  0.25096715693E+03  0.50400001928E-02 0. -1.
       -1   -1    0    0    0  501  0.00000000000E+00  0.00000000000E+00 -0.12031160248E+04  0.12031160248E+04  0.50400001928E-02 0.  1.
    10030    2    1    2    0    0  0.00000000000E+00  0.00000000000E+00 -0.95214886789E+03  0.14540831817E+04  0.10989860930E+04 0.  0.
        1    1    3    3  502    0 -0.52243719323E+02  0.47849495123E+03 -0.12537255268E+03  0.49739833288E+03  0.50400001928E-02 0. -1.
       -1    1    3    3    0  502  0.52243719323E+02 -0.47849495123E+03 -0.82677631521E+03  0.95668484883E+03  0.50400001928E-02 0.  1.
</event>
<event>
 5   0  0.3215352E-03  0.1106357E+04  0.7818609E-02  0.9199018E-01
        1   -1    0    0  501    0  0.00000000000E+00  0.00000000000E+00  0.13852582564E+04  0.13852582565E+04  0.50400001928E-02 0. -1.
       -1   -1    0    0    0  501  0.00000000000E+00  0.00000000000E+00 -0.22090226212E+03  0.22090226218E+03  0.50400001928E-02 0.  1.
    10030    2    1    2    0    0  0.00000000000E+00  0.00000000000E+00  0.11643559943E+04  0.16061605186E+04  0.11063574152E+04 0.  0.
        1    1    3    3  502    0  0.13083553999E+03  0.44062428327E+03  0.10290239810E+04  0.11270128886E+04  0.50400001928E-02 0. -1.
       -1    1    3    3    0  502 -0.13083553999E+03 -0.44062428327E+03  0.13533201334E+03  0.47914763006E+03  0.50400001928E-02 0.  1.
</event>
<event>
 5   0  0.5941585E-03  0.1122308E+04  0.7818609E-02  0.9183717E-01
        2   -1    0    0  501    0  0.00000000000E+00  0.00000000000E+00  0.31734300073E+03  0.31734300074E+03  0.25500000920E-02 0.  1.
       -2   -1    0    0    0  501  0.00000000000E+00  0.00000000000E+00 -0.99228293113E+03  0.99228293113E+03  0.25500000920E-02 0. -1.
    10030    2    1    2    0    0  0.00000000000E+00  0.00000000000E+00 -0.67493993040E+03  0.13096259319E+04  0.11223084121E+04 0.  0.
        5    1    3    3  502    0 -0.38462421423E+03 -0.29036829124E+03 -0.20537846042E+01  0.48195003761E+03  0.46999998093E+01 0.  1.
       -5    1    3    3    0  502  0.38462421423E+03  0.29036829124E+03 -0.67288614579E+03  0.82767589425E+03  0.46999998093E+01 0. -1.
</event>
<event>
 5   0  0.2185750E-03  0.1191118E+04  0.7818609E-02  0.9120667E-01
       -4   -1    0    0    0  501  0.00000000000E+00  0.00000000000E+00  0.49578652550E+03  0.49578815211E+03  0.12699999809E+01 0. -1.
        4   -1    0    0  501    0  0.00000000000E+00  0.00000000000E+00 -0.71540639833E+03  0.71540752560E+03  0.12699999809E+01 0.  1.
    10030    2    1    2    0    0  0.00000000000E+00  0.00000000000E+00 -0.21961987283E+03  0.12111956777E+04  0.11911179963E+04 0.  0.
        1    1    3    3  502    0  0.11818626500E+03  0.58284805866E+03 -0.14213680854E+03  0.61145950404E+03  0.50400001928E-02 0. -1.
       -1    1    3    3    0  502 -0.11818626500E+03 -0.58284805866E+03 -0.77483064288E+02  0.59973617366E+03  0.50400001928E-02 0.  1.
</event>
<event>
 5   0  0.3328741E-03  0.1098941E+04  0.7818609E-02  0.9206225E-01
        1   -1    0    0  501    0  0.00000000000E+00  0.00000000000E+00  0.10117526678E+04  0.10117526678E+04  0.50400001928E-02 0. -1.
       -1   -1    0    0    0  501  0.00000000000E+00  0.00000000000E+00 -0.29841077662E+03  0.29841077666E+03  0.50400001928E-02 0.  1.
    10030    2    1    2    0    0  0.00000000000E+00  0.00000000000E+00  0.71334189120E+03  0.13101634445E+04  0.10989411256E+04 0.  0.
        3    1    3    3  502    0  0.19825825628E+03  0.23736970570E+03 -0.18478872247E+03  0.36027433370E+03  0.10100000352E+00 0.  1.
       -3    1    3    3    0  502 -0.19825825628E+03 -0.23736970570E+03  0.89813061367E+03  0.94988911079E+03  0.10100000352E+00 0. -1.
</event>
<event>
 5   0  0.3316784E-03  0.1113557E+04  0.7818609E-02  0.9192078E-01
       -1   -1    0    0    0  501  0.00000000000E+00  0.00000000000E+00  0.53480008515E+03  0.53480008518E+03  0.50400001928E-02 0. -1.
        1   -1    0    0  501    0  0.00000000000E+00  0.00000000000E+00 -0.57966065446E+03  0.57966065449E+03  0.50400001928E-02 0.  1.
    10030    2    1    2    0    0  0.00000000000E+00  0.00000000000E+00 -0.44860569311E+02  0.11144607397E+04  0.11135574837E+04 0.  0.
        4    1    3    3  502    0 -0.86213703901E+02  0.35719167813E+03  0.39621782978E+03  0.54037845923E+03  0.12699999809E+01 0. -1.
       -4    1    3    3    0  502  0.86213703901E+02 -0.35719167813E+03 -0.44107839909E+03  0.57408228043E+03  0.12699999809E+01 0.  1.
</event>
<event>
 5   0  0.3316784E-03  0.1103168E+04  0.7818609E-02  0.9202109E-01
        1   -1    0    0  501    0  0.00000000000E+00  0.00000000000E+00  0.13477498702E+04  0.13477498702E+04  0.50400001928E-02 0.  1.
       -1   -1    0    0    0  501  0.00000000000E+00  0.00000000000E+00 -0.22574298670E+03  0.22574298675E+03  0.50400001928E-02 0. -1.
    10030    2    1    2    0    0  0.00000000000E+00  0.00000000000E+00  0.11220068835E+04  0.15734928569E+04  0.11031683118E+04 0.  0.
        4    1    3    3  502    0  0.14723513383E+02 -0.18544012052E+03  0.13016552164E+04  0.13148812629E+04  0.12699999809E+01 0.  1.
       -4    1    3    3    0  502 -0.14723513383E+02  0.18544012052E+03 -0.17964833295E+03  0.25861159405E+03  0.12699999809E+01 0. -1.
</event>
<event>
 5   0  0.5946359E-03  0.1101580E+04  0.7818609E-02  0.9203653E-01
       -2   -1    0    0    0  501  0.00000000000E+00  0.00000000000E+00  0.14835467941E+03  0.14835467943E+03  0.25500000920E-02 0. -1.
        2   -1    0    0  501    0  0.00000000000E+00  0.00000000000E+00 -0.20448944770E+04  0.20448944770E+04  0.25500000920E-02 0.  1.
    10030    2    1    2    0    0  0.00000000000E+00  0.00000000000E+00 -0.18965397976E+04  0.21932491564E+04  0.11015800735E+04 0.  0.
        4    1    3    3  502    0 -0.35722666993E+03 -0.41271033928E+03 -0.10949479621E+04  0.12234595908E+04  0.12699999809E+01 0.  1.
       -4    1    3    3    0  502  0.35722666993E+03  0.41271033928E+03 -0.80159183551E+03  0.96978956559E+03  0.12699999809E+01 0. -1.
</event>
<event>
 5   0  0.2185750E-03  0.1146738E+04  0.7818609E-02  0.9160799E-01
       -3   -1    0    0    0  501  0.00000000000E+00  0.00000000000E+00  0.50937544469E+03  0.50937545470E+03  0.10100000352E+00 0.  1.
        3   -1    0    0  501    0  0.00000000000E+00  0.00000000000E+00 -0.64540157739E+03  0.64540158529E+03  0.10100000352E+00 0. -1.
    10030    2    1    2    0    0  0.00000000000E+00  0.00000000000E+00 -0.13602613270E+03  0.11547770400E+04  0.11467375041E+04 0.  0.
        4    1    3    3  502    0  0.79958968897E+02  0.10020584222E+03 -0.63078297706E+03  0.64367959776E+03  0.12699999809E+01 0. -1.
       -4    1    3    3    0  502 -0.79958968897E+02 -0.10020584222E+03  0.49475684436E+03  0.51109744224E+03  0.12699999809E+01 0.  1.
</event>
<event>
 5   0  0.3328741E-03  0.1121264E+04  0.7818609E-02  0.9184711E-01
        1   -1    0    0  501    0  0.00000000000E+00  0.00000000000E+00  0.42101870418E+03  0.42101870421E+03  0.50400001928E-02 0.  1.
       -1   -1    0    0    0  501  0.00000000000E+00  0.00000000000E+00 -0.74654187444E+03  0.74654187446E+03  0.50400001928E-02 0. -1.
    10030    2    1    2    0    0  0.00000000000E+00  0.00000000000E+00 -0.32552317026E+03  0.11675605787E+04  0.11212637381E+04 0.  0.
        3    1    3    3  502    0 -0.52554259287E+02  0.20443298107E+03  0.37806124908E+03  0.43299551057E+03  0.10100000352E+00 0.  1.
       -3    1    3    3    0  502  0.52554259287E+02 -0.20443298107E+03 -0.70358441934E+03  0.73456506809E+03  0.10100000352E+00 0. -1.
</event>
<event>
 5   0  0.5627232E-03  0.1111282E+04  0.7818609E-02  0.9194265E-01
       -2   -1    0    0    0  501  0.00000000000E+00  0.00000000000E+00  0.14407851692E+03  0.14407851695E+03  0.25500000920E-02 0.  1.
        2   -1    0    0  501    0  0.00000000000E+00  0.00000000000E+00 -0.21428380146E+04  0.21428380146E+04  0.25500000920E-02 0. -1.
    10030    2    1    2    0    0  0.00000000000E+00  0.00000000000E+00 -0.19987594977E+04  0.22869165316E+04  0.11112820041E+04 0.  0.
        2    1    3    3  502    0 -0.18353669240E+03 -0.46692421179E+03 -0.50791871720E+03  0.71392251702E+03  0.25500000920E-02 0.  1.
       -2    1    3    3    0  502  0.18353669240E+03  0.46692421179E+03 -0.14908407805E+04  0.15729940146E+04  0.25500000920E-02 0. -1.
</event>
<event>
 5   0  0.5941585E-03  0.9039846E+03  0.7818609E-02  0.9420614E-01
        2   -1    0    0  501    0  0.00000000000E+00  0.00000000000E+00  0.27495535898E+03  0.27495535899E+03  0.25500000920E-02 0.  1.
       -2   -1    0    0    0  501  0.00000000000E+00  0.00000000000E+00 -0.74301890131E+03  0.74301890131E+03  0.25500000920E-02 0. -1.
    10030    2    1    2    0    0  0.00000000000E+00  0.00000000000E+00 -0.46806354233E+03  0.10179742603E+04  0.90398457675E+03 0.  0.
        5    1    3    3  502    0  0.37359183469E+03  0.43693490936E+02 -0.51621952683E+03  0.63873677675E+03  0.46999998093E+01 0. -1.
       -5    1    3    3    0  502 -0.37359183469E+03 -0.43693490936E+02  0.48155984503E+02  0.37923748356E+03  0.46999998093E+01 0.  1.
</event>
<event>
 5   0  0.5500363E-03  0.1140103E+04  0.7818609E-02  0.9166962E-01
        2   -1    0    0  501    0  0.00000000000E+00  0.00000000000E+00  0.54133424280E+03  0.54133424280E+03  0.25500000920E-02 0.  1.
       -2   -1    0    0    0  501  0.00000000000E+00  0.00000000000E+00 -0.60029265381E+03  0.60029265381E+03  0.25500000920E-02 0. -1.
    10030    2    1    2    0    0  0.00000000000E+00  0.00000000000E+00 -0.58958411009E+02  0.11416268966E+04  0.11401034501E+04 0.  0.
        3    1    3    3  502    0  0.46619394494E+03 -0.60614918275E+02  0.29336128138E+03  0.55414060872E+03  0.10100000352E+00 0.  1.
       -3    1    3    3    0  502 -0.46619394494E+03  0.60614918275E+02 -0.35231969239E+03  0.58748628789E+03  0.10100000352E+00 0. -1.
</event>
<event>
 5   0  0.3320192E-03  0.1035514E+04  0.7818609E-02  0.9270429E-01
       -1   -1    0    0    0  501  0.00000000000E+00  0.00000000000E+00  0.87676577500E+03  0.87676577502E+03  0.50400001928E-02 0. -1.
        1   -1    0    0  501    0  0.00000000000E+00  0.00000000000E+00 -0.30575110454E+03  0.30575110458E+03  0.50400001928E-02 0.  1.
    10030    2    1    2    0    0  0.00000000000E+00  0.00000000000E+00  0.57101467047E+03  0.11825168796E+04  0.10355136004E+04 0.  0.
        2    1    3    3  502    0  0.26628324689E+02  0.50491372389E+03  0.41279979375E+03  0.65272552116E+03  0.25500000920E-02 0.  1.
       -2    1    3    3    0  502 -0.26628324689E+02 -0.50491372389E+03  0.15821487672E+03  0.52979135844E+03  0.25500000920E-02 0. -1.
</event>
<event>
 5   0  0.5500363E-03  0.1100976E+04  0.7818609E-02  0.9204241E-01
       -2   -1    0    0    0  501  0.00000000000E+00  0.00000000000E+00  0.32616023486E+03  0.32616023487E+03  0.25500000920E-02 0. -1.
        2   -1    0    0  501    0  0.00000000000E+00  0.00000000000E+00 -0.92910537033E+03  0.92910537034E+03  0.25500000920E-02 0.  1.
    10030    2    1    2    0    0  0.00000000000E+00  0.00000000000E+00 -0.60294513547E+03  0.12552656052E+04  0.11009763409E+04 0.  0.
        3    1    3    3  502    0  0.36503497824E+03  0.31563020290E+03 -0.60347858962E+03  0.77269617487E+03  0.10100000352E+00 0.  1.
       -3    1    3    3    0  502 -0.36503497824E+03 -0.31563020290E+03  0.53345415056E+00  0.48256943034E+03  0.10100000352E+00 0. -1.
</event>
<event>
 5   0  0.3241189E-03  0.1090770E+04  0.7818609E-02  0.9214235E-01
        1   -1    0    0  501    0  0.00000000000E+00  0.00000000000E+00  0.11795059056E+04  0.11795059057E+04  0.50400001928E-02 0. -1.
       -1   -1    0    0    0  501  0.00000000000E+00  0.00000000000E+00 -0.25217768100E+03  0.25217768105E+03  0.50400001928E-02 0.  1.
    10030    2    1    2    0    0  0.00000000000E+00  0.00000000000E+00  0.92732822465E+03  0.14316835867E+04  0.10907704874E+04 0.  0.
        5    1    3    3  502    0 -0.24212183783E+03  0.43189335703E+03  0.76374068996E+03  0.91020700266E+03  0.46999998093E+01 0. -1.
       -5    1    3    3    0  502  0.24212183783E+03 -0.43189335703E+03  0.16358753469E+03  0.52147658404E+03  0.46999998093E+01 0.  1.
</event>
<event>
 5   0  0.3328741E-03  0.1103868E+04  0.7818609E-02  0.9201430E-01
       -1   -1    0    0    0  501  0.00000000000E+00  0.00000000000E+00  0.17809679207E+03  0.17809679215E+03  0.50400001928E-02 0.  1.
        1   -1    0    0  501    0  0.00000000000E+00  0.00000000000E+00 -0.17104818891E+04  0.17104818891E+04  0.50400001928E-02 0. -1.
    10030    2    1    2    0    0  0.00000000000E+00  0.00000000000E+00 -0.15323850971E+04  0.18885786813E+04  0.11038683571E+04 0.  0.
        3    1    3    3  502    0 -0.38876786603E+03  0.35805190507E+03 -0.49411688544E+03  0.72352824897E+03  0.10100000352E+00 0.  1.
       -3    1    3    3    0  502  0.38876786603E+03 -0.35805190507E+03 -0.10382682116E+04  0.11650504323E+04  0.10100000352E+00 0. -1.
</event>
<event>
 5   0  0.3316784E-03  0.1100332E+04  0.7818609E-02  0.9204868E-01
       -1   -1    0    0    0  501  0.00000000000E+00  0.00000000000E+00  0.21065809934E+03  0.21065809940E+03  0.50400001928E-02 0. -1.
        1   -1    0    0  501    0  0.00000000000E+00  0.00000000000E+00 -0.14368438526E+04  0.14368438526E+04  0.50400001928E-02 0.  1.
    10030    2    1    2    0    0  0.00000000000E+00  0.00000000000E+00 -0.12261857533E+04  0.16475019520E+04  0.11003323045E+04 0.  0.
        4    1    3    3  502    0  0.31286098121E+03 -0.41097891792E+03 -0.89676860898E+03  0.10348822230E+04  0.12699999809E+01 0.  1.
       -4    1    3    3    0  502 -0.31286098121E+03  0.41097891792E+03 -0.32941714430E+03  0.61261972903E+03  0.12699999809E+01 0. -1.
</event>
<event>
 5   0  0.5946359E-03  0.1135853E+04  0.7818609E-02  0.9170935E-01
        2   -1    0    0  501    0  0.00000000000E+00  0.00000000000E+00  0.90290155182E+03  0.90290155182E+03  0.25500000920E-02 0. -1.
       -2   -1    0    0    0  501  0.00000000000E+00  0.00000000000E+00 -0.35722678614E+03  0.35722678615E+03  0.25500000920E-02 0.  1.
    10030    2    1    2    0    0  0.00000000000E+00  0.00000000000E+00  0.54567476567E+03  0.12601283380E+04  0.11358531940E+04 0.  0.
        4    1    3    3  502    0  0.52786101979E+03  0.72903547984E+02  0.49076490795E+03  0.72443356583E+03  0.12699999809E+01 0. -1.
       -4    1    3    3    0  502 -0.52786101979E+03 -0.72903547984E+02  0.54909857721E+02  0.53569477214E+03  0.12699999809E+01 0.  1.
</event>
<event>
 5   0  0.3316784E-03  0.1102714E+04  0.7818609E-02  0.9202550E-01
       -1   -1    0    0    0  501  0.00000000000E+00  0.00000000000E+00  0.13385487246E+03  0.13385487256E+03  0.50400001928E-02 0. -1.
        1   -1    0    0  501    0  0.00000000000E+00  0.00000000000E+00 -0.22710765958E+04  0.22710765958E+04  0.50400001928E-02 0.  1.
    10030    2    1    2    0    0  0.00000000000E+00  0.00000000000E+00 -0.21372217234E+04  0.24049314684E+04  0.11027142299E+04 0.  0.
        4    1    3    3  502    0 -0.99278005764E+02 -0.44849607645E+03 -0.40356185058E+03  0.61144798075E+03  0.12699999809E+01 0. -1.
       -4    1    3    3    0  502  0.99278005764E+02  0.44849607645E+03 -0.17336598728E+04  0.17934834876E+04  0.12699999809E+01 0.  1.
</event>
<event>
 5   0  0.2185750E-03  0.1081653E+04  0.7818609E-02  0.9223261E-01
        4   -1    0    0  501    0  0.00000000000E+00  0.00000000000E+00  0.77606833184E+03  0.77606937098E+03  0.12699999809E+01 0.  1.
       -4   -1    0    0    0  501  0.00000000000E+00  0.00000000000E+00 -0.37688866831E+03  0.37689080806E+03  0.12699999809E+01 0. -1.
    10030    2    1    2    0    0  0.00000000000E+00  0.00000000000E+00  0.39917966353E+03  0.11529601790E+04  0.10816527958E+04 0.  0.
        4    1    3    3  502    0  0.33346786301E+03  0.13473982342E+03 -0.23093802883E+03  0.42742206510E+03  0.12699999809E+01 0. -1.
       -4    1    3    3    0  502 -0.33346786301E+03 -0.13473982342E+03  0.63011769235E+03  0.72553811395E+03  0.12699999809E+01 0.  1.
</event>
<event>
 5   0  0.3328741E-03  0.1093646E+04  0.7818609E-02  0.9211407E-01
       -1   -1    0    0    0  501  0.00000000000E+00  0.00000000000E+00  0.13213584325E+04  0.13213584325E+04  0.50400001928E-02 0.  1.
        1   -1    0    0  501    0  0.00000000000E+00  0.00000000000E+00 -0.22629397653E+03  0.22629397658E+03  0.50400001928E-02 0. -1.
    10030    2    1    2    0    0  0.00000000000E+00  0.00000000000E+00  0.10950644560E+04  0.15476524091E+04  0.10936461113E+04 0.  0.
        3    1    3    3  502    0 -0.18447387660E+03  0.48761117119E+02 -0.17765461855E+03  0.26070947697E+03  0.10100000352E+00 0. -1.
       -3    1    3    3    0  502  0.18447387660E+03 -0.48761117119E+02  0.12727190746E+04  0.12869429322E+04  0.10100000352E+00 0.  1.
</event>
<event>
 5   0  0.5627232E-03  0.1101922E+04  0.7818609E-02  0.9203320E-01
        2   -1    0    0  501    0  0.00000000000E+00  0.00000000000E+00  0.10158549904E+04  0.10158549904E+04  0.25500000920E-02 0.  1.
       -2   -1    0    0    0  501  0.00000000000E+00  0.00000000000E+00 -0.29882046874E+03  0.29882046875E+03  0.25500000920E-02 0. -1.
    10030    2    1    2    0    0  0.00000000000E+00  0.00000000000E+00  0.71703452162E+03  0.13146754591E+04  0.11019224372E+04 0.  0.
        2    1    3    3  502    0  0.36836877306E+03  0.66682063826E+02  0.84081486205E+03  0.92038670289E+03  0.25500000920E-02 0.  1.
       -2    1    3    3    0  502 -0.36836877306E+03 -0.66682063826E+02 -0.12378034044E+03  0.39428875623E+03  0.25500000920E-02 0. -1.
</event>
<event>
 5   0  0.5946359E-03  0.1102904E+04  0.7818609E-02  0.9202366E-01
       -2   -1    0    0    0  501  0.00000000000E+00  0.00000000000E+00  0.18778420447E+03  0.18778420448E+03  0.25500000920E-02 0. -1.
        2   -1    0    0  501    0  0.00000000000E+00  0.00000000000E+00 -0.16194074618E+04  0.16194074618E+04  0.25500000920E-02 0.  1.
    10030    2    1    2    0    0  0.00000000000E+00  0.00000000000E+00 -0.14316232573E+04  0.18071916662E+04  0.11029036983E+04 0.  0.
        4    1    3    3  502    0 -0.10651411759E+02 -0.19557404788E+03  0.12886580958E+03  0.23445824907E+03  0.12699999809E+01 0. -1.
       -4    1    3    3    0  502  0.10651411759E+02  0.19557404788E+03 -0.15604890669E+04  0.15727334172E+04  0.12699999809E+01 0.  1.
</event>
<event>
 5   0  0.5627232E-03  0.1104994E+04  0.7818609E-02  0.9200338E-01
        2   -1    0    0  501    0  0.00000000000E+00  0.00000000000E+00  0.91545552046E+03  0.91545552046E+03  0.25500000920E-02 0. -1.
       -2   -1    0    0    0  501  0.00000000000E+00  0.00000000000E+00 -0.33344375796E+03  0.33344375797E+03  0.25500000920E-02 0.  1.
    10030    2    1    2    0    0  0.00000000000E+00  0.00000000000E+00  0.58201176250E+03  0.12488992784E+04  0.11049939891E+04 0.  0.
        2    1    3    3  502    0  0.31339850585E+03  0.26314683777E+03 -0.12853402018E+03  0.42893574816E+03  0.25500000920E-02 0.  1.
       -2    1    3    3    0  502 -0.31339850585E+03 -0.26314683777E+03  0.71054578268E+03  0.81996353028E+03  0.25500000920E-02 0. -1.
</event>
<event>
 5   0  0.3316784E-03  0.1104893E+04  0.7818609E-02  0.9200436E-01
       -1   -1    0    0    0  501  0.00000000000E+00  0.00000000000E+00  0.39776076805E+03  0.39776076808E+03  0.50400001928E-02 0.  1.
        1   -1    0    0  501    0  0.00000000000E+00  0.00000000000E+00 -0.76728803115E+03  0.76728803117E+03  0.50400001928E-02 0. -1.
    10030    2    1    2    0    0  0.00000000000E+00  0.00000000000E+00 -0.36952726311E+03  0.11650487992E+04  0.11048928937E+04 0.  0.
        4    1    3    3  502    0 -0.23922158412E+03 -0.35798064640E+03 -0.54975753570E+03  0.69829225290E+03  0.12699999809E+01 0. -1.
       -4    1    3    3    0  502  0.23922158412E+03  0.35798064640E+03  0.18023027259E+03  0.46675654635E+03  0.12699999809E+01 0.  1.
</event>
<event>
 5   0  0.5941585E-03  0.1088453E+04  0.7818609E-02  0.9216520E-01
       -2   -1    0    0    0  501  0.00000000000E+00  0.00000000000E+00  0.35058043860E+03  0.35058043861E+03  0.25500000920E-02 0.  1.
        2   -1    0    0  501    0  0.00000000000E+00  0.00000000000E+00 -0.84483425734E+03  0.84483425735E+03  0.25500000920E-02 0. -1.
    10030    2    1    2    0    0  0.00000000000E+00  0.00000000000E+00 -0.49425381874E+03  0.11954146960E+04  0.10884527817E+04 0.  0.
        5    1    3    3  502    0  0.33002856992E+03  0.43248721108E+03 -0.26251169508E+03  0.60406831134E+03  0.46999998093E+01 0. -1.
       -5    1    3    3    0  502 -0.33002856992E+03 -0.43248721108E+03 -0.23174212366E+03  0.59134638461E+03  0.46999998093E+01 0.  1.
</event>
<event>
 5   0  0.3320192E-03  0.1066782E+04  0.7818609E-02  0.9238187E-01
        1   -1    0    0  501    0  0.00000000000E+00  0.00000000000E+00  0.76365020099E+03  0.76365020101E+03  0.50400001928E-02 0. -1.
       -1   -1    0    0    0  501  0.00000000000E+00  0.00000000000E+00 -0.37256048950E+03  0.37256048954E+03  0.50400001928E-02 0.  1.
    10030    2    1    2    0    0  0.00000000000E+00  0.00000000000E+00  0.39108971149E+03  0.11362106905E+04  0.10667818760E+04 0.  0.
        2    1    3    3  502    0 -0.36047448011E+02 -0.34002309160E+03 -0.24047703368E+03  0.41802431157E+03  0.25500000920E-02 0.  1.
       -2    1    3    3    0  502  0.36047448011E+02  0.34002309160E+03  0.63156674517E+03  0.71818637897E+03  0.25500000920E-02 0. -1.
</event>
<event>
 5   0  0.3215352E-03  0.9536995E+03  0.7818609E-02  0.9360837E-01
       -1   -1    0    0    0  501  0.00000000000E+00  0.00000000000E+00  0.48829422062E+03  0.48829422065E+03  0.50400001928E-02 0.  1.
        1   -1    0    0  501    0  0.00000000000E+00  0.00000000000E+00 -0.46567351711E+03  0.46567351714E+03  0.50400001928E-02 0. -1.
    10030    2    1    2    0    0  0.00000000000E+00  0.00000000000E+00  0.22620703510E+02  0.95396773778E+03  0.95369950640E+03 0.  0.
        1    1    3    3  502    0  0.31770065260E+02  0.36885949766E+03  0.31192610862E+03  0.48411213921E+03  0.50400001928E-02 0.  1.
       -1    1    3    3    0  502 -0.31770065260E+02 -0.36885949766E+03 -0.28930540511E+03  0.46985559858E+03  0.50400001928E-02 0. -1.
</event>
<event>
 5   0  0.3241189E-03  0.1093800E+04  0.7818609E-02  0.9211256E-01
       -1   -1    0    0    0  501  0.00000000000E+00  0.00000000000E+00  0.10126114690E+04  0.10126114690E+04  0.50400001928E-02 0.  1.
        1   -1    0    0  501    0  0.00000000000E+00  0.00000000000E+00 -0.29537452151E+03  0.29537452156E+03  0.50400001928E-02 0. -1.
    10030    2    1    2    0    0  0.00000000000E+00  0.00000000000E+00  0.71723694748E+03  0.13079859906E+04  0.10938000332E+04 0.  0.
        5    1    3    3  502    0  0.48158122479E+03 -0.16600169894E+02  0.49362461776E+02  0.48441179211E+03  0.46999998093E+01 0. -1.
       -5    1    3    3    0  502 -0.48158122479E+03  0.16600169894E+02  0.66787448571E+03  0.82357419845E+03  0.46999998093E+01 0.  1.
</event>
<event>
 5   0  0.3316784E-03  0.1094323E+04  0.7818609E-02  0.9210742E-01
       -1   -1    0    0    0  501  0.00000000000E+00  0.00000000000E+00  0.72131290906E+03  0.72131290908E+03  0.50400001928E-02 0.  1.
        1   -1    0    0  501    0  0.00000000000E+00  0.00000000000E+00 -0.41505686381E+03  0.41505686384E+03  0.50400001928E-02 0. -1.
    10030    2    1    2    0    0  0.00000000000E+00  0.00000000000E+00  0.30625604525E+03  0.11363697729E+04  0.10943233049E+04 0.  0.
        4    1    3    3  502    0 -0.26199415215E+03 -0.39208438530E+03 -0.13504710684E+03  0.49052057543E+03  0.12699999809E+01 0. -1.
       -4    1    3    3    0  502  0.26199415215E+03  0.39208438530E+03  0.44130315208E+03  0.64584919749E+03  0.12699999809E+01 0.  1.
</event>
<event>
 5   0  0.5723194E-03  0.1096363E+04  0.7818609E-02  0.9208744E-01
        2   -1    0    0  501    0  0.00000000000E+00  0.00000000000E+00  0.70286589938E+03  0.70286589939E+03  0.25500000920E-02 0. -1.
       -2   -1    0    0    0  501  0.00000000000E+00  0.00000000000E+00 -0.42753964994E+03  0.42753964994E+03  0.25500000920E-02 0.  1.
    10030    2    1    2    0    0  0.00000000000E+00  0.00000000000E+00  0.27532624945E+03  0.11304055493E+04  0.10963631526E+04 0.  0.
        1    1    3    3  502    0  0.48296863285E+03  0.13179989247E+03 -0.92594041884E+02  0.50912038713E+03  0.50400001928E-02 0.  1.
       -1    1    3    3    0  502 -0.48296863285E+03 -0.13179989247E+03  0.36792029133E+03  0.62128516220E+03  0.50400001928E-02 0. -1.
</event>
<event>
 5   0  0.3215352E-03  0.1100917E+04  0.7818609E-02  0.9204298E-01
       -1   -1    0    0    0  501  0.00000000000E+00  0.00000000000E+00  0.59744193707E+03  0.59744193709E+03  0.50400001928E-02 0. -1.
        1   -1    0    0  501    0  0.00000000000E+00  0.00000000000E+00 -0.50716995156E+03  0.50716995159E+03  0.50400001928E-02 0.  1.
    10030    2    1    2    0    0  0.00000000000E+00  0.00000000000E+00  0.90271985507E+02  0.11046118887E+04  0.11009170692E+04 0.  0.
        1    1    3    3  502    0  0.28915330276E+03  0.10616412230E+03  0.50287333232E+03  0.58971352514E+03  0.50400001928E-02 0. -1.
       -1    1    3    3    0  502 -0.28915330276E+03 -0.10616412230E+03 -0.41260134681E+03  0.51489836354E+03  0.50400001928E-02 0.  1.
</event>
<event>
 5   0  0.5500363E-03  0.1084629E+04  0.7818609E-02  0.9220304E-01
       -2   -1    0    0    0  501  0.00000000000E+00  0.00000000000E+00  0.48332020195E+03  0.48332020196E+03  0.25500000920E-02 0.  1.
        2   -1    0    0  501    0  0.00000000000E+00  0.00000000000E+00 -0.60850981917E+03  0.60850981917E+03  0.25500000920E-02 0. -1.
    10030    2    1    2    0    0  0.00000000000E+00  0.00000000000E+00 -0.12518961722E+03  0.10918300211E+04  0.10846291324E+04 0.  0.
        3    1    3    3  502    0 -0.14620819438E+03 -0.35191393296E+03  0.32582286752E+03  0.50137890214E+03  0.10100000352E+00 0.  1.
       -3    1    3    3    0  502  0.14620819438E+03  0.35191393296E+03 -0.45101248474E+03  0.59045111898E+03  0.10100000352E+00 0. -1.
</event>
<event>
 5   0  0.5723194E-03  0.1115548E+04  0.7818609E-02  0.9190169E-01
       -2   -1    0    0    0  501  0.00000000000E+00  0.00000000000E+00  0.28041497049E+03  0.28041497050E+03  0.25500000920E-02 0. -1.
        2   -1    0    0  501    0  0.00000000000E+00  0.00000000000E+00 -0.11094689559E+04  0.11094689559E+04  0.25500000920E-02 0.  1.
    10030    2    1    2    0    0  0.00000000000E+00  0.00000000000E+00 -0.82905398538E+03  0.13898839264E+04  0.11155477660E+04 0.  0.
        1    1    3    3  502    0 -0.71262150570E+01  0.11285927843E+03 -0.10950365729E+04  0.11008601617E+04  0.50400001928E-02 0.  1.
       -1    1    3    3    0  502  0.71262150570E+01 -0.11285927843E+03  0.26598258749E+03  0.28902376467E+03  0.50400001928E-02 0. -1.
</event>
<event>
 5   0  0.5723194E-03  0.1042675E+04  0.7818609E-02  0.9262940E-01
       -2   -1    0    0    0  501  0.00000000000E+00  0.00000000000E+00  0.33963181778E+03  0.33963181779E+03  0.25500000920E-02 0.  1.
        2   -1    0    0  501    0  0.00000000000E+00  0.00000000000E+00 -0.80025664414E+03  0.80025664414E+03  0.25500000920E-02 0. -1.
    10030    2    1    2    0    0  0.00000000000E+00  0.00000000000E+00 -0.46062482635E+03  0.11398884619E+04  0.10426746736E+04 0.  0.
        1    1    3    3  502    0 -0.30353148623E+03  0.12686646861E+03 -0.67245286934E+03  0.74861159856E+03  0.50400001928E-02 0. -1.
       -1    1    3    3    0  502  0.30353148623E+03 -0.12686646861E+03  0.21182804298E+03  0.39127686337E+03  0.50400001928E-02 0.  1.
</event>
<event>
 5   0  0.5941585E-03  0.1111633E+04  0.7818609E-02  0.9193927E-01
       -2   -1    0    0    0  501  0.00000000000E+00  0.00000000000E+00  0.44351183036E+03  0.44351183036E+03  0.25500000920E-02 0.  1.
        2   -1    0    0  501    0  0.00000000000E+00  0.00000000000E+00 -0.69655838545E+03  0.69655838545E+03  0.25500000920E-02 0. -1.
    10030    2    1    2    0    0  0.00000000000E+00  0.00000000000E+00 -0.25304655509E+03  0.11400702158E+04  0.11116328251E+04 0.  0.
        5    1    3    3  502    0  0.28225261786E+03 -0.43120025962E+03  0.86910069583E+02  0.52266208431E+03  0.46999998093E+01 0.  1.
       -5    1    3    3    0  502 -0.28225261786E+03  0.43120025962E+03 -0.33995662467E+03  0.61740813150E+03  0.46999998093E+01 0. -1.
</event>
<event>
 5   0  0.3241189E-03  0.1074433E+04  0.7818609E-02  0.9230476E-01
       -1   -1    0    0    0  501  0.00000000000E+00  0.00000000000E+00  0.42746392952E+03  0.42746392955E+03  0.50400001928E-02 0.  1.
        1   -1    0    0  501    0  0.00000000000E+00  0.00000000000E+00 -0.67514853205E+03  0.67514853207E+03  0.50400001928E-02 0. -1.
    10030    2    1    2    0    0  0.00000000000E+00  0.00000000000E+00 -0.24768460253E+03  0.11026124616E+04  0.10744331427E+04 0.  0.
        5    1    3    3  502    0  0.13366980985E+03  0.19774908966E+03  0.37003556153E+03  0.44036431204E+03  0.46999998093E+01 0.  1.
       -5    1    3    3    0  502 -0.13366980985E+03 -0.19774908966E+03 -0.61772016406E+03  0.66224814958E+03  0.46999998093E+01 0. -1.
</event>
<event>
 5   0  0.5500363E-03  0.1098716E+04  0.7818609E-02  0.9206445E-01
       -2   -1    0    0    0  501  0.00000000000E+00  0.00000000000E+00  0.65941550786E+03  0.65941550786E+03  0.25500000920E-02 0.  1.
        2   -1    0    0  501    0  0.00000000000E+00  0.00000000000E+00 -0.45766894325E+03  0.45766894326E+03  0.25500000920E-02 0. -1.
    10030    2    1    2    0    0  0.00000000000E+00  0.00000000000E+00  0.20174656460E+03  0.11170844511E+04  0.10987156113E+04 0.  0.
        3    1    3    3  502    0 -0.95963407041E+02  0.26093942090E+03  0.58260435349E+03  0.64554333687E+03  0.10100000352E+00 0.  1.
       -3    1    3    3    0  502  0.95963407041E+02 -0.26093942090E+03 -0.38085778889E+03  0.47154111425E+03  0.10100000352E+00 0. -1.
</event>
<event>
 5   0  0.3320192E-03  0.1098474E+04  0.7818609E-02  0.9206680E-01
       -1   -1    0    0    0  501  0.00000000000E+00  0.00000000000E+00  0.55364243641E+03  0.55364243643E+03  0.50400001928E-02 0. -1.
        1   -1    0    0  501    0  0.00000000000E+00  0.00000000000E+00 -0.54486710007E+03  0.54486710010E+03  0.50400001928E-02 0.  1.
    10030    2    1    2    0    0  0.00000000000E+00  0.00000000000E+00  0.87753363346E+01  0.10985095365E+04  0.10984744855E+04 0.  0.
        2    1    3    3  502    0  0.23702285075E+03  0.70743325465E+02  0.49478795964E+03  0.55317228318E+03  0.25500000920E-02 0. -1.
       -2    1    3    3    0  502 -0.23702285075E+03 -0.70743325465E+02 -0.48601262330E+03  0.54533725335E+03  0.25500000920E-02 0.  1.
</event>
<event>
 5   0  0.3215352E-03  0.1074667E+04  0.7818609E-02  0.9230241E-01
       -1   -1    0    0    0  501  0.00000000000E+00  0.00000000000E+00  0.25827711040E+03  0.25827711045E+03  0.50400001928E-02 0.  1.
        1   -1    0    0  501    0  0.00000000000E+00  0.00000000000E+00 -0.11178964042E+04  0.11178964042E+04  0.50400001928E-02 0. -1.
    10030    2    1    2    0    0  0.00000000000E+00  0.00000000000E+00 -0.85961929380E+03  0.13761735147E+04  0.10746665586E+04 0.  0.
        1    1    3    3  502    0 -0.22561506767E+02  0.38013474593E+03  0.55648089340E+02  0.38484822531E+03  0.50400001928E-02 0.  1.
       -1    1    3    3    0  502  0.22561506767E+02 -0.38013474593E+03 -0.91526738314E+03  0.99132528935E+03  0.50400001928E-02 0. -1.
</event>
<event>
 5   0  0.3328741E-03  0.1096358E+04  0.7818609E-02  0.9208748E-01
        1   -1    0    0  501    0  0.00000000000E+00  0.00000000000E+00  0.75364634922E+03  0.75364634923E+03  0.50400001928E-02 0. -1.
       -1   -1    0    0    0  501  0.00000000000E+00  0.00000000000E+00 -0.39872877057E+03  0.39872877060E+03  0.50400001928E-02 0.  1.
    10030    2    1    2    0    0  0.00000000000E+00  0.00000000000E+00  0.35491757865E+03  0.11523751198E+04  0.10963584857E+04 0.  0.
        3    1    3    3  502    0 -0.47487236347E+03  0.27219233110E+03  0.20913221748E+03  0.58594259214E+03  0.10100000352E+00 0. -1.
       -3    1    3    3    0  502  0.47487236347E+03 -0.27219233110E+03  0.14578536117E+03  0.56643252769E+03  0.10100000352E+00 0.  1.
</event>
<event>
 5   0  0.3328741E-03  0.1101653E+04  0.7818609E-02  0.9203583E-01
        1   -1    0    0  501    0  0.00000000000E+00  0.00000000000E+00  0.17069918218E+04  0.17069918218E+04  0.50400001928E-02 0. -1.
       -1   -1    0    0    0  501  0.00000000000E+00  0.00000000000E+00 -0.17774519505E+03  0.17774519512E+03  0.50400001928E-02 0.  1.
    10030    2    1    2    0    0  0.00000000000E+00  0.00000000000E+00  0.15292466268E+04  0.18847370169E+04  0.11016525666E+04 0.  0.
        3    1    3    3  502    0  0.24751423902E+03  0.25674374444E+03  0.46424441667E+02  0.35963299044E+03  0.10100000352E+00 0.  1.
       -3    1    3    3    0  502 -0.24751423902E+03 -0.25674374444E+03  0.14828221851E+04  0.15251040265E+04  0.10100000352E+00 0. -1.
</event>
<event>
 5   0  0.5627232E-03  0.1142996E+04  0.7818609E-02  0.9164270E-01
        2   -1    0    0  501    0  0.00000000000E+00  0.00000000000E+00  0.11932283203E+04  0.11932283203E+04  0.25500000920E-02 0.  1.
       -2   -1    0    0    0  501  0.00000000000E+00  0.00000000000E+00 -0.27371936277E+03  0.27371936279E+03  0.25500000920E-02 0. -1.
    10030    2    1    2    0    0  0.00000000000E+00  0.00000000000E+00  0.91950895754E+03  0.14669476831E+04  0.11429955302E+04 0.  0.
        2    1    3    3  502    0  0.39509496927E+02  0.32250650672E+03  0.10631523985E+04  0.11116944138E+04  0.25500000920E-02 0.  1.
       -2    1    3    3    0  502 -0.39509496927E+02 -0.32250650672E+03 -0.14364344095E+03  0.35525326932E+03  0.25500000920E-02 0. -1.
</event>
<event>
 5   0  0.3241189E-03  0.1065274E+04  0.7818609E-02  0.9239715E-01
       -1   -1    0    0    0  501  0.00000000000E+00  0.00000000000E+00  0.52139684912E+03  0.52139684915E+03  0.50400001928E-02 0. -1.
        1   -1    0    0  501    0  0.00000000000E+00  0.00000000000E+00 -0.54411920431E+03  0.54411920433E+03  0.50400001928E-02 0.  1.
    10030    2    1    2    0    0  0.00000000000E+00  0.00000000000E+00 -0.22722355189E+02  0.10655160535E+04  0.10652737464E+04 0.  0.
        5    1    3    3  502    0  0.91572973354E+01 -0.37753641789E+03 -0.38702928261E+03  0.54076922853E+03  0.46999998093E+01 0.  1.
       -5    1    3    3    0  502 -0.91572973354E+01  0.37753641789E+03  0.36430692742E+03  0.52474682495E+03  0.46999998093E+01 0. -1.
</event>
<event>
 5   0  0.5941585E-03  0.1099700E+04  0.7818609E-02  0.9205484E-01
       -2   -1    0    0    0  501  0.00000000000E+00  0.00000000000E+00  0.64191709405E+03  0.64191709406E+03  0.25500000920E-02 0.  1.
        2   -1    0    0  501    0  0.00000000000E+00  0.00000000000E+00 -0.47098765992E+03  0.47098765993E+03  0.25500000920E-02 0. -1.
    10030    2    1    2    0    0  0.00000000000E+00  0.00000000000E+00  0.17092943413E+03  0.11129047540E+04  0.10997000136E+04 0.  0.
        5    1    3    3  502    0  0.16914632593E+03  0.32503844009E+03 -0.32939973240E+03  0.49273394526E+03  0.46999998093E+01 0. -1.
       -5    1    3    3    0  502 -0.16914632593E+03 -0.32503844009E+03  0.50032916653E+03  0.62017080872E+03  0.46999998093E+01 0.  1.
</event>
<event>
 5   0  0.3320192E-03  0.1085155E+04  0.7818609E-02  0.9219783E-01
        1   -1    0    0  501    0  0.00000000000E+00  0.00000000000E+00  0.31894656074E+03  0.31894656078E+03  0.50400001928E-02 0. -1.
       -1   -1    0    0    0  501  0.00000000000E+00  0.00000000000E+00 -0.92300791470E+03  0.92300791471E+03  0.50400001928E-02 0.  1.
    10030    2    1    2    0    0  0.00000000000E+00  0.00000000000E+00 -0.60406135395E+03  0.12419544755E+04  0.10851547354E+04 0.  0.
        2    1    3    3  502    0 -0.37452450059E+03 -0.12431949972E+03 -0.72821690209E+03  0.82826553475E+03  0.25500000920E-02 0.  1.
       -2    1    3    3    0  502  0.37452450059E+03  0.12431949972E+03  0.12415554814E+03  0.41368894074E+03  0.25500000920E-02 0. -1.
</event>
<event>
 5   0  0.2185750E-03  0.1102988E+04  0.7818609E-02  0.9202285E-01
       -4   -1    0    0    0  501  0.00000000000E+00  0.00000000000E+00  0.10630936553E+04  0.10630944139E+04  0.12699999809E+01 0.  1.
        4   -1    0    0  501    0  0.00000000000E+00  0.00000000000E+00 -0.28609244769E+03  0.28609526652E+03  0.12699999809E+01 0. -1.
    10030    2    1    2    0    0  0.00000000000E+00  0.00000000000E+00  0.77700120758E+03  0.13491896804E+04  0.11029877230E+04 0.  0.
        3    1    3    3  502    0  0.26687452994E+02 -0.40264911381E+03  0.84831660287E+03  0.93940385240E+03  0.10100000352E+00 0.  1.
       -3    1    3    3    0  502 -0.26687452994E+02  0.40264911381E+03 -0.71315395293E+02  0.40978582797E+03  0.10100000352E+00 0. -1.
</event>
<event>
 5   0  0.3215352E-03  0.1087234E+04  0.7818609E-02  0.9217724E-01
        1   -1    0    0  501    0  0.00000000000E+00  0.00000000000E+00  0.81471306955E+03  0.81471306957E+03  0.50400001928E-02 0. -1.
       -1   -1    0    0    0  501  0.00000000000E+00  0.00000000000E+00 -0.36272853930E+03  0.36272853934E+03  0.50400001928E-02 0.  1.
    10030    2    1    2    0    0  0.00000000000E+00  0.00000000000E+00  0.45198453025E+03  0.11774416089E+04  0.10872344397E+04 0.  0.
        1    1    3    3  502    0  0.52709436313E+03  0.72636828671E+02  0.10532446941E+03  0.54240005568E+03  0.50400001928E-02 0.  1.
       -1    1    3    3    0  502 -0.52709436313E+03 -0.72636828671E+02  0.34666006084E+03  0.63504155323E+03  0.50400001928E-02 0. -1.
</event>
<event>
 5   0  0.3320192E-03  0.1095148E+04  0.7818609E-02  0.9209934E-01
       -1   -1    0    0    0  501  0.00000000000E+00  0.00000000000E+00  0.27455364145E+03  0.27455364150E+03  0.50400001928E-02 0. -1.
        1   -1    0    0  501    0  0.00000000000E+00  0.00000000000E+00 -0.10920893670E+04  0.10920893670E+04  0.50400001928E-02 0.  1.
    10030    2    1    2    0    0  0.00000000000E+00  0.00000000000E+00 -0.81753572557E+03  0.13666430085E+04  0.10951476842E+04 0.  0.
        2    1    3    3  502    0  0.42114027824E+02 -0.32222394761E+03 -0.95874725647E+03  0.10123231527E+04  0.25500000920E-02 0.  1.
       -2    1    3    3    0  502 -0.42114027824E+02  0.32222394761E+03  0.14121153090E+03  0.35431985580E+03  0.25500000920E-02 0. -1.
</event>
<event>
 5   0  0.5723194E-03  0.1101826E+04  0.7818609E-02  0.9203414E-01
        2   -1    0    0  501    0  0.00000000000E+00  0.00000000000E+00  0.57745702492E+03  0.57745702492E+03  0.25500000920E-02 0.  1.
       -2   -1    0    0    0  501  0.00000000000E+00  0.00000000000E+00 -0.52558913657E+03  0.52558913658E+03  0.25500000920E-02 0. -1.
    10030    2    1    2    0    0  0.00000000000E+00  0.00000000000E+00  0.51867888346E+02  0.11030461615E+04  0.11018260101E+04 0.  0.
        1    1    3    3  502    0 -0.43115729725E+03 -0.51241958156E+02  0.36540056772E+03  0.56748561935E+03  0.50400001928E-02 0. -1.
       -1    1    3    3    0  502  0.43115729725E+03  0.51241958156E+02 -0.31353267938E+03  0.53556054215E+03  0.50400001928E-02 0.  1.
</event>
<event>
 5   0  0.5723194E-03  0.1094145E+04  0.7818609E-02  0.9210917E-01
       -2   -1    0    0    0  501  0.00000000000E+00  0.00000000000E+00  0.12343449324E+03  0.12343449327E+03  0.25500000920E-02 0. -1.
        2   -1    0    0  501    0  0.00000000000E+00  0.00000000000E+00 -0.24246736358E+04  0.24246736358E+04  0.25500000920E-02 0.  1.
    10030    2    1    2    0    0  0.00000000000E+00  0.00000000000E+00 -0.23012391426E+04  0.25481081291E+04  0.10941450755E+04 0.  0.
        1    1    3    3  502    0 -0.32464791506E+02 -0.53407627543E+03 -0.88512029134E+03  0.10342772166E+04  0.50400001928E-02 0.  1.
       -1    1    3    3    0  502  0.32464791506E+02  0.53407627543E+03 -0.14161188513E+04  0.15138309125E+04  0.50400001928E-02 0. -1.
</event>
<event>
 5   0  0.2185750E-03  0.1275766E+04  0.7818609E-02  0.9049007E-01
       -3   -1    0    0    0  501  0.00000000000E+00  0.00000000000E+00  0.12983121805E+04  0.12983121844E+04  0.10100000352E+00 0. -1.
        3   -1    0    0  501    0  0.00000000000E+00  0.00000000000E+00 -0.31340292133E+03  0.31340293761E+03  0.10100000352E+00 0.  1.
    10030    2    1    2    0    0  0.00000000000E+00  0.00000000000E+00  0.98490925917E+03  0.16117151220E+04  0.12757661956E+04 0.  0.
        4    1    3    3  502    0 -0.24295594066E+02  0.32130190399E+03  0.11879388222E+04  0.12308636999E+04  0.12699999809E+01 0. -1.
       -4    1    3    3    0  502  0.24295594066E+02 -0.32130190399E+03 -0.20302956306E+03  0.38085142217E+03  0.12699999809E+01 0.  1.
</event>
<event>
 5   0  0.3316784E-03  0.1094297E+04  0.7818609E-02  0.9210769E-01
        1   -1    0    0  501    0  0.00000000000E+00  0.00000000000E+00  0.74533065000E+03  0.74533065002E+03  0.50400001928E-02 0.  1.
       -1   -1    0    0    0  501  0.00000000000E+00  0.00000000000E+00 -0.40166236399E+03  0.40166236402E+03  0.50400001928E-02 0. -1.
    10030    2    1    2    0    0  0.00000000000E+00  0.00000000000E+00  0.34366828601E+03  0.11469930140E+04  0.10942966158E+04 0.  0.
        4    1    3    3  502    0  0.47616383003E+03 -0.24410569564E+03  0.52096085428E+02  0.53761993888E+03  0.12699999809E+01 0.  1.
       -4    1    3    3    0  502 -0.47616383003E+03  0.24410569564E+03  0.29157220059E+03  0.60937307516E+03  0.12699999809E+01 0. -1.
</event>
<event>
 5   0  0.5941585E-03  0.1057051E+04  0.7818609E-02  0.9248094E-01
       -2   -1    0    0    0  501  0.00000000000E+00  0.00000000000E+00  0.32582899315E+03  0.32582899316E+03  0.25500000920E-02 0.  1.
        2   -1    0    0  501    0  0.00000000000E+00  0.00000000000E+00 -0.85731924795E+03  0.85731924795E+03  0.25500000920E-02 0. -1.
    10030    2    1    2    0    0  0.00000000000E+00  0.00000000000E+00 -0.53149025480E+03  0.11831482411E+04  0.10570514980E+04 0.  0.
        5    1    3    3  502    0 -0.26944277392E+03  0.33961356937E+03 -0.60409810374E+03  0.74356801562E+03  0.46999998093E+01 0. -1.
       -5    1    3    3    0  502  0.26944277392E+03 -0.33961356937E+03  0.72607848947E+02  0.43958022549E+03  0.46999998093E+01 0.  1.
</event>
<event>
 5   0  0.3241189E-03  0.1094792E+04  0.7818609E-02  0.9210283E-01
       -1   -1    0    0    0  501  0.00000000000E+00  0.00000000000E+00  0.37321677451E+03  0.37321677455E+03  0.50400001928E-02 0. -1.
        1   -1    0    0  501    0  0.00000000000E+00  0.00000000000E+00 -0.80286368108E+03  0.80286368109E+03  0.50400001928E-02 0.  1.
    10030    2    1    2    0    0  0.00000000000E+00  0.00000000000E+00 -0.42964690657E+03  0.11760804556E+04  0.10947916577E+04 0.  0.
        5    1    3    3  502    0 -0.34263417099E+03  0.21698297414E+03 -0.60973335262E+03  0.73230911334E+03  0.46999998093E+01 0.  1.
       -5    1    3    3    0  502  0.34263417099E+03 -0.21698297414E+03  0.18008644605E+03  0.44377134230E+03  0.46999998093E+01 0. -1.
</event>
<event>
 5   0  0.3320192E-03  0.1098126E+04  0.7818609E-02  0.9207020E-01
       -1   -1    0    0    0  501  0.00000000000E+00  0.00000000000E+00  0.23079304748E+03  0.23079304753E+03  0.50400001928E-02 0. -1.
        1   -1    0    0  501    0  0.00000000000E+00  0.00000000000E+00 -0.13062370244E+04  0.13062370244E+04  0.50400001928E-02 0.  1.
    10030    2    1    2    0    0  0.00000000000E+00  0.00000000000E+00 -0.10754439769E+04  0.15370300719E+04  0.10981264474E+04 0.  0.
        2    1    3    3  502    0  0.19996918795E+03 -0.46652614653E+03 -0.24466911901E+03  0.56346898702E+03  0.25500000920E-02 0. -1.
       -2    1    3    3    0  502 -0.19996918795E+03  0.46652614653E+03 -0.83077485790E+03  0.97356108491E+03  0.25500000920E-02 0.  1.
</event>
<event>
 5   0  0.5941585E-03  0.1105176E+04  0.7818609E-02  0.9200162E-01
       -2   -1    0    0    0  501  0.00000000000E+00  0.00000000000E+00  0.16437041010E+03  0.16437041012E+03  0.25500000920E-02 0.  1.
        2   -1    0    0  501    0  0.00000000000E+00  0.00000000000E+00 -0.18577161165E+04  0.18577161165E+04  0.25500000920E-02 0. -1.
    10030    2    1    2    0    0  0.00000000000E+00  0.00000000000E+00 -0.16933457064E+04  0.20220865266E+04  0.11051761126E+04 0.  0.
        5    1    3    3  502    0 -0.55204744250E+03 -0.10400261243E+01 -0.89050853790E+03  0.10477523593E+04  0.46999998093E+01 0. -1.
       -5    1    3    3    0  502  0.55204744250E+03  0.10400261243E+01 -0.80283716853E+03  0.97433416731E+03  0.46999998093E+01 0.  1.
</event>
<event>
 5   0  0.5723194E-03  0.1095276E+04  0.7818609E-02  0.9209809E-01
        2   -1    0    0  501    0  0.00000000000E+00  0.00000000000E+00  0.13733315805E+04  0.13733315805E+04  0.25500000920E-02 0. -1.
       -2   -1    0    0    0  501  0.00000000000E+00  0.00000000000E+00 -0.21837936618E+03  0.21837936619E+03  0.25500000920E-02 0.  1.
    10030    2    1    2    0    0  0.00000000000E+00  0.00000000000E+00  0.11549522143E+04  0.15917109467E+04  0.10952758193E+04 0.  0.
        1    1    3    3  502    0  0.43515591386E+03 -0.24842548100E+02  0.95641768193E+02  0.44623443324E+03  0.50400001928E-02 0.  1.
       -1    1    3    3    0  502 -0.43515591386E+03  0.24842548100E+02  0.10593104461E+04  0.11454765134E+04  0.50400001928E-02 0. -1.
</event>
<event>
 5   0  0.3320192E-03  0.1079782E+04  0.7818609E-02  0.9225125E-01
       -1   -1    0    0    0  501  0.00000000000E+00  0.00000000000E+00  0.31290908482E+03  0.31290908486E+03  0.50400001928E-02 0. -1.
        1   -1    0    0  501    0  0.00000000000E+00  0.00000000000E+00 -0.93152357762E+03  0.93152357764E+03  0.50400001928E-02 0.  1.
    10030    2    1    2    0    0  0.00000000000E+00  0.00000000000E+00 -0.61861449281E+03  0.12444326625E+04  0.10797818117E+04 0.  0.
        2    1    3    3  502    0  0.43015182849E+03 -0.14290123250E+03  0.28728366091E+02  0.45417692239E+03  0.25500000920E-02 0. -1.
       -2    1    3    3    0  502 -0.43015182849E+03  0.14290123250E+03 -0.64734285890E+03  0.79025574011E+03  0.25500000920E-02 0.  1.
</event>
<event>
 5   0  0.3241189E-03  0.1086649E+04  0.7818609E-02  0.9218303E-01
       -1   -1    0    0    0  501  0.00000000000E+00  0.00000000000E+00  0.71181004360E+03  0.71181004362E+03  0.50400001928E-02 0.  1.
        1   -1    0    0  501    0  0.00000000000E+00  0.00000000000E+00 -0.41471978556E+03  0.41471978559E+03  0.50400001928E-02 0. -1.
    10030    2    1    2    0    0  0.00000000000E+00  0.00000000000E+00  0.29709025804E+03  0.11265298292E+04  0.10866493614E+04 0.  0.
        5    1    3    3  502    0  0.50787387749E+03 -0.11893375395E+03 -0.90145932040E+01  0.52171301130E+03  0.46999998093E+01 0. -1.
       -5    1    3    3    0  502 -0.50787387749E+03  0.11893375395E+03  0.30610485125E+03  0.60481681791E+03  0.46999998093E+01 0.  1.
</event>
<event>
 5   0  0.3328741E-03  0.1103264E+04  0.7818609E-02  0.9202016E-01
       -1   -1    0    0    0  501  0.00000000000E+00  0.00000000000E+00  0.44120190736E+03  0.44120190738E+03  0.50400001928E-02 0. -1.
        1   -1    0    0  501    0  0.00000000000E+00  0.00000000000E+00 -0.68970191192E+03  0.68970191194E+03  0.50400001928E-02 0.  1.
    10030    2    1    2    0    0  0.00000000000E+00  0.00000000000E+00 -0.24850000456E+03  0.11309038193E+04  0.11032638833E+04 0.  0.
        3    1    3    3  502    0  0.51639189949E+03 -0.43321525068E+02 -0.31809192071E+03  0.60804590995E+03  0.10100000352E+00 0.  1.
       -3    1    3    3    0  502 -0.51639189949E+03  0.43321525068E+02  0.69591916149E+02  0.52285790936E+03  0.10100000352E+00 0. -1.
</event>
<event>
 5   0  0.3328741E-03  0.1100541E+04  0.7818609E-02  0.9204665E-01
        1   -1    0    0  501    0  0.00000000000E+00  0.00000000000E+00  0.38362045550E+03  0.38362045553E+03  0.50400001928E-02 0.  1.
       -1   -1    0    0    0  501  0.00000000000E+00  0.00000000000E+00 -0.78931575108E+03  0.78931575110E+03  0.50400001928E-02 0. -1.
    10030    2    1    2    0    0  0.00000000000E+00  0.00000000000E+00 -0.40569529558E+03  0.11729362066E+04  0.11005410815E+04 0.  0.
        3    1    3    3  502    0  0.79551215285E+02  0.52411736670E+03 -0.36010096682E+03  0.64085889745E+03  0.10100000352E+00 0.  1.
       -3    1    3    3    0  502 -0.79551215285E+02 -0.52411736670E+03 -0.45594328761E+02  0.53207730918E+03  0.10100000352E+00 0. -1.
</event>
<event>
 5   0  0.3241189E-03  0.1084510E+04  0.7818609E-02  0.9220422E-01
        1   -1    0    0  501    0  0.00000000000E+00  0.00000000000E+00  0.46981194915E+03  0.46981194918E+03  0.50400001928E-02 0.  1.
       -1   -1    0    0    0  501  0.00000000000E+00  0.00000000000E+00 -0.62586894327E+03  0.62586894329E+03  0.50400001928E-02 0. -1.
    10030    2    1    2    0    0  0.00000000000E+00  0.00000000000E+00 -0.15605699412E+03  0.10956808925E+04  0.10845104115E+04 0.  0.
        5    1    3    3  502    0  0.15607157966E+03  0.24482284301E+03 -0.54069964243E+03  0.61373834471E+03  0.46999998093E+01 0. -1.
       -5    1    3    3    0  502 -0.15607157966E+03 -0.24482284301E+03  0.38464264831E+03  0.48194254776E+03  0.46999998093E+01 0.  1.
</event>
<event>
 5   0  0.3316784E-03  0.1114418E+04  0.7818609E-02  0.9191252E-01
       -1   -1    0    0    0  501  0.00000000000E+00  0.00000000000E+00  0.46461370613E+03  0.46461370616E+03  0.50400001928E-02 0. -1.
        1   -1    0    0  501    0  0.00000000000E+00  0.00000000000E+00 -0.66825801671E+03  0.66825801673E+03  0.50400001928E-02 0.  1.
    10030    2    1    2    0    0  0.00000000000E+00  0.00000000000E+00 -0.20364431058E+03  0.11328717229E+04  0.11144179356E+04 0.  0.
        4    1    3    3  502    0  0.10224065800E+03 -0.17776994561E+03  0.42485448428E+03  0.47176079895E+03  0.12699999809E+01 0. -1.
       -4    1    3    3    0  502 -0.10224065800E+03  0.17776994561E+03 -0.62849879486E+03  0.66111092394E+03  0.12699999809E+01 0.  1.
</event>
<event>
 5   0  0.3241189E-03  0.1092674E+04  0.7818609E-02  0.9212362E-01
        1   -1    0    0  501    0  0.00000000000E+00  0.00000000000E+00  0.54178353370E+03  0.54178353373E+03  0.50400001928E-02 0.  1.
       -1   -1    0    0    0  501  0.00000000000E+00  0.00000000000E+00 -0.55092831389E+03  0.55092831392E+03  0.50400001928E-02 0. -1.
    10030    2    1    2    0    0  0.00000000000E+00  0.00000000000E+00 -0.91447801897E+01  0.10927118476E+04  0.10926735812E+04 0.  0.
        5    1    3    3  502    0 -0.24834407479E+03 -0.44595133796E+03  0.19015069297E+03  0.54472630866E+03  0.46999998093E+01 0.  1.
       -5    1    3    3    0  502  0.24834407479E+03  0.44595133796E+03 -0.19929547316E+03  0.54798553898E+03  0.46999998093E+01 0. -1.
</event>
<event>
 5   0  0.5946359E-03  0.1020822E+04  0.7818609E-02  0.9285998E-01
        2   -1    0    0  501    0  0.00000000000E+00  0.00000000000E+00  0.12973725514E+04  0.12973725514E+04  0.25500000920E-02 0.  1.
       -2   -1    0    0    0  501  0.00000000000E+00  0.00000000000E+00 -0.20080521128E+03  0.20080521129E+03  0.25500000920E-02 0. -1.
    10030    2    1    2    0    0  0.00000000000E+00  0.00000000000E+00  0.10965673401E+04  0.14981777627E+04  0.10208215697E+04 0.  0.
        4    1    3    3  502    0 -0.15015080122E+03  0.27281450700E+03  0.11417984397E+04  0.11835025594E+04  0.12699999809E+01 0.  1.
       -4    1    3    3    0  502  0.15015080122E+03 -0.27281450700E+03 -0.45231099511E+02  0.31467520335E+03  0.12699999809E+01 0. -1.
</event>
<event>
 5   0  0.3241189E-03  0.1109572E+04  0.7818609E-02  0.9195912E-01
        1   -1    0    0  501    0  0.00000000000E+00  0.00000000000E+00  0.36221361587E+03  0.36221361590E+03  0.50400001928E-02 0.  1.
       -1   -1    0    0    0  501  0.00000000000E+00  0.00000000000E+00 -0.84974106110E+03  0.84974106112E+03  0.50400001928E-02 0. -1.
    10030    2    1    2    0    0  0.00000000000E+00  0.00000000000E+00 -0.48752744523E+03  0.12119546770E+04  0.11095724984E+04 0.  0.
        5    1    3    3  502    0  0.17253527270E+03  0.30955239453E+03 -0.70996621605E+03  0.79351447574E+03  0.46999998093E+01 0. -1.
       -5    1    3    3    0  502 -0.17253527270E+03 -0.30955239453E+03  0.22243877082E+03  0.41844020128E+03  0.46999998093E+01 0.  1.
</event>
<event>
 5   0  0.5500363E-03  0.1102904E+04  0.7818609E-02  0.9202366E-01
       -2   -1    0    0    0  501  0.00000000000E+00  0.00000000000E+00  0.25658662202E+03  0.25658662203E+03  0.25500000920E-02 0.  1.
        2   -1    0    0  501    0  0.00000000000E+00  0.00000000000E+00 -0.11851727163E+04  0.11851727163E+04  0.25500000920E-02 0. -1.
    10030    2    1    2    0    0  0.00000000000E+00  0.00000000000E+00 -0.92858609423E+03  0.14417593383E+04  0.11029042819E+04 0.  0.
        3    1    3    3  502    0 -0.42936703611E+02  0.48450540098E+03 -0.80394985308E+03  0.93964058052E+03  0.10100000352E+00 0. -1.
       -3    1    3    3    0  502  0.42936703611E+02 -0.48450540098E+03 -0.12463624115E+03  0.50211875777E+03  0.10100000352E+00 0.  1.
</event>
<event>
 5   0  0.5500363E-03  0.1086076E+04  0.7818609E-02  0.9218870E-01
        2   -1    0    0  501    0  0.00000000000E+00  0.00000000000E+00  0.10356333551E+04  0.10356333551E+04  0.25500000920E-02 0.  1.
       -2   -1    0    0    0  501  0.00000000000E+00  0.00000000000E+00 -0.28474386319E+03  0.28474386320E+03  0.25500000920E-02 0. -1.
    10030    2    1    2    0    0  0.00000000000E+00  0.00000000000E+00  0.75088949191E+03  0.13203772183E+04  0.10860759502E+04 0.  0.
        3    1    3    3  502    0  0.84033193807E+01  0.38452607004E+03  0.84149890644E+03  0.92523042214E+03  0.10100000352E+00 0.  1.
       -3    1    3    3    0  502 -0.84033193807E+01 -0.38452607004E+03 -0.90609414523E+02  0.39514679616E+03  0.10100000352E+00 0. -1.
</event>
<event>
 5   0  0.2185750E-03  0.1079828E+04  0.7818609E-02  0.9225078E-01
       -4   -1    0    0    0  501  0.00000000000E+00  0.00000000000E+00  0.16770209041E+04  0.16770213850E+04  0.12699999809E+01 0. -1.
        4   -1    0    0  501    0  0.00000000000E+00  0.00000000000E+00 -0.17382171028E+03  0.17382634974E+03  0.12699999809E+01 0.  1.
    10030    2    1    2    0    0  0.00000000000E+00  0.00000000000E+00  0.15031991938E+04  0.18508477347E+04  0.10798284683E+04 0.  0.
        3    1    3    3  502    0 -0.33399961401E+03 -0.21187939616E+03  0.12169136962E+03  0.41383259938E+03  0.10100000352E+00 0.  1.
       -3    1    3    3    0  502  0.33399961401E+03  0.21187939616E+03  0.13815078242E+04  0.14370151353E+04  0.10100000352E+00 0. -1.
</event>
<event>
 5   0  0.5941585E-03  0.1097181E+04  0.7818609E-02  0.9207944E-01
       -2   -1    0    0    0  501  0.00000000000E+00  0.00000000000E+00  0.98816703296E+02  0.98816703329E+02  0.25500000920E-02 0. -1.
        2   -1    0    0  501    0  0.00000000000E+00  0.00000000000E+00 -0.30455536785E+04  0.30455536785E+04  0.25500000920E-02 0.  1.
    10030    2    1    2    0    0  0.00000000000E+00  0.00000000000E+00 -0.29467369752E+04  0.31443703819E+04  0.10971810685E+04 0.  0.
        5    1    3    3  502    0  0.21290237468E+03 -0.46679343092E+03 -0.91687463716E+03  0.10506687007E+04  0.46999998093E+01 0. -1.
       -5    1    3    3    0  502 -0.21290237468E+03  0.46679343092E+03 -0.20298623381E+04  0.20937016812E+04  0.46999998093E+01 0.  1.
</event>
<event>
 5   0  0.3241189E-03  0.1170766E+04  0.7818609E-02  0.9138837E-01
       -1   -1    0    0    0  501  0.00000000000E+00  0.00000000000E+00  0.15153650291E+04  0.15153650291E+04  0.50400001928E-02 0. -1.
        1   -1    0    0  501    0  0.00000000000E+00  0.00000000000E+00 -0.22613260827E+03  0.22613260833E+03  0.50400001928E-02 0.  1.
    10030    2    1    2    0    0  0.00000000000E+00  0.00000000000E+00  0.12892324208E+04  0.17414976374E+04  0.11707663244E+04 0.  0.
        5    1    3    3  502    0 -0.41582583445E+03 -0.36493422846E+03  0.92904595376E+03  0.10813124386E+04  0.46999998093E+01 0. -1.
       -5    1    3    3    0  502  0.41582583445E+03  0.36493422846E+03  0.36018646706E+03  0.66018519882E+03  0.46999998093E+01 0.  1.
</event>
<event>
 5   0  0.3320192E-03  0.1048228E+04  0.7818609E-02  0.9257176E-01
        1   -1    0    0  501    0  0.00000000000E+00  0.00000000000E+00  0.69150632697E+03  0.69150632699E+03  0.50400001928E-02 0. -1.
       -1   -1    0    0    0  501  0.00000000000E+00  0.00000000000E+00 -0.39724200653E+03  0.39724200656E+03  0.50400001928E-02 0.  1.
    10030    2    1    2    0    0  0.00000000000E+00  0.00000000000E+00  0.29426432044E+03  0.10887483335E+04  0.10482277632E+04 0.  0.
        2    1    3    3  502    0  0.48667355220E+03 -0.19426157079E+03  0.13640547188E+03  0.54147498286E+03  0.25500000920E-02 0. -1.
       -2    1    3    3    0  502 -0.48667355220E+03  0.19426157079E+03  0.15785884855E+03  0.54727335069E+03  0.25500000920E-02 0.  1.
</event>
<event>
 5   0  0.5941585E-03  0.1159013E+04  0.7818609E-02  0.9149509E-01
        2   -1    0    0  501    0  0.00000000000E+00  0.00000000000E+00  0.13920706490E+04  0.13920706490E+04  0.25500000920E-02 0. -1.
       -2   -1    0    0    0  501  0.00000000000E+00  0.00000000000E+00 -0.24124343791E+03  0.24124343792E+03  0.25500000920E-02 0.  1.
    10030    2    1    2    0    0  0.00000000000E+00  0.00000000000E+00  0.11508272111E+04  0.16333140869E+04  0.11590132168E+04 0.  0.
        5    1    3    3  502    0  0.23696862131E+03  0.36397646699E+03  0.11160373669E+04  0.11975785946E+04  0.46999998093E+01 0. -1.
       -5    1    3    3    0  502 -0.23696862131E+03 -0.36397646699E+03  0.34789844231E+02  0.43573549232E+03  0.46999998093E+01 0.  1.
</event>
<event>
 5   0  0.5723194E-03  0.1110044E+04  0.7818609E-02  0.9195457E-01
       -2   -1    0    0    0  501  0.00000000000E+00  0.00000000000E+00  0.20302197092E+03  0.20302197093E+03  0.25500000920E-02 0.  1.
        2   -1    0    0  501    0  0.00000000000E+00  0.00000000000E+00 -0.15173199775E+04  0.15173199775E+04  0.25500000920E-02 0. -1.
    10030    2    1    2    0    0  0.00000000000E+00  0.00000000000E+00 -0.13142980066E+04  0.17203419485E+04  0.11100437692E+04 0.  0.
        1    1    3    3  502    0  0.19964531371E+03 -0.45030911759E+03 -0.26077437726E+03  0.55735072309E+03  0.50400001928E-02 0.  1.
       -1    1    3    3    0  502 -0.19964531371E+03  0.45030911759E+03 -0.10535236294E+04  0.11629912254E+04  0.50400001928E-02 0. -1.
</event>
<event>
 5   0  0.3320192E-03  0.1089745E+04  0.7818609E-02  0.9215245E-01
        1   -1    0    0  501    0  0.00000000000E+00  0.00000000000E+00  0.56963571754E+03  0.56963571756E+03  0.50400001928E-02 0. -1.
       -1   -1    0    0    0  501  0.00000000000E+00  0.00000000000E+00 -0.52118623969E+03  0.52118623971E+03  0.50400001928E-02 0.  1.
    10030    2    1    2    0    0  0.00000000000E+00  0.00000000000E+00  0.48449477849E+02  0.10908219573E+04  0.10897454705E+04 0.  0.
        2    1    3    3  502    0 -0.41755922050E+03 -0.30330010964E+03  0.19915330846E+03  0.55318053058E+03  0.25500000920E-02 0. -1.
       -2    1    3    3    0  502  0.41755922050E+03  0.30330010964E+03 -0.15070383061E+03  0.53764142670E+03  0.25500000920E-02 0.  1.
</event>
<event>
 5   0  0.5723194E-03  0.1101074E+04  0.7818609E-02  0.9204145E-01
        2   -1    0    0  501    0  0.00000000000E+00  0.00000000000E+00  0.36457110571E+03  0.36457110572E+03  0.25500000920E-02 0.  1.
       -2   -1    0    0    0  501  0.00000000000E+00  0.00000000000E+00 -0.83136368023E+03  0.83136368023E+03  0.25500000920E-02 0. -1.
    10030    2    1    2    0    0  0.00000000000E+00  0.00000000000E+00 -0.46679257452E+03  0.11959347859E+04  0.11010743411E+04 0.  0.
        1    1    3    3  502    0 -0.39106985805E+03 -0.91767793570E+02 -0.64230673448E+03  0.75757171476E+03  0.50400001928E-02 0. -1.
       -1    1    3    3    0  502  0.39106985805E+03  0.91767793570E+02  0.17551415996E+03  0.43836307119E+03  0.50400001928E-02 0.  1.
</event>
<event>
 5   0  0.3316784E-03  0.1106124E+04  0.7818609E-02  0.9199244E-01
       -1   -1    0    0    0  501  0.00000000000E+00  0.00000000000E+00  0.20767779065E+03  0.20767779071E+03  0.50400001928E-02 0. -1.
        1   -1    0    0  501    0  0.00000000000E+00  0.00000000000E+00 -0.14728467315E+04  0.14728467315E+04  0.50400001928E-02 0.  1.
    10030    2    1    2    0    0  0.00000000000E+00  0.00000000000E+00 -0.12651689408E+04  0.16805245222E+04  0.11061239627E+04 0.  0.
        4    1    3    3  502    0  0.29761794708E+02 -0.76733694367E+02 -0.14634883705E+04  0.14658013671E+04  0.12699999809E+01 0.  1.
       -4    1    3    3    0  502 -0.29761794708E+02  0.76733694367E+02  0.19831942964E+03  0.21472315513E+03  0.12699999809E+01 0. -1.
</event>
<event>
 5   0  0.5500363E-03  0.1102865E+04  0.7818609E-02  0.9202404E-01
        2   -1    0    0  501    0  0.00000000000E+00  0.00000000000E+00  0.11569530820E+04  0.11569530820E+04  0.25500000920E-02 0.  1.
       -2   -1    0    0    0  501  0.00000000000E+00  0.00000000000E+00 -0.26282647537E+03  0.26282647539E+03  0.25500000920E-02 0. -1.
    10030    2    1    2    0    0  0.00000000000E+00  0.00000000000E+00  0.89412660659E+03  0.14197795574E+04  0.11028651789E+04 0.  0.
        3    1    3    3  502    0 -0.17989268930E+03 -0.29014577924E+03  0.10045520616E+04  0.10609763464E+04  0.10100000352E+00 0.  1.
       -3    1    3    3    0  502  0.17989268930E+03  0.29014577924E+03 -0.11042545504E+03  0.35880321096E+03  0.10100000352E+00 0. -1.
</event>
<event>
 5   0  0.3316784E-03  0.1056319E+04  0.7818609E-02  0.9248844E-01
        1   -1    0    0  501    0  0.00000000000E+00  0.00000000000E+00  0.47426583028E+03  0.47426583030E+03  0.50400001928E-02 0. -1.
       -1   -1    0    0    0  501  0.00000000000E+00  0.00000000000E+00 -0.58817725741E+03  0.58817725743E+03  0.50400001928E-02 0.  1.
    10030    2    1    2    0    0  0.00000000000E+00  0.00000000000E+00 -0.11391142714E+03  0.10624430877E+04  0.10563188446E+04 0.  0.
        4    1    3    3  502    0 -0.22306093899E+03 -0.29701811294E+03 -0.43459869958E+03  0.57171110230E+03  0.12699999809E+01 0.  1.
       -4    1    3    3    0  502  0.22306093899E+03  0.29701811294E+03  0.32068727244E+03  0.49073198543E+03  0.12699999809E+01 0. -1.
</event>
<event>
 5   0  0.5500363E-03  0.1130849E+04  0.7818609E-02  0.9175635E-01
        2   -1    0    0  501    0  0.00000000000E+00  0.00000000000E+00  0.82748211175E+03  0.82748211175E+03  0.25500000920E-02 0.  1.
       -2   -1    0    0    0  501  0.00000000000E+00  0.00000000000E+00 -0.38635892717E+03  0.38635892718E+03  0.25500000920E-02 0. -1.
    10030    2    1    2    0    0  0.00000000000E+00  0.00000000000E+00  0.44112318458E+03  0.12138410389E+04  0.11308494170E+04 0.  0.
        3    1    3    3  502    0  0.28027616898E+03  0.43390027256E+03  0.46739646227E+03  0.69662302615E+03  0.10100000352E+00 0.  1.
       -3    1    3    3    0  502 -0.28027616898E+03 -0.43390027256E+03 -0.26273277689E+02  0.51721801278E+03  0.10100000352E+00 0. -1.
</event>
<event>
 5   0  0.5946359E-03  0.1111681E+04  0.7818609E-02  0.9193881E-01
        2   -1    0    0  501    0  0.00000000000E+00  0.00000000000E+00  0.82593952689E+03  0.82593952689E+03  0.25500000920E-02 0.  1.
       -2   -1    0    0    0  501  0.00000000000E+00  0.00000000000E+00 -0.37406932390E+03  0.37406932391E+03  0.25500000920E-02 0. -1.
    10030    2    1    2    0    0  0.00000000000E+00  0.00000000000E+00  0.45187020298E+03  0.12000088508E+04  0.11116809622E+04 0.  0.
        4    1    3    3  502    0 -0.12023424009E+03 -0.44328380438E+03 -0.11198794718E+03  0.47275756676E+03  0.12699999809E+01 0. -1.
       -4    1    3    3    0  502  0.12023424009E+03  0.44328380438E+03  0.56385815017E+03  0.72725128403E+03  0.12699999809E+01 0.  1.
</event>
<event>
 5   0  0.5627232E-03  0.1095344E+04  0.7818609E-02  0.9209742E-01
        2   -1    0    0  501    0  0.00000000000E+00  0.00000000000E+00  0.15357134712E+04  0.15357134712E+04  0.25500000920E-02 0. -1.
       -2   -1    0    0    0  501  0.00000000000E+00  0.00000000000E+00 -0.19531287580E+03  0.19531287582E+03  0.25500000920E-02 0.  1.
    10030    2    1    2    0    0  0.00000000000E+00  0.00000000000E+00  0.13404005954E+04  0.17310263470E+04  0.10953439907E+04 0.  0.
        2    1    3    3  502    0  0.33229133389E+02 -0.43040509771E+03  0.13756883970E+03  0.45307605223E+03  0.25500000920E-02 0.  1.
       -2    1    3    3    0  502 -0.33229133389E+02  0.43040509771E+03  0.12028317557E+04  0.12779502948E+04  0.25500000920E-02 0. -1.
</event>
<event>
 5   0  0.5627232E-03  0.1051139E+04  0.7818609E-02  0.9254169E-01
       -2   -1    0    0    0  501  0.00000000000E+00  0.00000000000E+00  0.26689137413E+03  0.26689137415E+03  0.25500000920E-02 0.  1.
        2   -1    0    0  501    0  0.00000000000E+00  0.00000000000E+00 -0.10349644075E+04  0.10349644075E+04  0.25500000920E-02 0. -1.
    10030    2    1    2    0    0  0.00000000000E+00  0.00000000000E+00 -0.76807303340E+03  0.13018557817E+04  0.10511385692E+04 0.  0.
        2    1    3    3  502    0  0.49486596001E+03 -0.27081210522E+02 -0.60067963629E+03  0.77874369069E+03  0.25500000920E-02 0. -1.
       -2    1    3    3    0  502 -0.49486596001E+03  0.27081210522E+02 -0.16739339712E+03  0.52311209099E+03  0.25500000920E-02 0.  1.
</event>
<event>
 5   0  0.3316784E-03  0.1109441E+04  0.7818609E-02  0.9196039E-01
        1   -1    0    0  501    0  0.00000000000E+00  0.00000000000E+00  0.65489289526E+03  0.65489289528E+03  0.50400001928E-02 0. -1.
       -1   -1    0    0    0  501  0.00000000000E+00  0.00000000000E+00 -0.46987012069E+03  0.46987012072E+03  0.50400001928E-02 0.  1.
    10030    2    1    2    0    0  0.00000000000E+00  0.00000000000E+00  0.18502277456E+03  0.11247630160E+04  0.11094405865E+04 0.  0.
        4    1    3    3  502    0  0.22858696816E+03 -0.43676957252E+03 -0.16535024600E+03  0.51996343934E+03  0.12699999809E+01 0.  1.
       -4    1    3    3    0  502 -0.22858696816E+03  0.43676957252E+03  0.35037302056E+03  0.60479957666E+03  0.12699999809E+01 0. -1.
</event>
<event>
 5   0  0.5627232E-03  0.9810075E+03  0.7818609E-02  0.9329624E-01
       -2   -1    0    0    0  501  0.00000000000E+00  0.00000000000E+00  0.17884213742E+03  0.17884213744E+03  0.25500000920E-02 0.  1.
        2   -1    0    0  501    0  0.00000000000E+00  0.00000000000E+00 -0.13452866537E+04  0.13452866537E+04  0.25500000920E-02 0. -1.
    10030    2    1    2    0    0  0.00000000000E+00  0.00000000000E+00 -0.11664445163E+04  0.15241287912E+04  0.98100752415E+03 0.  0.
        2    1    3    3  502    0 -0.22629251314E+03 -0.29232224475E+03 -0.10840942876E+04  0.11453912086E+04  0.25500000920E-02 0. -1.
       -2    1    3    3    0  502  0.22629251314E+03  0.29232224475E+03 -0.82350228691E+02  0.37873758257E+03  0.25500000920E-02 0.  1.
</event>
<event>
 5   0  0.5941585E-03  0.1113037E+04  0.7818609E-02  0.9192578E-01
        2   -1    0    0  501    0  0.00000000000E+00  0.00000000000E+00  0.10359108744E+04  0.10359108744E+04  0.25500000920E-02 0.  1.
       -2   -1    0    0    0  501  0.00000000000E+00  0.00000000000E+00 -0.29897625102E+03  0.29897625103E+03  0.25500000920E-02 0. -1.
    10030    2    1    2    0    0  0.00000000000E+00  0.00000000000E+00  0.73693462336E+03  0.13348871254E+04  0.11130368361E+04 0.  0.
        5    1    3    3  502    0  0.51804872607E+03 -0.66319621804E+02  0.59890494807E+03  0.79465841821E+03  0.46999998093E+01 0.  1.
       -5    1    3    3    0  502 -0.51804872607E+03  0.66319621804E+02  0.13802967529E+03  0.54022870719E+03  0.46999998093E+01 0. -1.
</event>
<event>
 5   0  0.5941585E-03  0.1098328E+04  0.7818609E-02  0.9206824E-01
        2   -1    0    0  501    0  0.00000000000E+00  0.00000000000E+00  0.46282719936E+03  0.46282719937E+03  0.25500000920E-02 0.  1.
       -2   -1    0    0    0  501  0.00000000000E+00  0.00000000000E+00 -0.65160567732E+03  0.65160567733E+03  0.25500000920E-02 0. -1.
    10030    2    1    2    0    0  0.00000000000E+00  0.00000000000E+00 -0.18877847796E+03  0.11144328767E+04  0.10983275117E+04 0.  0.
        5    1    3    3  502    0 -0.28311501908E+03  0.21959578891E+03  0.32786481250E+03  0.48568904642E+03  0.46999998093E+01 0.  1.
       -5    1    3    3    0  502  0.28311501908E+03 -0.21959578891E+03 -0.51664329046E+03  0.62874383028E+03  0.46999998093E+01 0. -1.
</event>
<event>
 5   0  0.5500363E-03  0.1093136E+04  0.7818609E-02  0.9211908E-01
        2   -1    0    0  501    0  0.00000000000E+00  0.00000000000E+00  0.17130590165E+04  0.17130590165E+04  0.25500000920E-02 0. -1.
       -2   -1    0    0    0  501  0.00000000000E+00  0.00000000000E+00 -0.17438770744E+03  0.17438770745E+03  0.25500000920E-02 0.  1.
    10030    2    1    2    0    0  0.00000000000E+00  0.00000000000E+00  0.15386713091E+04  0.18874467240E+04  0.10931357365E+04 0.  0.
        3    1    3    3  502    0 -0.82209455865E+02  0.51626688411E+03  0.49390331628E+03  0.71918730961E+03  0.10100000352E+00 0.  1.
       -3    1    3    3    0  502  0.82209455865E+02 -0.51626688411E+03  0.10447679928E+04  0.11682594144E+04  0.10100000352E+00 0. -1.
</event>
<event>
 5   0  0.3241189E-03  0.1144255E+04  0.7818609E-02  0.9163100E-01
       -1   -1    0    0    0  501  0.00000000000E+00  0.00000000000E+00  0.11777091175E+04  0.11777091175E+04  0.50400001928E-02 0.  1.
        1   -1    0    0  501    0  0.00000000000E+00  0.00000000000E+00 -0.27793778798E+03  0.27793778803E+03  0.50400001928E-02 0. -1.
    10030    2    1    2    0    0  0.00000000000E+00  0.00000000000E+00  0.89977132954E+03  0.14556469056E+04  0.11442549839E+04 0.  0.
        5    1    3    3  502    0 -0.86808751469E+02  0.22365567929E+03 -0.21082920368E+03  0.31941926262E+03  0.46999998093E+01 0. -1.
       -5    1    3    3    0  502  0.86808751469E+02 -0.22365567929E+03  0.11106005332E+04  0.11362276429E+04  0.46999998093E+01 0.  1.
</event>
<event>
 5   0  0.3215352E-03  0.1078677E+04  0.7818609E-02  0.9226228E-01
        1   -1    0    0  501    0  0.00000000000E+00  0.00000000000E+00  0.16150824587E+04  0.16150824587E+04  0.50400001928E-02 0.  1.
       -1   -1    0    0    0  501  0.00000000000E+00  0.00000000000E+00 -0.18010590398E+03  0.18010590405E+03  0.50400001928E-02 0. -1.
    10030    2    1    2    0    0  0.00000000000E+00  0.00000000000E+00  0.14349765547E+04  0.17951883627E+04  0.10786767566E+04 0.  0.
        1    1    3    3  502    0 -0.45209302349E+03  0.21871204774E+03  0.39024894869E+03  0.63601674796E+03  0.50400001928E-02 0. -1.
       -1    1    3    3    0  502  0.45209302349E+03 -0.21871204774E+03  0.10447276060E+04  0.11591716148E+04  0.50400001928E-02 0.  1.
</event>
<event>
 5   0  0.5500363E-03  0.1102216E+04  0.7818609E-02  0.9203035E-01
       -2   -1    0    0    0  501  0.00000000000E+00  0.00000000000E+00  0.23887405393E+03  0.23887405394E+03  0.25500000920E-02 0.  1.
        2   -1    0    0  501    0  0.00000000000E+00  0.00000000000E+00 -0.12714653108E+04  0.12714653108E+04  0.25500000920E-02 0. -1.
    10030    2    1    2    0    0  0.00000000000E+00  0.00000000000E+00 -0.10325912569E+04  0.15103393647E+04  0.11022160827E+04 0.  0.
        3    1    3    3  502    0 -0.34418469169E+03 -0.27816721498E+03 -0.96636368451E+03  0.10628729380E+04  0.10100000352E+00 0. -1.
       -3    1    3    3    0  502  0.34418469169E+03  0.27816721498E+03 -0.66227572362E+02  0.44746642670E+03  0.10100000352E+00 0.  1.
</event>
<event>
 5   0  0.3320192E-03  0.1109579E+04  0.7818609E-02  0.9195905E-01
        1   -1    0    0  501    0  0.00000000000E+00  0.00000000000E+00  0.82717194261E+03  0.82717194263E+03  0.50400001928E-02 0.  1.
       -1   -1    0    0    0  501  0.00000000000E+00  0.00000000000E+00 -0.37210087782E+03  0.37210087785E+03  0.50400001928E-02 0. -1.
    10030    2    1    2    0    0  0.00000000000E+00  0.00000000000E+00  0.45507106479E+03  0.11992728205E+04  0.11095790301E+04 0.  0.
        2    1    3    3  502    0 -0.49384638394E+03  0.59037937647E+02  0.49321386573E+03  0.70044960301E+03  0.25500000920E-02 0.  1.
       -2    1    3    3    0  502  0.49384638394E+03 -0.59037937647E+02 -0.38142800932E+02  0.49882321747E+03  0.25500000920E-02 0. -1.
</event>
<event>
 5   0  0.5946359E-03  0.1248614E+04  0.7818609E-02  0.9071338E-01
       -2   -1    0    0    0  501  0.00000000000E+00  0.00000000000E+00  0.38332100092E+03  0.38332100092E+03  0.25500000920E-02 0. -1.
        2   -1    0    0  501    0  0.00000000000E+00  0.00000000000E+00 -0.10167956977E+04  0.10167956977E+04  0.25500000920E-02 0.  1.
    10030    2    1    2    0    0  0.00000000000E+00  0.00000000000E+00 -0.63347469681E+03  0.14001166987E+04  0.12486138628E+04 0.  0.
        4    1    3    3  502    0 -0.59372502121E+03  0.12143514319E+03 -0.14853070720E+03  0.62395422805E+03  0.12699999809E+01 0. -1.
       -4    1    3    3    0  502  0.59372502121E+03 -0.12143514319E+03 -0.48494398962E+03  0.77616247061E+03  0.12699999809E+01 0.  1.
</event>
<event>
 5   0  0.2185750E-03  0.1097385E+04  0.7818609E-02  0.9207745E-01
        3   -1    0    0  501    0  0.00000000000E+00  0.00000000000E+00  0.70823082393E+03  0.70823083113E+03  0.10100000352E+00 0.  1.
       -3   -1    0    0    0  501  0.00000000000E+00  0.00000000000E+00 -0.42509192407E+03  0.42509193607E+03  0.10100000352E+00 0. -1.
    10030    2    1    2    0    0  0.00000000000E+00  0.00000000000E+00  0.28313889986E+03  0.11333227672E+04  0.10973845534E+04 0.  0.
        5    1    3    3  502    0 -0.25271218243E+03 -0.36233411790E+03 -0.19449738648E+03  0.48270154701E+03  0.46999998093E+01 0. -1.
       -5    1    3    3    0  502  0.25271218243E+03  0.36233411790E+03  0.47763628634E+03  0.65062122019E+03  0.46999998093E+01 0.  1.
</event>
<event>
 5   0  0.3316784E-03  0.9742110E+03  0.7818609E-02  0.9337291E-01
        1   -1    0    0  501    0  0.00000000000E+00  0.00000000000E+00  0.81563540651E+03  0.81563540652E+03  0.50400001928E-02 0. -1.
       -1   -1    0    0    0  501  0.00000000000E+00  0.00000000000E+00 -0.29090419476E+03  0.29090419481E+03  0.50400001928E-02 0.  1.
    10030    2    1    2    0    0  0.00000000000E+00  0.00000000000E+00  0.52473121175E+03  0.11065396013E+04  0.97421098574E+03 0.  0.
        4    1    3    3  502    0  0.47514367801E+02  0.88428256279E+01  0.81290346185E+03  0.81433989335E+03  0.12699999809E+01 0. -1.
       -4    1    3    3    0  502 -0.47514367801E+02 -0.88428256279E+01 -0.28817225011E+03  0.29219970798E+03  0.12699999809E+01 0.  1.
</event>
<event>
 5   0  0.5946359E-03  0.1068485E+04  0.7818609E-02  0.9236465E-01
        2   -1    0    0  501    0  0.00000000000E+00  0.00000000000E+00  0.14070830175E+04  0.14070830175E+04  0.25500000920E-02 0.  1.
       -2   -1    0    0    0  501  0.00000000000E+00  0.00000000000E+00 -0.20284166945E+03  0.20284166947E+03  0.25500000920E-02 0. -1.
    10030    2    1    2    0    0  0.00000000000E+00  0.00000000000E+00  0.12042413480E+04  0.16099246869E+04  0.10684850366E+04 0.  0.
        4    1    3    3  502    0 -0.33758428226E+02  0.40957967465E+03  0.11164416200E+04  0.11896800600E+04  0.12699999809E+01 0.  1.
       -4    1    3    3    0  502  0.33758428226E+02 -0.40957967465E+03  0.87799728059E+02  0.42024462699E+03  0.12699999809E+01 0. -1.
</event>
<event>
 5   0  0.5723194E-03  0.1066178E+04  0.7818609E-02  0.9238798E-01
        2   -1    0    0  501    0  0.00000000000E+00  0.00000000000E+00  0.29863922905E+03  0.29863922906E+03  0.25500000920E-02 0. -1.
       -2   -1    0    0    0  501  0.00000000000E+00  0.00000000000E+00 -0.95159666327E+03  0.95159666328E+03  0.25500000920E-02 0.  1.
    10030    2    1    2    0    0  0.00000000000E+00  0.00000000000E+00 -0.65295743423E+03  0.12502358923E+04  0.10661783976E+04 0.  0.
        1    1    3    3  502    0  0.81903082231E+02  0.11477645372E+03  0.27637590048E+03  0.31026663952E+03  0.50400001928E-02 0. -1.
       -1    1    3    3    0  502 -0.81903082231E+02 -0.11477645372E+03 -0.92933333471E+03  0.93996925281E+03  0.50400001928E-02 0.  1.
</event>
<event>
 5   0  0.5627232E-03  0.1095036E+04  0.7818609E-02  0.9210044E-01
        2   -1    0    0  501    0  0.00000000000E+00  0.00000000000E+00  0.20512533566E+04  0.20512533566E+04  0.25500000920E-02 0.  1.
       -2   -1    0    0    0  501  0.00000000000E+00  0.00000000000E+00 -0.14614282731E+03  0.14614282733E+03  0.25500000920E-02 0. -1.
    10030    2    1    2    0    0  0.00000000000E+00  0.00000000000E+00  0.19051105292E+04  0.21973961839E+04  0.10950360087E+04 0.  0.
        2    1    3    3  502    0  0.27935373030E+03 -0.25118489586E+03  0.17518211058E+04  0.17916499505E+04  0.25500000920E-02 0.  1.
       -2    1    3    3    0  502 -0.27935373030E+03  0.25118489586E+03  0.15328942348E+03  0.40574623337E+03  0.25500000920E-02 0. -1.
</event>
<event>
 5   0  0.3328741E-03  0.1118104E+04  0.7818609E-02  0.9187724E-01
        1   -1    0    0  501    0  0.00000000000E+00  0.00000000000E+00  0.10504263243E+04  0.10504263243E+04  0.50400001928E-02 0. -1.
       -1   -1    0    0    0  501  0.00000000000E+00  0.00000000000E+00 -0.29753553608E+03  0.29753553613E+03  0.50400001928E-02 0.  1.
    10030    2    1    2    0    0  0.00000000000E+00  0.00000000000E+00  0.75289078818E+03  0.13479618604E+04  0.11181040373E+04 0.  0.
        3    1    3    3  502    0 -0.46604068005E+03  0.41407636830E+01  0.42201444814E+01  0.46607819215E+03  0.10100000352E+00 0.  1.
       -3    1    3    3    0  502  0.46604068005E+03 -0.41407636830E+01  0.74867064370E+03  0.88188366825E+03  0.10100000352E+00 0. -1.
</event>
<event>
 5   0  0.2185750E-03  0.1065133E+04  0.7818609E-02  0.9239859E-01
       -3   -1    0    0    0  501  0.00000000000E+00  0.00000000000E+00  0.12163497587E+04  0.12163497629E+04  0.10100000352E+00 0.  1.
        3   -1    0    0  501    0  0.00000000000E+00  0.00000000000E+00 -0.23317869133E+03  0.23317871321E+03  0.10100000352E+00 0. -1.
    10030    2    1    2    0    0  0.00000000000E+00  0.00000000000E+00  0.98317106740E+03  0.14495284761E+04  0.10651325999E+04 0.  0.
        3    1    3    3  502    0 -0.42521456582E+03  0.23487275898E+03  0.19450531931E+03  0.52326376650E+03  0.10100000352E+00 0.  1.
       -3    1    3    3    0  502  0.42521456582E+03 -0.23487275898E+03  0.78866574809E+03  0.92626470963E+03  0.10100000352E+00 0. -1.
</event>
<event>
 5   0  0.3215352E-03  0.1118318E+04  0.7818609E-02  0.9187519E-01
        1   -1    0    0  501    0  0.00000000000E+00  0.00000000000E+00  0.72010465113E+03  0.72010465115E+03  0.50400001928E-02 0.  1.
       -1   -1    0    0    0  501  0.00000000000E+00  0.00000000000E+00 -0.43418532207E+03  0.43418532210E+03  0.50400001928E-02 0. -1.
    10030    2    1    2    0    0  0.00000000000E+00  0.00000000000E+00  0.28591932906E+03  0.11542899733E+04  0.11183181478E+04 0.  0.
        1    1    3    3  502    0  0.28067485775E+03 -0.32850506393E+03 -0.22337191047E+03  0.48640411513E+03  0.50400001928E-02 0. -1.
       -1    1    3    3    0  502 -0.28067485775E+03  0.32850506393E+03  0.50929123953E+03  0.66788585813E+03  0.50400001928E-02 0.  1.
</event>
<event>
 5   0  0.3320192E-03  0.1102568E+04  0.7818609E-02  0.9202693E-01
        1   -1    0    0  501    0  0.00000000000E+00  0.00000000000E+00  0.35624267562E+03  0.35624267565E+03  0.50400001928E-02 0.  1.
       -1   -1    0    0    0  501  0.00000000000E+00  0.00000000000E+00 -0.85310942083E+03  0.85310942084E+03  0.50400001928E-02 0. -1.
    10030    2    1    2    0    0  0.00000000000E+00  0.00000000000E+00 -0.49686674521E+03  0.12093520965E+04  0.11025678804E+04 0.  0.
        2    1    3    3  502    0  0.12049461476E+03 -0.53141581646E+03 -0.34015172103E+03  0.64235886815E+03  0.25500000920E-02 0.  1.
       -2    1    3    3    0  502 -0.12049461476E+03  0.53141581646E+03 -0.15671502418E+03  0.56699322834E+03  0.25500000920E-02 0. -1.
</event>
<event>
 5   0  0.5627232E-03  0.1060713E+04  0.7818609E-02  0.9244353E-01
        2   -1    0    0  501    0  0.00000000000E+00  0.00000000000E+00  0.12763780366E+04  0.12763780366E+04  0.25500000920E-02 0. -1.
       -2   -1    0    0    0  501  0.00000000000E+00  0.00000000000E+00 -0.22037192988E+03  0.22037192989E+03  0.25500000920E-02 0.  1.
    10030    2    1    2    0    0  0.00000000000E+00  0.00000000000E+00  0.10560061067E+04  0.14967499665E+04  0.10607127626E+04 0.  0.
        2    1    3    3  502    0  0.50507402779E+02  0.10031975190E+02  0.12728421761E+04  0.12738833712E+04  0.25500000920E-02 0. -1.
       -2    1    3    3    0  502 -0.50507402779E+02 -0.10031975190E+02 -0.21683606941E+03  0.22286659522E+03  0.25500000920E-02 0.  1.
</event>
<event>
 5   0  0.5941585E-03  0.1088489E+04  0.7818609E-02  0.9216484E-01
        2   -1    0    0  501    0  0.00000000000E+00  0.00000000000E+00  0.68357212359E+03  0.68357212359E+03  0.25500000920E-02 0.  1.
       -2   -1    0    0    0  501  0.00000000000E+00  0.00000000000E+00 -0.43331536728E+03  0.43331536729E+03  0.25500000920E-02 0. -1.
    10030    2    1    2    0    0  0.00000000000E+00  0.00000000000E+00  0.25025675630E+03  0.11168874909E+04  0.10884894226E+04 0.  0.
        5    1    3    3  502    0 -0.43768199930E+03 -0.21052374081E+03 -0.12682711941E+03  0.50198902993E+03  0.46999998093E+01 0. -1.
       -5    1    3    3    0  502  0.43768199930E+03  0.21052374081E+03  0.37708387571E+03  0.61489846095E+03  0.46999998093E+01 0.  1.
</event>
<event>
 5   0  0.3215352E-03  0.1065696E+04  0.7818609E-02  0.9239288E-01
        1   -1    0    0  501    0  0.00000000000E+00  0.00000000000E+00  0.55699823032E+03  0.55699823035E+03  0.50400001928E-02 0. -1.
       -1   -1    0    0    0  501  0.00000000000E+00  0.00000000000E+00 -0.50974439931E+03  0.50974439934E+03  0.50400001928E-02 0.  1.
    10030    2    1    2    0    0  0.00000000000E+00  0.00000000000E+00  0.47253831012E+02  0.10667426297E+04  0.10656955069E+04 0.  0.
        1    1    3    3  502    0  0.19245399018E+03 -0.39963648751E+03  0.31917770822E+03  0.54646342050E+03  0.50400001928E-02 0. -1.
       -1    1    3    3    0  502 -0.19245399018E+03  0.39963648751E+03 -0.27192387721E+03  0.52027920919E+03  0.50400001928E-02 0.  1.
</event>
<event>
 5   0  0.5723194E-03  0.1117143E+04  0.7818609E-02  0.9188643E-01
       -2   -1    0    0    0  501  0.00000000000E+00  0.00000000000E+00  0.34365038724E+03  0.34365038725E+03  0.25500000920E-02 0. -1.
        2   -1    0    0  501    0  0.00000000000E+00  0.00000000000E+00 -0.90790506872E+03  0.90790506873E+03  0.25500000920E-02 0.  1.
    10030    2    1    2    0    0  0.00000000000E+00  0.00000000000E+00 -0.56425468148E+03  0.12515554560E+04  0.11171426560E+04 0.  0.
        1    1    3    3  502    0 -0.23693310782E+03  0.28128347449E+03  0.18886527136E+03  0.41343413182E+03  0.50400001928E-02 0. -1.
       -1    1    3    3    0  502  0.23693310782E+03 -0.28128347449E+03 -0.75311995285E+03  0.83812132415E+03  0.50400001928E-02 0.  1.
</event>
<event>
 5   0  0.3215352E-03  0.1100843E+04  0.7818609E-02  0.9204370E-01
       -1   -1    0    0    0  501  0.00000000000E+00  0.00000000000E+00  0.69884794948E+03  0.69884794950E+03  0.50400001928E-02 0.  1.
        1   -1    0    0  501    0  0.00000000000E+00  0.00000000000E+00 -0.43351918798E+03  0.43351918801E+03  0.50400001928E-02 0. -1.
    10030    2    1    2    0    0  0.00000000000E+00  0.00000000000E+00  0.26532876149E+03  0.11323671375E+04  0.11008433051E+04 0.  0.
        1    1    3    3  502    0 -0.54359557242E+03  0.74613470319E+02  0.87819159488E+02  0.55567573378E+03  0.50400001928E-02 0.  1.
       -1    1    3    3    0  502  0.54359557242E+03 -0.74613470319E+02  0.17750960201E+03  0.57669140373E+03  0.50400001928E-02 0. -1.
</event>
<event>
 5   0  0.5941585E-03  0.1102465E+04  0.7818609E-02  0.9202793E-01
       -2   -1    0    0    0  501  0.00000000000E+00  0.00000000000E+00  0.34925561544E+03  0.34925561545E+03  0.25500000920E-02 0. -1.
        2   -1    0    0  501    0  0.00000000000E+00  0.00000000000E+00 -0.87001398236E+03  0.87001398237E+03  0.25500000920E-02 0.  1.
    10030    2    1    2    0    0  0.00000000000E+00  0.00000000000E+00 -0.52075836692E+03  0.12192695978E+04  0.11024649996E+04 0.  0.
        5    1    3    3  502    0 -0.27996519222E+03  0.43567962506E+03 -0.51598076558E+02  0.52046296319E+03  0.46999998093E+01 0. -1.
       -5    1    3    3    0  502  0.27996519222E+03 -0.43567962506E+03 -0.46916029037E+03  0.69880663463E+03  0.46999998093E+01 0.  1.
</event>
<event>
 5   0  0.5723194E-03  0.1099480E+04  0.7818609E-02  0.9205698E-01
        2   -1    0    0  501    0  0.00000000000E+00  0.00000000000E+00  0.38959833557E+03  0.38959833557E+03  0.25500000920E-02 0.  1.
       -2   -1    0    0    0  501  0.00000000000E+00  0.00000000000E+00 -0.77570744481E+03  0.77570744482E+03  0.25500000920E-02 0. -1.
    10030    2    1    2    0    0  0.00000000000E+00  0.00000000000E+00 -0.38610910925E+03  0.11653057804E+04  0.10994804762E+04 0.  0.
        1    1    3    3  502    0  0.36383317259E+03 -0.41003698803E+03 -0.14923410682E+03  0.56813354742E+03  0.50400001928E-02 0. -1.
       -1    1    3    3    0  502 -0.36383317259E+03  0.41003698803E+03 -0.23687500243E+03  0.59717223298E+03  0.50400001928E-02 0.  1.
</event>
<event>
 5   0  0.5941585E-03  0.1092377E+04  0.7818609E-02  0.9212654E-01
       -2   -1    0    0    0  501  0.00000000000E+00  0.00000000000E+00  0.48291291771E+03  0.48291291772E+03  0.25500000920E-02 0.  1.
        2   -1    0    0  501    0  0.00000000000E+00  0.00000000000E+00 -0.61775487648E+03  0.61775487649E+03  0.25500000920E-02 0. -1.
    10030    2    1    2    0    0  0.00000000000E+00  0.00000000000E+00 -0.13484195877E+03  0.11006677942E+04  0.10923768761E+04 0.  0.
        5    1    3    3  502    0  0.34442369308E+02  0.43748134331E+03 -0.39504034306E+03  0.59047029154E+03  0.46999998093E+01 0. -1.
       -5    1    3    3    0  502 -0.34442369308E+02 -0.43748134331E+03  0.26019838428E+03  0.51019750267E+03  0.46999998093E+01 0.  1.
</event>
<event>
 5   0  0.5941585E-03  0.1087174E+04  0.7818609E-02  0.9217784E-01
       -2   -1    0    0    0  501  0.00000000000E+00  0.00000000000E+00  0.33276021799E+03  0.33276021800E+03  0.25500000920E-02 0. -1.
        2   -1    0    0  501    0  0.00000000000E+00  0.00000000000E+00 -0.88798775203E+03  0.88798775204E+03  0.25500000920E-02 0.  1.
    10030    2    1    2    0    0  0.00000000000E+00  0.00000000000E+00 -0.55522753404E+03  0.12207479700E+04  0.10871743153E+04 0.  0.
        5    1    3    3  502    0  0.38963766796E+03 -0.37439682324E+03 -0.21142753831E+03  0.58027078808E+03  0.46999998093E+01 0. -1.
       -5    1    3    3    0  502 -0.38963766796E+03  0.37439682324E+03 -0.34379999574E+03  0.64047718196E+03  0.46999998093E+01 0.  1.
</event>
<event>
 5   0  0.2185750E-03  0.1085287E+04  0.7818609E-02  0.9219652E-01
       -4   -1    0    0    0  501  0.00000000000E+00  0.00000000000E+00  0.10107045155E+04  0.10107053134E+04  0.12699999809E+01 0. -1.
        4   -1    0    0  501    0  0.00000000000E+00  0.00000000000E+00 -0.29134110822E+03  0.29134387627E+03  0.12699999809E+01 0.  1.
    10030    2    1    2    0    0  0.00000000000E+00  0.00000000000E+00  0.71936340728E+03  0.13020491897E+04  0.10852872342E+04 0.  0.
        3    1    3    3  502    0  0.35257150229E+03  0.52134447569E+02  0.85059970663E+03  0.92224971454E+03  0.10100000352E+00 0. -1.
       -3    1    3    3    0  502 -0.35257150229E+03 -0.52134447569E+02 -0.13123629935E+03  0.37979947514E+03  0.10100000352E+00 0.  1.
</event>
<event>
 5   0  0.5500363E-03  0.7919982E+03  0.7818609E-02  0.9571672E-01
       -2   -1    0    0    0  501  0.00000000000E+00  0.00000000000E+00  0.10513438565E+03  0.10513438568E+03  0.25500000920E-02 0.  1.
        2   -1    0    0  501    0  0.00000000000E+00  0.00000000000E+00 -0.14915699821E+04  0.14915699821E+04  0.25500000920E-02 0. -1.
    10030    2    1    2    0    0  0.00000000000E+00  0.00000000000E+00 -0.13864355964E+04  0.15967043678E+04  0.79199821654E+03 0.  0.
        3    1    3    3  502    0 -0.23537830396E+03 -0.28689234912E+03 -0.97187814115E+03  0.10403159604E+04  0.10100000352E+00 0. -1.
       -3    1    3    3    0  502  0.23537830396E+03  0.28689234912E+03 -0.41455745528E+03  0.55638840740E+03  0.10100000352E+00 0.  1.
</event>
<event>
 5   0  0.3320192E-03  0.1131177E+04  0.7818609E-02  0.9175326E-01
        1   -1    0    0  501    0  0.00000000000E+00  0.00000000000E+00  0.83950816860E+03  0.83950816862E+03  0.50400001928E-02 0. -1.
       -1   -1    0    0    0  501  0.00000000000E+00  0.00000000000E+00 -0.38104510004E+03  0.38104510008E+03  0.50400001928E-02 0.  1.
    10030    2    1    2    0    0  0.00000000000E+00  0.00000000000E+00  0.45846306856E+03  0.12205532687E+04  0.11311772171E+04 0.  0.
        2    1    3    3  502    0 -0.44731519246E+03 -0.72707393801E+02 -0.13590384591E+03  0.47312482694E+03  0.25500000920E-02 0.  1.
       -2    1    3    3    0  502  0.44731519246E+03  0.72707393801E+02  0.59436691447E+03  0.74742844176E+03  0.25500000920E-02 0. -1.
</event>
<event>
 5   0  0.5946359E-03  0.1070770E+04  0.7818609E-02  0.9234159E-01
        2   -1    0    0  501    0  0.00000000000E+00  0.00000000000E+00  0.69950841427E+03  0.69950841427E+03  0.25500000920E-02 0.  1.
       -2   -1    0    0    0  501  0.00000000000E+00  0.00000000000E+00 -0.40976960000E+03  0.40976960001E+03  0.25500000920E-02 0. -1.
    10030    2    1    2    0    0  0.00000000000E+00  0.00000000000E+00  0.28973881427E+03  0.11092780143E+04  0.10707703453E+04 0.  0.
        4    1    3    3  502    0  0.27097988200E+02  0.16390955491E+03  0.67212757640E+03  0.69235665304E+03  0.12699999809E+01 0.  1.
       -4    1    3    3    0  502 -0.27097988200E+02 -0.16390955491E+03 -0.38238876213E+03  0.41692136124E+03  0.12699999809E+01 0. -1.
</event>
<event>
 5   0  0.3328741E-03  0.1105184E+04  0.7818609E-02  0.9200154E-01
        1   -1    0    0  501    0  0.00000000000E+00  0.00000000000E+00  0.16777493285E+04  0.16777493286E+04  0.50400001928E-02 0.  1.
       -1   -1    0    0    0  501  0.00000000000E+00  0.00000000000E+00 -0.18200460900E+03  0.18200460907E+03  0.50400001928E-02 0. -1.
    10030    2    1    2    0    0  0.00000000000E+00  0.00000000000E+00  0.14957447195E+04  0.18597539376E+04  0.11051843477E+04 0.  0.
        3    1    3    3  502    0 -0.14305040674E+03  0.53225703660E+03  0.68062260632E+03  0.87578999441E+03  0.10100000352E+00 0.  1.
       -3    1    3    3    0  502  0.14305040674E+03 -0.53225703660E+03  0.81512211322E+03  0.98396394322E+03  0.10100000352E+00 0. -1.
</event>
<event>
 5   0  0.5500363E-03  0.1101561E+04  0.7818609E-02  0.9203671E-01
       -2   -1    0    0    0  501  0.00000000000E+00  0.00000000000E+00  0.90484412877E+03  0.90484412877E+03  0.25500000920E-02 0.  1.
        2   -1    0    0  501    0  0.00000000000E+00  0.00000000000E+00 -0.33526142521E+03  0.33526142522E+03  0.25500000920E-02 0. -1.
    10030    2    1    2    0    0  0.00000000000E+00  0.00000000000E+00  0.56958270356E+03  0.12401055540E+04  0.11015613142E+04 0.  0.
        3    1    3    3  502    0 -0.48611116908E+03 -0.91883191752E+02  0.55734121027E+03  0.74523541549E+03  0.10100000352E+00 0. -1.
       -3    1    3    3    0  502  0.48611116908E+03  0.91883191752E+02  0.12241493281E+02  0.49487013851E+03  0.10100000352E+00 0.  1.
</event>
<event>
 5   0  0.3316784E-03  0.1134739E+04  0.7818609E-02  0.9171979E-01
       -1   -1    0    0    0  501  0.00000000000E+00  0.00000000000E+00  0.68508928243E+03  0.68508928244E+03  0.50400001928E-02 0.  1.
        1   -1    0    0  501    0  0.00000000000E+00  0.00000000000E+00 -0.46987758565E+03  0.46987758567E+03  0.50400001928E-02 0. -1.
    10030    2    1    2    0    0  0.00000000000E+00  0.00000000000E+00  0.21521169678E+03  0.11549668681E+04  0.11347389092E+04 0.  0.
        4    1    3    3  502    0 -0.14376498040E+03 -0.45297021583E+03  0.42305985818E+03  0.63626381519E+03  0.12699999809E+01 0.  1.
       -4    1    3    3    0  502  0.14376498040E+03  0.45297021583E+03 -0.20784816140E+03  0.51870305293E+03  0.12699999809E+01 0. -1.
</event>
<event>
 5   0  0.5723194E-03  0.1126027E+04  0.7818609E-02  0.9180189E-01
       -2   -1    0    0    0  501  0.00000000000E+00  0.00000000000E+00  0.26149680751E+03  0.26149680753E+03  0.25500000920E-02 0.  1.
        2   -1    0    0  501    0  0.00000000000E+00  0.00000000000E+00 -0.12121911464E+04  0.12121911464E+04  0.25500000920E-02 0. -1.
    10030    2    1    2    0    0  0.00000000000E+00  0.00000000000E+00 -0.95069433887E+03  0.14736879539E+04  0.11260268467E+04 0.  0.
        1    1    3    3  502    0  0.24012768852E+03 -0.26284675630E+03  0.95475621236E+02  0.36859912963E+03  0.50400001928E-02 0.  1.
       -1    1    3    3    0  502 -0.24012768852E+03  0.26284675630E+03 -0.10461699601E+04  0.11050888243E+04  0.50400001928E-02 0. -1.
</event>
<event>
 5   0  0.3241189E-03  0.1092712E+04  0.7818609E-02  0.9212325E-01
        1   -1    0    0  501    0  0.00000000000E+00  0.00000000000E+00  0.86010668706E+03  0.86010668708E+03  0.50400001928E-02 0.  1.
       -1   -1    0    0    0  501  0.00000000000E+00  0.00000000000E+00 -0.34705539507E+03  0.34705539510E+03  0.50400001928E-02 0. -1.
    10030    2    1    2    0    0  0.00000000000E+00  0.00000000000E+00  0.51305129200E+03  0.12071620822E+04  0.10927116108E+04 0.  0.
        5    1    3    3  502    0 -0.44936811684E+01  0.48866785619E+03  0.52637655620E+03  0.71826933372E+03  0.46999998093E+01 0.  1.
       -5    1    3    3    0  502  0.44936811684E+01 -0.48866785619E+03 -0.13325264204E+02  0.48889274847E+03  0.46999998093E+01 0. -1.
</event>
<event>
 5   0  0.3316784E-03  0.1106082E+04  0.7818609E-02  0.9199284E-01
       -1   -1    0    0    0  501  0.00000000000E+00  0.00000000000E+00  0.35788231384E+03  0.35788231387E+03  0.50400001928E-02 0.  1.
        1   -1    0    0  501    0  0.00000000000E+00  0.00000000000E+00 -0.85462319015E+03  0.85462319016E+03  0.50400001928E-02 0. -1.
    10030    2    1    2    0    0  0.00000000000E+00  0.00000000000E+00 -0.49674087631E+03  0.12125055040E+04  0.11060823202E+04 0.  0.
        4    1    3    3  502    0 -0.54098255484E+03  0.23215213212E+02 -0.37167329321E+03  0.65676763056E+03  0.12699999809E+01 0. -1.
       -4    1    3    3    0  502  0.54098255484E+03 -0.23215213212E+02 -0.12506758310E+03  0.55573787347E+03  0.12699999809E+01 0.  1.
</event>
<event>
 5   0  0.5500363E-03  0.1301631E+04  0.7818609E-02  0.9028273E-01
        2   -1    0    0  501    0  0.00000000000E+00  0.00000000000E+00  0.10649180842E+04  0.10649180842E+04  0.25500000920E-02 0.  1.
       -2   -1    0    0    0  501  0.00000000000E+00  0.00000000000E+00 -0.39774016273E+03  0.39774016274E+03  0.25500000920E-02 0. -1.
    10030    2    1    2    0    0  0.00000000000E+00  0.00000000000E+00  0.66717792149E+03  0.14626582470E+04  0.13016308111E+04 0.  0.
        3    1    3    3  502    0  0.21604032018E+03  0.14880223388E+03 -0.33569941402E+03  0.42603947179E+03  0.10100000352E+00 0. -1.
       -3    1    3    3    0  502 -0.21604032018E+03 -0.14880223388E+03  0.10028773355E+04  0.10366187752E+04  0.10100000352E+00 0.  1.
</event>
<event>
 5   0  0.3241189E-03  0.1108017E+04  0.7818609E-02  0.9197413E-01
       -1   -1    0    0    0  501  0.00000000000E+00  0.00000000000E+00  0.16917353349E+03  0.16917353357E+03  0.50400001928E-02 0. -1.
        1   -1    0    0  501    0  0.00000000000E+00  0.00000000000E+00 -0.18142631801E+04  0.18142631801E+04  0.50400001928E-02 0.  1.
    10030    2    1    2    0    0  0.00000000000E+00  0.00000000000E+00 -0.16450896466E+04  0.19834367136E+04  0.11080168102E+04 0.  0.
        5    1    3    3  502    0 -0.52949933022E+03 -0.10023836390E+03 -0.10523866277E+04  0.11823523055E+04  0.46999998093E+01 0. -1.
       -5    1    3    3    0  502  0.52949933022E+03  0.10023836390E+03 -0.59270301890E+03  0.80108440811E+03  0.46999998093E+01 0.  1.
</event>
<event>
 5   0  0.3328741E-03  0.1101530E+04  0.7818609E-02  0.9203702E-01
       -1   -1    0    0    0  501  0.00000000000E+00  0.00000000000E+00  0.18719396598E+03  0.18719396605E+03  0.50400001928E-02 0. -1.
        1   -1    0    0  501    0  0.00000000000E+00  0.00000000000E+00 -0.16204687282E+04  0.16204687282E+04  0.50400001928E-02 0.  1.
    10030    2    1    2    0    0  0.00000000000E+00  0.00000000000E+00 -0.14332747622E+04  0.18076626943E+04  0.11015297872E+04 0.  0.
        3    1    3    3  502    0 -0.40093876756E+03  0.37757100667E+03 -0.70761946561E+03  0.89668114663E+03  0.10100000352E+00 0. -1.
       -3    1    3    3    0  502  0.40093876756E+03 -0.37757100667E+03 -0.72565529661E+03  0.91098154763E+03  0.10100000352E+00 0.  1.
</event>
<event>
 5   0  0.3320192E-03  0.1086459E+04  0.7818609E-02  0.9218491E-01
        1   -1    0    0  501    0  0.00000000000E+00  0.00000000000E+00  0.15835411925E+04  0.15835411925E+04  0.50400001928E-02 0.  1.
       -1   -1    0    0    0  501  0.00000000000E+00  0.00000000000E+00 -0.18635337692E+03  0.18635337699E+03  0.50400001928E-02 0. -1.
    10030    2    1    2    0    0  0.00000000000E+00  0.00000000000E+00  0.13971878156E+04  0.17698945695E+04  0.10864589247E+04 0.  0.
        2    1    3    3  502    0 -0.30757855473E+02 -0.19092997396E+02  0.15815738950E+04  0.15819881712E+04  0.25500000920E-02 0.  1.
       -2    1    3    3    0  502  0.30757855473E+02  0.19092997396E+02 -0.18438607947E+03  0.18790639833E+03  0.25500000920E-02 0. -1.
</event>
<event>
 5   0  0.5627232E-03  0.1118632E+04  0.7818609E-02  0.9187220E-01
       -2   -1    0    0    0  501  0.00000000000E+00  0.00000000000E+00  0.20719477981E+03  0.20719477982E+03  0.25500000920E-02 0.  1.
        2   -1    0    0  501    0  0.00000000000E+00  0.00000000000E+00 -0.15098566437E+04  0.15098566437E+04  0.25500000920E-02 0. -1.
    10030    2    1    2    0    0  0.00000000000E+00  0.00000000000E+00 -0.13026618639E+04  0.17170514236E+04  0.11186320483E+04 0.  0.
        2    1    3    3  502    0  0.21432126139E+03 -0.90720746327E+02 -0.14320046241E+04  0.14507932659E+04  0.25500000920E-02 0. -1.
       -2    1    3    3    0  502 -0.21432126139E+03  0.90720746327E+02  0.12934276019E+03  0.26625815766E+03  0.25500000920E-02 0.  1.
</event>
<event>
 5   0  0.3320192E-03  0.1070119E+04  0.7818609E-02  0.9234815E-01
        1   -1    0    0  501    0  0.00000000000E+00  0.00000000000E+00  0.44113167913E+03  0.44113167916E+03  0.50400001928E-02 0. -1.
       -1   -1    0    0    0  501  0.00000000000E+00  0.00000000000E+00 -0.64898699072E+03  0.64898699074E+03  0.50400001928E-02 0.  1.
    10030    2    1    2    0    0  0.00000000000E+00  0.00000000000E+00 -0.20785531159E+03  0.10901186699E+04  0.10701190980E+04 0.  0.
        2    1    3    3  502    0  0.51333523765E+03 -0.12985675448E+03 -0.25595311384E+02  0.53012353548E+03  0.25500000920E-02 0. -1.
       -2    1    3    3    0  502 -0.51333523765E+03  0.12985675448E+03 -0.18226000020E+03  0.55999513442E+03  0.25500000920E-02 0.  1.
</event>
<event>
 5   0  0.3320192E-03  0.1039909E+04  0.7818609E-02  0.9265825E-01
        1   -1    0    0  501    0  0.00000000000E+00  0.00000000000E+00  0.22451143664E+03  0.22451143670E+03  0.50400001928E-02 0. -1.
       -1   -1    0    0    0  501  0.00000000000E+00  0.00000000000E+00 -0.12041826474E+04  0.12041826474E+04  0.50400001928E-02 0.  1.
    10030    2    1    2    0    0  0.00000000000E+00  0.00000000000E+00 -0.97967121078E+03  0.14286940841E+04  0.10399091810E+04 0.  0.
        2    1    3    3  502    0 -0.23163254979E+03 -0.44531364707E+03 -0.30350144688E+03  0.58657566490E+03  0.25500000920E-02 0. -1.
       -2    1    3    3    0  502  0.23163254979E+03  0.44531364707E+03 -0.67616976390E+03  0.84211841924E+03  0.25500000920E-02 0.  1.
</event>
<event>
 5   0  0.3328741E-03  0.1090118E+04  0.7818609E-02  0.9214877E-01
        1   -1    0    0  501    0  0.00000000000E+00  0.00000000000E+00  0.11535599529E+04  0.11535599529E+04  0.50400001928E-02 0.  1.
       -1   -1    0    0    0  501  0.00000000000E+00  0.00000000000E+00 -0.25754126106E+03  0.25754126111E+03  0.50400001928E-02 0. -1.
    10030    2    1    2    0    0  0.00000000000E+00  0.00000000000E+00  0.89601869180E+03  0.14111012140E+04  0.10901179478E+04 0.  0.
        3    1    3    3  502    0  0.51270236760E+03  0.15076159164E+02  0.20933097637E+03  0.55399501459E+03  0.10100000352E+00 0. -1.
       -3    1    3    3    0  502 -0.51270236760E+03 -0.15076159164E+02  0.68668771543E+03  0.85710619939E+03  0.10100000352E+00 0.  1.
</event>
<event>
 5   0  0.5723194E-03  0.1065768E+04  0.7818609E-02  0.9239214E-01
        2   -1    0    0  501    0  0.00000000000E+00  0.00000000000E+00  0.63501513931E+03  0.63501513932E+03  0.25500000920E-02 0.  1.
       -2   -1    0    0    0  501  0.00000000000E+00  0.00000000000E+00 -0.44717883334E+03  0.44717883335E+03  0.25500000920E-02 0. -1.
    10030    2    1    2    0    0  0.00000000000E+00  0.00000000000E+00  0.18783630597E+03  0.10821939727E+04  0.10657679469E+04 0.  0.
        1    1    3    3  502    0  0.49815625521E+03 -0.16208708611E+03  0.19306240179E+03  0.55830544426E+03  0.50400001928E-02 0. -1.
       -1    1    3    3    0  502 -0.49815625521E+03  0.16208708611E+03 -0.52260958160E+01  0.52388852840E+03  0.50400001928E-02 0.  1.
</event>
<event>
 5   0  0.5946359E-03  0.1109105E+04  0.7818609E-02  0.9196363E-01
       -2   -1    0    0    0  501  0.00000000000E+00  0.00000000000E+00  0.30035223212E+03  0.30035223213E+03  0.25500000920E-02 0. -1.
        2   -1    0    0  501    0  0.00000000000E+00  0.00000000000E+00 -0.10238928614E+04  0.10238928614E+04  0.25500000920E-02 0.  1.
    10030    2    1    2    0    0  0.00000000000E+00  0.00000000000E+00 -0.72354062924E+03  0.13242450935E+04  0.11091050561E+04 0.  0.
        4    1    3    3  502    0 -0.21073629219E+03 -0.43342378302E+03 -0.34218140695E+02  0.48315469012E+03  0.12699999809E+01 0. -1.
       -4    1    3    3    0  502  0.21073629219E+03  0.43342378302E+03 -0.68932248855E+03  0.84109040337E+03  0.12699999809E+01 0.  1.
</event>
<event>
 5   0  0.3215352E-03  0.1068038E+04  0.7818609E-02  0.9236917E-01
       -1   -1    0    0    0  501  0.00000000000E+00  0.00000000000E+00  0.19823659649E+03  0.19823659655E+03  0.50400001928E-02 0. -1.
        1   -1    0    0  501    0  0.00000000000E+00  0.00000000000E+00 -0.14385653136E+04  0.14385653136E+04  0.50400001928E-02 0.  1.
    10030    2    1    2    0    0  0.00000000000E+00  0.00000000000E+00 -0.12403287171E+04  0.16368019101E+04  0.10680379987E+04 0.  0.
        1    1    3    3  502    0 -0.11704510400E+03 -0.11116412415E+03  0.15995180612E+03  0.22724788046E+03  0.50400001928E-02 0. -1.
       -1    1    3    3    0  502  0.11704510400E+03  0.11116412415E+03 -0.14002805232E+04  0.14095540297E+04  0.50400001928E-02 0.  1.
</event>
<event>
 5   0  0.5723194E-03  0.1093642E+04  0.7818609E-02  0.9211411E-01
        2   -1    0    0  501    0  0.00000000000E+00  0.00000000000E+00  0.12112780087E+04  0.12112780087E+04  0.25500000920E-02 0.  1.
       -2   -1    0    0    0  501  0.00000000000E+00  0.00000000000E+00 -0.24685744373E+03  0.24685744374E+03  0.25500000920E-02 0. -1.
    10030    2    1    2    0    0  0.00000000000E+00  0.00000000000E+00  0.96442056497E+03  0.14581354525E+04  0.10936416102E+04 0.  0.
        1    1    3    3  502    0  0.12145236283E+03 -0.58699637619E+02 -0.22432570149E+03  0.26176008914E+03  0.50400001928E-02 0. -1.
       -1    1    3    3    0  502 -0.12145236283E+03  0.58699637619E+02  0.11887462665E+04  0.11963753633E+04  0.50400001928E-02 0.  1.
</event>
<event>
 5   0  0.5946359E-03  0.1102584E+04  0.7818609E-02  0.9202677E-01
        2   -1    0    0  501    0  0.00000000000E+00  0.00000000000E+00  0.42012042952E+03  0.42012042953E+03  0.25500000920E-02 0.  1.
       -2   -1    0    0    0  501  0.00000000000E+00  0.00000000000E+00 -0.72341854576E+03  0.72341854576E+03  0.25500000920E-02 0. -1.
    10030    2    1    2    0    0  0.00000000000E+00  0.00000000000E+00 -0.30329811623E+03  0.11435389753E+04  0.11025840742E+04 0.  0.
        4    1    3    3  502    0  0.31352198954E+03  0.31640605191E+00 -0.62195166048E+03  0.69650672568E+03  0.12699999809E+01 0. -1.
       -4    1    3    3    0  502 -0.31352198954E+03 -0.31640605191E+00  0.31865354425E+03  0.44703224962E+03  0.12699999809E+01 0.  1.
</event>
<event>
 5   0  0.5941585E-03  0.1006798E+04  0.7818609E-02  0.9301120E-01
       -2   -1    0    0    0  501  0.00000000000E+00  0.00000000000E+00  0.12337048907E+04  0.12337048907E+04  0.25500000920E-02 0. -1.
        2   -1    0    0  501    0  0.00000000000E+00  0.00000000000E+00 -0.20540618674E+03  0.20540618675E+03  0.25500000920E-02 0.  1.
    10030    2    1    2    0    0  0.00000000000E+00  0.00000000000E+00  0.10282987040E+04  0.14391110775E+04  0.10067981271E+04 0.  0.
        5    1    3    3  502    0 -0.12181776366E+03  0.41956996689E+03  0.87152641499E+03  0.97491482021E+03  0.46999998093E+01 0.  1.
       -5    1    3    3    0  502  0.12181776366E+03 -0.41956996689E+03  0.15677228899E+03  0.46419625725E+03  0.46999998093E+01 0. -1.
</event>
<event>
 5   0  0.5723194E-03  0.9954759E+03  0.7818609E-02  0.9313521E-01
       -2   -1    0    0    0  501  0.00000000000E+00  0.00000000000E+00  0.25856514226E+03  0.25856514228E+03  0.25500000920E-02 0. -1.
        2   -1    0    0  501    0  0.00000000000E+00  0.00000000000E+00 -0.95814562109E+03  0.95814562109E+03  0.25500000920E-02 0.  1.
    10030    2    1    2    0    0  0.00000000000E+00  0.00000000000E+00 -0.69958047883E+03  0.12167107634E+04  0.99547588386E+03 0.  0.
        1    1    3    3  502    0 -0.48987367753E+03  0.35670021277E+02 -0.25129186093E+03  0.55172109779E+03  0.50400001928E-02 0. -1.
       -1    1    3    3    0  502  0.48987367753E+03 -0.35670021277E+02 -0.44828861790E+03  0.66498966557E+03  0.50400001928E-02 0.  1.
</event>
<event>
 5   0  0.5941585E-03  0.1090741E+04  0.7818609E-02  0.9214264E-01
       -2   -1    0    0    0  501  0.00000000000E+00  0.00000000000E+00  0.33446538611E+03  0.33446538612E+03  0.25500000920E-02 0.  1.
        2   -1    0    0  501    0  0.00000000000E+00  0.00000000000E+00 -0.88926678038E+03  0.88926678039E+03  0.25500000920E-02 0. -1.
    10030    2    1    2    0    0  0.00000000000E+00  0.00000000000E+00 -0.55480139427E+03  0.12237321665E+04  0.10907409538E+04 0.  0.
        5    1    3    3  502    0  0.27382819760E+02 -0.49544159275E+03 -0.53125069102E+03  0.72695362806E+03  0.46999998093E+01 0. -1.
       -5    1    3    3    0  502 -0.27382819760E+02  0.49544159275E+03 -0.23550703254E+02  0.49677853845E+03  0.46999998093E+01 0.  1.
</event>
<event>
 5   0  0.5723194E-03  0.1102126E+04  0.7818609E-02  0.9203123E-01
       -2   -1    0    0    0  501  0.00000000000E+00  0.00000000000E+00  0.54685153644E+03  0.54685153645E+03  0.25500000920E-02 0. -1.
        2   -1    0    0  501    0  0.00000000000E+00  0.00000000000E+00 -0.55530647614E+03  0.55530647615E+03  0.25500000920E-02 0.  1.
    10030    2    1    2    0    0  0.00000000000E+00  0.00000000000E+00 -0.84549396986E+01  0.11021580126E+04  0.11021255821E+04 0.  0.
        1    1    3    3  502    0 -0.47525617223E+03  0.27510101738E+03  0.41830379470E+02  0.55072568460E+03  0.50400001928E-02 0.  1.
       -1    1    3    3    0  502  0.47525617223E+03 -0.27510101738E+03 -0.50285319168E+02  0.55143232799E+03  0.50400001928E-02 0. -1.
</event>
<event>
 5   0  0.3316784E-03  0.1104148E+04  0.7818609E-02  0.9201159E-01
        1   -1    0    0  501    0  0.00000000000E+00  0.00000000000E+00  0.33664404828E+03  0.33664404832E+03  0.50400001928E-02 0. -1.
       -1   -1    0    0    0  501  0.00000000000E+00  0.00000000000E+00 -0.90536434507E+03  0.90536434509E+03  0.50400001928E-02 0.  1.
    10030    2    1    2    0    0  0.00000000000E+00  0.00000000000E+00 -0.56872029679E+03  0.12420083934E+04  0.11041476682E+04 0.  0.
        4    1    3    3  502    0  0.74467978150E+02  0.18857640751E+03 -0.86196894080E+03  0.88549342688E+03  0.12699999809E+01 0.  1.
       -4    1    3    3    0  502 -0.74467978150E+02 -0.18857640751E+03  0.29324864401E+03  0.35651496652E+03  0.12699999809E+01 0. -1.
</event>
<event>
 5   0  0.3328741E-03  0.1117732E+04  0.7818609E-02  0.9188079E-01
        1   -1    0    0  501    0  0.00000000000E+00  0.00000000000E+00  0.58165750971E+03  0.58165750973E+03  0.50400001928E-02 0.  1.
       -1   -1    0    0    0  501  0.00000000000E+00  0.00000000000E+00 -0.53696774958E+03  0.53696774961E+03  0.50400001928E-02 0. -1.
    10030    2    1    2    0    0  0.00000000000E+00  0.00000000000E+00  0.44689760126E+02  0.11186252593E+04  0.11177322113E+04 0.  0.
        3    1    3    3  502    0  0.14278431828E+03 -0.53659622148E+03  0.85707765924E+02  0.56184401553E+03  0.10100000352E+00 0.  1.
       -3    1    3    3    0  502 -0.14278431828E+03  0.53659622148E+03 -0.41018005799E+02  0.55678124380E+03  0.10100000352E+00 0. -1.
</event>
<event>
 5   0  0.5723194E-03  0.1104670E+04  0.7818609E-02  0.9200652E-01
       -2   -1    0    0    0  501  0.00000000000E+00  0.00000000000E+00  0.13466172454E+03  0.13466172456E+03  0.25500000920E-02 0. -1.
        2   -1    0    0  501    0  0.00000000000E+00  0.00000000000E+00 -0.22654841922E+04  0.22654841922E+04  0.25500000920E-02 0.  1.
    10030    2    1    2    0    0  0.00000000000E+00  0.00000000000E+00 -0.21308224676E+04  0.24001459167E+04  0.11046701014E+04 0.  0.
        1    1    3    3  502    0 -0.12334884967E+02 -0.10148529714E+03  0.11392616138E+03  0.15307052360E+03  0.50400001928E-02 0. -1.
       -1    1    3    3    0  502  0.12334884967E+02  0.10148529714E+03 -0.22447486290E+04  0.22470753931E+04  0.50400001928E-02 0.  1.
</event>
<event>
 5   0  0.3320192E-03  0.1083778E+04  0.7818609E-02  0.9221148E-01
        1   -1    0    0  501    0  0.00000000000E+00  0.00000000000E+00  0.17354688297E+04  0.17354688297E+04  0.50400001928E-02 0. -1.
       -1   -1    0    0    0  501  0.00000000000E+00  0.00000000000E+00 -0.16920145092E+03  0.16920145099E+03  0.50400001928E-02 0.  1.
    10030    2    1    2    0    0  0.00000000000E+00  0.00000000000E+00  0.15662673788E+04  0.19046702807E+04  0.10837782875E+04 0.  0.
        2    1    3    3  502    0 -0.16815866330E+03 -0.36968503534E+03  0.15265884963E+03  0.43387680944E+03  0.25500000920E-02 0.  1.
       -2    1    3    3    0  502  0.16815866330E+03  0.36968503534E+03  0.14136085292E+04  0.14707934713E+04  0.25500000920E-02 0. -1.
</event>
<event>
 5   0  0.5627232E-03  0.1093690E+04  0.7818609E-02  0.9211364E-01
       -2   -1    0    0    0  501  0.00000000000E+00  0.00000000000E+00  0.48219417036E+03  0.48219417037E+03  0.25500000920E-02 0.  1.
        2   -1    0    0  501    0  0.00000000000E+00  0.00000000000E+00 -0.62016390726E+03  0.62016390726E+03  0.25500000920E-02 0. -1.
    10030    2    1    2    0    0  0.00000000000E+00  0.00000000000E+00 -0.13796973690E+03  0.11023580776E+04  0.10936899392E+04 0.  0.
        2    1    3    3  502    0 -0.36806117533E+03  0.27022607267E+03 -0.37228215867E+03  0.58913934244E+03  0.25500000920E-02 0. -1.
       -2    1    3    3    0  502  0.36806117533E+03 -0.27022607267E+03  0.23431242178E+03  0.51321873519E+03  0.25500000920E-02 0.  1.
</event>
<event>
 5   0  0.3316784E-03  0.1066899E+04  0.7818609E-02  0.9238068E-01
       -1   -1    0    0    0  501  0.00000000000E+00  0.00000000000E+00  0.60196737535E+03  0.60196737537E+03  0.50400001928E-02 0. -1.
        1   -1    0    0  501    0  0.00000000000E+00  0.00000000000E+00 -0.47273083796E+03  0.47273083799E+03  0.50400001928E-02 0.  1.
    10030    2    1    2    0    0  0.00000000000E+00  0.00000000000E+00  0.12923653739E+03  0.10746982134E+04  0.10668993238E+04 0.  0.
        4    1    3    3  502    0  0.39736057739E+03 -0.11486942229E+03  0.40394344563E+03  0.57815424655E+03  0.12699999809E+01 0. -1.
       -4    1    3    3    0  502 -0.39736057739E+03  0.11486942229E+03 -0.27470690824E+03  0.49654396681E+03  0.12699999809E+01 0.  1.
</event>
<event>
 5   0  0.5941585E-03  0.1101354E+04  0.7818609E-02  0.9203873E-01
       -2   -1    0    0    0  501  0.00000000000E+00  0.00000000000E+00  0.42132658508E+03  0.42132658508E+03  0.25500000920E-02 0.  1.
        2   -1    0    0  501    0  0.00000000000E+00  0.00000000000E+00 -0.71973948819E+03  0.71973948819E+03  0.25500000920E-02 0. -1.
    10030    2    1    2    0    0  0.00000000000E+00  0.00000000000E+00 -0.29841290311E+03  0.11410660733E+04  0.11013544038E+04 0.  0.
        5    1    3    3  502    0 -0.45138485076E+03 -0.85569269590E+02 -0.46371917612E+03  0.65278476369E+03  0.46999998093E+01 0. -1.
       -5    1    3    3    0  502  0.45138485076E+03  0.85569269590E+02  0.16530627301E+03  0.48828130959E+03  0.46999998093E+01 0.  1.
</event>
<event>
 5   0  0.3316784E-03  0.1077705E+04  0.7818609E-02  0.9227198E-01
       -1   -1    0    0    0  501  0.00000000000E+00  0.00000000000E+00  0.36996533503E+03  0.36996533506E+03  0.50400001928E-02 0.  1.
        1   -1    0    0  501    0  0.00000000000E+00  0.00000000000E+00 -0.78483611294E+03  0.78483611296E+03  0.50400001928E-02 0. -1.
    10030    2    1    2    0    0  0.00000000000E+00  0.00000000000E+00 -0.41487077791E+03  0.11548014480E+04  0.10777052575E+04 0.  0.
        4    1    3    3  502    0  0.42327635746E+03  0.25581826625E+03  0.21770140811E+02  0.49505697860E+03  0.12699999809E+01 0.  1.
       -4    1    3    3    0  502 -0.42327635746E+03 -0.25581826625E+03 -0.43664091872E+03  0.65974446942E+03  0.12699999809E+01 0. -1.
</event>
<event>
 5   0  0.5723194E-03  0.1130449E+04  0.7818609E-02  0.9176012E-01
       -2   -1    0    0    0  501  0.00000000000E+00  0.00000000000E+00  0.50370045756E+03  0.50370045757E+03  0.25500000920E-02 0.  1.
        2   -1    0    0  501    0  0.00000000000E+00  0.00000000000E+00 -0.63426310010E+03  0.63426310010E+03  0.25500000920E-02 0. -1.
    10030    2    1    2    0    0  0.00000000000E+00  0.00000000000E+00 -0.13056264254E+03  0.11379635577E+04  0.11304487848E+04 0.  0.
        1    1    3    3  502    0  0.44839222082E+03  0.32732388458E+03  0.41642020595E+02  0.55671408013E+03  0.50400001928E-02 0. -1.
       -1    1    3    3    0  502 -0.44839222082E+03 -0.32732388458E+03 -0.17220466313E+03  0.58124947754E+03  0.50400001928E-02 0.  1.
</event>
<event>
 5   0  0.3320192E-03  0.1103893E+04  0.7818609E-02  0.9201406E-01
       -1   -1    0    0    0  501  0.00000000000E+00  0.00000000000E+00  0.68458337349E+03  0.68458337351E+03  0.50400001928E-02 0.  1.
        1   -1    0    0  501    0  0.00000000000E+00  0.00000000000E+00 -0.44500748021E+03  0.44500748024E+03  0.50400001928E-02 0. -1.
    10030    2    1    2    0    0  0.00000000000E+00  0.00000000000E+00  0.23957589328E+03  0.11295908537E+04  0.11038926072E+04 0.  0.
        2    1    3    3  502    0  0.11257165564E+03 -0.53738581330E+03  0.62003605459E+02  0.55253989638E+03  0.25500000920E-02 0. -1.
       -2    1    3    3    0  502 -0.11257165564E+03  0.53738581330E+03  0.17757228782E+03  0.57705095737E+03  0.25500000920E-02 0.  1.
</event>
<event>
 5   0  0.3320192E-03  0.1347306E+04  0.7818609E-02  0.8992870E-01
        1   -1    0    0  501    0  0.00000000000E+00  0.00000000000E+00  0.85514258875E+03  0.85514258876E+03  0.50400001928E-02 0.  1.
       -1   -1    0    0    0  501  0.00000000000E+00  0.00000000000E+00 -0.53068154801E+03  0.53068154803E+03  0.50400001928E-02 0. -1.
    10030    2    1    2    0    0  0.00000000000E+00  0.00000000000E+00  0.32446104074E+03  0.13858241368E+04  0.13473060421E+04 0.  0.
        2    1    3    3  502    0  0.23961393566E+03 -0.21329644230E+03  0.77153226687E+03  0.83556702262E+03  0.25500000920E-02 0.  1.
       -2    1    3    3    0  502 -0.23961393566E+03  0.21329644230E+03 -0.44707122613E+03  0.55025711417E+03  0.25500000920E-02 0. -1.
</event>
<event>
 5   0  0.3328741E-03  0.1118911E+04  0.7818609E-02  0.9186954E-01
       -1   -1    0    0    0  501  0.00000000000E+00  0.00000000000E+00  0.51190023974E+03  0.51190023977E+03  0.50400001928E-02 0. -1.
        1   -1    0    0  501    0  0.00000000000E+00  0.00000000000E+00 -0.61142814395E+03  0.61142814397E+03  0.50400001928E-02 0.  1.
    10030    2    1    2    0    0  0.00000000000E+00  0.00000000000E+00 -0.99527904209E+02  0.11233283837E+04  0.11189105657E+04 0.  0.
        3    1    3    3  502    0 -0.24129819242E+03  0.48783216597E+02 -0.55412742867E+03  0.60635124911E+03  0.10100000352E+00 0.  1.
       -3    1    3    3    0  502  0.24129819242E+03 -0.48783216597E+02  0.45459952447E+03  0.51697713463E+03  0.10100000352E+00 0. -1.
</event>
<event>
 5   0  0.3241189E-03  0.1188545E+04  0.7818609E-02  0.9122942E-01
        1   -1    0    0  501    0  0.00000000000E+00  0.00000000000E+00  0.68017441351E+03  0.68017441353E+03  0.50400001928E-02 0.  1.
       -1   -1    0    0    0  501  0.00000000000E+00  0.00000000000E+00 -0.51921979997E+03  0.51921980000E+03  0.50400001928E-02 0. -1.
    10030    2    1    2    0    0  0.00000000000E+00  0.00000000000E+00  0.16095461353E+03  0.11993942135E+04  0.11885453680E+04 0.  0.
        5    1    3    3  502    0  0.20656084400E+03  0.52306108290E+03  0.27426573016E+03  0.62570285237E+03  0.46999998093E+01 0.  1.
       -5    1    3    3    0  502 -0.20656084400E+03 -0.52306108290E+03 -0.11331111663E+03  0.57369136116E+03  0.46999998093E+01 0. -1.
</event>
<event>
 5   0  0.3316784E-03  0.1036199E+04  0.7818609E-02  0.9269710E-01
       -1   -1    0    0    0  501  0.00000000000E+00  0.00000000000E+00  0.11221196425E+04  0.11221196425E+04  0.50400001928E-02 0.  1.
        1   -1    0    0  501    0  0.00000000000E+00  0.00000000000E+00 -0.23921438404E+03  0.23921438409E+03  0.50400001928E-02 0. -1.
    10030    2    1    2    0    0  0.00000000000E+00  0.00000000000E+00  0.88290525844E+03  0.13613340266E+04  0.10361991298E+04 0.  0.
        4    1    3    3  502    0  0.30156574284E+03  0.40118860148E+03  0.61037054069E+03  0.79022022313E+03  0.12699999809E+01 0. -1.
       -4    1    3    3    0  502 -0.30156574284E+03 -0.40118860148E+03  0.27253471775E+03  0.57111380344E+03  0.12699999809E+01 0.  1.
</event>
<event>
 5   0  0.5946359E-03  0.1053153E+04  0.7818609E-02  0.9252095E-01
        2   -1    0    0  501    0  0.00000000000E+00  0.00000000000E+00  0.19425777649E+04  0.19425777649E+04  0.25500000920E-02 0.  1.
       -2   -1    0    0    0  501  0.00000000000E+00  0.00000000000E+00 -0.14273951876E+03  0.14273951879E+03  0.25500000920E-02 0. -1.
    10030    2    1    2    0    0  0.00000000000E+00  0.00000000000E+00  0.17998382461E+04  0.20853172837E+04  0.10531526297E+04 0.  0.
        4    1    3    3  502    0  0.40176236314E+03  0.17883957922E+03  0.32643492492E+03  0.54768418330E+03  0.12699999809E+01 0. -1.
       -4    1    3    3    0  502 -0.40176236314E+03 -0.17883957922E+03  0.14734033212E+04  0.15376331004E+04  0.12699999809E+01 0.  1.
</event>
<event>
 5   0  0.5723194E-03  0.1107366E+04  0.7818609E-02  0.9198042E-01
       -2   -1    0    0    0  501  0.00000000000E+00  0.00000000000E+00  0.17376851725E+03  0.17376851727E+03  0.25500000920E-02 0.  1.
        2   -1    0    0  501    0  0.00000000000E+00  0.00000000000E+00 -0.17642140967E+04  0.17642140967E+04  0.25500000920E-02 0. -1.
    10030    2    1    2    0    0  0.00000000000E+00  0.00000000000E+00 -0.15904455795E+04  0.19379826140E+04  0.11073660058E+04 0.  0.
        1    1    3    3  502    0  0.24875643909E+03 -0.34267004298E+03 -0.14195448016E+04  0.14813540995E+04  0.50400001928E-02 0. -1.
       -1    1    3    3    0  502 -0.24875643909E+03  0.34267004298E+03 -0.17090077789E+03  0.45662851450E+03  0.50400001928E-02 0.  1.
</event>
<event>
 5   0  0.5941585E-03  0.1087190E+04  0.7818609E-02  0.9217768E-01
       -2   -1    0    0    0  501  0.00000000000E+00  0.00000000000E+00  0.22954931681E+03  0.22954931682E+03  0.25500000920E-02 0.  1.
        2   -1    0    0  501    0  0.00000000000E+00  0.00000000000E+00 -0.12872848345E+04  0.12872848345E+04  0.25500000920E-02 0. -1.
    10030    2    1    2    0    0  0.00000000000E+00  0.00000000000E+00 -0.10577355177E+04  0.15168341513E+04  0.10871896878E+04 0.  0.
        5    1    3    3  502    0  0.35639841489E+03 -0.40184814740E+03 -0.64535970715E+03  0.83965052570E+03  0.46999998093E+01 0.  1.
       -5    1    3    3    0  502 -0.35639841489E+03  0.40184814740E+03 -0.41237581055E+03  0.67718362564E+03  0.46999998093E+01 0. -1.
</event>
<event>
 5   0  0.5627232E-03  0.1001025E+04  0.7818609E-02  0.9307421E-01
        2   -1    0    0  501    0  0.00000000000E+00  0.00000000000E+00  0.30824165079E+03  0.30824165080E+03  0.25500000920E-02 0.  1.
       -2   -1    0    0    0  501  0.00000000000E+00  0.00000000000E+00 -0.81271559843E+03  0.81271559844E+03  0.25500000920E-02 0. -1.
    10030    2    1    2    0    0  0.00000000000E+00  0.00000000000E+00 -0.50447394765E+03  0.11209572492E+04  0.10010250700E+04 0.  0.
        2    1    3    3  502    0 -0.26804357642E+03  0.41896990196E+03 -0.18959106984E+03  0.53228555436E+03  0.25500000920E-02 0.  1.
       -2    1    3    3    0  502  0.26804357642E+03 -0.41896990196E+03 -0.31488287781E+03  0.58867169488E+03  0.25500000920E-02 0. -1.
</event>
<event>
 5   0  0.3320192E-03  0.1110574E+04  0.7818609E-02  0.9194947E-01
        1   -1    0    0  501    0  0.00000000000E+00  0.00000000000E+00  0.69596605741E+03  0.69596605743E+03  0.50400001928E-02 0.  1.
       -1   -1    0    0    0  501  0.00000000000E+00  0.00000000000E+00 -0.44304393628E+03  0.44304393631E+03  0.50400001928E-02 0. -1.
    10030    2    1    2    0    0  0.00000000000E+00  0.00000000000E+00  0.25292212113E+03  0.11390099937E+04  0.11105738006E+04 0.  0.
        2    1    3    3  502    0  0.28954383793E+03  0.10320781800E+03 -0.34782557266E+03  0.46418758792E+03  0.25500000920E-02 0. -1.
       -2    1    3    3    0  502 -0.28954383793E+03 -0.10320781800E+03  0.60074769379E+03  0.67482240581E+03  0.25500000920E-02 0.  1.
</event>
<event>
 5   0  0.3215352E-03  0.1094707E+04  0.7818609E-02  0.9210366E-01
        1   -1    0    0  501    0  0.00000000000E+00  0.00000000000E+00  0.27072587059E+04  0.27072587059E+04  0.50400001928E-02 0. -1.
       -1   -1    0    0    0  501  0.00000000000E+00  0.00000000000E+00 -0.11066400071E+03  0.11066400082E+03  0.50400001928E-02 0.  1.
    10030    2    1    2    0    0  0.00000000000E+00  0.00000000000E+00  0.25965947052E+04  0.28179227067E+04  0.10947074121E+04 0.  0.
        1    1    3    3  502    0 -0.75142358212E+01 -0.32768305749E+03  0.16988874973E+03  0.36918130670E+03  0.50400001928E-02 0.  1.
       -1    1    3    3    0  502  0.75142358212E+01  0.32768305749E+03  0.24267059554E+04  0.24487414000E+04  0.50400001928E-02 0. -1.
</event>
<event>
 5   0  0.5941585E-03  0.1111269E+04  0.7818609E-02  0.9194278E-01
        2   -1    0    0  501    0  0.00000000000E+00  0.00000000000E+00  0.71004906257E+03  0.71004906258E+03  0.25500000920E-02 0. -1.
       -2   -1    0    0    0  501  0.00000000000E+00  0.00000000000E+00 -0.43480043980E+03  0.43480043980E+03  0.25500000920E-02 0.  1.
    10030    2    1    2    0    0  0.00000000000E+00  0.00000000000E+00  0.27524862278E+03  0.11448495024E+04  0.11112689048E+04 0.  0.
        5    1    3    3  502    0 -0.53721306285E+03  0.14146688729E+03  0.12748832532E+03  0.56998782284E+03  0.46999998093E+01 0. -1.
       -5    1    3    3    0  502  0.53721306285E+03 -0.14146688729E+03  0.14776029746E+03  0.57486167954E+03  0.46999998093E+01 0.  1.
</event>
<event>
 5   0  0.5723194E-03  0.1088050E+04  0.7818609E-02  0.9216918E-01
       -2   -1    0    0    0  501  0.00000000000E+00  0.00000000000E+00  0.17911633682E+03  0.17911633683E+03  0.25500000920E-02 0.  1.
        2   -1    0    0  501    0  0.00000000000E+00  0.00000000000E+00 -0.16523508507E+04  0.16523508507E+04  0.25500000920E-02 0. -1.
    10030    2    1    2    0    0  0.00000000000E+00  0.00000000000E+00 -0.14732345139E+04  0.18314671875E+04  0.10880496892E+04 0.  0.
        1    1    3    3  502    0  0.11331530781E+02 -0.12438353419E+03 -0.16278908606E+04  0.16326752039E+04  0.50400001928E-02 0. -1.
       -1    1    3    3    0  502 -0.11331530781E+02  0.12438353419E+03  0.15465634673E+03  0.19879198368E+03  0.50400001928E-02 0.  1.
</event>
<event>
 5   0  0.3241189E-03  0.1083804E+04  0.7818609E-02  0.9221122E-01
        1   -1    0    0  501    0  0.00000000000E+00  0.00000000000E+00  0.15106913731E+04  0.15106913731E+04  0.50400001928E-02 0. -1.
       -1   -1    0    0    0  501  0.00000000000E+00  0.00000000000E+00 -0.19438652336E+03  0.19438652343E+03  0.50400001928E-02 0.  1.
    10030    2    1    2    0    0  0.00000000000E+00  0.00000000000E+00  0.13163048498E+04  0.17050778966E+04  0.10838044915E+04 0.  0.
        5    1    3    3  502    0 -0.25681127025E+03  0.54581231255E+01 -0.92486444065E+02  0.27305247109E+03  0.46999998093E+01 0.  1.
       -5    1    3    3    0  502  0.25681127025E+03 -0.54581231255E+01  0.14087912938E+04  0.14320254255E+04  0.46999998093E+01 0. -1.
</event>
<event>
 5   0  0.3328741E-03  0.1100279E+04  0.7818609E-02  0.9204920E-01
       -1   -1    0    0    0  501  0.00000000000E+00  0.00000000000E+00  0.38783248875E+03  0.38783248878E+03  0.50400001928E-02 0. -1.
        1   -1    0    0  501    0  0.00000000000E+00  0.00000000000E+00 -0.78037129353E+03  0.78037129354E+03  0.50400001928E-02 0.  1.
    10030    2    1    2    0    0  0.00000000000E+00  0.00000000000E+00 -0.39253880478E+03  0.11682037823E+04  0.11002787664E+04 0.  0.
        3    1    3    3  502    0 -0.20280758391E+03  0.49111485541E+03 -0.34764983954E+03  0.63496861216E+03  0.10100000352E+00 0.  1.
       -3    1    3    3    0  502  0.20280758391E+03 -0.49111485541E+03 -0.44888965240E+02  0.53323517016E+03  0.10100000352E+00 0. -1.
</event>
<event>
 5   0  0.5941585E-03  0.1162356E+04  0.7818609E-02  0.9146459E-01
        2   -1    0    0  501    0  0.00000000000E+00  0.00000000000E+00  0.95936525473E+03  0.95936525473E+03  0.25500000920E-02 0.  1.
       -2   -1    0    0    0  501  0.00000000000E+00  0.00000000000E+00 -0.35207450268E+03  0.35207450269E+03  0.25500000920E-02 0. -1.
    10030    2    1    2    0    0  0.00000000000E+00  0.00000000000E+00  0.60729075205E+03  0.13114397574E+04  0.11623563050E+04 0.  0.
        5    1    3    3  502    0  0.57469608779E+03 -0.58692927210E+02  0.37522989141E+03  0.68886864817E+03  0.46999998093E+01 0.  1.
       -5    1    3    3    0  502 -0.57469608779E+03  0.58692927210E+02  0.23206086064E+03  0.62257110925E+03  0.46999998093E+01 0. -1.
</event>
<event>
 5   0  0.3328741E-03  0.1118105E+04  0.7818609E-02  0.9187723E-01
       -1   -1    0    0    0  501  0.00000000000E+00  0.00000000000E+00  0.21346551840E+03  0.21346551846E+03  0.50400001928E-02 0.  1.
        1   -1    0    0  501    0  0.00000000000E+00  0.00000000000E+00 -0.14641214594E+04  0.14641214594E+04  0.50400001928E-02 0. -1.
    10030    2    1    2    0    0  0.00000000000E+00  0.00000000000E+00 -0.12506559410E+04  0.16775869778E+04  0.11181045503E+04 0.  0.
        3    1    3    3  502    0 -0.52426926583E+03  0.65500408721E+02 -0.35116013981E+03  0.63439894438E+03  0.10100000352E+00 0. -1.
       -3    1    3    3    0  502  0.52426926583E+03 -0.65500408721E+02 -0.89949580115E+03  0.10431880334E+04  0.10100000352E+00 0.  1.
</event>
<event>
 5   0  0.5941585E-03  0.1096300E+04  0.7818609E-02  0.9208805E-01
        2   -1    0    0  501    0  0.00000000000E+00  0.00000000000E+00  0.19849689588E+04  0.19849689588E+04  0.25500000920E-02 0. -1.
       -2   -1    0    0    0  501  0.00000000000E+00  0.00000000000E+00 -0.15137189453E+03  0.15137189455E+03  0.25500000920E-02 0.  1.
    10030    2    1    2    0    0  0.00000000000E+00  0.00000000000E+00  0.18335970643E+04  0.21363408534E+04  0.10963001631E+04 0.  0.
        5    1    3    3  502    0 -0.15053010379E+03 -0.21963058253E+03 -0.16841056331E+02  0.26683818337E+03  0.46999998093E+01 0.  1.
       -5    1    3    3    0  502  0.15053010379E+03  0.21963058253E+03  0.18504381206E+04  0.18695026700E+04  0.46999998093E+01 0. -1.
</event>
<event>
 5   0  0.3320192E-03  0.1060036E+04  0.7818609E-02  0.9245044E-01
        1   -1    0    0  501    0  0.00000000000E+00  0.00000000000E+00  0.54416726124E+03  0.54416726126E+03  0.50400001928E-02 0.  1.
       -1   -1    0    0    0  501  0.00000000000E+00  0.00000000000E+00 -0.51623632801E+03  0.51623632804E+03  0.50400001928E-02 0. -1.
    10030    2    1    2    0    0  0.00000000000E+00  0.00000000000E+00  0.27930933224E+02  0.10604035893E+04  0.10600356764E+04 0.  0.
        2    1    3    3  502    0 -0.19252520946E+03  0.42628341421E+03  0.26332172215E+03  0.53676981554E+03  0.25500000920E-02 0.  1.
       -2    1    3    3    0  502  0.19252520946E+03 -0.42628341421E+03 -0.23539078892E+03  0.52363377376E+03  0.25500000920E-02 0. -1.
</event>
<event>
 5   0  0.5723194E-03  0.1125040E+04  0.7818609E-02  0.9181124E-01
        2   -1    0    0  501    0  0.00000000000E+00  0.00000000000E+00  0.12032721353E+04  0.12032721354E+04  0.25500000920E-02 0. -1.
       -2   -1    0    0    0  501  0.00000000000E+00  0.00000000000E+00 -0.26297353195E+03  0.26297353196E+03  0.25500000920E-02 0.  1.
    10030    2    1    2    0    0  0.00000000000E+00  0.00000000000E+00  0.94029860340E+03  0.14662456673E+04  0.11250399519E+04 0.  0.
        1    1    3    3  502    0 -0.55744426684E+03 -0.11984558396E+02  0.37313579413E+03  0.67090838507E+03  0.50400001928E-02 0.  1.
       -1    1    3    3    0  502  0.55744426684E+03  0.11984558396E+02  0.56716280927E+03  0.79533728224E+03  0.50400001928E-02 0. -1.
</event>
<event>
 5   0  0.3320192E-03  0.1110909E+04  0.7818609E-02  0.9194624E-01
        1   -1    0    0  501    0  0.00000000000E+00  0.00000000000E+00  0.65281443235E+03  0.65281443237E+03  0.50400001928E-02 0.  1.
       -1   -1    0    0    0  501  0.00000000000E+00  0.00000000000E+00 -0.47261499621E+03  0.47261499624E+03  0.50400001928E-02 0. -1.
    10030    2    1    2    0    0  0.00000000000E+00  0.00000000000E+00  0.18019943613E+03  0.11254294286E+04  0.11109093401E+04 0.  0.
        2    1    3    3  502    0  0.51052709094E+03  0.87743010971E+02 -0.11300295450E+03  0.53019469471E+03  0.25500000920E-02 0. -1.
       -2    1    3    3    0  502 -0.51052709094E+03 -0.87743010971E+02  0.29320239063E+03  0.59523473390E+03  0.25500000920E-02 0.  1.
</event>
<event>
 5   0  0.5946359E-03  0.1097471E+04  0.7818609E-02  0.9207660E-01
       -2   -1    0    0    0  501  0.00000000000E+00  0.00000000000E+00  0.18803726626E+03  0.18803726628E+03  0.25500000920E-02 0. -1.
        2   -1    0    0  501    0  0.00000000000E+00  0.00000000000E+00 -0.16013353576E+04  0.16013353576E+04  0.25500000920E-02 0.  1.
    10030    2    1    2    0    0  0.00000000000E+00  0.00000000000E+00 -0.14132980913E+04  0.17893726239E+04  0.10974711350E+04 0.  0.
        4    1    3    3  502    0 -0.18389238669E+03  0.16517241096E+03 -0.15054214483E+04  0.15255797866E+04  0.12699999809E+01 0.  1.
       -4    1    3    3    0  502  0.18389238669E+03 -0.16517241096E+03  0.92123356971E+02  0.26379283733E+03  0.12699999809E+01 0. -1.
</event>
<event>
 5   0  0.3316784E-03  0.1104427E+04  0.7818609E-02  0.9200888E-01
       -1   -1    0    0    0  501  0.00000000000E+00  0.00000000000E+00  0.90822616663E+03  0.90822616665E+03  0.50400001928E-02 0.  1.
        1   -1    0    0  501    0  0.00000000000E+00  0.00000000000E+00 -0.33575292020E+03  0.33575292024E+03  0.50400001928E-02 0. -1.
    10030    2    1    2    0    0  0.00000000000E+00  0.00000000000E+00  0.57247324643E+03  0.12439790869E+04  0.11044267068E+04 0.  0.
        4    1    3    3  502    0 -0.63210347450E+02 -0.19666844779E+03  0.86306348552E+03  0.88744251606E+03  0.12699999809E+01 0.  1.
       -4    1    3    3    0  502  0.63210347450E+02  0.19666844779E+03 -0.29059023908E+03  0.35653657082E+03  0.12699999809E+01 0. -1.
</event>
<event>
 5   0  0.2185750E-03  0.1088776E+04  0.7818609E-02  0.9216201E-01
       -4   -1    0    0    0  501  0.00000000000E+00  0.00000000000E+00  0.10008213834E+04  0.10008221892E+04  0.12699999809E+01 0.  1.
        4   -1    0    0  501    0  0.00000000000E+00  0.00000000000E+00 -0.29611279330E+03  0.29611551674E+03  0.12699999809E+01 0. -1.
    10030    2    1    2    0    0  0.00000000000E+00  0.00000000000E+00  0.70470859013E+03  0.12969377060E+04  0.10887760174E+04 0.  0.
        5    1    3    3  502    0 -0.44378325661E+03  0.19948056411E+03  0.61547728009E+02  0.49045518360E+03  0.46999998093E+01 0. -1.
       -5    1    3    3    0  502  0.44378325661E+03 -0.19948056411E+03  0.64316086213E+03  0.80648252236E+03  0.46999998093E+01 0.  1.
</event>
<event>
 5   0  0.3241189E-03  0.1060870E+04  0.7818609E-02  0.9244193E-01
       -1   -1    0    0    0  501  0.00000000000E+00  0.00000000000E+00  0.41552518175E+03  0.41552518178E+03  0.50400001928E-02 0.  1.
        1   -1    0    0  501    0  0.00000000000E+00  0.00000000000E+00 -0.67712205137E+03  0.67712205139E+03  0.50400001928E-02 0. -1.
    10030    2    1    2    0    0  0.00000000000E+00  0.00000000000E+00 -0.26159686962E+03  0.10926472332E+04  0.10608699515E+04 0.  0.
        5    1    3    3  502    0  0.11763026453E+03 -0.28411445377E+02 -0.66269272371E+03  0.67366744424E+03  0.46999998093E+01 0. -1.
       -5    1    3    3    0  502 -0.11763026453E+03  0.28411445377E+02  0.40109585410E+03  0.41897978894E+03  0.46999998093E+01 0.  1.
</event>
<event>
 5   0  0.3320192E-03  0.1069082E+04  0.7818609E-02  0.9235862E-01
        1   -1    0    0  501    0  0.00000000000E+00  0.00000000000E+00  0.75733163754E+03  0.75733163756E+03  0.50400001928E-02 0.  1.
       -1   -1    0    0    0  501  0.00000000000E+00  0.00000000000E+00 -0.37729050725E+03  0.37729050729E+03  0.50400001928E-02 0. -1.
    10030    2    1    2    0    0  0.00000000000E+00  0.00000000000E+00  0.38004113029E+03  0.11346221448E+04  0.10690819196E+04 0.  0.
        2    1    3    3  502    0 -0.47838821385E+03 -0.11062585840E+03 -0.34215592165E+02  0.49220328164E+03  0.25500000920E-02 0. -1.
       -2    1    3    3    0  502  0.47838821385E+03  0.11062585840E+03  0.41425672245E+03  0.64241886321E+03  0.25500000920E-02 0.  1.
</event>
<event>
 5   0  0.3328741E-03  0.1140007E+04  0.7818609E-02  0.9167053E-01
        1   -1    0    0  501    0  0.00000000000E+00  0.00000000000E+00  0.85005821478E+03  0.85005821479E+03  0.50400001928E-02 0.  1.
       -1   -1    0    0    0  501  0.00000000000E+00  0.00000000000E+00 -0.38221349296E+03  0.38221349299E+03  0.50400001928E-02 0. -1.
    10030    2    1    2    0    0  0.00000000000E+00  0.00000000000E+00  0.46784472181E+03  0.12322717078E+04  0.11400065255E+04 0.  0.
        3    1    3    3  502    0 -0.28811004138E+03  0.36860585805E+03 -0.11804743802E+03  0.48250687286E+03  0.10100000352E+00 0. -1.
       -3    1    3    3    0  502  0.28811004138E+03 -0.36860585805E+03  0.58589215984E+03  0.74976483493E+03  0.10100000352E+00 0.  1.
</event>
<event>
 5   0  0.3241189E-03  0.1089467E+04  0.7818609E-02  0.9215519E-01
       -1   -1    0    0    0  501  0.00000000000E+00  0.00000000000E+00  0.19304657460E+03  0.19304657467E+03  0.50400001928E-02 0. -1.
        1   -1    0    0  501    0  0.00000000000E+00  0.00000000000E+00 -0.15371141218E+04  0.15371141218E+04  0.50400001928E-02 0.  1.
    10030    2    1    2    0    0  0.00000000000E+00  0.00000000000E+00 -0.13440675472E+04  0.17301606965E+04  0.10894670551E+04 0.  0.
        5    1    3    3  502    0 -0.41443418104E+03  0.12245659287E+03 -0.14542012362E+03  0.45598290528E+03  0.46999998093E+01 0. -1.
       -5    1    3    3    0  502  0.41443418104E+03 -0.12245659287E+03 -0.11986474236E+04  0.12741777912E+04  0.46999998093E+01 0.  1.
</event>
<event>
 5   0  0.3241189E-03  0.1069996E+04  0.7818609E-02  0.9234939E-01
       -1   -1    0    0    0  501  0.00000000000E+00  0.00000000000E+00  0.28535807696E+03  0.28535807701E+03  0.50400001928E-02 0.  1.
        1   -1    0    0  501    0  0.00000000000E+00  0.00000000000E+00 -0.10030305834E+04  0.10030305834E+04  0.50400001928E-02 0. -1.
    10030    2    1    2    0    0  0.00000000000E+00  0.00000000000E+00 -0.71767250646E+03  0.12883886604E+04  0.10699960345E+04 0.  0.
        5    1    3    3  502    0  0.23130903097E+03 -0.76575049305E+02 -0.93231591262E+03  0.96364031511E+03  0.46999998093E+01 0. -1.
       -5    1    3    3    0  502 -0.23130903097E+03  0.76575049305E+02  0.21464340617E+03  0.32474834533E+03  0.46999998093E+01 0.  1.
</event>
<event>
 5   0  0.3241189E-03  0.1095118E+04  0.7818609E-02  0.9209964E-01
       -1   -1    0    0    0  501  0.00000000000E+00  0.00000000000E+00  0.21843078412E+03  0.21843078417E+03  0.50400001928E-02 0. -1.
        1   -1    0    0  501    0  0.00000000000E+00  0.00000000000E+00 -0.13726116872E+04  0.13726116872E+04  0.50400001928E-02 0.  1.
    10030    2    1    2    0    0  0.00000000000E+00  0.00000000000E+00 -0.11541809031E+04  0.15910424714E+04  0.10951176141E+04 0.  0.
        5    1    3    3  502    0  0.33671858536E+03 -0.19925311096E+03 -0.20594839171E+02  0.39182578444E+03  0.46999998093E+01 0. -1.
       -5    1    3    3    0  502 -0.33671858536E+03  0.19925311096E+03 -0.11335860639E+04  0.11992166870E+04  0.46999998093E+01 0.  1.
</event>
<event>
 5   0  0.5946359E-03  0.1095036E+04  0.7818609E-02  0.9210043E-01
        2   -1    0    0  501    0  0.00000000000E+00  0.00000000000E+00  0.42641030195E+03  0.42641030196E+03  0.25500000920E-02 0. -1.
       -2   -1    0    0    0  501  0.00000000000E+00  0.00000000000E+00 -0.70302278339E+03  0.70302278339E+03  0.25500000920E-02 0.  1.
    10030    2    1    2    0    0  0.00000000000E+00  0.00000000000E+00 -0.27661248143E+03  0.11294330854E+04  0.10950363599E+04 0.  0.
        4    1    3    3  502    0 -0.28772117817E+03 -0.19276033758E+03 -0.57569588493E+03  0.67183881172E+03  0.12699999809E+01 0.  1.
       -4    1    3    3    0  502  0.28772117817E+03  0.19276033758E+03  0.29908340349E+03  0.45759427363E+03  0.12699999809E+01 0. -1.
</event>
<event>
 5   0  0.3316784E-03  0.1085665E+04  0.7818609E-02  0.9219278E-01
        1   -1    0    0  501    0  0.00000000000E+00  0.00000000000E+00  0.81659086198E+03  0.81659086200E+03  0.50400001928E-02 0.  1.
       -1   -1    0    0    0  501  0.00000000000E+00  0.00000000000E+00 -0.36085010568E+03  0.36085010572E+03  0.50400001928E-02 0. -1.
    10030    2    1    2    0    0  0.00000000000E+00  0.00000000000E+00  0.45574075630E+03  0.11774409677E+04  0.10856645870E+04 0.  0.
        4    1    3    3  502    0 -0.22147961023E+03 -0.13647906167E+03  0.74457525499E+03  0.78871647331E+03  0.12699999809E+01 0.  1.
       -4    1    3    3    0  502  0.22147961023E+03  0.13647906167E+03 -0.28883449869E+03  0.38872449441E+03  0.12699999809E+01 0. -1.
</event>
<event>
 5   0  0.5500363E-03  0.1139958E+04  0.7818609E-02  0.9167098E-01
        2   -1    0    0  501    0  0.00000000000E+00  0.00000000000E+00  0.78179158595E+03  0.78179158596E+03  0.25500000920E-02 0.  1.
       -2   -1    0    0    0  501  0.00000000000E+00  0.00000000000E+00 -0.41555330183E+03  0.41555330183E+03  0.25500000920E-02 0. -1.
    10030    2    1    2    0    0  0.00000000000E+00  0.00000000000E+00  0.36623828413E+03  0.11973448878E+04  0.11399580253E+04 0.  0.
        3    1    3    3  502    0  0.70370899014E+02  0.45515581900E+03 -0.16957846251E+03  0.49079094139E+03  0.10100000352E+00 0. -1.
       -3    1    3    3    0  502 -0.70370899014E+02 -0.45515581900E+03  0.53581674664E+03  0.70655394640E+03  0.10100000352E+00 0.  1.
</event>
<event>
 5   0  0.5723194E-03  0.1080631E+04  0.7818609E-02  0.9224278E-01
       -2   -1    0    0    0  501  0.00000000000E+00  0.00000000000E+00  0.18836382782E+03  0.18836382783E+03  0.25500000920E-02 0.  1.
        2   -1    0    0  501    0  0.00000000000E+00  0.00000000000E+00 -0.15498788211E+04  0.15498788211E+04  0.25500000920E-02 0. -1.
    10030    2    1    2    0    0  0.00000000000E+00  0.00000000000E+00 -0.13615149933E+04  0.17382426489E+04  0.10806314958E+04 0.  0.
        1    1    3    3  502    0 -0.12910189707E+03  0.23491273569E+02 -0.15238582442E+04  0.15294976588E+04  0.50400001928E-02 0. -1.
       -1    1    3    3    0  502  0.12910189707E+03 -0.23491273569E+02  0.16234325093E+03  0.20874499014E+03  0.50400001928E-02 0.  1.
</event>
<event>
 5   0  0.3316784E-03  0.1074225E+04  0.7818609E-02  0.9230685E-01
        1   -1    0    0  501    0  0.00000000000E+00  0.00000000000E+00  0.16516651180E+04  0.16516651180E+04  0.50400001928E-02 0.  1.
       -1   -1    0    0    0  501  0.00000000000E+00  0.00000000000E+00 -0.17466599448E+03  0.17466599455E+03  0.50400001928E-02 0. -1.
    10030    2    1    2    0    0  0.00000000000E+00  0.00000000000E+00  0.14769991235E+04  0.18263311125E+04  0.10742248004E+04 0.  0.
        4    1    3    3  502    0 -0.34199993261E+02  0.14838980889E+03  0.16141930142E+04  0.16213605013E+04  0.12699999809E+01 0.  1.
       -4    1    3    3    0  502  0.34199993261E+02 -0.14838980889E+03 -0.13719389076E+03  0.20497061127E+03  0.12699999809E+01 0. -1.
</event>
<event>
 5   0  0.5723194E-03  0.1147211E+04  0.7818609E-02  0.9160361E-01
        2   -1    0    0  501    0  0.00000000000E+00  0.00000000000E+00  0.40232817061E+03  0.40232817062E+03  0.25500000920E-02 0.  1.
       -2   -1    0    0    0  501  0.00000000000E+00  0.00000000000E+00 -0.81779776600E+03  0.81779776601E+03  0.25500000920E-02 0. -1.
    10030    2    1    2    0    0  0.00000000000E+00  0.00000000000E+00 -0.41546959539E+03  0.12201259366E+04  0.11472106679E+04 0.  0.
        1    1    3    3  502    0 -0.16947857041E+03  0.41016589921E+03  0.17876898850E+03  0.47845313457E+03  0.50400001928E-02 0. -1.
       -1    1    3    3    0  502  0.16947857041E+03 -0.41016589921E+03 -0.59423858389E+03  0.74167280206E+03  0.50400001928E-02 0.  1.
</event>
<event>
 5   0  0.5500363E-03  0.1057896E+04  0.7818609E-02  0.9247230E-01
       -2   -1    0    0    0  501  0.00000000000E+00  0.00000000000E+00  0.69726939924E+03  0.69726939924E+03  0.25500000920E-02 0. -1.
        2   -1    0    0  501    0  0.00000000000E+00  0.00000000000E+00 -0.40125930154E+03  0.40125930155E+03  0.25500000920E-02 0.  1.
    10030    2    1    2    0    0  0.00000000000E+00  0.00000000000E+00  0.29601009770E+03  0.10985287008E+04  0.10578957078E+04 0.  0.
        3    1    3    3  502    0 -0.12010241813E+03  0.26570389534E+03 -0.31026493671E+03  0.42577868898E+03  0.10100000352E+00 0.  1.
       -3    1    3    3    0  502  0.12010241813E+03 -0.26570389534E+03  0.60627503440E+03  0.67275001181E+03  0.10100000352E+00 0. -1.
</event>
<event>
 5   0  0.3320192E-03  0.1108394E+04  0.7818609E-02  0.9197049E-01
       -1   -1    0    0    0  501  0.00000000000E+00  0.00000000000E+00  0.41439751045E+03  0.41439751048E+03  0.50400001928E-02 0. -1.
        1   -1    0    0  501    0  0.00000000000E+00  0.00000000000E+00 -0.74115881460E+03  0.74115881462E+03  0.50400001928E-02 0.  1.
    10030    2    1    2    0    0  0.00000000000E+00  0.00000000000E+00 -0.32676130414E+03  0.11555563251E+04  0.11083940953E+04 0.  0.
        2    1    3    3  502    0 -0.23487008420E+03  0.29390989818E+03 -0.58761959960E+03  0.69774191399E+03  0.25500000920E-02 0.  1.
       -2    1    3    3    0  502  0.23487008420E+03 -0.29390989818E+03  0.26085829546E+03  0.45781441111E+03  0.25500000920E-02 0. -1.
</event>
<event>
 5   0  0.5500363E-03  0.1141034E+04  0.7818609E-02  0.9166095E-01
        2   -1    0    0  501    0  0.00000000000E+00  0.00000000000E+00  0.73489714910E+03  0.73489714910E+03  0.25500000920E-02 0.  1.
       -2   -1    0    0    0  501  0.00000000000E+00  0.00000000000E+00 -0.44290508966E+03  0.44290508967E+03  0.25500000920E-02 0. -1.
    10030    2    1    2    0    0  0.00000000000E+00  0.00000000000E+00  0.29199205944E+03  0.11778022388E+04  0.11410340709E+04 0.  0.
        3    1    3    3  502    0 -0.39125648654E+02  0.21674479228E+02 -0.44109247123E+03  0.44335446068E+03  0.10100000352E+00 0. -1.
       -3    1    3    3    0  502  0.39125648654E+02 -0.21674479228E+02  0.73308453067E+03  0.73444777809E+03  0.10100000352E+00 0.  1.
</event>
<event>
 5   0  0.3316784E-03  0.1088895E+04  0.7818609E-02  0.9216083E-01
       -1   -1    0    0    0  501  0.00000000000E+00  0.00000000000E+00  0.21977159977E+03  0.21977159982E+03  0.50400001928E-02 0. -1.
        1   -1    0    0  501    0  0.00000000000E+00  0.00000000000E+00 -0.13487789832E+04  0.13487789832E+04  0.50400001928E-02 0.  1.
    10030    2    1    2    0    0  0.00000000000E+00  0.00000000000E+00 -0.11290073835E+04  0.15685505831E+04  0.10888954310E+04 0.  0.
        4    1    3    3  502    0 -0.22594058742E+03  0.31762033411E+03 -0.16944513950E+02  0.39015452726E+03  0.12699999809E+01 0. -1.
       -4    1    3    3    0  502  0.22594058742E+03 -0.31762033411E+03 -0.11120628695E+04  0.11783960558E+04  0.12699999809E+01 0.  1.
</event>
<event>
 5   0  0.3320192E-03  0.1105525E+04  0.7818609E-02  0.9199823E-01
        1   -1    0    0  501    0  0.00000000000E+00  0.00000000000E+00  0.40573269633E+03  0.40573269636E+03  0.50400001928E-02 0.  1.
       -1   -1    0    0    0  501  0.00000000000E+00  0.00000000000E+00 -0.75307323167E+03  0.75307323168E+03  0.50400001928E-02 0. -1.
    10030    2    1    2    0    0  0.00000000000E+00  0.00000000000E+00 -0.34734053533E+03  0.11588059280E+04  0.11055250931E+04 0.  0.
        2    1    3    3  502    0  0.25180185177E+03  0.41406604730E+03  0.10502263787E+03  0.49586754134E+03  0.25500000920E-02 0.  1.
       -2    1    3    3    0  502 -0.25180185177E+03 -0.41406604730E+03 -0.45236317321E+03  0.66293838670E+03  0.25500000920E-02 0. -1.
</event>
<event>
 5   0  0.3215352E-03  0.1112090E+04  0.7818609E-02  0.9193488E-01
        1   -1    0    0  501    0  0.00000000000E+00  0.00000000000E+00  0.60058228662E+03  0.60058228664E+03  0.50400001928E-02 0.  1.
       -1   -1    0    0    0  501  0.00000000000E+00  0.00000000000E+00 -0.51481053101E+03  0.51481053103E+03  0.50400001928E-02 0. -1.
    10030    2    1    2    0    0  0.00000000000E+00  0.00000000000E+00  0.85771755616E+02  0.11153928177E+04  0.11120900789E+04 0.  0.
        1    1    3    3  502    0  0.94127699619E+01  0.37886951797E+03  0.45097922849E+03  0.58907807330E+03  0.50400001928E-02 0.  1.
       -1    1    3    3    0  502 -0.94127699619E+01 -0.37886951797E+03 -0.36520747287E+03  0.52631474438E+03  0.50400001928E-02 0. -1.
</event>
<event>
 5   0  0.5723194E-03  0.1094036E+04  0.7818609E-02  0.9211024E-01
        2   -1    0    0  501    0  0.00000000000E+00  0.00000000000E+00  0.19593242394E+04  0.19593242394E+04  0.25500000920E-02 0. -1.
       -2   -1    0    0    0  501  0.00000000000E+00  0.00000000000E+00 -0.15272048642E+03  0.15272048644E+03  0.25500000920E-02 0.  1.
    10030    2    1    2    0    0  0.00000000000E+00  0.00000000000E+00  0.18066037529E+04  0.21120447258E+04  0.10940364727E+04 0.  0.
        1    1    3    3  502    0  0.20559327797E+03 -0.47882018206E+03  0.12245534344E+04  0.13308149670E+04  0.50400001928E-02 0. -1.
       -1    1    3    3    0  502 -0.20559327797E+03  0.47882018206E+03  0.58205031854E+03  0.78122975880E+03  0.50400001928E-02 0.  1.
</event>
<event>
 5   0  0.3215352E-03  0.1101768E+04  0.7818609E-02  0.9203470E-01
        1   -1    0    0  501    0  0.00000000000E+00  0.00000000000E+00  0.16443275166E+04  0.16443275166E+04  0.50400001928E-02 0. -1.
       -1   -1    0    0    0  501  0.00000000000E+00  0.00000000000E+00 -0.18455763414E+03  0.18455763421E+03  0.50400001928E-02 0.  1.
    10030    2    1    2    0    0  0.00000000000E+00  0.00000000000E+00  0.14597698824E+04  0.18288851508E+04  0.11017680269E+04 0.  0.
        1    1    3    3  502    0  0.11024716055E+03 -0.11397566378E+03 -0.14585459805E+03  0.21544941898E+03  0.50400001928E-02 0.  1.
       -1    1    3    3    0  502 -0.11024716055E+03  0.11397566378E+03  0.16056244805E+04  0.16134357318E+04  0.50400001928E-02 0. -1.
</event>
<event>
 5   0  0.3316784E-03  0.1092805E+04  0.7818609E-02  0.9212233E-01
       -1   -1    0    0    0  501  0.00000000000E+00  0.00000000000E+00  0.35337253944E+03  0.35337253947E+03  0.50400001928E-02 0. -1.
        1   -1    0    0  501    0  0.00000000000E+00  0.00000000000E+00 -0.84487485912E+03  0.84487485914E+03  0.50400001928E-02 0.  1.
    10030    2    1    2    0    0  0.00000000000E+00  0.00000000000E+00 -0.49150231968E+03  0.11982473986E+04  0.10928047850E+04 0.  0.
        4    1    3    3  502    0 -0.46920012417E+02 -0.37642360487E+03  0.18545975172E+03  0.42224773567E+03  0.12699999809E+01 0. -1.
       -4    1    3    3    0  502  0.46920012417E+02  0.37642360487E+03 -0.67696207140E+03  0.77599966294E+03  0.12699999809E+01 0.  1.
</event>
<event>
 5   0  0.5627232E-03  0.9092525E+03  0.7818609E-02  0.9414089E-01
       -2   -1    0    0    0  501  0.00000000000E+00  0.00000000000E+00  0.13329071753E+03  0.13329071756E+03  0.25500000920E-02 0.  1.
        2   -1    0    0  501    0  0.00000000000E+00  0.00000000000E+00 -0.15506332781E+04  0.15506332781E+04  0.25500000920E-02 0. -1.
    10030    2    1    2    0    0  0.00000000000E+00  0.00000000000E+00 -0.14173425606E+04  0.16839239957E+04  0.90925248923E+03 0.  0.
        2    1    3    3  502    0  0.23055139175E+03  0.26042850084E+03 -0.16648458668E+03  0.38560869531E+03  0.25500000920E-02 0.  1.
       -2    1    3    3    0  502 -0.23055139175E+03 -0.26042850084E+03 -0.12508579739E+04  0.12983153004E+04  0.25500000920E-02 0. -1.
</event>
<event>
 5   0  0.5627232E-03  0.1031372E+04  0.7818609E-02  0.9274791E-01
        2   -1    0    0  501    0  0.00000000000E+00  0.00000000000E+00  0.36843827539E+03  0.36843827540E+03  0.25500000920E-02 0.  1.
       -2   -1    0    0    0  501  0.00000000000E+00  0.00000000000E+00 -0.72178119989E+03  0.72178119990E+03  0.25500000920E-02 0. -1.
    10030    2    1    2    0    0  0.00000000000E+00  0.00000000000E+00 -0.35334292450E+03  0.10902194753E+04  0.10313715538E+04 0.  0.
        2    1    3    3  502    0  0.42606770632E+02 -0.49485423259E+03 -0.30064836538E+02  0.49759415473E+03  0.25500000920E-02 0. -1.
       -2    1    3    3    0  502 -0.42606770632E+02  0.49485423259E+03 -0.32327808796E+03  0.59262532057E+03  0.25500000920E-02 0.  1.
</event>
<event>
 5   0  0.2185750E-03  0.1094761E+04  0.7818609E-02  0.9210313E-01
       -4   -1    0    0    0  501  0.00000000000E+00  0.00000000000E+00  0.14714689844E+03  0.14715237892E+03  0.12699999809E+01 0. -1.
        4   -1    0    0  501    0  0.00000000000E+00  0.00000000000E+00 -0.20361915366E+04  0.20361919326E+04  0.12699999809E+01 0.  1.
    10030    2    1    2    0    0  0.00000000000E+00  0.00000000000E+00 -0.18890446381E+04  0.21833443116E+04  0.10947614982E+04 0.  0.
        4    1    3    3  502    0  0.12541000691E+03 -0.42673028539E+03 -0.15808365300E+04  0.16422156234E+04  0.12699999809E+01 0.  1.
       -4    1    3    3    0  502 -0.12541000691E+03  0.42673028539E+03 -0.30820810812E+03  0.54112868813E+03  0.12699999809E+01 0. -1.
</event>
<event>
 5   0  0.5723194E-03  0.1102457E+04  0.7818609E-02  0.9202800E-01
        2   -1    0    0  501    0  0.00000000000E+00  0.00000000000E+00  0.73784184540E+03  0.73784184540E+03  0.25500000920E-02 0. -1.
       -2   -1    0    0    0  501  0.00000000000E+00  0.00000000000E+00 -0.41181305097E+03  0.41181305098E+03  0.25500000920E-02 0.  1.
    10030    2    1    2    0    0  0.00000000000E+00  0.00000000000E+00  0.32602879443E+03  0.11496548964E+04  0.11024570767E+04 0.  0.
        1    1    3    3  502    0 -0.50377285831E+03  0.22369669273E+03  0.15773831109E+03  0.57333121136E+03  0.50400001928E-02 0. -1.
       -1    1    3    3    0  502  0.50377285831E+03 -0.22369669273E+03  0.16829048334E+03  0.57632368502E+03  0.50400001928E-02 0.  1.
</event>
<event>
 5   0  0.3328741E-03  0.1088729E+04  0.7818609E-02  0.9216247E-01
       -1   -1    0    0    0  501  0.00000000000E+00  0.00000000000E+00  0.79479604902E+03  0.79479604904E+03  0.50400001928E-02 0. -1.
        1   -1    0    0  501    0  0.00000000000E+00  0.00000000000E+00 -0.37284142022E+03  0.37284142025E+03  0.50400001928E-02 0.  1.
    10030    2    1    2    0    0  0.00000000000E+00  0.00000000000E+00  0.42195462880E+03  0.11676374693E+04  0.10887293286E+04 0.  0.
        3    1    3    3  502    0 -0.18610458531E+03  0.18427008990E+02  0.75926227988E+03  0.78195504422E+03  0.10100000352E+00 0. -1.
       -3    1    3    3    0  502  0.18610458531E+03 -0.18427008990E+02 -0.33730765108E+03  0.38568242507E+03  0.10100000352E+00 0.  1.
</event>
<event>
 5   0  0.5946359E-03  0.1092536E+04  0.7818609E-02  0.9212498E-01
        2   -1    0    0  501    0  0.00000000000E+00  0.00000000000E+00  0.10964191321E+04  0.10964191321E+04  0.25500000920E-02 0.  1.
       -2   -1    0    0    0  501  0.00000000000E+00  0.00000000000E+00 -0.27216652112E+03  0.27216652114E+03  0.25500000920E-02 0. -1.
    10030    2    1    2    0    0  0.00000000000E+00  0.00000000000E+00  0.82425261096E+03  0.13685856532E+04  0.10925357310E+04 0.  0.
        4    1    3    3  502    0  0.91652458328E+01  0.14814724449E+03  0.10706721209E+04  0.10809125826E+04  0.12699999809E+01 0.  1.
       -4    1    3    3    0  502 -0.91652458328E+01 -0.14814724449E+03 -0.24641950996E+03  0.28767307064E+03  0.12699999809E+01 0. -1.
</event>
<event>
 5   0  0.5941585E-03  0.1110093E+04  0.7818609E-02  0.9195410E-01
        2   -1    0    0  501    0  0.00000000000E+00  0.00000000000E+00  0.16613455339E+04  0.16613455339E+04  0.25500000920E-02 0.  1.
       -2   -1    0    0    0  501  0.00000000000E+00  0.00000000000E+00 -0.18543810738E+03  0.18543810740E+03  0.25500000920E-02 0. -1.
    10030    2    1    2    0    0  0.00000000000E+00  0.00000000000E+00  0.14759074265E+04  0.18467836413E+04  0.11100932781E+04 0.  0.
        5    1    3    3  502    0  0.17358736006E+03  0.13931515765E+03 -0.10790547871E+03  0.24740041847E+03  0.46999998093E+01 0. -1.
       -5    1    3    3    0  502 -0.17358736006E+03 -0.13931515765E+03  0.15838129052E+04  0.15993832228E+04  0.46999998093E+01 0.  1.
</event>
<event>
 5   0  0.5500363E-03  0.1053942E+04  0.7818609E-02  0.9251284E-01
        2   -1    0    0  501    0  0.00000000000E+00  0.00000000000E+00  0.45789646096E+03  0.45789646097E+03  0.25500000920E-02 0.  1.
       -2   -1    0    0    0  501  0.00000000000E+00  0.00000000000E+00 -0.60646541871E+03  0.60646541871E+03  0.25500000920E-02 0. -1.
    10030    2    1    2    0    0  0.00000000000E+00  0.00000000000E+00 -0.14856895774E+03  0.10643618797E+04  0.10539418749E+04 0.  0.
        3    1    3    3  502    0  0.40219972736E+03 -0.28580221558E+03  0.11261505231E+03  0.50609256794E+03  0.10100000352E+00 0.  1.
       -3    1    3    3    0  502 -0.40219972736E+03  0.28580221558E+03 -0.26118401006E+03  0.55826931174E+03  0.10100000352E+00 0. -1.
</event>
<event>
 5   0  0.3215352E-03  0.1089289E+04  0.7818609E-02  0.9215695E-01
        1   -1    0    0  501    0  0.00000000000E+00  0.00000000000E+00  0.56162667738E+03  0.56162667740E+03  0.50400001928E-02 0. -1.
       -1   -1    0    0    0  501  0.00000000000E+00  0.00000000000E+00 -0.52817589276E+03  0.52817589279E+03  0.50400001928E-02 0.  1.
    10030    2    1    2    0    0  0.00000000000E+00  0.00000000000E+00  0.33450784615E+02  0.10898025702E+04  0.10892890741E+04 0.  0.
        1    1    3    3  502    0 -0.20017932295E+03  0.15543440301E+03 -0.46558697851E+03  0.53009701901E+03  0.50400001928E-02 0.  1.
       -1    1    3    3    0  502  0.20017932295E+03 -0.15543440301E+03  0.49903776313E+03  0.55970555118E+03  0.50400001928E-02 0. -1.
</event>
<event>
 5   0  0.2185750E-03  0.1094439E+04  0.7818609E-02  0.9210629E-01
        4   -1    0    0  501    0  0.00000000000E+00  0.00000000000E+00  0.67311380825E+03  0.67311500634E+03  0.12699999809E+01 0. -1.
       -4   -1    0    0    0  501  0.00000000000E+00  0.00000000000E+00 -0.44486884177E+03  0.44487065454E+03  0.12699999809E+01 0.  1.
    10030    2    1    2    0    0  0.00000000000E+00  0.00000000000E+00  0.22824496649E+03  0.11179856609E+04  0.10944387480E+04 0.  0.
        5    1    3    3  502    0  0.40016237042E+03  0.14045466415E+03  0.46735039344E+03  0.63110689715E+03  0.46999998093E+01 0. -1.
       -5    1    3    3    0  502 -0.40016237042E+03 -0.14045466415E+03 -0.23910542695E+03  0.48687876374E+03  0.46999998093E+01 0.  1.
</event>
<event>
 5   0  0.3320192E-03  0.1099362E+04  0.7818609E-02  0.9205813E-01
       -1   -1    0    0    0  501  0.00000000000E+00  0.00000000000E+00  0.31594387915E+03  0.31594387919E+03  0.50400001928E-02 0. -1.
        1   -1    0    0  501    0  0.00000000000E+00  0.00000000000E+00 -0.95633900360E+03  0.95633900361E+03  0.50400001928E-02 0.  1.
    10030    2    1    2    0    0  0.00000000000E+00  0.00000000000E+00 -0.64039512445E+03  0.12722828828E+04  0.10993624600E+04 0.  0.
        2    1    3    3  502    0  0.21543921709E+02 -0.20947130957E+03  0.26741382731E+03  0.34037115791E+03  0.25500000920E-02 0. -1.
       -2    1    3    3    0  502 -0.21543921709E+02  0.20947130957E+03 -0.90780895175E+03  0.93191172489E+03  0.25500000920E-02 0.  1.
</event>
<event>
 5   0  0.5627232E-03  0.1099832E+04  0.7818609E-02  0.9205355E-01
       -2   -1    0    0    0  501  0.00000000000E+00  0.00000000000E+00  0.44739481658E+03  0.44739481659E+03  0.25500000920E-02 0. -1.
        2   -1    0    0  501    0  0.00000000000E+00  0.00000000000E+00 -0.67593056999E+03  0.67593056999E+03  0.25500000920E-02 0.  1.
    10030    2    1    2    0    0  0.00000000000E+00  0.00000000000E+00 -0.22853575341E+03  0.11233253866E+04  0.10998324116E+04 0.  0.
        2    1    3    3  502    0 -0.43230522736E+02 -0.51956488482E+03 -0.29290755385E+03  0.59800617283E+03  0.25500000920E-02 0.  1.
       -2    1    3    3    0  502  0.43230522736E+02  0.51956488482E+03  0.64371800444E+02  0.52531921375E+03  0.25500000920E-02 0. -1.
</event>
<event>
 5   0  0.5946359E-03  0.1097849E+04  0.7818609E-02  0.9207291E-01
        2   -1    0    0  501    0  0.00000000000E+00  0.00000000000E+00  0.10261389400E+04  0.10261389400E+04  0.25500000920E-02 0. -1.
       -2   -1    0    0    0  501  0.00000000000E+00  0.00000000000E+00 -0.29364261608E+03  0.29364261609E+03  0.25500000920E-02 0.  1.
    10030    2    1    2    0    0  0.00000000000E+00  0.00000000000E+00  0.73249632394E+03  0.13197815561E+04  0.10978490294E+04 0.  0.
        4    1    3    3  502    0  0.19736305768E+03  0.40890320953E+03 -0.45967721996E+01  0.45406690533E+03  0.12699999809E+01 0.  1.
       -4    1    3    3    0  502 -0.19736305768E+03 -0.40890320953E+03  0.73709309614E+03  0.86571465079E+03  0.12699999809E+01 0. -1.
</event>
<event>
 5   0  0.5941585E-03  0.1103278E+04  0.7818609E-02  0.9202003E-01
        2   -1    0    0  501    0  0.00000000000E+00  0.00000000000E+00  0.12604310698E+04  0.12604310698E+04  0.25500000920E-02 0.  1.
       -2   -1    0    0    0  501  0.00000000000E+00  0.00000000000E+00 -0.24142981637E+03  0.24142981638E+03  0.25500000920E-02 0. -1.
    10030    2    1    2    0    0  0.00000000000E+00  0.00000000000E+00  0.10190012534E+04  0.15018608862E+04  0.11032781005E+04 0.  0.
        5    1    3    3  502    0  0.29139538711E+03 -0.46498842019E+03  0.58599934443E+03  0.80283424454E+03  0.46999998093E+01 0.  1.
       -5    1    3    3    0  502 -0.29139538711E+03  0.46498842019E+03  0.43300190902E+03  0.69902664166E+03  0.46999998093E+01 0. -1.
</event>
<event>
 5   0  0.3215352E-03  0.1070884E+04  0.7818609E-02  0.9234044E-01
        1   -1    0    0  501    0  0.00000000000E+00  0.00000000000E+00  0.89653323027E+03  0.89653323028E+03  0.50400001928E-02 0. -1.
       -1   -1    0    0    0  501  0.00000000000E+00  0.00000000000E+00 -0.31978517291E+03  0.31978517295E+03  0.50400001928E-02 0.  1.
    10030    2    1    2    0    0  0.00000000000E+00  0.00000000000E+00  0.57674805735E+03  0.12163184032E+04  0.10708838109E+04 0.  0.
        1    1    3    3  502    0 -0.28026882949E+03  0.40803863225E+03  0.52017875721E+03  0.71807526185E+03  0.50400001928E-02 0.  1.
       -1    1    3    3    0  502  0.28026882949E+03 -0.40803863225E+03  0.56569300140E+02  0.49824314139E+03  0.50400001928E-02 0. -1.
</event>
<event>
 5   0  0.3316784E-03  0.1076282E+04  0.7818609E-02  0.9228622E-01
        1   -1    0    0  501    0  0.00000000000E+00  0.00000000000E+00  0.12952544926E+04  0.12952544926E+04  0.50400001928E-02 0.  1.
       -1   -1    0    0    0  501  0.00000000000E+00  0.00000000000E+00 -0.22358221539E+03  0.22358221545E+03  0.50400001928E-02 0. -1.
    10030    2    1    2    0    0  0.00000000000E+00  0.00000000000E+00  0.10716722772E+04  0.15188367081E+04  0.10762822474E+04 0.  0.
        4    1    3    3  502    0  0.12677281059E+02 -0.44304755564E+02  0.12924628152E+04  0.12932847198E+04  0.12699999809E+01 0.  1.
       -4    1    3    3    0  502 -0.12677281059E+02  0.44304755564E+02 -0.22079053803E+03  0.22555198825E+03  0.12699999809E+01 0. -1.
</event>
<event>
 5   0  0.5627232E-03  0.1085051E+04  0.7818609E-02  0.9219886E-01
       -2   -1    0    0    0  501  0.00000000000E+00  0.00000000000E+00  0.12200863362E+04  0.12200863362E+04  0.25500000920E-02 0. -1.
        2   -1    0    0  501    0  0.00000000000E+00  0.00000000000E+00 -0.24124037160E+03  0.24124037161E+03  0.25500000920E-02 0.  1.
    10030    2    1    2    0    0  0.00000000000E+00  0.00000000000E+00  0.97884596463E+03  0.14613267079E+04  0.10850513004E+04 0.  0.
        2    1    3    3  502    0 -0.41898538562E+02  0.87384607642E+02 -0.22948893572E+03  0.24911188011E+03  0.25500000920E-02 0.  1.
       -2    1    3    3    0  502  0.41898538562E+02 -0.87384607642E+02  0.12083349004E+04  0.12122148277E+04  0.25500000920E-02 0. -1.
</event>
<event>
 5   0  0.5723194E-03  0.1103497E+04  0.7818609E-02  0.9201790E-01
        2   -1    0    0  501    0  0.00000000000E+00  0.00000000000E+00  0.60704858597E+03  0.60704858598E+03  0.25500000920E-02 0. -1.
       -2   -1    0    0    0  501  0.00000000000E+00  0.00000000000E+00 -0.50148636394E+03  0.50148636395E+03  0.25500000920E-02 0.  1.
    10030    2    1    2    0    0  0.00000000000E+00  0.00000000000E+00  0.10556222203E+03  0.11085349499E+04  0.11034973278E+04 0.  0.
        1    1    3    3  502    0  0.48845701990E+02 -0.52563413244E+03 -0.10841777448E+03  0.53891702296E+03  0.50400001928E-02 0.  1.
       -1    1    3    3    0  502 -0.48845701990E+02  0.52563413244E+03  0.21397999651E+03  0.56961792696E+03  0.50400001928E-02 0. -1.
</event>
<event>
 5   0  0.5723194E-03  0.1123739E+04  0.7818609E-02  0.9182358E-01
        2   -1    0    0  501    0  0.00000000000E+00  0.00000000000E+00  0.10785151534E+04  0.10785151534E+04  0.25500000920E-02 0. -1.
       -2   -1    0    0    0  501  0.00000000000E+00  0.00000000000E+00 -0.29271465613E+03  0.29271465614E+03  0.25500000920E-02 0.  1.
    10030    2    1    2    0    0  0.00000000000E+00  0.00000000000E+00  0.78580049726E+03  0.13712298095E+04  0.11237387459E+04 0.  0.
        1    1    3    3  502    0  0.52978689571E+03 -0.71888571119E+02  0.18205979467E+03  0.56479012950E+03  0.50400001928E-02 0.  1.
       -1    1    3    3    0  502 -0.52978689571E+03  0.71888571119E+02  0.60374070260E+03  0.80643968003E+03  0.50400001928E-02 0. -1.
</event>
<event>
 5   0  0.3320192E-03  0.1086234E+04  0.7818609E-02  0.9218714E-01
       -1   -1    0    0    0  501  0.00000000000E+00  0.00000000000E+00  0.33504623345E+03  0.33504623348E+03  0.50400001928E-02 0. -1.
        1   -1    0    0  501    0  0.00000000000E+00  0.00000000000E+00 -0.88040425280E+03  0.88040425281E+03  0.50400001928E-02 0.  1.
    10030    2    1    2    0    0  0.00000000000E+00  0.00000000000E+00 -0.54535801935E+03  0.12154504863E+04  0.10862340979E+04 0.  0.
        2    1    3    3  502    0  0.31178453108E+03  0.41173951641E+03 -0.84650402323E+02  0.52335906777E+03  0.25500000920E-02 0. -1.
       -2    1    3    3    0  502 -0.31178453108E+03 -0.41173951641E+03 -0.46070761703E+03  0.69209141852E+03  0.25500000920E-02 0.  1.
</event>
<event>
 5   0  0.5941585E-03  0.1078086E+04  0.7818609E-02  0.9226818E-01
        2   -1    0    0  501    0  0.00000000000E+00  0.00000000000E+00  0.12525559753E+04  0.12525559753E+04  0.25500000920E-02 0.  1.
       -2   -1    0    0    0  501  0.00000000000E+00  0.00000000000E+00 -0.23197937699E+03  0.23197937700E+03  0.25500000920E-02 0. -1.
    10030    2    1    2    0    0  0.00000000000E+00  0.00000000000E+00  0.10205765983E+04  0.14845353523E+04  0.10780856270E+04 0.  0.
        5    1    3    3  502    0  0.16731606718E+03 -0.29440083266E+03 -0.67200711404E+02  0.34526010806E+03  0.46999998093E+01 0. -1.
       -5    1    3    3    0  502 -0.16731606718E+03  0.29440083266E+03  0.10877773097E+04  0.11392752442E+04  0.46999998093E+01 0.  1.
</event>
<event>
 5   0  0.3316784E-03  0.1112651E+04  0.7818609E-02  0.9192948E-01
        1   -1    0    0  501    0  0.00000000000E+00  0.00000000000E+00  0.75553020107E+03  0.75553020109E+03  0.50400001928E-02 0. -1.
       -1   -1    0    0    0  501  0.00000000000E+00  0.00000000000E+00 -0.40964364301E+03  0.40964364304E+03  0.50400001928E-02 0.  1.
    10030    2    1    2    0    0  0.00000000000E+00  0.00000000000E+00  0.34588655806E+03  0.11651738441E+04  0.11126511475E+04 0.  0.
        4    1    3    3  502    0 -0.17894954054E+03 -0.52337120297E+03  0.11049458105E+03  0.56404877404E+03  0.12699999809E+01 0. -1.
       -4    1    3    3    0  502  0.17894954054E+03  0.52337120297E+03  0.23539197701E+03  0.60112507009E+03  0.12699999809E+01 0.  1.
</event>
<event>
 5   0  0.3215352E-03  0.1095690E+04  0.7818609E-02  0.9209403E-01
       -1   -1    0    0    0  501  0.00000000000E+00  0.00000000000E+00  0.62191174097E+03  0.62191174099E+03  0.50400001928E-02 0.  1.
        1   -1    0    0  501    0  0.00000000000E+00  0.00000000000E+00 -0.48259915061E+03  0.48259915064E+03  0.50400001928E-02 0. -1.
    10030    2    1    2    0    0  0.00000000000E+00  0.00000000000E+00  0.13931259036E+03  0.11045108916E+04  0.10956898794E+04 0.  0.
        1    1    3    3  502    0 -0.47688408002E+03 -0.25468591139E+03  0.15897401227E+03  0.56352114055E+03  0.50400001928E-02 0.  1.
       -1    1    3    3    0  502  0.47688408002E+03  0.25468591139E+03 -0.19661421912E+02  0.54098975108E+03  0.50400001928E-02 0. -1.
</event>
<event>
 5   0  0.3215352E-03  0.1103147E+04  0.7818609E-02  0.9202130E-01
        1   -1    0    0  501    0  0.00000000000E+00  0.00000000000E+00  0.71285973080E+03  0.71285973081E+03  0.50400001928E-02 0.  1.
       -1   -1    0    0    0  501  0.00000000000E+00  0.00000000000E+00 -0.42677855979E+03  0.42677855982E+03  0.50400001928E-02 0. -1.
    10030    2    1    2    0    0  0.00000000000E+00  0.00000000000E+00  0.28608117101E+03  0.11396382906E+04  0.11031468611E+04 0.  0.
        1    1    3    3  502    0 -0.62114111424E+01 -0.54477621018E+03  0.54090419338E+02  0.54749015909E+03  0.50400001928E-02 0. -1.
       -1    1    3    3    0  502  0.62114111424E+01  0.54477621018E+03  0.23199075167E+03  0.59214813154E+03  0.50400001928E-02 0.  1.
</event>
<event>
 5   0  0.3320192E-03  0.1115090E+04  0.7818609E-02  0.9190608E-01
       -1   -1    0    0    0  501  0.00000000000E+00  0.00000000000E+00  0.11633545420E+04  0.11633545420E+04  0.50400001928E-02 0.  1.
        1   -1    0    0  501    0  0.00000000000E+00  0.00000000000E+00 -0.26720699112E+03  0.26720699116E+03  0.50400001928E-02 0. -1.
    10030    2    1    2    0    0  0.00000000000E+00  0.00000000000E+00  0.89614755088E+03  0.14305615332E+04  0.11150900714E+04 0.  0.
        2    1    3    3  502    0  0.16100255400E+03  0.48569317742E+03  0.73216484010E+03  0.89324410889E+03  0.25500000920E-02 0. -1.
       -2    1    3    3    0  502 -0.16100255400E+03 -0.48569317742E+03  0.16398271078E+03  0.53731742427E+03  0.25500000920E-02 0.  1.
</event>
<event>
 5   0  0.3328741E-03  0.1018792E+04  0.7818609E-02  0.9288171E-01
       -1   -1    0    0    0  501  0.00000000000E+00  0.00000000000E+00  0.41009299859E+03  0.41009299863E+03  0.50400001928E-02 0. -1.
        1   -1    0    0  501    0  0.00000000000E+00  0.00000000000E+00 -0.63274487561E+03  0.63274487563E+03  0.50400001928E-02 0.  1.
    10030    2    1    2    0    0  0.00000000000E+00  0.00000000000E+00 -0.22265187701E+03  0.10428378743E+04  0.10187919187E+04 0.  0.
        3    1    3    3  502    0  0.49386451654E+03 -0.12432172016E+03 -0.99827715990E+02  0.51896400056E+03  0.10100000352E+00 0. -1.
       -3    1    3    3    0  502 -0.49386451654E+03  0.12432172016E+03 -0.12282416102E+03  0.52387387369E+03  0.10100000352E+00 0.  1.
</event>
<event>
 5   0  0.5500363E-03  0.1089315E+04  0.7818609E-02  0.9215669E-01
       -2   -1    0    0    0  501  0.00000000000E+00  0.00000000000E+00  0.53448498865E+03  0.53448498866E+03  0.25500000920E-02 0. -1.
        2   -1    0    0  501    0  0.00000000000E+00  0.00000000000E+00 -0.55502336986E+03  0.55502336986E+03  0.25500000920E-02 0.  1.
    10030    2    1    2    0    0  0.00000000000E+00  0.00000000000E+00 -0.20538381204E+02  0.10895083585E+04  0.10893147563E+04 0.  0.
        3    1    3    3  502    0 -0.15146309083E+03 -0.33180733963E+03  0.39429555565E+03  0.53712770727E+03  0.10100000352E+00 0. -1.
       -3    1    3    3    0  502  0.15146309083E+03  0.33180733963E+03 -0.41483393685E+03  0.55238065125E+03  0.10100000352E+00 0.  1.
</event>
<event>
 5   0  0.3328741E-03  0.1057986E+04  0.7818609E-02  0.9247137E-01
       -1   -1    0    0    0  501  0.00000000000E+00  0.00000000000E+00  0.51546177901E+03  0.51546177903E+03  0.50400001928E-02 0.  1.
        1   -1    0    0  501    0  0.00000000000E+00  0.00000000000E+00 -0.54287988596E+03  0.54287988598E+03  0.50400001928E-02 0. -1.
    10030    2    1    2    0    0  0.00000000000E+00  0.00000000000E+00 -0.27418106950E+02  0.10583416650E+04  0.10579864495E+04 0.  0.
        3    1    3    3  502    0  0.36424178798E+03 -0.14386905707E+03 -0.36944542998E+03  0.53838677698E+03  0.10100000352E+00 0. -1.
       -3    1    3    3    0  502 -0.36424178798E+03  0.14386905707E+03  0.34202732303E+03  0.51995488804E+03  0.10100000352E+00 0.  1.
</event>
<event>
 5   0  0.5946359E-03  0.1093045E+04  0.7818609E-02  0.9211997E-01
       -2   -1    0    0    0  501  0.00000000000E+00  0.00000000000E+00  0.22051811433E+03  0.22051811434E+03  0.25500000920E-02 0. -1.
        2   -1    0    0  501    0  0.00000000000E+00  0.00000000000E+00 -0.13544781932E+04  0.13544781932E+04  0.25500000920E-02 0.  1.
    10030    2    1    2    0    0  0.00000000000E+00  0.00000000000E+00 -0.11339600789E+04  0.15749963075E+04  0.10930452453E+04 0.  0.
        4    1    3    3  502    0  0.66869534106E+02  0.24443492254E+03  0.13073933126E+03  0.28515671409E+03  0.12699999809E+01 0. -1.
       -4    1    3    3    0  502 -0.66869534106E+02 -0.24443492254E+03 -0.12646994101E+04  0.12898395935E+04  0.12699999809E+01 0.  1.
</event>
<event>
 5   0  0.5500363E-03  0.1098222E+04  0.7818609E-02  0.9206926E-01
        2   -1    0    0  501    0  0.00000000000E+00  0.00000000000E+00  0.11916881948E+04  0.11916881948E+04  0.25500000920E-02 0.  1.
       -2   -1    0    0    0  501  0.00000000000E+00  0.00000000000E+00 -0.25302179565E+03  0.25302179566E+03  0.25500000920E-02 0. -1.
    10030    2    1    2    0    0  0.00000000000E+00  0.00000000000E+00  0.93866639917E+03  0.14447099905E+04  0.10982223580E+04 0.  0.
        3    1    3    3  502    0 -0.61252357636E+02 -0.51124000527E+03  0.21833522828E+03  0.55927495601E+03  0.10100000352E+00 0. -1.
       -3    1    3    3    0  502  0.61252357636E+02  0.51124000527E+03  0.72033117089E+03  0.88543503447E+03  0.10100000352E+00 0.  1.
</event>
<event>
 5   0  0.5627232E-03  0.1102953E+04  0.7818609E-02  0.9202318E-01
       -2   -1    0    0    0  501  0.00000000000E+00  0.00000000000E+00  0.26143023191E+03  0.26143023192E+03  0.25500000920E-02 0. -1.
        2   -1    0    0  501    0  0.00000000000E+00  0.00000000000E+00 -0.11633180250E+04  0.11633180250E+04  0.25500000920E-02 0.  1.
    10030    2    1    2    0    0  0.00000000000E+00  0.00000000000E+00 -0.90188779310E+03  0.14247482569E+04  0.11029533101E+04 0.  0.
        2    1    3    3  502    0 -0.64993350558E+02  0.25786438011E+03 -0.10750223357E+04  0.11074254812E+04  0.25500000920E-02 0.  1.
       -2    1    3    3    0  502  0.64993350558E+02 -0.25786438011E+03  0.17313454260E+03  0.31732277573E+03  0.25500000920E-02 0. -1.
</event>
<event>
 5   0  0.3241189E-03  0.1080099E+04  0.7818609E-02  0.9224809E-01
       -1   -1    0    0    0  501  0.00000000000E+00  0.00000000000E+00  0.32715035083E+03  0.32715035087E+03  0.50400001928E-02 0.  1.
        1   -1    0    0  501    0  0.00000000000E+00  0.00000000000E+00 -0.89149649633E+03  0.89149649635E+03  0.50400001928E-02 0. -1.
    10030    2    1    2    0    0  0.00000000000E+00  0.00000000000E+00 -0.56434614550E+03  0.12186468472E+04  0.10800988688E+04 0.  0.
        5    1    3    3  502    0 -0.47019557136E+03 -0.21664571090E+03 -0.45554601411E+03  0.68961112255E+03  0.46999998093E+01 0. -1.
       -5    1    3    3    0  502  0.47019557136E+03  0.21664571090E+03 -0.10880013139E+03  0.52903572466E+03  0.46999998093E+01 0.  1.
</event>
<event>
 5   0  0.3215352E-03  0.1137901E+04  0.7818609E-02  0.9169019E-01
        1   -1    0    0  501    0  0.00000000000E+00  0.00000000000E+00  0.40125594230E+03  0.40125594233E+03  0.50400001928E-02 0.  1.
       -1   -1    0    0    0  501  0.00000000000E+00  0.00000000000E+00 -0.80672809617E+03  0.80672809619E+03  0.50400001928E-02 0. -1.
    10030    2    1    2    0    0  0.00000000000E+00  0.00000000000E+00 -0.40547215387E+03  0.12079840385E+04  0.11379005975E+04 0.  0.
        1    1    3    3  502    0  0.14035026840E+03 -0.13120513007E+03  0.36577636884E+03  0.41316502275E+03  0.50400001928E-02 0.  1.
       -1    1    3    3    0  502 -0.14035026840E+03  0.13120513007E+03 -0.77124852272E+03  0.79481901576E+03  0.50400001928E-02 0. -1.
</event>
<event>
 5   0  0.5723194E-03  0.1098913E+04  0.7818609E-02  0.9206252E-01
       -2   -1    0    0    0  501  0.00000000000E+00  0.00000000000E+00  0.39613296691E+03  0.39613296692E+03  0.25500000920E-02 0.  1.
        2   -1    0    0  501    0  0.00000000000E+00  0.00000000000E+00 -0.76212426432E+03  0.76212426432E+03  0.25500000920E-02 0. -1.
    10030    2    1    2    0    0  0.00000000000E+00  0.00000000000E+00 -0.36599129741E+03  0.11582572312E+04  0.10989131831E+04 0.  0.
        1    1    3    3  502    0 -0.33692639751E+02  0.19651895924E+03 -0.72264868117E+03  0.74965059310E+03  0.50400001928E-02 0. -1.
       -1    1    3    3    0  502  0.33692639751E+02 -0.19651895924E+03  0.35665738377E+03  0.40860663814E+03  0.50400001928E-02 0.  1.
</event>
<event>
 5   0  0.5946359E-03  0.1050571E+04  0.7818609E-02  0.9254754E-01
        2   -1    0    0  501    0  0.00000000000E+00  0.00000000000E+00  0.17369819167E+04  0.17369819167E+04  0.25500000920E-02 0. -1.
       -2   -1    0    0    0  501  0.00000000000E+00  0.00000000000E+00 -0.15885312886E+03  0.15885312888E+03  0.25500000920E-02 0.  1.
    10030    2    1    2    0    0  0.00000000000E+00  0.00000000000E+00  0.15781287879E+04  0.18958350456E+04  0.10505712965E+04 0.  0.
        4    1    3    3  502    0  0.21278134202E+02 -0.42380385131E+03  0.23034229549E+03  0.48282672811E+03  0.12699999809E+01 0.  1.
       -4    1    3    3    0  502 -0.21278134202E+02  0.42380385131E+03  0.13477864924E+04  0.14130083175E+04  0.12699999809E+01 0. -1.
</event>
<event>
 5   0  0.2185750E-03  0.1058689E+04  0.7818609E-02  0.9246419E-01
        4   -1    0    0  501    0  0.00000000000E+00  0.00000000000E+00  0.50211998427E+03  0.50212159035E+03  0.12699999809E+01 0.  1.
       -4   -1    0    0    0  501  0.00000000000E+00  0.00000000000E+00 -0.55804149035E+03  0.55804293549E+03  0.12699999809E+01 0. -1.
    10030    2    1    2    0    0  0.00000000000E+00  0.00000000000E+00 -0.55921506082E+02  0.10601645258E+04  0.10586886261E+04 0.  0.
        2    1    3    3  502    0 -0.23181734976E+03  0.24404982109E+03  0.38114985348E+03  0.50850251684E+03  0.25500000920E-02 0.  1.
       -2    1    3    3    0  502  0.23181734976E+03 -0.24404982109E+03 -0.43707135956E+03  0.55166200900E+03  0.25500000920E-02 0. -1.
</event>
<event>
 5   0  0.5500363E-03  0.1088134E+04  0.7818609E-02  0.9216835E-01
       -2   -1    0    0    0  501  0.00000000000E+00  0.00000000000E+00  0.48421413833E+03  0.48421413833E+03  0.25500000920E-02 0.  1.
        2   -1    0    0  501    0  0.00000000000E+00  0.00000000000E+00 -0.61131849881E+03  0.61131849881E+03  0.25500000920E-02 0. -1.
    10030    2    1    2    0    0  0.00000000000E+00  0.00000000000E+00 -0.12710436048E+03  0.10955326371E+04  0.10881342935E+04 0.  0.
        3    1    3    3  502    0 -0.31875117422E+03 -0.39006124813E+03 -0.27051971805E+03  0.57177881774E+03  0.10100000352E+00 0. -1.
       -3    1    3    3    0  502  0.31875117422E+03  0.39006124813E+03  0.14341535757E+03  0.52375381941E+03  0.10100000352E+00 0.  1.
</event>
<event>
 5   0  0.5946359E-03  0.1099151E+04  0.7818609E-02  0.9206020E-01
        2   -1    0    0  501    0  0.00000000000E+00  0.00000000000E+00  0.65446517470E+03  0.65446517470E+03  0.25500000920E-02 0.  1.
       -2   -1    0    0    0  501  0.00000000000E+00  0.00000000000E+00 -0.46149614792E+03  0.46149614793E+03  0.25500000920E-02 0. -1.
    10030    2    1    2    0    0  0.00000000000E+00  0.00000000000E+00  0.19296902678E+03  0.11159613226E+04  0.10991508669E+04 0.  0.
        4    1    3    3  502    0  0.35509627833E+03 -0.15862175713E+03  0.49072374477E+03  0.62615144757E+03  0.12699999809E+01 0.  1.
       -4    1    3    3    0  502 -0.35509627833E+03  0.15862175713E+03 -0.29775471799E+03  0.48980987506E+03  0.12699999809E+01 0. -1.
</event>
<event>
 5   0  0.3241189E-03  0.1101008E+04  0.7818609E-02  0.9204210E-01
        1   -1    0    0  501    0  0.00000000000E+00  0.00000000000E+00  0.34130642268E+03  0.34130642272E+03  0.50400001928E-02 0.  1.
       -1   -1    0    0    0  501  0.00000000000E+00  0.00000000000E+00 -0.88792530169E+03  0.88792530171E+03  0.50400001928E-02 0. -1.
    10030    2    1    2    0    0  0.00000000000E+00  0.00000000000E+00 -0.54661887901E+03  0.12292317244E+04  0.11010079171E+04 0.  0.
        5    1    3    3  502    0 -0.25687719524E+03 -0.16807667074E+03  0.23684926069E+03  0.38775678327E+03  0.46999998093E+01 0.  1.
       -5    1    3    3    0  502  0.25687719524E+03  0.16807667074E+03 -0.78346813970E+03  0.84147494116E+03  0.46999998093E+01 0. -1.
</event>
<event>
 5   0  0.3320192E-03  0.1100583E+04  0.7818609E-02  0.9204624E-01
       -1   -1    0    0    0  501  0.00000000000E+00  0.00000000000E+00  0.35847694616E+03  0.35847694620E+03  0.50400001928E-02 0. -1.
        1   -1    0    0  501    0  0.00000000000E+00  0.00000000000E+00 -0.84474301771E+03  0.84474301773E+03  0.50400001928E-02 0.  1.
    10030    2    1    2    0    0  0.00000000000E+00  0.00000000000E+00 -0.48626607155E+03  0.12032199639E+04  0.11005832950E+04 0.  0.
        2    1    3    3  502    0 -0.13848273789E+03  0.45919047500E+03  0.51818473149E+02  0.48240907453E+03  0.25500000920E-02 0. -1.
       -2    1    3    3    0  502  0.13848273789E+03 -0.45919047500E+03 -0.53808454470E+03  0.72081088940E+03  0.25500000920E-02 0.  1.
</event>
<event>
 5   0  0.5946359E-03  0.1052987E+04  0.7818609E-02  0.9252266E-01
        2   -1    0    0  501    0  0.00000000000E+00  0.00000000000E+00  0.62943843935E+03  0.62943843935E+03  0.25500000920E-02 0.  1.
       -2   -1    0    0    0  501  0.00000000000E+00  0.00000000000E+00 -0.44038507674E+03  0.44038507674E+03  0.25500000920E-02 0. -1.
    10030    2    1    2    0    0  0.00000000000E+00  0.00000000000E+00  0.18905336261E+03  0.10698235161E+04  0.10529867908E+04 0.  0.
        4    1    3    3  502    0  0.38720381186E+03 -0.12848006833E+03 -0.24360060965E+03  0.47515975187E+03  0.12699999809E+01 0. -1.
       -4    1    3    3    0  502 -0.38720381186E+03  0.12848006833E+03  0.43265397226E+03  0.59466376423E+03  0.12699999809E+01 0.  1.
</event>
<event>
 5   0  0.5500363E-03  0.8410195E+03  0.7818609E-02  0.9502470E-01
       -2   -1    0    0    0  501  0.00000000000E+00  0.00000000000E+00  0.89163207947E+02  0.89163207983E+02  0.25500000920E-02 0. -1.
        2   -1    0    0  501    0  0.00000000000E+00  0.00000000000E+00 -0.19831997481E+04  0.19831997481E+04  0.25500000920E-02 0.  1.
    10030    2    1    2    0    0  0.00000000000E+00  0.00000000000E+00 -0.18940365401E+04  0.20723629561E+04  0.84101950412E+03 0.  0.
        3    1    3    3  502    0 -0.90063155006E+02  0.40599806596E+03 -0.11005588975E+04  0.11765099653E+04  0.10100000352E+00 0.  1.
       -3    1    3    3    0  502  0.90063155006E+02 -0.40599806596E+03 -0.79347764262E+03  0.89585299073E+03  0.10100000352E+00 0. -1.
</event>
<event>
 5   0  0.2185750E-03  0.9966434E+03  0.7818609E-02  0.9312234E-01
        3   -1    0    0  501    0  0.00000000000E+00  0.00000000000E+00  0.22777837995E+03  0.22777840234E+03  0.10100000352E+00 0.  1.
       -3   -1    0    0    0  501  0.00000000000E+00  0.00000000000E+00 -0.10902023119E+04  0.10902023166E+04  0.10100000352E+00 0. -1.
    10030    2    1    2    0    0  0.00000000000E+00  0.00000000000E+00 -0.86242393200E+03  0.13179807190E+04  0.99664343529E+03 0.  0.
        2    1    3    3  502    0 -0.34835224458E+03  0.13278911910E+03 -0.86849572189E+03  0.94512806297E+03  0.25500000920E-02 0. -1.
       -2    1    3    3    0  502  0.34835224458E+03 -0.13278911910E+03  0.60717898963E+01  0.37285265601E+03  0.25500000920E-02 0.  1.
</event>
<event>
 5   0  0.5627232E-03  0.1088277E+04  0.7818609E-02  0.9216694E-01
       -2   -1    0    0    0  501  0.00000000000E+00  0.00000000000E+00  0.39639836011E+03  0.39639836012E+03  0.25500000920E-02 0. -1.
        2   -1    0    0  501    0  0.00000000000E+00  0.00000000000E+00 -0.74694234316E+03  0.74694234316E+03  0.25500000920E-02 0.  1.
    10030    2    1    2    0    0  0.00000000000E+00  0.00000000000E+00 -0.35054398305E+03  0.11433407033E+04  0.10882770234E+04 0.  0.
        2    1    3    3  502    0  0.34478049243E+03  0.22038002126E+03  0.20154803335E+03  0.45613874148E+03  0.25500000920E-02 0. -1.
       -2    1    3    3    0  502 -0.34478049243E+03 -0.22038002126E+03 -0.55209201639E+03  0.68720196180E+03  0.25500000920E-02 0.  1.
</event>
<event>
 5   0  0.5946359E-03  0.1103303E+04  0.7818609E-02  0.9201979E-01
       -2   -1    0    0    0  501  0.00000000000E+00  0.00000000000E+00  0.13274232633E+03  0.13274232635E+03  0.25500000920E-02 0. -1.
        2   -1    0    0  501    0  0.00000000000E+00  0.00000000000E+00 -0.22925560042E+04  0.22925560042E+04  0.25500000920E-02 0.  1.
    10030    2    1    2    0    0  0.00000000000E+00  0.00000000000E+00 -0.21598136779E+04  0.24252983306E+04  0.11033027096E+04 0.  0.
        4    1    3    3  502    0 -0.41623014405E+03 -0.54489610344E+02 -0.29313888011E+03  0.51200455700E+03  0.12699999809E+01 0. -1.
       -4    1    3    3    0  502  0.41623014405E+03  0.54489610344E+02 -0.18666747978E+04  0.19132937736E+04  0.12699999809E+01 0.  1.
</event>
<event>
 5   0  0.3215352E-03  0.1009165E+04  0.7818609E-02  0.9298549E-01
        1   -1    0    0  501    0  0.00000000000E+00  0.00000000000E+00  0.97925571338E+03  0.97925571339E+03  0.50400001928E-02 0. -1.
       -1   -1    0    0    0  501  0.00000000000E+00  0.00000000000E+00 -0.25999704312E+03  0.25999704317E+03  0.50400001928E-02 0.  1.
    10030    2    1    2    0    0  0.00000000000E+00  0.00000000000E+00  0.71925867026E+03  0.12392527566E+04  0.10091651797E+04 0.  0.
        1    1    3    3  502    0  0.11051038829E+03  0.42688058832E+03  0.66083699655E+03  0.79444642276E+03  0.50400001928E-02 0. -1.
       -1    1    3    3    0  502 -0.11051038829E+03 -0.42688058832E+03  0.58421673717E+02  0.44480633380E+03  0.50400001928E-02 0.  1.
</event>
<event>
 5   0  0.5627232E-03  0.1093466E+04  0.7818609E-02  0.9211584E-01
        2   -1    0    0  501    0  0.00000000000E+00  0.00000000000E+00  0.97313463741E+03  0.97313463742E+03  0.25500000920E-02 0. -1.
       -2   -1    0    0    0  501  0.00000000000E+00  0.00000000000E+00 -0.30716908059E+03  0.30716908060E+03  0.25500000920E-02 0.  1.
    10030    2    1    2    0    0  0.00000000000E+00  0.00000000000E+00  0.66596555682E+03  0.12803037180E+04  0.10934658145E+04 0.  0.
        2    1    3    3  502    0 -0.18748127270E+03  0.61356725349E+02 -0.26404834723E+03  0.32959885473E+03  0.25500000920E-02 0.  1.
       -2    1    3    3    0  502  0.18748127270E+03 -0.61356725349E+02  0.93001390405E+03  0.95070486329E+03  0.25500000920E-02 0. -1.
</event>
<event>
 5   0  0.3241189E-03  0.1086886E+04  0.7818609E-02  0.9218069E-01
       -1   -1    0    0    0  501  0.00000000000E+00  0.00000000000E+00  0.66034223534E+03  0.66034223536E+03  0.50400001928E-02 0. -1.
        1   -1    0    0  501    0  0.00000000000E+00  0.00000000000E+00 -0.44723811712E+03  0.44723811715E+03  0.50400001928E-02 0.  1.
    10030    2    1    2    0    0  0.00000000000E+00  0.00000000000E+00  0.21310411822E+03  0.11075803525E+04  0.10868858597E+04 0.  0.
        5    1    3    3  502    0 -0.27373863354E+03 -0.42936424779E+03 -0.86855298916E+02  0.51657761249E+03  0.46999998093E+01 0.  1.
       -5    1    3    3    0  502  0.27373863354E+03  0.42936424779E+03  0.29995941714E+03  0.59100274002E+03  0.46999998093E+01 0. -1.
</event>
<event>
 5   0  0.2185750E-03  0.1100719E+04  0.7818609E-02  0.9204491E-01
       -3   -1    0    0    0  501  0.00000000000E+00  0.00000000000E+00  0.45544388749E+03  0.45544389869E+03  0.10100000352E+00 0.  1.
        3   -1    0    0  501    0  0.00000000000E+00  0.00000000000E+00 -0.66505556560E+03  0.66505557327E+03  0.10100000352E+00 0. -1.
    10030    2    1    2    0    0  0.00000000000E+00  0.00000000000E+00 -0.20961167811E+03  0.11204994720E+04  0.11007188610E+04 0.  0.
        5    1    3    3  502    0 -0.20966483072E+03 -0.23303654365E+03  0.35565913063E+03  0.47411061907E+03  0.46999998093E+01 0.  1.
       -5    1    3    3    0  502  0.20966483072E+03  0.23303654365E+03 -0.56527080874E+03  0.64638885288E+03  0.46999998093E+01 0. -1.
</event>
<event>
 5   0  0.3328741E-03  0.1107178E+04  0.7818609E-02  0.9198224E-01
       -1   -1    0    0    0  501  0.00000000000E+00  0.00000000000E+00  0.45339528440E+03  0.45339528443E+03  0.50400001928E-02 0. -1.
        1   -1    0    0  501    0  0.00000000000E+00  0.00000000000E+00 -0.67592367220E+03  0.67592367222E+03  0.50400001928E-02 0.  1.
    10030    2    1    2    0    0  0.00000000000E+00  0.00000000000E+00 -0.22252838781E+03  0.11293189567E+04  0.11071776833E+04 0.  0.
        3    1    3    3  502    0 -0.26287288496E+03  0.48430346375E+03 -0.16532020443E+03  0.57531102792E+03  0.10100000352E+00 0. -1.
       -3    1    3    3    0  502  0.26287288496E+03 -0.48430346375E+03 -0.57208183374E+02  0.55400792873E+03  0.10100000352E+00 0.  1.
</event>
<event>
 5   0  0.5941585E-03  0.1101765E+04  0.7818609E-02  0.9203473E-01
       -2   -1    0    0    0  501  0.00000000000E+00  0.00000000000E+00  0.73754759041E+03  0.73754759041E+03  0.25500000920E-02 0. -1.
        2   -1    0    0  501    0  0.00000000000E+00  0.00000000000E+00 -0.41146033009E+03  0.41146033009E+03  0.25500000920E-02 0.  1.
    10030    2    1    2    0    0  0.00000000000E+00  0.00000000000E+00  0.32608726032E+03  0.11490079205E+04  0.11017650839E+04 0.  0.
        5    1    3    3  502    0  0.10044504695E+03  0.33816932005E+03 -0.27818400203E+03  0.44928401425E+03  0.46999998093E+01 0.  1.
       -5    1    3    3    0  502 -0.10044504695E+03 -0.33816932005E+03  0.60427126235E+03  0.69972390625E+03  0.46999998093E+01 0. -1.
</event>
<event>
 5   0  0.3241189E-03  0.1099376E+04  0.7818609E-02  0.9205800E-01
       -1   -1    0    0    0  501  0.00000000000E+00  0.00000000000E+00  0.42250510847E+03  0.42250510850E+03  0.50400001928E-02 0.  1.
        1   -1    0    0  501    0  0.00000000000E+00  0.00000000000E+00 -0.71515560651E+03  0.71515560653E+03  0.50400001928E-02 0. -1.
    10030    2    1    2    0    0  0.00000000000E+00  0.00000000000E+00 -0.29265049804E+03  0.11376607150E+04  0.10993759996E+04 0.  0.
        5    1    3    3  502    0  0.17842281376E+02  0.50661518903E+03  0.73577928628E+02  0.51226272394E+03  0.46999998093E+01 0. -1.
       -5    1    3    3    0  502 -0.17842281376E+02 -0.50661518903E+03 -0.36622842667E+03  0.62539799109E+03  0.46999998093E+01 0.  1.
</event>
<event>
 5   0  0.5500363E-03  0.1079871E+04  0.7818609E-02  0.9225036E-01
       -2   -1    0    0    0  501  0.00000000000E+00  0.00000000000E+00  0.70406745647E+03  0.70406745647E+03  0.25500000920E-02 0.  1.
        2   -1    0    0  501    0  0.00000000000E+00  0.00000000000E+00 -0.41406577162E+03  0.41406577162E+03  0.25500000920E-02 0. -1.
    10030    2    1    2    0    0  0.00000000000E+00  0.00000000000E+00  0.29000168485E+03  0.11181332281E+04  0.10798707972E+04 0.  0.
        3    1    3    3  502    0  0.23795944193E+03  0.19306461210E+03  0.60531033681E+03  0.67845357579E+03  0.10100000352E+00 0.  1.
       -3    1    3    3    0  502 -0.23795944193E+03 -0.19306461210E+03 -0.31530865196E+03  0.43967965231E+03  0.10100000352E+00 0. -1.
</event>
<event>
 5   0  0.3215352E-03  0.1133223E+04  0.7818609E-02  0.9173402E-01
       -1   -1    0    0    0  501  0.00000000000E+00  0.00000000000E+00  0.50375898749E+03  0.50375898752E+03  0.50400001928E-02 0. -1.
        1   -1    0    0  501    0  0.00000000000E+00  0.00000000000E+00 -0.63730605915E+03  0.63730605917E+03  0.50400001928E-02 0.  1.
    10030    2    1    2    0    0  0.00000000000E+00  0.00000000000E+00 -0.13354707166E+03  0.11410650467E+04  0.11332231115E+04 0.  0.
        1    1    3    3  502    0 -0.27269650414E+03 -0.18206143614E+03  0.39852692742E+03  0.51607505443E+03  0.50400001928E-02 0. -1.
       -1    1    3    3    0  502  0.27269650414E+03  0.18206143614E+03 -0.53207399908E+03  0.62498999226E+03  0.50400001928E-02 0.  1.
</event>
<event>
 5   0  0.3241189E-03  0.1101232E+04  0.7818609E-02  0.9203992E-01
       -1   -1    0    0    0  501  0.00000000000E+00  0.00000000000E+00  0.49331814527E+03  0.49331814530E+03  0.50400001928E-02 0.  1.
        1   -1    0    0  501    0  0.00000000000E+00  0.00000000000E+00 -0.61456847553E+03  0.61456847555E+03  0.50400001928E-02 0. -1.
    10030    2    1    2    0    0  0.00000000000E+00  0.00000000000E+00 -0.12125033026E+03  0.11078866209E+04  0.11012316387E+04 0.  0.
        5    1    3    3  502    0 -0.50398447446E+03  0.83894904891E+02  0.14583928043E+03  0.53134724172E+03  0.46999998093E+01 0.  1.
       -5    1    3    3    0  502  0.50398447446E+03 -0.83894904891E+02 -0.26708961068E+03  0.57653937914E+03  0.46999998093E+01 0. -1.
</event>
<event>
 5   0  0.5500363E-03  0.1102995E+04  0.7818609E-02  0.9202277E-01
       -2   -1    0    0    0  501  0.00000000000E+00  0.00000000000E+00  0.38640249772E+03  0.38640249773E+03  0.25500000920E-02 0. -1.
        2   -1    0    0  501    0  0.00000000000E+00  0.00000000000E+00 -0.78713171688E+03  0.78713171688E+03  0.25500000920E-02 0.  1.
    10030    2    1    2    0    0  0.00000000000E+00  0.00000000000E+00 -0.40072921916E+03  0.11735342146E+04  0.11029953063E+04 0.  0.
        3    1    3    3  502    0 -0.53337111625E+03  0.13242730624E+03 -0.24944397510E+03  0.60352634242E+03  0.10100000352E+00 0.  1.
       -3    1    3    3    0  502  0.53337111625E+03 -0.13242730624E+03 -0.15128524406E+03  0.57000787219E+03  0.10100000352E+00 0. -1.
</event>
<event>
 5   0  0.5941585E-03  0.1099519E+04  0.7818609E-02  0.9205661E-01
       -2   -1    0    0    0  501  0.00000000000E+00  0.00000000000E+00  0.23306933628E+03  0.23306933629E+03  0.25500000920E-02 0. -1.
        2   -1    0    0  501    0  0.00000000000E+00  0.00000000000E+00 -0.12967626359E+04  0.12967626359E+04  0.25500000920E-02 0.  1.
    10030    2    1    2    0    0  0.00000000000E+00  0.00000000000E+00 -0.10636932996E+04  0.15298319722E+04  0.10995191801E+04 0.  0.
        5    1    3    3  502    0  0.15990927233E+03 -0.13830795852E+03  0.17421216956E+03  0.27399276776E+03  0.46999998093E+01 0. -1.
       -5    1    3    3    0  502 -0.15990927233E+03  0.13830795852E+03 -0.12379054692E+04  0.12558392044E+04  0.46999998093E+01 0.  1.
</event>
<event>
 5   0  0.5941585E-03  0.1106406E+04  0.7818609E-02  0.9198971E-01
       -2   -1    0    0    0  501  0.00000000000E+00  0.00000000000E+00  0.18551143005E+03  0.18551143007E+03  0.25500000920E-02 0.  1.
        2   -1    0    0  501    0  0.00000000000E+00  0.00000000000E+00 -0.16496745030E+04  0.16496745030E+04  0.25500000920E-02 0. -1.
    10030    2    1    2    0    0  0.00000000000E+00  0.00000000000E+00 -0.14641630730E+04  0.18351859331E+04  0.11064058499E+04 0.  0.
        5    1    3    3  502    0 -0.91719755975E+02 -0.54519667155E+03 -0.70063360837E+03  0.89250292295E+03  0.46999998093E+01 0.  1.
       -5    1    3    3    0  502  0.91719755975E+02  0.54519667155E+03 -0.76352946460E+03  0.94268301014E+03  0.46999998093E+01 0. -1.
</event>
<event>
 5   0  0.3316784E-03  0.1083009E+04  0.7818609E-02  0.9221913E-01
       -1   -1    0    0    0  501  0.00000000000E+00  0.00000000000E+00  0.49006939045E+03  0.49006939047E+03  0.50400001928E-02 0. -1.
        1   -1    0    0  501    0  0.00000000000E+00  0.00000000000E+00 -0.59833773567E+03  0.59833773569E+03  0.50400001928E-02 0.  1.
    10030    2    1    2    0    0  0.00000000000E+00  0.00000000000E+00 -0.10826834522E+03  0.10884071262E+04  0.10830087893E+04 0.  0.
        4    1    3    3  502    0  0.24951341761E+03  0.23761803677E+03  0.36568737576E+03  0.50244218240E+03  0.12699999809E+01 0. -1.
       -4    1    3    3    0  502 -0.24951341761E+03 -0.23761803677E+03 -0.47395572098E+03  0.58596494376E+03  0.12699999809E+01 0.  1.
</event>
<event>
 5   0  0.3241189E-03  0.1086580E+04  0.7818609E-02  0.9218372E-01
        1   -1    0    0  501    0  0.00000000000E+00  0.00000000000E+00  0.96989382146E+03  0.96989382147E+03  0.50400001928E-02 0.  1.
       -1   -1    0    0    0  501  0.00000000000E+00  0.00000000000E+00 -0.30432605240E+03  0.30432605244E+03  0.50400001928E-02 0. -1.
    10030    2    1    2    0    0  0.00000000000E+00  0.00000000000E+00  0.66556776906E+03  0.12742198739E+04  0.10865798783E+04 0.  0.
        5    1    3    3  502    0 -0.24325205783E+03  0.48122495786E+03  0.25505979924E+03  0.59651204086E+03  0.46999998093E+01 0.  1.
       -5    1    3    3    0  502  0.24325205783E+03 -0.48122495786E+03  0.41050796982E+03  0.67770783306E+03  0.46999998093E+01 0. -1.
</event>
<event>
 5   0  0.3316784E-03  0.1105756E+04  0.7818609E-02  0.9199600E-01
       -1   -1    0    0    0  501  0.00000000000E+00  0.00000000000E+00  0.12658852954E+03  0.12658852964E+03  0.50400001928E-02 0. -1.
        1   -1    0    0  501    0  0.00000000000E+00  0.00000000000E+00 -0.24147050583E+04  0.24147050583E+04  0.50400001928E-02 0.  1.
    10030    2    1    2    0    0  0.00000000000E+00  0.00000000000E+00 -0.22881165288E+04  0.25412935880E+04  0.11057557827E+04 0.  0.
        4    1    3    3  502    0 -0.10286768616E+03  0.50002267820E+03 -0.65615993406E+03  0.83135546641E+03  0.12699999809E+01 0. -1.
       -4    1    3    3    0  502  0.10286768616E+03 -0.50002267820E+03 -0.16319565947E+04  0.17099381216E+04  0.12699999809E+01 0.  1.
</event>
<event>
 5   0  0.3328741E-03  0.1052923E+04  0.7818609E-02  0.9252331E-01
        1   -1    0    0  501    0  0.00000000000E+00  0.00000000000E+00  0.15449375040E+04  0.15449375040E+04  0.50400001928E-02 0.  1.
       -1   -1    0    0    0  501  0.00000000000E+00  0.00000000000E+00 -0.17939994450E+03  0.17939994457E+03  0.50400001928E-02 0. -1.
    10030    2    1    2    0    0  0.00000000000E+00  0.00000000000E+00  0.13655375595E+04  0.17243374486E+04  0.10529229840E+04 0.  0.
        3    1    3    3  502    0  0.10257467697E+03 -0.33386114207E+03  0.37650805684E+02  0.35128680577E+03  0.10100000352E+00 0. -1.
       -3    1    3    3    0  502 -0.10257467697E+03  0.33386114207E+03  0.13278867538E+04  0.13730506428E+04  0.10100000352E+00 0.  1.
</event>
<event>
 5   0  0.3316784E-03  0.1057829E+04  0.7818609E-02  0.9247298E-01
       -1   -1    0    0    0  501  0.00000000000E+00  0.00000000000E+00  0.10047242365E+04  0.10047242365E+04  0.50400001928E-02 0.  1.
        1   -1    0    0  501    0  0.00000000000E+00  0.00000000000E+00 -0.27843529619E+03  0.27843529624E+03  0.50400001928E-02 0. -1.
    10030    2    1    2    0    0  0.00000000000E+00  0.00000000000E+00  0.72628894028E+03  0.12831595327E+04  0.10578292687E+04 0.  0.
        4    1    3    3  502    0  0.11301722257E+03 -0.31006164823E+03  0.86451322221E+03  0.92536254656E+03  0.12699999809E+01 0.  1.
       -4    1    3    3    0  502 -0.11301722257E+03  0.31006164823E+03 -0.13822428193E+03  0.35779698617E+03  0.12699999809E+01 0. -1.
</event>
<event>
 5   0  0.5500363E-03  0.1069209E+04  0.7818609E-02  0.9235733E-01
       -2   -1    0    0    0  501  0.00000000000E+00  0.00000000000E+00  0.67304293379E+03  0.67304293379E+03  0.25500000920E-02 0.  1.
        2   -1    0    0  501    0  0.00000000000E+00  0.00000000000E+00 -0.42464184972E+03  0.42464184973E+03  0.25500000920E-02 0. -1.
    10030    2    1    2    0    0  0.00000000000E+00  0.00000000000E+00  0.24840108407E+03  0.10976847835E+04  0.10692094207E+04 0.  0.
        3    1    3    3  502    0  0.48407171579E+03  0.20142382312E+03  0.23140966826E+03  0.57310333040E+03  0.10100000352E+00 0.  1.
       -3    1    3    3    0  502 -0.48407171579E+03 -0.20142382312E+03  0.16991415803E+02  0.52458145312E+03  0.10100000352E+00 0. -1.
</event>
<event>
 5   0  0.5941585E-03  0.1099401E+04  0.7818609E-02  0.9205776E-01
        2   -1    0    0  501    0  0.00000000000E+00  0.00000000000E+00  0.10188214671E+04  0.10188214671E+04  0.25500000920E-02 0. -1.
       -2   -1    0    0    0  501  0.00000000000E+00  0.00000000000E+00 -0.29658857266E+03  0.29658857267E+03  0.25500000920E-02 0.  1.
    10030    2    1    2    0    0  0.00000000000E+00  0.00000000000E+00  0.72223289445E+03  0.13154100398E+04  0.10994013002E+04 0.  0.
        5    1    3    3  502    0 -0.10409606679E+03 -0.15242204968E+03 -0.25837784563E+03  0.31756837603E+03  0.46999998093E+01 0.  1.
       -5    1    3    3    0  502  0.10409606679E+03  0.15242204968E+03  0.98061074008E+03  0.99784166374E+03  0.46999998093E+01 0. -1.
</event>
<event>
 5   0  0.5941585E-03  0.1112975E+04  0.7818609E-02  0.9192637E-01
        2   -1    0    0  501    0  0.00000000000E+00  0.00000000000E+00  0.53657206815E+03  0.53657206816E+03  0.25500000920E-02 0.  1.
       -2   -1    0    0    0  501  0.00000000000E+00  0.00000000000E+00 -0.57714255475E+03  0.57714255476E+03  0.25500000920E-02 0. -1.
    10030    2    1    2    0    0  0.00000000000E+00  0.00000000000E+00 -0.40570486600E+02  0.11137146229E+04  0.11129754251E+04 0.  0.
        5    1    3    3  502    0  0.24007862962E+03  0.24281099435E+03 -0.45996477540E+03  0.57287399311E+03  0.46999998093E+01 0. -1.
       -5    1    3    3    0  502 -0.24007862962E+03 -0.24281099435E+03  0.41939428880E+03  0.54084062981E+03  0.46999998093E+01 0.  1.
</event>
<event>
 5   0  0.3215352E-03  0.1089612E+04  0.7818609E-02  0.9215376E-01
       -1   -1    0    0    0  501  0.00000000000E+00  0.00000000000E+00  0.51390908220E+03  0.51390908222E+03  0.50400001928E-02 0. -1.
        1   -1    0    0  501    0  0.00000000000E+00  0.00000000000E+00 -0.57756093722E+03  0.57756093724E+03  0.50400001928E-02 0.  1.
    10030    2    1    2    0    0  0.00000000000E+00  0.00000000000E+00 -0.63651855020E+02  0.10914700195E+04  0.10896124287E+04 0.  0.
        1    1    3    3  502    0 -0.36088058792E+03  0.16133488855E+03 -0.40736513876E+03  0.56763553563E+03  0.50400001928E-02 0.  1.
       -1    1    3    3    0  502  0.36088058792E+03 -0.16133488855E+03  0.34371328374E+03  0.52383448383E+03  0.50400001928E-02 0. -1.
</event>
<event>
 5   0  0.5723194E-03  0.1092989E+04  0.7818609E-02  0.9212052E-01
       -2   -1    0    0    0  501  0.00000000000E+00  0.00000000000E+00  0.18475518052E+03  0.18475518053E+03  0.25500000920E-02 0. -1.
        2   -1    0    0  501    0  0.00000000000E+00  0.00000000000E+00 -0.16164975784E+04  0.16164975784E+04  0.25500000920E-02 0.  1.
    10030    2    1    2    0    0  0.00000000000E+00  0.00000000000E+00 -0.14317423979E+04  0.18012527589E+04  0.10929891160E+04 0.  0.
        1    1    3    3  502    0 -0.49276548247E+02 -0.11779922457E+03 -0.15915681660E+04  0.15966822046E+04  0.50400001928E-02 0.  1.
       -1    1    3    3    0  502  0.49276548247E+02  0.11779922457E+03  0.15982576811E+03  0.20457055432E+03  0.50400001928E-02 0. -1.
</event>
<event>
 5   0  0.5723194E-03  0.1252887E+04  0.7818609E-02  0.9067784E-01
       -2   -1    0    0    0  501  0.00000000000E+00  0.00000000000E+00  0.34642331369E+03  0.34642331370E+03  0.25500000920E-02 0.  1.
        2   -1    0    0  501    0  0.00000000000E+00  0.00000000000E+00 -0.11328082863E+04  0.11328082863E+04  0.25500000920E-02 0. -1.
    10030    2    1    2    0    0  0.00000000000E+00  0.00000000000E+00 -0.78638497265E+03  0.14792316000E+04  0.12528865876E+04 0.  0.
        1    1    3    3  502    0 -0.51714139024E+03  0.73034961749E+02  0.15223113051E+02  0.52249503953E+03  0.50400001928E-02 0.  1.
       -1    1    3    3    0  502  0.51714139024E+03 -0.73034961749E+02 -0.80160808570E+03  0.95673656051E+03  0.50400001928E-02 0. -1.
</event>
<event>
 5   0  0.3328741E-03  0.1136633E+04  0.7818609E-02  0.9170205E-01
        1   -1    0    0  501    0  0.00000000000E+00  0.00000000000E+00  0.43545666422E+03  0.43545666425E+03  0.50400001928E-02 0. -1.
       -1   -1    0    0    0  501  0.00000000000E+00  0.00000000000E+00 -0.74171242706E+03  0.74171242707E+03  0.50400001928E-02 0.  1.
    10030    2    1    2    0    0  0.00000000000E+00  0.00000000000E+00 -0.30625576283E+03  0.11771690913E+04  0.11366329563E+04 0.  0.
        3    1    3    3  502    0  0.53374105772E+03  0.72128401233E+02  0.34728963498E+02  0.53971115800E+03  0.10100000352E+00 0.  1.
       -3    1    3    3    0  502 -0.53374105772E+03 -0.72128401233E+02 -0.34098472633E+03  0.63745793332E+03  0.10100000352E+00 0. -1.
</event>
<event>
 5   0  0.5946359E-03  0.1086411E+04  0.7818609E-02  0.9218539E-01
       -2   -1    0    0    0  501  0.00000000000E+00  0.00000000000E+00  0.38684722907E+03  0.38684722908E+03  0.25500000920E-02 0. -1.
        2   -1    0    0  501    0  0.00000000000E+00  0.00000000000E+00 -0.76276177430E+03  0.76276177430E+03  0.25500000920E-02 0.  1.
    10030    2    1    2    0    0  0.00000000000E+00  0.00000000000E+00 -0.37591454522E+03  0.11496090034E+04  0.10864111171E+04 0.  0.
        4    1    3    3  502    0 -0.86093276283E+02 -0.12183185924E+03  0.36474412769E+03  0.39407479713E+03  0.12699999809E+01 0. -1.
       -4    1    3    3    0  502  0.86093276283E+02  0.12183185924E+03 -0.74065867292E+03  0.75553420625E+03  0.12699999809E+01 0.  1.
</event>
<event>
 5   0  0.3320192E-03  0.1112644E+04  0.7818609E-02  0.9192955E-01
       -1   -1    0    0    0  501  0.00000000000E+00  0.00000000000E+00  0.53662721843E+03  0.53662721845E+03  0.50400001928E-02 0.  1.
        1   -1    0    0  501    0  0.00000000000E+00  0.00000000000E+00 -0.57673947850E+03  0.57673947852E+03  0.50400001928E-02 0. -1.
    10030    2    1    2    0    0  0.00000000000E+00  0.00000000000E+00 -0.40112260075E+02  0.11133666970E+04  0.11126438822E+04 0.  0.
        2    1    3    3  502    0 -0.39818513656E+03 -0.65454465905E+02  0.36315272090E+03  0.54287713969E+03  0.25500000920E-02 0.  1.
       -2    1    3    3    0  502  0.39818513656E+03  0.65454465905E+02 -0.40326498098E+03  0.57048955729E+03  0.25500000920E-02 0. -1.
</event>
<event>
 5   0  0.5627232E-03  0.1102690E+04  0.7818609E-02  0.9202574E-01
       -2   -1    0    0    0  501  0.00000000000E+00  0.00000000000E+00  0.43022218051E+03  0.43022218052E+03  0.25500000920E-02 0. -1.
        2   -1    0    0  501    0  0.00000000000E+00  0.00000000000E+00 -0.70656873701E+03  0.70656873701E+03  0.25500000920E-02 0.  1.
    10030    2    1    2    0    0  0.00000000000E+00  0.00000000000E+00 -0.27634655650E+03  0.11367909175E+04  0.11026904239E+04 0.  0.
        2    1    3    3  502    0  0.23786476084E+03 -0.48617790396E+03 -0.29887181802E+02  0.54207180557E+03  0.25500000920E-02 0.  1.
       -2    1    3    3    0  502 -0.23786476084E+03  0.48617790396E+03 -0.24645937470E+03  0.59471911196E+03  0.25500000920E-02 0. -1.
</event>
<event>
 5   0  0.3215352E-03  0.1076398E+04  0.7818609E-02  0.9228506E-01
       -1   -1    0    0    0  501  0.00000000000E+00  0.00000000000E+00  0.40842451792E+03  0.40842451796E+03  0.50400001928E-02 0.  1.
        1   -1    0    0  501    0  0.00000000000E+00  0.00000000000E+00 -0.70920835598E+03  0.70920835600E+03  0.50400001928E-02 0. -1.
    10030    2    1    2    0    0  0.00000000000E+00  0.00000000000E+00 -0.30078383805E+03  0.11176328740E+04  0.10763978464E+04 0.  0.
        1    1    3    3  502    0 -0.43543372444E+03 -0.15368471938E+03  0.13667087852E+03  0.48156043277E+03  0.50400001928E-02 0.  1.
       -1    1    3    3    0  502  0.43543372444E+03  0.15368471938E+03 -0.43745471658E+03  0.63607244118E+03  0.50400001928E-02 0. -1.
</event>
<event>
 5   0  0.5627232E-03  0.1084272E+04  0.7818609E-02  0.9220658E-01
       -2   -1    0    0    0  501  0.00000000000E+00  0.00000000000E+00  0.34527861829E+03  0.34527861830E+03  0.25500000920E-02 0.  1.
        2   -1    0    0  501    0  0.00000000000E+00  0.00000000000E+00 -0.85122979906E+03  0.85122979907E+03  0.25500000920E-02 0. -1.
    10030    2    1    2    0    0  0.00000000000E+00  0.00000000000E+00 -0.50595118078E+03  0.11965084174E+04  0.10842720118E+04 0.  0.
        2    1    3    3  502    0  0.12460089568E+03 -0.52589759130E+03 -0.30002446740E+03  0.61814912503E+03  0.25500000920E-02 0.  1.
       -2    1    3    3    0  502 -0.12460089568E+03  0.52589759130E+03 -0.20592671337E+03  0.57835929233E+03  0.25500000920E-02 0. -1.
</event>
<event>
 5   0  0.5941585E-03  0.1097171E+04  0.7818609E-02  0.9207954E-01
       -2   -1    0    0    0  501  0.00000000000E+00  0.00000000000E+00  0.59359489700E+03  0.59359489700E+03  0.25500000920E-02 0. -1.
        2   -1    0    0  501    0  0.00000000000E+00  0.00000000000E+00 -0.50698879784E+03  0.50698879784E+03  0.25500000920E-02 0.  1.
    10030    2    1    2    0    0  0.00000000000E+00  0.00000000000E+00  0.86606099163E+02  0.11005836948E+04  0.10971708404E+04 0.  0.
        5    1    3    3  502    0  0.19122403852E+02  0.47691977595E+03  0.31452481546E+03  0.57163457607E+03  0.46999998093E+01 0. -1.
       -5    1    3    3    0  502 -0.19122403852E+02 -0.47691977595E+03 -0.22791871630E+03  0.52894911878E+03  0.46999998093E+01 0.  1.
</event>
<event>
 5   0  0.5941585E-03  0.1095554E+04  0.7818609E-02  0.9209536E-01
       -2   -1    0    0    0  501  0.00000000000E+00  0.00000000000E+00  0.31326722068E+03  0.31326722069E+03  0.25500000920E-02 0. -1.
        2   -1    0    0  501    0  0.00000000000E+00  0.00000000000E+00 -0.95783970549E+03  0.95783970550E+03  0.25500000920E-02 0.  1.
    10030    2    1    2    0    0  0.00000000000E+00  0.00000000000E+00 -0.64457248481E+03  0.12711069262E+04  0.10955542568E+04 0.  0.
        5    1    3    3  502    0  0.49591077412E+03  0.62429751230E+02 -0.58227530603E+03  0.76739272328E+03  0.46999998093E+01 0. -1.
       -5    1    3    3    0  502 -0.49591077412E+03 -0.62429751230E+02 -0.62297178781E+02  0.50371420291E+03  0.46999998093E+01 0.  1.
</event>
<event>
 5   0  0.2185750E-03  0.1113170E+04  0.7818609E-02  0.9192450E-01
       -4   -1    0    0    0  501  0.00000000000E+00  0.00000000000E+00  0.90295749801E+03  0.90295839113E+03  0.12699999809E+01 0. -1.
        4   -1    0    0  501    0  0.00000000000E+00  0.00000000000E+00 -0.34307797033E+03  0.34308032095E+03  0.12699999809E+01 0.  1.
    10030    2    1    2    0    0  0.00000000000E+00  0.00000000000E+00  0.55987952768E+03  0.12460387121E+04  0.11131699720E+04 0.  0.
        4    1    3    3  502    0  0.23832131765E+03 -0.31951396717E+03  0.71476350177E+03  0.81839764297E+03  0.12699999809E+01 0. -1.
       -4    1    3    3    0  502 -0.23832131765E+03  0.31951396717E+03 -0.15488397409E+03  0.42764106911E+03  0.12699999809E+01 0.  1.
</event>
<event>
 5   0  0.3215352E-03  0.1011996E+04  0.7818609E-02  0.9295485E-01
       -1   -1    0    0    0  501  0.00000000000E+00  0.00000000000E+00  0.34444119956E+03  0.34444119960E+03  0.50400001928E-02 0. -1.
        1   -1    0    0  501    0  0.00000000000E+00  0.00000000000E+00 -0.74333111999E+03  0.74333112000E+03  0.50400001928E-02 0.  1.
    10030    2    1    2    0    0  0.00000000000E+00  0.00000000000E+00 -0.39888992042E+03  0.10877723196E+04  0.10119957760E+04 0.  0.
        1    1    3    3  502    0  0.28920823130E+03  0.39444754603E+03 -0.60109900987E+02  0.49279150545E+03  0.50400001928E-02 0.  1.
       -1    1    3    3    0  502 -0.28920823130E+03 -0.39444754603E+03 -0.33878001944E+03  0.59498081416E+03  0.50400001928E-02 0. -1.
</event>
<event>
 5   0  0.3328741E-03  0.1103001E+04  0.7818609E-02  0.9202272E-01
        1   -1    0    0  501    0  0.00000000000E+00  0.00000000000E+00  0.12650851241E+04  0.12650851241E+04  0.50400001928E-02 0.  1.
       -1   -1    0    0    0  501  0.00000000000E+00  0.00000000000E+00 -0.24042076139E+03  0.24042076144E+03  0.50400001928E-02 0. -1.
    10030    2    1    2    0    0  0.00000000000E+00  0.00000000000E+00  0.10246643627E+04  0.15055058856E+04  0.11030008682E+04 0.  0.
        3    1    3    3  502    0 -0.16117984483E+02  0.20376418578E+03 -0.18681119080E+03  0.27690804257E+03  0.10100000352E+00 0. -1.
       -3    1    3    3    0  502  0.16117984483E+02 -0.20376418578E+03  0.12114755535E+04  0.12285978430E+04  0.10100000352E+00 0.  1.
</event>
<event>
 5   0  0.3328741E-03  0.1072012E+04  0.7818609E-02  0.9232908E-01
        1   -1    0    0  501    0  0.00000000000E+00  0.00000000000E+00  0.12574312575E+04  0.12574312575E+04  0.50400001928E-02 0.  1.
       -1   -1    0    0    0  501  0.00000000000E+00  0.00000000000E+00 -0.22848382041E+03  0.22848382047E+03  0.50400001928E-02 0. -1.
    10030    2    1    2    0    0  0.00000000000E+00  0.00000000000E+00  0.10289474371E+04  0.14859150780E+04  0.10720124956E+04 0.  0.
        3    1    3    3  502    0 -0.14283325886E+03 -0.51186092606E+03  0.61149805031E+03  0.81014370528E+03  0.10100000352E+00 0.  1.
       -3    1    3    3    0  502  0.14283325886E+03  0.51186092606E+03  0.41744938681E+03  0.67577137274E+03  0.10100000352E+00 0. -1.
</event>
<event>
 5   0  0.5723194E-03  0.1096685E+04  0.7818609E-02  0.9208429E-01
       -2   -1    0    0    0  501  0.00000000000E+00  0.00000000000E+00  0.49456823736E+03  0.49456823737E+03  0.25500000920E-02 0.  1.
        2   -1    0    0  501    0  0.00000000000E+00  0.00000000000E+00 -0.60796379397E+03  0.60796379397E+03  0.25500000920E-02 0. -1.
    10030    2    1    2    0    0  0.00000000000E+00  0.00000000000E+00 -0.11339555661E+03  0.11025320313E+04  0.10966851544E+04 0.  0.
        1    1    3    3  502    0 -0.48981343838E+03  0.13505870081E+03  0.15060907821E+03  0.52994447968E+03  0.50400001928E-02 0. -1.
       -1    1    3    3    0  502  0.48981343838E+03 -0.13505870081E+03 -0.26400463482E+03  0.57258755166E+03  0.50400001928E-02 0.  1.
</event>
<event>
 5   0  0.3241189E-03  0.1092498E+04  0.7818609E-02  0.9212535E-01
        1   -1    0    0  501    0  0.00000000000E+00  0.00000000000E+00  0.27929512928E+03  0.27929512932E+03  0.50400001928E-02 0. -1.
       -1   -1    0    0    0  501  0.00000000000E+00  0.00000000000E+00 -0.10683601510E+04  0.10683601510E+04  0.50400001928E-02 0.  1.
    10030    2    1    2    0    0  0.00000000000E+00  0.00000000000E+00 -0.78906502168E+03  0.13476552803E+04  0.10924976641E+04 0.  0.
        5    1    3    3  502    0  0.22816107262E+03  0.49629324570E+03 -0.39590377088E+03  0.67463052598E+03  0.46999998093E+01 0. -1.
       -5    1    3    3    0  502 -0.22816107262E+03 -0.49629324570E+03 -0.39316125080E+03  0.67302475431E+03  0.46999998093E+01 0.  1.
</event>
<event>
 5   0  0.5723194E-03  0.1102408E+04  0.7818609E-02  0.9202848E-01
       -2   -1    0    0    0  501  0.00000000000E+00  0.00000000000E+00  0.47634857023E+03  0.47634857024E+03  0.25500000920E-02 0.  1.
        2   -1    0    0  501    0  0.00000000000E+00  0.00000000000E+00 -0.63782263923E+03  0.63782263923E+03  0.25500000920E-02 0. -1.
    10030    2    1    2    0    0  0.00000000000E+00  0.00000000000E+00 -0.16147406900E+03  0.11141712095E+04  0.11024080955E+04 0.  0.
        1    1    3    3  502    0  0.81963242071E+02  0.14296525421E+03  0.45086873123E+03  0.48004130008E+03  0.50400001928E-02 0.  1.
       -1    1    3    3    0  502 -0.81963242071E+02 -0.14296525421E+03 -0.61234280022E+03  0.63412990938E+03  0.50400001928E-02 0. -1.
</event>
<event>
 5   0  0.5500363E-03  0.1097056E+04  0.7818609E-02  0.9208066E-01
       -2   -1    0    0    0  501  0.00000000000E+00  0.00000000000E+00  0.50647924851E+03  0.50647924852E+03  0.25500000920E-02 0. -1.
        2   -1    0    0  501    0  0.00000000000E+00  0.00000000000E+00 -0.59406723855E+03  0.59406723855E+03  0.25500000920E-02 0.  1.
    10030    2    1    2    0    0  0.00000000000E+00  0.00000000000E+00 -0.87587990036E+02  0.11005464871E+04  0.10970555657E+04 0.  0.
        3    1    3    3  502    0  0.45368077056E+03 -0.12417626847E+03 -0.32689178520E+03  0.57280383785E+03  0.10100000352E+00 0.  1.
       -3    1    3    3    0  502 -0.45368077056E+03  0.12417626847E+03  0.23930379517E+03  0.52774264922E+03  0.10100000352E+00 0. -1.
</event>
<event>
 5   0  0.5627232E-03  0.1107470E+04  0.7818609E-02  0.9197941E-01
        2   -1    0    0  501    0  0.00000000000E+00  0.00000000000E+00  0.10806144659E+04  0.10806144659E+04  0.25500000920E-02 0.  1.
       -2   -1    0    0    0  501  0.00000000000E+00  0.00000000000E+00 -0.28374832689E+03  0.28374832690E+03  0.25500000920E-02 0. -1.
    10030    2    1    2    0    0  0.00000000000E+00  0.00000000000E+00  0.79686613902E+03  0.13643627928E+04  0.11074701743E+04 0.  0.
        2    1    3    3  502    0 -0.27601666767E+03  0.35081655620E+03  0.80210576467E+03  0.91794940746E+03  0.25500000920E-02 0.  1.
       -2    1    3    3    0  502  0.27601666767E+03 -0.35081655620E+03 -0.52396256505E+01  0.44641338535E+03  0.25500000920E-02 0. -1.
</event>
<event>
 5   0  0.3320192E-03  0.1108161E+04  0.7818609E-02  0.9197274E-01
       -1   -1    0    0    0  501  0.00000000000E+00  0.00000000000E+00  0.39574453260E+03  0.39574453264E+03  0.50400001928E-02 0.  1.
        1   -1    0    0  501    0  0.00000000000E+00  0.00000000000E+00 -0.77576598120E+03  0.77576598122E+03  0.50400001928E-02 0. -1.
    10030    2    1    2    0    0  0.00000000000E+00  0.00000000000E+00 -0.38002144860E+03  0.11715105139E+04  0.11081609011E+04 0.  0.
        2    1    3    3  502    0  0.36788849216E+03  0.19184319215E+01 -0.62801395895E+03  0.72783731403E+03  0.25500000920E-02 0. -1.
       -2    1    3    3    0  502 -0.36788849216E+03 -0.19184319215E+01  0.24799251035E+03  0.44367319983E+03  0.25500000920E-02 0.  1.
</event>
<event>
 5   0  0.5941585E-03  0.1116170E+04  0.7818609E-02  0.9189574E-01
        2   -1    0    0  501    0  0.00000000000E+00  0.00000000000E+00  0.40448553164E+03  0.40448553165E+03  0.25500000920E-02 0.  1.
       -2   -1    0    0    0  501  0.00000000000E+00  0.00000000000E+00 -0.77001169609E+03  0.77001169609E+03  0.25500000920E-02 0. -1.
    10030    2    1    2    0    0  0.00000000000E+00  0.00000000000E+00 -0.36552616445E+03  0.11744972277E+04  0.11161695037E+04 0.  0.
        5    1    3    3  502    0  0.16336398028E+03  0.55728899434E+01 -0.74423629468E+03  0.76198989460E+03  0.46999998093E+01 0. -1.
       -5    1    3    3    0  502 -0.16336398028E+03 -0.55728899434E+01  0.37871013023E+03  0.41250733314E+03  0.46999998093E+01 0.  1.
</event>
<event>
 5   0  0.2185750E-03  0.1097508E+04  0.7818609E-02  0.9207624E-01
        3   -1    0    0  501    0  0.00000000000E+00  0.00000000000E+00  0.20397371120E+03  0.20397373621E+03  0.10100000352E+00 0. -1.
       -3   -1    0    0    0  501  0.00000000000E+00  0.00000000000E+00 -0.14763230358E+04  0.14763230393E+04  0.10100000352E+00 0.  1.
    10030    2    1    2    0    0  0.00000000000E+00  0.00000000000E+00 -0.12723493246E+04  0.16802967755E+04  0.10975082915E+04 0.  0.
        4    1    3    3  502    0 -0.28293182017E+03 -0.98467704320E+02 -0.13400786311E+04  0.13731564565E+04  0.12699999809E+01 0.  1.
       -4    1    3    3    0  502  0.28293182017E+03  0.98467704320E+02  0.67729306500E+02  0.30714031894E+03  0.12699999809E+01 0. -1.
</event>
<event>
 5   0  0.5941585E-03  0.9981533E+03  0.7818609E-02  0.9310573E-01
       -2   -1    0    0    0  501  0.00000000000E+00  0.00000000000E+00  0.34963096165E+03  0.34963096166E+03  0.25500000920E-02 0.  1.
        2   -1    0    0  501    0  0.00000000000E+00  0.00000000000E+00 -0.71240111577E+03  0.71240111577E+03  0.25500000920E-02 0. -1.
    10030    2    1    2    0    0  0.00000000000E+00  0.00000000000E+00 -0.36277015412E+03  0.10620320774E+04  0.99815326917E+03 0.  0.
        5    1    3    3  502    0  0.96422533879E+02  0.46346058671E+03 -0.34949113621E+03  0.58843790222E+03  0.46999998093E+01 0.  1.
       -5    1    3    3    0  502 -0.96422533879E+02 -0.46346058671E+03 -0.13279017911E+02  0.47359417521E+03  0.46999998093E+01 0. -1.
</event>
<event>
 5   0  0.5723194E-03  0.1095239E+04  0.7818609E-02  0.9209844E-01
        2   -1    0    0  501    0  0.00000000000E+00  0.00000000000E+00  0.88067043609E+03  0.88067043609E+03  0.25500000920E-02 0.  1.
       -2   -1    0    0    0  501  0.00000000000E+00  0.00000000000E+00 -0.34052162814E+03  0.34052162815E+03  0.25500000920E-02 0. -1.
    10030    2    1    2    0    0  0.00000000000E+00  0.00000000000E+00  0.54014880794E+03  0.12211920642E+04  0.10952393907E+04 0.  0.
        1    1    3    3  502    0  0.40140591618E+03 -0.70934656850E+02  0.67781837436E+03  0.79094638486E+03  0.50400001928E-02 0.  1.
       -1    1    3    3    0  502 -0.40140591618E+03  0.70934656850E+02 -0.13766956642E+03  0.43024567938E+03  0.50400001928E-02 0. -1.
</event>
<event>
 5   0  0.5946359E-03  0.1101468E+04  0.7818609E-02  0.9203763E-01
       -2   -1    0    0    0  501  0.00000000000E+00  0.00000000000E+00  0.16187464353E+03  0.16187464355E+03  0.25500000920E-02 0. -1.
        2   -1    0    0  501    0  0.00000000000E+00  0.00000000000E+00 -0.18737198366E+04  0.18737198367E+04  0.25500000920E-02 0.  1.
    10030    2    1    2    0    0  0.00000000000E+00  0.00000000000E+00 -0.17118451931E+04  0.20355944802E+04  0.11014676221E+04 0.  0.
        4    1    3    3  502    0 -0.11357592547E+03 -0.53833240192E+03 -0.90137366232E+03  0.10560195821E+04  0.12699999809E+01 0. -1.
       -4    1    3    3    0  502  0.11357592547E+03  0.53833240192E+03 -0.81047153080E+03  0.97957489808E+03  0.12699999809E+01 0.  1.
</event>
<event>
 5   0  0.3320192E-03  0.1092022E+04  0.7818609E-02  0.9213003E-01
        1   -1    0    0  501    0  0.00000000000E+00  0.00000000000E+00  0.43090728059E+03  0.43090728062E+03  0.50400001928E-02 0.  1.
       -1   -1    0    0    0  501  0.00000000000E+00  0.00000000000E+00 -0.69186058581E+03  0.69186058583E+03  0.50400001928E-02 0. -1.
    10030    2    1    2    0    0  0.00000000000E+00  0.00000000000E+00 -0.26095330522E+03  0.11227678664E+04  0.10920215449E+04 0.  0.
        2    1    3    3  502    0 -0.47218935483E+03  0.24812589733E+03 -0.10580699622E+02  0.53351775879E+03  0.25500000920E-02 0. -1.
       -2    1    3    3    0  502  0.47218935483E+03 -0.24812589733E+03 -0.25037260560E+03  0.58925010766E+03  0.25500000920E-02 0.  1.
</event>
<event>
 5   0  0.3320192E-03  0.1104717E+04  0.7818609E-02  0.9200606E-01
        1   -1    0    0  501    0  0.00000000000E+00  0.00000000000E+00  0.72973543520E+03  0.72973543522E+03  0.50400001928E-02 0. -1.
       -1   -1    0    0    0  501  0.00000000000E+00  0.00000000000E+00 -0.41809696404E+03  0.41809696407E+03  0.50400001928E-02 0.  1.
    10030    2    1    2    0    0  0.00000000000E+00  0.00000000000E+00  0.31163847116E+03  0.11478323993E+04  0.11047174662E+04 0.  0.
        2    1    3    3  502    0 -0.41213942477E+03  0.11972215015E+03 -0.20546960410E+03  0.47582565810E+03  0.25500000920E-02 0.  1.
       -2    1    3    3    0  502  0.41213942477E+03 -0.11972215015E+03  0.51710807527E+03  0.67200674119E+03  0.25500000920E-02 0. -1.
</event>
<event>
 5   0  0.5941585E-03  0.1105607E+04  0.7818609E-02  0.9199745E-01
       -2   -1    0    0    0  501  0.00000000000E+00  0.00000000000E+00  0.16350766289E+03  0.16350766291E+03  0.25500000920E-02 0.  1.
        2   -1    0    0  501    0  0.00000000000E+00  0.00000000000E+00 -0.18689733217E+04  0.18689733217E+04  0.25500000920E-02 0. -1.
    10030    2    1    2    0    0  0.00000000000E+00  0.00000000000E+00 -0.17054656588E+04  0.20324809846E+04  0.11056065482E+04 0.  0.
        5    1    3    3  502    0  0.10338838787E+03  0.46800245851E+03 -0.13590409286E+04  0.14410863248E+04  0.46999998093E+01 0. -1.
       -5    1    3    3    0  502 -0.10338838787E+03 -0.46800245851E+03 -0.34642473012E+03  0.59139465972E+03  0.46999998093E+01 0.  1.
</event>
<event>
 5   0  0.5500363E-03  0.1077310E+04  0.7818609E-02  0.9227594E-01
       -2   -1    0    0    0  501  0.00000000000E+00  0.00000000000E+00  0.20955321828E+03  0.20955321829E+03  0.25500000920E-02 0.  1.
        2   -1    0    0  501    0  0.00000000000E+00  0.00000000000E+00 -0.13846088681E+04  0.13846088681E+04  0.25500000920E-02 0. -1.
    10030    2    1    2    0    0  0.00000000000E+00  0.00000000000E+00 -0.11750556498E+04  0.15941620864E+04  0.10773100656E+04 0.  0.
        3    1    3    3  502    0 -0.27261902453E+03 -0.39540268574E+03 -0.94843442665E+03  0.10631050222E+04  0.10100000352E+00 0. -1.
       -3    1    3    3    0  502  0.27261902453E+03  0.39540268574E+03 -0.22662122320E+03  0.53105706420E+03  0.10100000352E+00 0.  1.
</event>
<event>
 5   0  0.3320192E-03  0.1112925E+04  0.7818609E-02  0.9192685E-01
        1   -1    0    0  501    0  0.00000000000E+00  0.00000000000E+00  0.85882303014E+03  0.85882303016E+03  0.50400001928E-02 0. -1.
       -1   -1    0    0    0  501  0.00000000000E+00  0.00000000000E+00 -0.36055197715E+03  0.36055197718E+03  0.50400001928E-02 0.  1.
    10030    2    1    2    0    0  0.00000000000E+00  0.00000000000E+00  0.49827105299E+03  0.12193750073E+04  0.11129246903E+04 0.  0.
        2    1    3    3  502    0  0.53235759019E+02 -0.44090911553E+03  0.61648930273E+03  0.75979862765E+03  0.25500000920E-02 0. -1.
       -2    1    3    3    0  502 -0.53235759019E+02  0.44090911553E+03 -0.11821824974E+03  0.45957637969E+03  0.25500000920E-02 0.  1.
</event>
<event>
 5   0  0.5946359E-03  0.1064801E+04  0.7818609E-02  0.9240195E-01
       -2   -1    0    0    0  501  0.00000000000E+00  0.00000000000E+00  0.21758419945E+03  0.21758419947E+03  0.25500000920E-02 0.  1.
        2   -1    0    0  501    0  0.00000000000E+00  0.00000000000E+00 -0.13027145893E+04  0.13027145893E+04  0.25500000920E-02 0. -1.
    10030    2    1    2    0    0  0.00000000000E+00  0.00000000000E+00 -0.10851303899E+04  0.15202987888E+04  0.10648006594E+04 0.  0.
        4    1    3    3  502    0 -0.90648112972E+02 -0.10573365095E+03 -0.12762427190E+04  0.12838199936E+04  0.12699999809E+01 0. -1.
       -4    1    3    3    0  502  0.90648112972E+02  0.10573365095E+03  0.19111232912E+03  0.23647879518E+03  0.12699999809E+01 0.  1.
</event>
<event>
 5   0  0.3316784E-03  0.1062782E+04  0.7818609E-02  0.9242246E-01
       -1   -1    0    0    0  501  0.00000000000E+00  0.00000000000E+00  0.29558961840E+03  0.29558961844E+03  0.50400001928E-02 0.  1.
        1   -1    0    0  501    0  0.00000000000E+00  0.00000000000E+00 -0.95529854416E+03  0.95529854417E+03  0.50400001928E-02 0. -1.
    10030    2    1    2    0    0  0.00000000000E+00  0.00000000000E+00 -0.65970892576E+03  0.12508881626E+04  0.10627818820E+04 0.  0.
        4    1    3    3  502    0  0.21748488873E+03 -0.89566717643E+01  0.24070838038E+03  0.32453356695E+03  0.12699999809E+01 0.  1.
       -4    1    3    3    0  502 -0.21748488873E+03  0.89566717643E+01 -0.90041730615E+03  0.92635459566E+03  0.12699999809E+01 0. -1.
</event>
<event>
 5   0  0.3328741E-03  0.1110326E+04  0.7818609E-02  0.9195186E-01
        1   -1    0    0  501    0  0.00000000000E+00  0.00000000000E+00  0.80120476595E+03  0.80120476596E+03  0.50400001928E-02 0.  1.
       -1   -1    0    0    0  501  0.00000000000E+00  0.00000000000E+00 -0.38467784929E+03  0.38467784932E+03  0.50400001928E-02 0. -1.
    10030    2    1    2    0    0  0.00000000000E+00  0.00000000000E+00  0.41652691666E+03  0.11858826153E+04  0.11103255851E+04 0.  0.
        3    1    3    3  502    0  0.47929060091E+03  0.12321607198E+03  0.47698782830E+03  0.68732749040E+03  0.10100000352E+00 0.  1.
       -3    1    3    3    0  502 -0.47929060091E+03 -0.12321607198E+03 -0.60460911637E+02  0.49855512488E+03  0.10100000352E+00 0. -1.
</event>
<event>
 5   0  0.5500363E-03  0.1076532E+04  0.7818609E-02  0.9228372E-01
       -2   -1    0    0    0  501  0.00000000000E+00  0.00000000000E+00  0.21290339989E+03  0.21290339991E+03  0.25500000920E-02 0.  1.
        2   -1    0    0  501    0  0.00000000000E+00  0.00000000000E+00 -0.13608540219E+04  0.13608540219E+04  0.25500000920E-02 0. -1.
    10030    2    1    2    0    0  0.00000000000E+00  0.00000000000E+00 -0.11479506220E+04  0.15737574218E+04  0.10765322996E+04 0.  0.
        3    1    3    3  502    0 -0.14865489744E+03 -0.37021978283E+03 -0.11022156343E+04  0.11721946429E+04  0.10100000352E+00 0. -1.
       -3    1    3    3    0  502  0.14865489744E+03  0.37021978283E+03 -0.45734987730E+02  0.40156277894E+03  0.10100000352E+00 0.  1.
</event>
<event>
 5   0  0.3320192E-03  0.1107857E+04  0.7818609E-02  0.9197568E-01
       -1   -1    0    0    0  501  0.00000000000E+00  0.00000000000E+00  0.50171968435E+03  0.50171968438E+03  0.50400001928E-02 0.  1.
        1   -1    0    0  501    0  0.00000000000E+00  0.00000000000E+00 -0.61156998047E+03  0.61156998049E+03  0.50400001928E-02 0. -1.
    10030    2    1    2    0    0  0.00000000000E+00  0.00000000000E+00 -0.10985029612E+03  0.11132896649E+04  0.11078568456E+04 0.  0.
        2    1    3    3  502    0 -0.88132003057E+02 -0.27344671639E+03  0.42099668222E+03  0.50968476837E+03  0.25500000920E-02 0.  1.
       -2    1    3    3    0  502  0.88132003057E+02  0.27344671639E+03 -0.53084697834E+03  0.60360489650E+03  0.25500000920E-02 0. -1.
</event>
<event>
 5   0  0.5723194E-03  0.1100470E+04  0.7818609E-02  0.9204734E-01
       -2   -1    0    0    0  501  0.00000000000E+00  0.00000000000E+00  0.59382240209E+03  0.59382240210E+03  0.25500000920E-02 0. -1.
        2   -1    0    0  501    0  0.00000000000E+00  0.00000000000E+00 -0.50984666379E+03  0.50984666379E+03  0.25500000920E-02 0.  1.
    10030    2    1    2    0    0  0.00000000000E+00  0.00000000000E+00  0.83975738309E+02  0.11036690659E+04  0.11004696645E+04 0.  0.
        1    1    3    3  502    0 -0.30614561300E+03  0.89756941169E+02  0.49159572839E+03  0.58604420059E+03  0.50400001928E-02 0. -1.
       -1    1    3    3    0  502  0.30614561300E+03 -0.89756941169E+02 -0.40761999008E+03  0.51762486531E+03  0.50400001928E-02 0.  1.
</event>
<event>
 5   0  0.5500363E-03  0.1105084E+04  0.7818609E-02  0.9200251E-01
        2   -1    0    0  501    0  0.00000000000E+00  0.00000000000E+00  0.13706155293E+04  0.13706155293E+04  0.25500000920E-02 0. -1.
       -2   -1    0    0    0  501  0.00000000000E+00  0.00000000000E+00 -0.22274849616E+03  0.22274849618E+03  0.25500000920E-02 0.  1.
    10030    2    1    2    0    0  0.00000000000E+00  0.00000000000E+00  0.11478670331E+04  0.15933640255E+04  0.11050837941E+04 0.  0.
        3    1    3    3  502    0 -0.17343351275E+02 -0.48941401150E+03  0.20499008965E+03  0.53089341071E+03  0.10100000352E+00 0.  1.
       -3    1    3    3    0  502  0.17343351275E+02  0.48941401150E+03  0.94287694350E+03  0.10624706148E+04  0.10100000352E+00 0. -1.
</event>
<event>
 5   0  0.3215352E-03  0.1090629E+04  0.7818609E-02  0.9214373E-01
        1   -1    0    0  501    0  0.00000000000E+00  0.00000000000E+00  0.77865400531E+03  0.77865400533E+03  0.50400001928E-02 0.  1.
       -1   -1    0    0    0  501  0.00000000000E+00  0.00000000000E+00 -0.38190021300E+03  0.38190021304E+03  0.50400001928E-02 0. -1.
    10030    2    1    2    0    0  0.00000000000E+00  0.00000000000E+00  0.39675379231E+03  0.11605542184E+04  0.10906294155E+04 0.  0.
        1    1    3    3  502    0 -0.13643298444E+03 -0.18043199588E+03  0.72637322021E+03  0.76078099308E+03  0.50400001928E-02 0.  1.
       -1    1    3    3    0  502  0.13643298444E+03  0.18043199588E+03 -0.32961942790E+03  0.39977322528E+03  0.50400001928E-02 0. -1.
</event>
<event>
 5   0  0.3215352E-03  0.1085607E+04  0.7818609E-02  0.9219335E-01
        1   -1    0    0  501    0  0.00000000000E+00  0.00000000000E+00  0.38460650437E+03  0.38460650441E+03  0.50400001928E-02 0. -1.
       -1   -1    0    0    0  501  0.00000000000E+00  0.00000000000E+00 -0.76607011829E+03  0.76607011830E+03  0.50400001928E-02 0.  1.
    10030    2    1    2    0    0  0.00000000000E+00  0.00000000000E+00 -0.38146361392E+03  0.11506766227E+04  0.10856068355E+04 0.  0.
        1    1    3    3  502    0  0.38923705151E+03  0.37475097748E+03 -0.24572385951E+03  0.59356886083E+03  0.50400001928E-02 0. -1.
       -1    1    3    3    0  502 -0.38923705151E+03 -0.37475097748E+03 -0.13573975441E+03  0.55710776188E+03  0.50400001928E-02 0.  1.
</event>
<event>
 5   0  0.5723194E-03  0.1111296E+04  0.7818609E-02  0.9194251E-01
        2   -1    0    0  501    0  0.00000000000E+00  0.00000000000E+00  0.24135022557E+04  0.24135022557E+04  0.25500000920E-02 0. -1.
       -2   -1    0    0    0  501  0.00000000000E+00  0.00000000000E+00 -0.12792402275E+03  0.12792402278E+03  0.25500000920E-02 0.  1.
    10030    2    1    2    0    0  0.00000000000E+00  0.00000000000E+00  0.22855782329E+04  0.25414262785E+04  0.11112963916E+04 0.  0.
        1    1    3    3  502    0  0.99603628857E+02 -0.54554978767E+03  0.10635861989E+04  0.11994836623E+04  0.50400001928E-02 0.  1.
       -1    1    3    3    0  502 -0.99603628857E+02  0.54554978767E+03  0.12219920341E+04  0.13419426162E+04  0.50400001928E-02 0. -1.
</event>
<event>
 5   0  0.3320192E-03  0.1122885E+04  0.7818609E-02  0.9183169E-01
       -1   -1    0    0    0  501  0.00000000000E+00  0.00000000000E+00  0.27250061951E+03  0.27250061956E+03  0.50400001928E-02 0.  1.
        1   -1    0    0  501    0  0.00000000000E+00  0.00000000000E+00 -0.11567595265E+04  0.11567595265E+04  0.50400001928E-02 0. -1.
    10030    2    1    2    0    0  0.00000000000E+00  0.00000000000E+00 -0.88425890699E+03  0.14292601461E+04  0.11228850122E+04 0.  0.
        2    1    3    3  502    0 -0.36672066475E+03 -0.23874976261E+02  0.98138934755E+02  0.38037522392E+03  0.25500000920E-02 0.  1.
       -2    1    3    3    0  502  0.36672066475E+03  0.23874976261E+02 -0.98239784174E+03  0.10488849222E+04  0.25500000920E-02 0. -1.
</event>
<event>
 5   0  0.3215352E-03  0.9692601E+03  0.7818609E-02  0.9342918E-01
        1   -1    0    0  501    0  0.00000000000E+00  0.00000000000E+00  0.53760239393E+03  0.53760239395E+03  0.50400001928E-02 0.  1.
       -1   -1    0    0    0  501  0.00000000000E+00  0.00000000000E+00 -0.43687728768E+03  0.43687728771E+03  0.50400001928E-02 0. -1.
    10030    2    1    2    0    0  0.00000000000E+00  0.00000000000E+00  0.10072510625E+03  0.97447968167E+03  0.96926008014E+03 0.  0.
        1    1    3    3  502    0 -0.39862332340E+03  0.26151356465E+03  0.13787367630E+03  0.49628524973E+03  0.50400001928E-02 0.  1.
       -1    1    3    3    0  502  0.39862332340E+03 -0.26151356465E+03 -0.37148570053E+02  0.47819443194E+03  0.50400001928E-02 0. -1.
</event>
<event>
 5   0  0.5500363E-03  0.1119233E+04  0.7818609E-02  0.9186646E-01
        2   -1    0    0  501    0  0.00000000000E+00  0.00000000000E+00  0.18414386569E+04  0.18414386569E+04  0.25500000920E-02 0.  1.
       -2   -1    0    0    0  501  0.00000000000E+00  0.00000000000E+00 -0.17006838925E+03  0.17006838927E+03  0.25500000920E-02 0. -1.
    10030    2    1    2    0    0  0.00000000000E+00  0.00000000000E+00  0.16713702677E+04  0.20115070462E+04  0.11192327842E+04 0.  0.
        3    1    3    3  502    0 -0.21843455815E+03 -0.83076308500E+01  0.17615372668E+04  0.17750482319E+04  0.10100000352E+00 0.  1.
       -3    1    3    3    0  502  0.21843455815E+03  0.83076308500E+01 -0.90166999152E+02  0.23645881430E+03  0.10100000352E+00 0. -1.
</event>
<event>
 5   0  0.3316784E-03  0.1077746E+04  0.7818609E-02  0.9227157E-01
        1   -1    0    0  501    0  0.00000000000E+00  0.00000000000E+00  0.10401219353E+04  0.10401219354E+04  0.50400001928E-02 0. -1.
       -1   -1    0    0    0  501  0.00000000000E+00  0.00000000000E+00 -0.27918294434E+03  0.27918294438E+03  0.50400001928E-02 0.  1.
    10030    2    1    2    0    0  0.00000000000E+00  0.00000000000E+00  0.76093899101E+03  0.13193048797E+04  0.10777463605E+04 0.  0.
        4    1    3    3  502    0 -0.39942454085E+02 -0.44223238394E+03  0.75421678588E+03  0.87521966046E+03  0.12699999809E+01 0. -1.
       -4    1    3    3    0  502  0.39942454085E+02  0.44223238394E+03  0.67222051299E+01  0.44408521928E+03  0.12699999809E+01 0.  1.
</event>
<event>
 5   0  0.3215352E-03  0.1090622E+04  0.7818609E-02  0.9214381E-01
       -1   -1    0    0    0  501  0.00000000000E+00  0.00000000000E+00  0.40243480579E+03  0.40243480582E+03  0.50400001928E-02 0. -1.
        1   -1    0    0  501    0  0.00000000000E+00  0.00000000000E+00 -0.73891201413E+03  0.73891201414E+03  0.50400001928E-02 0.  1.
    10030    2    1    2    0    0  0.00000000000E+00  0.00000000000E+00 -0.33647720834E+03  0.11413468200E+04  0.10906216813E+04 0.  0.
        1    1    3    3  502    0 -0.11188180306E+03  0.38357955307E+02  0.38885003900E+03  0.40643969226E+03  0.50400001928E-02 0. -1.
       -1    1    3    3    0  502  0.11188180306E+03 -0.38357955307E+02 -0.72532724734E+03  0.73490712770E+03  0.50400001928E-02 0.  1.
</event>
<event>
 5   0  0.3316784E-03  0.1106391E+04  0.7818609E-02  0.9198985E-01
        1   -1    0    0  501    0  0.00000000000E+00  0.00000000000E+00  0.76772286308E+03  0.76772286309E+03  0.50400001928E-02 0. -1.
       -1   -1    0    0    0  501  0.00000000000E+00  0.00000000000E+00 -0.39861398633E+03  0.39861398636E+03  0.50400001928E-02 0.  1.
    10030    2    1    2    0    0  0.00000000000E+00  0.00000000000E+00  0.36910887675E+03  0.11663368495E+04  0.11063906559E+04 0.  0.
        4    1    3    3  502    0  0.45790969385E+02  0.50904570721E+03  0.40768045166E+03  0.65378078013E+03  0.12699999809E+01 0. -1.
       -4    1    3    3    0  502 -0.45790969385E+02 -0.50904570721E+03 -0.38571574913E+02  0.51255606932E+03  0.12699999809E+01 0.  1.
</event>
<event>
 5   0  0.5627232E-03  0.1108088E+04  0.7818609E-02  0.9197344E-01
        2   -1    0    0  501    0  0.00000000000E+00  0.00000000000E+00  0.67224517155E+03  0.67224517155E+03  0.25500000920E-02 0.  1.
       -2   -1    0    0    0  501  0.00000000000E+00  0.00000000000E+00 -0.45662615216E+03  0.45662615216E+03  0.25500000920E-02 0. -1.
    10030    2    1    2    0    0  0.00000000000E+00  0.00000000000E+00  0.21561901939E+03  0.11288713237E+04  0.11080879496E+04 0.  0.
        2    1    3    3  502    0  0.33443963751E+03 -0.15084773120E+03  0.53075872248E+03  0.64522068367E+03  0.25500000920E-02 0. -1.
       -2    1    3    3    0  502 -0.33443963751E+03  0.15084773120E+03 -0.31513970309E+03  0.48365064004E+03  0.25500000920E-02 0.  1.
</event>
<event>
 5   0  0.5946359E-03  0.1101159E+04  0.7818609E-02  0.9204063E-01
        2   -1    0    0  501    0  0.00000000000E+00  0.00000000000E+00  0.16351394166E+04  0.16351394166E+04  0.25500000920E-02 0.  1.
       -2   -1    0    0    0  501  0.00000000000E+00  0.00000000000E+00 -0.18538946924E+03  0.18538946926E+03  0.25500000920E-02 0. -1.
    10030    2    1    2    0    0  0.00000000000E+00  0.00000000000E+00  0.14497499474E+04  0.18205288859E+04  0.11011587145E+04 0.  0.
        4    1    3    3  502    0 -0.83267987166E+02 -0.44144668705E+03  0.19860226687E+03  0.49117533377E+03  0.12699999809E+01 0. -1.
       -4    1    3    3    0  502  0.83267987166E+02  0.44144668705E+03  0.12511476805E+04  0.13293535521E+04  0.12699999809E+01 0.  1.
</event>
<event>
 5   0  0.5500363E-03  0.1092013E+04  0.7818609E-02  0.9213012E-01
       -2   -1    0    0    0  501  0.00000000000E+00  0.00000000000E+00  0.36466125579E+03  0.36466125580E+03  0.25500000920E-02 0. -1.
        2   -1    0    0  501    0  0.00000000000E+00  0.00000000000E+00 -0.81753393185E+03  0.81753393186E+03  0.25500000920E-02 0.  1.
    10030    2    1    2    0    0  0.00000000000E+00  0.00000000000E+00 -0.45287267606E+03  0.11821951877E+04  0.10920127293E+04 0.  0.
        3    1    3    3  502    0 -0.31056280907E+03  0.21691138851E+03 -0.65213150363E+03  0.75417194132E+03  0.10100000352E+00 0.  1.
       -3    1    3    3    0  502  0.31056280907E+03 -0.21691138851E+03  0.19925882756E+03  0.42802324634E+03  0.10100000352E+00 0. -1.
</event>
<event>
 5   0  0.3328741E-03  0.1100380E+04  0.7818609E-02  0.9204822E-01
        1   -1    0    0  501    0  0.00000000000E+00  0.00000000000E+00  0.14481212171E+04  0.14481212172E+04  0.50400001928E-02 0.  1.
       -1   -1    0    0    0  501  0.00000000000E+00  0.00000000000E+00 -0.20903558845E+03  0.20903558851E+03  0.50400001928E-02 0. -1.
    10030    2    1    2    0    0  0.00000000000E+00  0.00000000000E+00  0.12390856287E+04  0.16571568057E+04  0.11003796996E+04 0.  0.
        3    1    3    3  502    0 -0.43415280757E+03 -0.14369174889E+03  0.15886633725E+03  0.48412240429E+03  0.10100000352E+00 0.  1.
       -3    1    3    3    0  502  0.43415280757E+03  0.14369174889E+03  0.10802192914E+04  0.11730344014E+04  0.10100000352E+00 0. -1.
</event>
<event>
 5   0  0.5941585E-03  0.1105000E+04  0.7818609E-02  0.9200332E-01
       -2   -1    0    0    0  501  0.00000000000E+00  0.00000000000E+00  0.21073517605E+03  0.21073517606E+03  0.25500000920E-02 0.  1.
        2   -1    0    0  501    0  0.00000000000E+00  0.00000000000E+00 -0.14485312762E+04  0.14485312762E+04  0.25500000920E-02 0. -1.
    10030    2    1    2    0    0  0.00000000000E+00  0.00000000000E+00 -0.12377961002E+04  0.16592664523E+04  0.11050004408E+04 0.  0.
        5    1    3    3  502    0 -0.71036116758E+02 -0.21991316726E+03  0.13463858646E+03  0.26750246724E+03  0.46999998093E+01 0.  1.
       -5    1    3    3    0  502  0.71036116758E+02  0.21991316726E+03 -0.13724346866E+04  0.13917639851E+04  0.46999998093E+01 0. -1.
</event>
<event>
 5   0  0.5627232E-03  0.1112797E+04  0.7818609E-02  0.9192808E-01
        2   -1    0    0  501    0  0.00000000000E+00  0.00000000000E+00  0.15273319320E+04  0.15273319320E+04  0.25500000920E-02 0.  1.
       -2   -1    0    0    0  501  0.00000000000E+00  0.00000000000E+00 -0.20269278205E+03  0.20269278207E+03  0.25500000920E-02 0. -1.
    10030    2    1    2    0    0  0.00000000000E+00  0.00000000000E+00  0.13246391499E+04  0.17300247141E+04  0.11127967621E+04 0.  0.
        2    1    3    3  502    0 -0.17690194092E+03 -0.47834975075E+03  0.10080929177E+04  0.11297628563E+04  0.25500000920E-02 0.  1.
       -2    1    3    3    0  502  0.17690194092E+03  0.47834975075E+03  0.31654623225E+03  0.60026185777E+03  0.25500000920E-02 0. -1.
</event>
<event>
 5   0  0.3328741E-03  0.9470271E+03  0.7818609E-02  0.9368632E-01
       -1   -1    0    0    0  501  0.00000000000E+00  0.00000000000E+00  0.18807770699E+03  0.18807770705E+03  0.50400001928E-02 0. -1.
        1   -1    0    0  501    0  0.00000000000E+00  0.00000000000E+00 -0.11921407843E+04  0.11921407843E+04  0.50400001928E-02 0.  1.
    10030    2    1    2    0    0  0.00000000000E+00  0.00000000000E+00 -0.10040630774E+04  0.13802184914E+04  0.94702714888E+03 0.  0.
        3    1    3    3  502    0 -0.16790684672E+03 -0.43658320855E+03 -0.39476003118E+03  0.61207278945E+03  0.10100000352E+00 0. -1.
       -3    1    3    3    0  502  0.16790684672E+03  0.43658320855E+03 -0.60930304617E+03  0.76814570196E+03  0.10100000352E+00 0.  1.
</event>
<event>
 5   0  0.5941585E-03  0.1096603E+04  0.7818609E-02  0.9208509E-01
        2   -1    0    0  501    0  0.00000000000E+00  0.00000000000E+00  0.11544562166E+04  0.11544562166E+04  0.25500000920E-02 0. -1.
       -2   -1    0    0    0  501  0.00000000000E+00  0.00000000000E+00 -0.26041240725E+03  0.26041240727E+03  0.25500000920E-02 0.  1.
    10030    2    1    2    0    0  0.00000000000E+00  0.00000000000E+00  0.89404380935E+03  0.14148686239E+04  0.10966033420E+04 0.  0.
        5    1    3    3  502    0 -0.25273221923E+03  0.33470170676E+02 -0.17926239660E+03  0.31169042943E+03  0.46999998093E+01 0.  1.
       -5    1    3    3    0  502  0.25273221923E+03 -0.33470170676E+02  0.10733062059E+04  0.11031781944E+04  0.46999998093E+01 0. -1.
</event>
<event>
 5   0  0.2185750E-03  0.1298752E+04  0.7818609E-02  0.9030555E-01
        3   -1    0    0  501    0  0.00000000000E+00  0.00000000000E+00  0.34875795115E+03  0.34875796577E+03  0.10100000352E+00 0. -1.
       -3   -1    0    0    0  501  0.00000000000E+00  0.00000000000E+00 -0.12091170123E+04  0.12091170165E+04  0.10100000352E+00 0.  1.
    10030    2    1    2    0    0  0.00000000000E+00  0.00000000000E+00 -0.86035906113E+03  0.15578749823E+04  0.12987519957E+04 0.  0.
        2    1    3    3  502    0  0.26234789970E+03  0.22793099594E+03 -0.10881779486E+04  0.11423266639E+04  0.25500000920E-02 0.  1.
       -2    1    3    3    0  502 -0.26234789970E+03 -0.22793099594E+03  0.22781888744E+03  0.41554831833E+03  0.25500000920E-02 0. -1.
</event>
<event>
 5   0  0.5941585E-03  0.1096917E+04  0.7818609E-02  0.9208202E-01
        2   -1    0    0  501    0  0.00000000000E+00  0.00000000000E+00  0.84656558627E+03  0.84656558628E+03  0.25500000920E-02 0.  1.
       -2   -1    0    0    0  501  0.00000000000E+00  0.00000000000E+00 -0.35532582959E+03  0.35532582960E+03  0.25500000920E-02 0. -1.
    10030    2    1    2    0    0  0.00000000000E+00  0.00000000000E+00  0.49123975668E+03  0.12018914159E+04  0.10969168050E+04 0.  0.
        5    1    3    3  502    0 -0.13506345339E+03  0.31983618724E+03  0.71080499823E+03  0.79107721407E+03  0.46999998093E+01 0.  1.
       -5    1    3    3    0  502  0.13506345339E+03 -0.31983618724E+03 -0.21956524155E+03  0.41081420181E+03  0.46999998093E+01 0. -1.
</event>
<event>
 5   0  0.5723194E-03  0.1125798E+04  0.7818609E-02  0.9180406E-01
        2   -1    0    0  501    0  0.00000000000E+00  0.00000000000E+00  0.10013926971E+04  0.10013926971E+04  0.25500000920E-02 0.  1.
       -2   -1    0    0    0  501  0.00000000000E+00  0.00000000000E+00 -0.31641456739E+03  0.31641456740E+03  0.25500000920E-02 0. -1.
    10030    2    1    2    0    0  0.00000000000E+00  0.00000000000E+00  0.68497812975E+03  0.13178072645E+04  0.11257979162E+04 0.  0.
        1    1    3    3  502    0 -0.54227629033E+03  0.82044522225E+02  0.49083275308E+03  0.73601064544E+03  0.50400001928E-02 0.  1.
       -1    1    3    3    0  502  0.54227629033E+03 -0.82044522225E+02  0.19414537667E+03  0.58179661909E+03  0.50400001928E-02 0. -1.
</event>
<event>
 5   0  0.5946359E-03  0.1080428E+04  0.7818609E-02  0.9224481E-01
        2   -1    0    0  501    0  0.00000000000E+00  0.00000000000E+00  0.94732099286E+03  0.94732099286E+03  0.25500000920E-02 0. -1.
       -2   -1    0    0    0  501  0.00000000000E+00  0.00000000000E+00 -0.30805918714E+03  0.30805918715E+03  0.25500000920E-02 0.  1.
    10030    2    1    2    0    0  0.00000000000E+00  0.00000000000E+00  0.63926180572E+03  0.12553801800E+04  0.10804275728E+04 0.  0.
        4    1    3    3  502    0  0.38470678241E+03 -0.65350861775E+02 -0.11443829281E+03  0.40665437330E+03  0.12699999809E+01 0. -1.
       -4    1    3    3    0  502 -0.38470678241E+03  0.65350861775E+02  0.75370009853E+03  0.84872580671E+03  0.12699999809E+01 0.  1.
</event>
<event>
 5   0  0.3328741E-03  0.1095131E+04  0.7818609E-02  0.9209950E-01
        1   -1    0    0  501    0  0.00000000000E+00  0.00000000000E+00  0.14877534071E+04  0.14877534071E+04  0.50400001928E-02 0.  1.
       -1   -1    0    0    0  501  0.00000000000E+00  0.00000000000E+00 -0.20153082897E+03  0.20153082903E+03  0.50400001928E-02 0. -1.
    10030    2    1    2    0    0  0.00000000000E+00  0.00000000000E+00  0.12862225781E+04  0.16892842361E+04  0.10951313665E+04 0.  0.
        3    1    3    3  502    0 -0.24694052716E+03  0.18064448240E+03 -0.57372051328E+02  0.31129345552E+03  0.10100000352E+00 0. -1.
       -3    1    3    3    0  502  0.24694052716E+03 -0.18064448240E+03  0.13435946295E+04  0.13779907806E+04  0.10100000352E+00 0.  1.
</event>
<event>
 5   0  0.3316784E-03  0.1094610E+04  0.7818609E-02  0.9210461E-01
        1   -1    0    0  501    0  0.00000000000E+00  0.00000000000E+00  0.68454491183E+03  0.68454491185E+03  0.50400001928E-02 0.  1.
       -1   -1    0    0    0  501  0.00000000000E+00  0.00000000000E+00 -0.43757942222E+03  0.43757942225E+03  0.50400001928E-02 0. -1.
    10030    2    1    2    0    0  0.00000000000E+00  0.00000000000E+00  0.24696548960E+03  0.11221243341E+04  0.10946100073E+04 0.  0.
        4    1    3    3  502    0  0.24444626377E+03 -0.27562937460E+03  0.53839783411E+03  0.65237977336E+03  0.12699999809E+01 0.  1.
       -4    1    3    3    0  502 -0.24444626377E+03  0.27562937460E+03 -0.29143234451E+03  0.46974456074E+03  0.12699999809E+01 0. -1.
</event>
<event>
 5   0  0.5723194E-03  0.1092868E+04  0.7818609E-02  0.9212171E-01
       -2   -1    0    0    0  501  0.00000000000E+00  0.00000000000E+00  0.25756822020E+03  0.25756822021E+03  0.25500000920E-02 0. -1.
        2   -1    0    0  501    0  0.00000000000E+00  0.00000000000E+00 -0.11592659941E+04  0.11592659941E+04  0.25500000920E-02 0.  1.
    10030    2    1    2    0    0  0.00000000000E+00  0.00000000000E+00 -0.90169777394E+03  0.14168342144E+04  0.10928679314E+04 0.  0.
        1    1    3    3  502    0 -0.92541503975E+01 -0.46548408128E+03 -0.79993150743E+02  0.47239810903E+03  0.50400001928E-02 0. -1.
       -1    1    3    3    0  502  0.92541503975E+01  0.46548408128E+03 -0.82170462320E+03  0.94443610533E+03  0.50400001928E-02 0.  1.
</event>
<event>
 5   0  0.3215352E-03  0.1103480E+04  0.7818609E-02  0.9201807E-01
        1   -1    0    0  501    0  0.00000000000E+00  0.00000000000E+00  0.12254659708E+04  0.12254659708E+04  0.50400001928E-02 0. -1.
       -1   -1    0    0    0  501  0.00000000000E+00  0.00000000000E+00 -0.24840913225E+03  0.24840913230E+03  0.50400001928E-02 0.  1.
    10030    2    1    2    0    0  0.00000000000E+00  0.00000000000E+00  0.97705683856E+03  0.14738751031E+04  0.11034798384E+04 0.  0.
        1    1    3    3  502    0 -0.42421850767E+03 -0.31231291206E+03  0.26939758844E+03  0.59167200202E+03  0.50400001928E-02 0.  1.
       -1    1    3    3    0  502  0.42421850767E+03  0.31231291206E+03  0.70765925012E+03  0.88220310110E+03  0.50400001928E-02 0. -1.
</event>
<event>
 5   0  0.5946359E-03  0.1084006E+04  0.7818609E-02  0.9220922E-01
        2   -1    0    0  501    0  0.00000000000E+00  0.00000000000E+00  0.11145379443E+04  0.11145379443E+04  0.25500000920E-02 0. -1.
       -2   -1    0    0    0  501  0.00000000000E+00  0.00000000000E+00 -0.26357773980E+03  0.26357773981E+03  0.25500000920E-02 0.  1.
    10030    2    1    2    0    0  0.00000000000E+00  0.00000000000E+00  0.85096020454E+03  0.13781156842E+04  0.10840062588E+04 0.  0.
        4    1    3    3  502    0  0.43288520427E+03  0.32566593257E+03  0.44814664467E+03  0.70305400058E+03  0.12699999809E+01 0.  1.
       -4    1    3    3    0  502 -0.43288520427E+03 -0.32566593257E+03  0.40281355987E+03  0.67506168357E+03  0.12699999809E+01 0. -1.
</event>
<event>
 5   0  0.5941585E-03  0.1134060E+04  0.7818609E-02  0.9172616E-01
        2   -1    0    0  501    0  0.00000000000E+00  0.00000000000E+00  0.66299157312E+03  0.66299157313E+03  0.25500000920E-02 0. -1.
       -2   -1    0    0    0  501  0.00000000000E+00  0.00000000000E+00 -0.48495806208E+03  0.48495806209E+03  0.25500000920E-02 0.  1.
    10030    2    1    2    0    0  0.00000000000E+00  0.00000000000E+00  0.17803351104E+03  0.11479496352E+04  0.11340601545E+04 0.  0.
        5    1    3    3  502    0  0.17734132874E+03  0.14829152752E+02 -0.45593654359E+03  0.48945895888E+03  0.46999998093E+01 0.  1.
       -5    1    3    3    0  502 -0.17734132874E+03 -0.14829152752E+02  0.63397005463E+03  0.65849067633E+03  0.46999998093E+01 0. -1.
</event>
<event>
 5   0  0.5941585E-03  0.1102601E+04  0.7818609E-02  0.9202661E-01
        2   -1    0    0  501    0  0.00000000000E+00  0.00000000000E+00  0.10178871393E+04  0.10178871393E+04  0.25500000920E-02 0.  1.
       -2   -1    0    0    0  501  0.00000000000E+00  0.00000000000E+00 -0.29859105485E+03  0.29859105486E+03  0.25500000920E-02 0. -1.
    10030    2    1    2    0    0  0.00000000000E+00  0.00000000000E+00  0.71929608440E+03  0.13164781941E+04  0.11026005526E+04 0.  0.
        5    1    3    3  502    0 -0.12171365109E+03  0.50398046048E+03  0.13595873139E+03  0.53601994743E+03  0.46999998093E+01 0. -1.
       -5    1    3    3    0  502  0.12171365109E+03 -0.50398046048E+03  0.58333735301E+03  0.78045824669E+03  0.46999998093E+01 0.  1.
</event>
<event>
 5   0  0.3316784E-03  0.1098339E+04  0.7818609E-02  0.9206813E-01
       -1   -1    0    0    0  501  0.00000000000E+00  0.00000000000E+00  0.66991892967E+03  0.66991892969E+03  0.50400001928E-02 0.  1.
        1   -1    0    0  501    0  0.00000000000E+00  0.00000000000E+00 -0.45018420313E+03  0.45018420316E+03  0.50400001928E-02 0. -1.
    10030    2    1    2    0    0  0.00000000000E+00  0.00000000000E+00  0.21973472654E+03  0.11201031328E+04  0.10983385991E+04 0.  0.
        4    1    3    3  502    0 -0.35046719980E+03  0.20051798544E+03 -0.26973241415E+03  0.48558409031E+03  0.12699999809E+01 0. -1.
       -4    1    3    3    0  502  0.35046719980E+03 -0.20051798544E+03  0.48946714069E+03  0.63451904253E+03  0.12699999809E+01 0.  1.
</event>
<event>
 5   0  0.3316784E-03  0.1083495E+04  0.7818609E-02  0.9221430E-01
       -1   -1    0    0    0  501  0.00000000000E+00  0.00000000000E+00  0.53134751812E+03  0.53134751815E+03  0.50400001928E-02 0.  1.
        1   -1    0    0  501    0  0.00000000000E+00  0.00000000000E+00 -0.55235100472E+03  0.55235100474E+03  0.50400001928E-02 0. -1.
    10030    2    1    2    0    0  0.00000000000E+00  0.00000000000E+00 -0.21003486597E+02  0.10836985229E+04  0.10834949663E+04 0.  0.
        4    1    3    3  502    0 -0.20876075121E+03  0.17371531231E+03  0.45834069413E+03  0.53276248533E+03  0.12699999809E+01 0.  1.
       -4    1    3    3    0  502  0.20876075121E+03 -0.17371531231E+03 -0.47934418073E+03  0.55093603756E+03  0.12699999809E+01 0. -1.
</event>
<event>
 5   0  0.3215352E-03  0.1068282E+04  0.7818609E-02  0.9236670E-01
       -1   -1    0    0    0  501  0.00000000000E+00  0.00000000000E+00  0.60852040171E+03  0.60852040173E+03  0.50400001928E-02 0.  1.
        1   -1    0    0  501    0  0.00000000000E+00  0.00000000000E+00 -0.46885314105E+03  0.46885314108E+03  0.50400001928E-02 0. -1.
    10030    2    1    2    0    0  0.00000000000E+00  0.00000000000E+00  0.13966726066E+03  0.10773735428E+04  0.10682821758E+04 0.  0.
        1    1    3    3  502    0 -0.50972142224E+03 -0.67730201699E+02 -0.75976842822E+02  0.51978436796E+03  0.50400001928E-02 0. -1.
       -1    1    3    3    0  502  0.50972142224E+03  0.67730201699E+02  0.21564410348E+03  0.55758917484E+03  0.50400001928E-02 0.  1.
</event>
<event>
 5   0  0.5941585E-03  0.1083269E+04  0.7818609E-02  0.9221655E-01
        2   -1    0    0  501    0  0.00000000000E+00  0.00000000000E+00  0.42350047703E+03  0.42350047704E+03  0.25500000920E-02 0. -1.
       -2   -1    0    0    0  501  0.00000000000E+00  0.00000000000E+00 -0.69272105505E+03  0.69272105505E+03  0.25500000920E-02 0.  1.
    10030    2    1    2    0    0  0.00000000000E+00  0.00000000000E+00 -0.26922057802E+03  0.11162215321E+04  0.10832685674E+04 0.  0.
        5    1    3    3  502    0  0.42737218534E+03 -0.33254423226E+03 -0.12365890492E+03  0.55546941048E+03  0.46999998093E+01 0. -1.
       -5    1    3    3    0  502 -0.42737218534E+03  0.33254423226E+03 -0.14556167310E+03  0.56075212161E+03  0.46999998093E+01 0.  1.
</event>
<event>
 5   0  0.5723194E-03  0.1085746E+04  0.7818609E-02  0.9219197E-01
        2   -1    0    0  501    0  0.00000000000E+00  0.00000000000E+00  0.19331897261E+04  0.19331897261E+04  0.25500000920E-02 0.  1.
       -2   -1    0    0    0  501  0.00000000000E+00  0.00000000000E+00 -0.15244808987E+03  0.15244808989E+03  0.25500000920E-02 0. -1.
    10030    2    1    2    0    0  0.00000000000E+00  0.00000000000E+00  0.17807416363E+04  0.20856378160E+04  0.10857459760E+04 0.  0.
        1    1    3    3  502    0  0.11318511237E+03 -0.93297828327E+02 -0.11366132172E+03  0.18556468014E+03  0.50400001928E-02 0. -1.
       -1    1    3    3    0  502 -0.11318511237E+03  0.93297828327E+02  0.18944029580E+04  0.19000731359E+04  0.50400001928E-02 0.  1.
</event>
<event>
 5   0  0.5723194E-03  0.1104806E+04  0.7818609E-02  0.9200520E-01
        2   -1    0    0  501    0  0.00000000000E+00  0.00000000000E+00  0.12664085612E+04  0.12664085613E+04  0.25500000920E-02 0.  1.
       -2   -1    0    0    0  501  0.00000000000E+00  0.00000000000E+00 -0.24095629069E+03  0.24095629070E+03  0.25500000920E-02 0. -1.
    10030    2    1    2    0    0  0.00000000000E+00  0.00000000000E+00  0.10254522706E+04  0.15073648520E+04  0.11048060634E+04 0.  0.
        1    1    3    3  502    0 -0.22416124539E+03  0.16831994193E+03 -0.13670456012E+03  0.31187818707E+03  0.50400001928E-02 0. -1.
       -1    1    3    3    0  502  0.22416124539E+03 -0.16831994193E+03  0.11621568307E+04  0.11954866649E+04  0.50400001928E-02 0.  1.
</event>
<event>
 5   0  0.5723194E-03  0.1065134E+04  0.7818609E-02  0.9239857E-01
       -2   -1    0    0    0  501  0.00000000000E+00  0.00000000000E+00  0.32841087319E+03  0.32841087320E+03  0.25500000920E-02 0.  1.
        2   -1    0    0  501    0  0.00000000000E+00  0.00000000000E+00 -0.86363674514E+03  0.86363674514E+03  0.25500000920E-02 0. -1.
    10030    2    1    2    0    0  0.00000000000E+00  0.00000000000E+00 -0.53522587195E+03  0.11920476183E+04  0.10651341654E+04 0.  0.
        1    1    3    3  502    0  0.26224220175E+03  0.43537219052E+03 -0.44565241799E+03  0.67596301255E+03  0.50400001928E-02 0. -1.
       -1    1    3    3    0  502 -0.26224220175E+03 -0.43537219052E+03 -0.89573453959E+02  0.51608460579E+03  0.50400001928E-02 0.  1.
</event>
<event>
 5   0  0.3320192E-03  0.1116033E+04  0.7818609E-02  0.9189704E-01
       -1   -1    0    0    0  501  0.00000000000E+00  0.00000000000E+00  0.64500662864E+03  0.64500662866E+03  0.50400001928E-02 0. -1.
        1   -1    0    0  501    0  0.00000000000E+00  0.00000000000E+00 -0.48275840591E+03  0.48275840593E+03  0.50400001928E-02 0.  1.
    10030    2    1    2    0    0  0.00000000000E+00  0.00000000000E+00  0.16224822274E+03  0.11277650346E+04  0.11160329240E+04 0.  0.
        2    1    3    3  502    0 -0.52089483681E+03  0.17468592209E+03 -0.17553695902E+02  0.54968603278E+03  0.25500000920E-02 0.  1.
       -2    1    3    3    0  502  0.52089483681E+03 -0.17468592209E+03  0.17980191864E+03  0.57807900182E+03  0.25500000920E-02 0. -1.
</event>
<event>
 5   0  0.3241189E-03  0.1092369E+04  0.7818609E-02  0.9212662E-01
        1   -1    0    0  501    0  0.00000000000E+00  0.00000000000E+00  0.10506085656E+04  0.10506085656E+04  0.50400001928E-02 0.  1.
       -1   -1    0    0    0  501  0.00000000000E+00  0.00000000000E+00 -0.28394722637E+03  0.28394722641E+03  0.50400001928E-02 0. -1.
    10030    2    1    2    0    0  0.00000000000E+00  0.00000000000E+00  0.76666133923E+03  0.13345557920E+04  0.10923687807E+04 0.  0.
        5    1    3    3  502    0 -0.14117503222E+03  0.61961956817E+01 -0.26120171904E+03  0.29701382222E+03  0.46999998093E+01 0. -1.
       -5    1    3    3    0  502  0.14117503222E+03 -0.61961956817E+01  0.10278630583E+04  0.10375419698E+04  0.46999998093E+01 0.  1.
</event>
<event>
 5   0  0.5941585E-03  0.1134081E+04  0.7818609E-02  0.9172597E-01
        2   -1    0    0  501    0  0.00000000000E+00  0.00000000000E+00  0.14296955617E+04  0.14296955617E+04  0.25500000920E-02 0. -1.
       -2   -1    0    0    0  501  0.00000000000E+00  0.00000000000E+00 -0.22489738512E+03  0.22489738514E+03  0.25500000920E-02 0.  1.
    10030    2    1    2    0    0  0.00000000000E+00  0.00000000000E+00  0.12047981766E+04  0.16545929469E+04  0.11340807614E+04 0.  0.
        5    1    3    3  502    0  0.51992302321E+03 -0.21091448513E+03  0.72189094657E+03  0.91430492662E+03  0.46999998093E+01 0. -1.
       -5    1    3    3    0  502 -0.51992302321E+03  0.21091448513E+03  0.48290723003E+03  0.74028802024E+03  0.46999998093E+01 0.  1.
</event>
<event>
 5   0  0.3316784E-03  0.1086919E+04  0.7818609E-02  0.9218036E-01
       -1   -1    0    0    0  501  0.00000000000E+00  0.00000000000E+00  0.80153471269E+03  0.80153471271E+03  0.50400001928E-02 0.  1.
        1   -1    0    0  501    0  0.00000000000E+00  0.00000000000E+00 -0.36847828362E+03  0.36847828365E+03  0.50400001928E-02 0. -1.
    10030    2    1    2    0    0  0.00000000000E+00  0.00000000000E+00  0.43305642907E+03  0.11700129964E+04  0.10869188290E+04 0.  0.
        4    1    3    3  502    0  0.32650357229E+03 -0.34853508890E+03 -0.62654736759E+02  0.48167262726E+03  0.12699999809E+01 0. -1.
       -4    1    3    3    0  502 -0.32650357229E+03  0.34853508890E+03  0.49571116583E+03  0.68834036910E+03  0.12699999809E+01 0.  1.
</event>
<event>
 5   0  0.5627232E-03  0.1107248E+04  0.7818609E-02  0.9198156E-01
        2   -1    0    0  501    0  0.00000000000E+00  0.00000000000E+00  0.15729354342E+04  0.15729354342E+04  0.25500000920E-02 0. -1.
       -2   -1    0    0    0  501  0.00000000000E+00  0.00000000000E+00 -0.19485830520E+03  0.19485830522E+03  0.25500000920E-02 0.  1.
    10030    2    1    2    0    0  0.00000000000E+00  0.00000000000E+00  0.13780771290E+04  0.17677937394E+04  0.11072479992E+04 0.  0.
        2    1    3    3  502    0  0.12702235329E+03  0.50062887272E+03  0.10072944919E+04  0.11319921112E+04  0.25500000920E-02 0. -1.
       -2    1    3    3    0  502 -0.12702235329E+03 -0.50062887272E+03  0.37078263710E+03  0.63580162820E+03  0.25500000920E-02 0.  1.
</event>
<event>
 5   0  0.3215352E-03  0.1103563E+04  0.7818609E-02  0.9201726E-01
       -1   -1    0    0    0  501  0.00000000000E+00  0.00000000000E+00  0.28179093303E+03  0.28179093307E+03  0.50400001928E-02 0. -1.
        1   -1    0    0  501    0  0.00000000000E+00  0.00000000000E+00 -0.10804570724E+04  0.10804570724E+04  0.50400001928E-02 0.  1.
    10030    2    1    2    0    0  0.00000000000E+00  0.00000000000E+00 -0.79866613940E+03  0.13622480055E+04  0.11035633313E+04 0.  0.
        1    1    3    3  502    0  0.29497451577E+03  0.26821282929E+03  0.71549572150E+02  0.40505237692E+03  0.50400001928E-02 0. -1.
       -1    1    3    3    0  502 -0.29497451577E+03 -0.26821282929E+03 -0.87021571155E+03  0.95719562859E+03  0.50400001928E-02 0.  1.
</event>
<event>
 5   0  0.5500363E-03  0.1117887E+04  0.7818609E-02  0.9187931E-01
       -2   -1    0    0    0  501  0.00000000000E+00  0.00000000000E+00  0.21206870133E+03  0.21206870135E+03  0.25500000920E-02 0. -1.
        2   -1    0    0  501    0  0.00000000000E+00  0.00000000000E+00 -0.14731916359E+04  0.14731916359E+04  0.25500000920E-02 0.  1.
    10030    2    1    2    0    0  0.00000000000E+00  0.00000000000E+00 -0.12611229345E+04  0.16852603372E+04  0.11178870015E+04 0.  0.
        3    1    3    3  502    0 -0.33143144394E+03  0.36899432401E+03 -0.24205378496E+03  0.55190004366E+03  0.10100000352E+00 0. -1.
       -3    1    3    3    0  502  0.33143144394E+03 -0.36899432401E+03 -0.10190691496E+04  0.11333602935E+04  0.10100000352E+00 0.  1.
</event>
<event>
 5   0  0.5941585E-03  0.1103328E+04  0.7818609E-02  0.9201954E-01
        2   -1    0    0  501    0  0.00000000000E+00  0.00000000000E+00  0.13401680626E+04  0.13401680626E+04  0.25500000920E-02 0.  1.
       -2   -1    0    0    0  501  0.00000000000E+00  0.00000000000E+00 -0.22708579875E+03  0.22708579876E+03  0.25500000920E-02 0. -1.
    10030    2    1    2    0    0  0.00000000000E+00  0.00000000000E+00  0.11130822638E+04  0.15672538613E+04  0.11033279385E+04 0.  0.
        5    1    3    3  502    0 -0.20317188583E+03 -0.21944027228E+03  0.12150034223E+04  0.12512746519E+04  0.46999998093E+01 0.  1.
       -5    1    3    3    0  502  0.20317188583E+03  0.21944027228E+03 -0.10192115843E+03  0.31597920948E+03  0.46999998093E+01 0. -1.
</event>
<event>
 5   0  0.3215352E-03  0.1090236E+04  0.7818609E-02  0.9214761E-01
        1   -1    0    0  501    0  0.00000000000E+00  0.00000000000E+00  0.23881252900E+03  0.23881252906E+03  0.50400001928E-02 0. -1.
       -1   -1    0    0    0  501  0.00000000000E+00  0.00000000000E+00 -0.12442962301E+04  0.12442962301E+04  0.50400001928E-02 0.  1.
    10030    2    1    2    0    0  0.00000000000E+00  0.00000000000E+00 -0.10054837011E+04  0.14831087592E+04  0.10902358086E+04 0.  0.
        1    1    3    3  502    0 -0.12015168729E+03 -0.25740986051E+03  0.13016331646E+03  0.31247200391E+03  0.50400001928E-02 0. -1.
       -1    1    3    3    0  502  0.12015168729E+03  0.25740986051E+03 -0.11356470176E+04  0.11706367553E+04  0.50400001928E-02 0.  1.
</event>
<event>
 5   0  0.3316784E-03  0.1104056E+04  0.7818609E-02  0.9201248E-01
        1   -1    0    0  501    0  0.00000000000E+00  0.00000000000E+00  0.98816811910E+03  0.98816811911E+03  0.50400001928E-02 0. -1.
       -1   -1    0    0    0  501  0.00000000000E+00  0.00000000000E+00 -0.30838372064E+03  0.30838372069E+03  0.50400001928E-02 0.  1.
    10030    2    1    2    0    0  0.00000000000E+00  0.00000000000E+00  0.67978439846E+03  0.12965518398E+04  0.11040560878E+04 0.  0.
        4    1    3    3  502    0  0.55125343975E+03 -0.27540521135E+02  0.35130901349E+03  0.65426177559E+03  0.12699999809E+01 0. -1.
       -4    1    3    3    0  502 -0.55125343975E+03  0.27540521135E+02  0.32847538497E+03  0.64229006421E+03  0.12699999809E+01 0.  1.
</event>
<event>
 5   0  0.2185750E-03  0.1097781E+04  0.7818609E-02  0.9207357E-01
        3   -1    0    0  501    0  0.00000000000E+00  0.00000000000E+00  0.70508160240E+03  0.70508160963E+03  0.10100000352E+00 0. -1.
       -3   -1    0    0    0  501  0.00000000000E+00  0.00000000000E+00 -0.42729911102E+03  0.42729912296E+03  0.10100000352E+00 0.  1.
    10030    2    1    2    0    0  0.00000000000E+00  0.00000000000E+00  0.27778249138E+03  0.11323807326E+04  0.10977809486E+04 0.  0.
        2    1    3    3  502    0  0.98958099131E+02 -0.45423085524E+03  0.43991493241E+03  0.64003400144E+03  0.25500000920E-02 0. -1.
       -2    1    3    3    0  502 -0.98958099131E+02  0.45423085524E+03 -0.16213244103E+03  0.49234673116E+03  0.25500000920E-02 0.  1.
</event>
<event>
 5   0  0.3241189E-03  0.1120306E+04  0.7818609E-02  0.9185624E-01
        1   -1    0    0  501    0  0.00000000000E+00  0.00000000000E+00  0.75886961668E+03  0.75886961669E+03  0.50400001928E-02 0.  1.
       -1   -1    0    0    0  501  0.00000000000E+00  0.00000000000E+00 -0.41347178657E+03  0.41347178660E+03  0.50400001928E-02 0. -1.
    10030    2    1    2    0    0  0.00000000000E+00  0.00000000000E+00  0.34539783011E+03  0.11723414033E+04  0.11203056301E+04 0.  0.
        5    1    3    3  502    0 -0.22591359687E+03 -0.20946821491E+02  0.70861239075E+03  0.74406272108E+03  0.46999998093E+01 0.  1.
       -5    1    3    3    0  502  0.22591359687E+03  0.20946821491E+02 -0.36321456064E+03  0.42827868221E+03  0.46999998093E+01 0. -1.
</event>
<event>
 5   0  0.5941585E-03  0.1102590E+04  0.7818609E-02  0.9202671E-01
        2   -1    0    0  501    0  0.00000000000E+00  0.00000000000E+00  0.40551500225E+03  0.40551500226E+03  0.25500000920E-02 0. -1.
       -2   -1    0    0    0  501  0.00000000000E+00  0.00000000000E+00 -0.74948249743E+03  0.74948249743E+03  0.25500000920E-02 0.  1.
    10030    2    1    2    0    0  0.00000000000E+00  0.00000000000E+00 -0.34396749518E+03  0.11549974997E+04  0.11025903984E+04 0.  0.
        5    1    3    3  502    0  0.80542677289E+02  0.33844074038E+03 -0.61994872926E+03  0.71090630503E+03  0.46999998093E+01 0.  1.
       -5    1    3    3    0  502 -0.80542677289E+02 -0.33844074038E+03  0.27598123409E+03  0.44409119467E+03  0.46999998093E+01 0. -1.
</event>
<event>
 5   0  0.5941585E-03  0.1099498E+04  0.7818609E-02  0.9205681E-01
       -2   -1    0    0    0  501  0.00000000000E+00  0.00000000000E+00  0.20196991446E+03  0.20196991447E+03  0.25500000920E-02 0.  1.
        2   -1    0    0  501    0  0.00000000000E+00  0.00000000000E+00 -0.14963819415E+04  0.14963819415E+04  0.25500000920E-02 0. -1.
    10030    2    1    2    0    0  0.00000000000E+00  0.00000000000E+00 -0.12944120270E+04  0.16983518560E+04  0.10994983087E+04 0.  0.
        5    1    3    3  502    0 -0.46819183727E+03 -0.13620026639E+03 -0.10393428161E+04  0.11480460306E+04  0.46999998093E+01 0.  1.
       -5    1    3    3    0  502  0.46819183727E+03  0.13620026639E+03 -0.25506921096E+03  0.55030582537E+03  0.46999998093E+01 0. -1.
</event>
<event>
 5   0  0.5500363E-03  0.1100570E+04  0.7818609E-02  0.9204636E-01
        2   -1    0    0  501    0  0.00000000000E+00  0.00000000000E+00  0.32660565252E+03  0.32660565253E+03  0.25500000920E-02 0. -1.
       -2   -1    0    0    0  501  0.00000000000E+00  0.00000000000E+00 -0.92715356228E+03  0.92715356229E+03  0.25500000920E-02 0.  1.
    10030    2    1    2    0    0  0.00000000000E+00  0.00000000000E+00 -0.60054790976E+03  0.12537592148E+04  0.11005700236E+04 0.  0.
        3    1    3    3  502    0  0.43730832738E+03 -0.24222470427E+03 -0.56229328924E+03  0.75238629299E+03  0.10100000352E+00 0. -1.
       -3    1    3    3    0  502 -0.43730832738E+03  0.24222470427E+03 -0.38254620521E+02  0.50137292183E+03  0.10100000352E+00 0.  1.
</event>
<event>
 5   0  0.5941585E-03  0.1098317E+04  0.7818609E-02  0.9206834E-01
       -2   -1    0    0    0  501  0.00000000000E+00  0.00000000000E+00  0.33328548008E+03  0.33328548009E+03  0.25500000920E-02 0. -1.
        2   -1    0    0  501    0  0.00000000000E+00  0.00000000000E+00 -0.90485430249E+03  0.90485430250E+03  0.25500000920E-02 0.  1.
    10030    2    1    2    0    0  0.00000000000E+00  0.00000000000E+00 -0.57156882241E+03  0.12381397826E+04  0.10983165311E+04 0.  0.
        5    1    3    3  502    0  0.53402056936E+03 -0.16845205560E+02 -0.42878354972E+03  0.68508331753E+03  0.46999998093E+01 0.  1.
       -5    1    3    3    0  502 -0.53402056936E+03  0.16845205560E+02 -0.14278527270E+03  0.55305646506E+03  0.46999998093E+01 0. -1.
</event>
<event>
 5   0  0.3320192E-03  0.1060582E+04  0.7818609E-02  0.9244486E-01
        1   -1    0    0  501    0  0.00000000000E+00  0.00000000000E+00  0.89118562668E+03  0.89118562670E+03  0.50400001928E-02 0. -1.
       -1   -1    0    0    0  501  0.00000000000E+00  0.00000000000E+00 -0.31554452185E+03  0.31554452189E+03  0.50400001928E-02 0.  1.
    10030    2    1    2    0    0  0.00000000000E+00  0.00000000000E+00  0.57564110483E+03  0.12067301486E+04  0.10605823730E+04 0.  0.
        2    1    3    3  502    0  0.42019644676E+03  0.25934939382E+03  0.50780632206E+03  0.70830390559E+03  0.25500000920E-02 0. -1.
       -2    1    3    3    0  502 -0.42019644676E+03 -0.25934939382E+03  0.67834782768E+02  0.49842624299E+03  0.25500000920E-02 0.  1.
</event>
<event>
 5   0  0.5500363E-03  0.1097380E+04  0.7818609E-02  0.9207750E-01
        2   -1    0    0  501    0  0.00000000000E+00  0.00000000000E+00  0.14160053489E+04  0.14160053489E+04  0.25500000920E-02 0. -1.
       -2   -1    0    0    0  501  0.00000000000E+00  0.00000000000E+00 -0.21261257179E+03  0.21261257181E+03  0.25500000920E-02 0.  1.
    10030    2    1    2    0    0  0.00000000000E+00  0.00000000000E+00  0.12033927771E+04  0.16286179207E+04  0.10973796771E+04 0.  0.
        3    1    3    3  502    0 -0.15876844275E+02 -0.12653905586E+03  0.13937042353E+04  0.13995269603E+04  0.10100000352E+00 0. -1.
       -3    1    3    3    0  502  0.15876844275E+02  0.12653905586E+03 -0.19031145818E+03  0.22909096045E+03  0.10100000352E+00 0.  1.
</event>
<event>
 5   0  0.5946359E-03  0.1102113E+04  0.7818609E-02  0.9203135E-01
        2   -1    0    0  501    0  0.00000000000E+00  0.00000000000E+00  0.20546508549E+04  0.20546508549E+04  0.25500000920E-02 0. -1.
       -2   -1    0    0    0  501  0.00000000000E+00  0.00000000000E+00 -0.14779311334E+03  0.14779311336E+03  0.25500000920E-02 0.  1.
    10030    2    1    2    0    0  0.00000000000E+00  0.00000000000E+00  0.19068577416E+04  0.22024439683E+04  0.11021129646E+04 0.  0.
        4    1    3    3  502    0 -0.53264325196E+03 -0.14069501743E+03  0.92833248707E+03  0.10794937430E+04  0.12699999809E+01 0. -1.
       -4    1    3    3    0  502  0.53264325196E+03  0.14069501743E+03  0.97852525454E+03  0.11229502253E+04  0.12699999809E+01 0.  1.
</event>
<event>
 5   0  0.5500363E-03  0.1093689E+04  0.7818609E-02  0.9211365E-01
       -2   -1    0    0    0  501  0.00000000000E+00  0.00000000000E+00  0.23431831681E+03  0.23431831683E+03  0.25500000920E-02 0.  1.
        2   -1    0    0  501    0  0.00000000000E+00  0.00000000000E+00 -0.12762082662E+04  0.12762082662E+04  0.25500000920E-02 0. -1.
    10030    2    1    2    0    0  0.00000000000E+00  0.00000000000E+00 -0.10418899494E+04  0.15105265831E+04  0.10936891201E+04 0.  0.
        3    1    3    3  502    0 -0.28786858234E+03 -0.30780413488E+03 -0.39670784210E+02  0.42330306811E+03  0.10100000352E+00 0.  1.
       -3    1    3    3    0  502  0.28786858234E+03  0.30780413488E+03 -0.10022191652E+04  0.10872235149E+04  0.10100000352E+00 0. -1.
</event>
<event>
 5   0  0.3320192E-03  0.1085504E+04  0.7818609E-02  0.9219437E-01
        1   -1    0    0  501    0  0.00000000000E+00  0.00000000000E+00  0.57562546013E+03  0.57562546015E+03  0.50400001928E-02 0.  1.
       -1   -1    0    0    0  501  0.00000000000E+00  0.00000000000E+00 -0.51175577740E+03  0.51175577743E+03  0.50400001928E-02 0. -1.
    10030    2    1    2    0    0  0.00000000000E+00  0.00000000000E+00  0.63869682728E+02  0.10873812376E+04  0.10855038551E+04 0.  0.
        2    1    3    3  502    0 -0.32067376552E+02  0.53769499224E+03  0.98649075258E+02  0.54760922323E+03  0.25500000920E-02 0.  1.
       -2    1    3    3    0  502  0.32067376552E+02 -0.53769499224E+03 -0.34779392529E+02  0.53977201434E+03  0.25500000920E-02 0. -1.
</event>
<event>
 5   0  0.5627232E-03  0.1098185E+04  0.7818609E-02  0.9206963E-01
        2   -1    0    0  501    0  0.00000000000E+00  0.00000000000E+00  0.45176379416E+03  0.45176379417E+03  0.25500000920E-02 0.  1.
       -2   -1    0    0    0  501  0.00000000000E+00  0.00000000000E+00 -0.66738946083E+03  0.66738946084E+03  0.25500000920E-02 0. -1.
    10030    2    1    2    0    0  0.00000000000E+00  0.00000000000E+00 -0.21562566667E+03  0.11191532550E+04  0.10981846748E+04 0.  0.
        2    1    3    3  502    0  0.69073010934E+02 -0.43247183000E+03  0.22972026788E+03  0.49454460473E+03  0.25500000920E-02 0.  1.
       -2    1    3    3    0  502 -0.69073010934E+02  0.43247183000E+03 -0.44534593455E+03  0.62460865028E+03  0.25500000920E-02 0. -1.
</event>
<event>
 5   0  0.3316784E-03  0.1058122E+04  0.7818609E-02  0.9246999E-01
        1   -1    0    0  501    0  0.00000000000E+00  0.00000000000E+00  0.42587612481E+03  0.42587612484E+03  0.50400001928E-02 0. -1.
       -1   -1    0    0    0  501  0.00000000000E+00  0.00000000000E+00 -0.65724598698E+03  0.65724598699E+03  0.50400001928E-02 0.  1.
    10030    2    1    2    0    0  0.00000000000E+00  0.00000000000E+00 -0.23136986216E+03  0.10831221118E+04  0.10581216830E+04 0.  0.
        4    1    3    3  502    0 -0.72337887391E+02  0.52136664347E+03 -0.17031070919E+03  0.55322987757E+03  0.12699999809E+01 0.  1.
       -4    1    3    3    0  502  0.72337887391E+02 -0.52136664347E+03 -0.61059152974E+02  0.52989223426E+03  0.12699999809E+01 0. -1.
</event>
<event>
 5   0  0.3316784E-03  0.1108365E+04  0.7818609E-02  0.9197077E-01
       -1   -1    0    0    0  501  0.00000000000E+00  0.00000000000E+00  0.34627511906E+03  0.34627511910E+03  0.50400001928E-02 0. -1.
        1   -1    0    0  501    0  0.00000000000E+00  0.00000000000E+00 -0.88691970014E+03  0.88691970015E+03  0.50400001928E-02 0.  1.
    10030    2    1    2    0    0  0.00000000000E+00  0.00000000000E+00 -0.54064458108E+03  0.12331948192E+04  0.11083649666E+04 0.  0.
        4    1    3    3  502    0 -0.22454748370E+03  0.15257020033E+03  0.26722353103E+03  0.38093210275E+03  0.12699999809E+01 0. -1.
       -4    1    3    3    0  502  0.22454748370E+03 -0.15257020033E+03 -0.80786811211E+03  0.85226271650E+03  0.12699999809E+01 0.  1.
</event>
<event>
 5   0  0.5946359E-03  0.1103682E+04  0.7818609E-02  0.9201611E-01
        2   -1    0    0  501    0  0.00000000000E+00  0.00000000000E+00  0.67278068755E+03  0.67278068756E+03  0.25500000920E-02 0. -1.
       -2   -1    0    0    0  501  0.00000000000E+00  0.00000000000E+00 -0.45264147169E+03  0.45264147169E+03  0.25500000920E-02 0.  1.
    10030    2    1    2    0    0  0.00000000000E+00  0.00000000000E+00  0.22013921587E+03  0.11254221593E+04  0.11036819117E+04 0.  0.
        4    1    3    3  502    0  0.25611736494E+03  0.41902977811E+03  0.36671112410E+03  0.61291167472E+03  0.12699999809E+01 0. -1.
       -4    1    3    3    0  502 -0.25611736494E+03 -0.41902977811E+03 -0.14657190824E+03  0.51251048453E+03  0.12699999809E+01 0.  1.
</event>
<event>
 5   0  0.3328741E-03  0.1105100E+04  0.7818609E-02  0.9200235E-01
       -1   -1    0    0    0  501  0.00000000000E+00  0.00000000000E+00  0.15775777104E+03  0.15775777112E+03  0.50400001928E-02 0.  1.
        1   -1    0    0  501    0  0.00000000000E+00  0.00000000000E+00 -0.19353181865E+04  0.19353181865E+04  0.50400001928E-02 0. -1.
    10030    2    1    2    0    0  0.00000000000E+00  0.00000000000E+00 -0.17775604154E+04  0.20930759576E+04  0.11050999655E+04 0.  0.
        3    1    3    3  502    0  0.27655839577E+03 -0.17668999784E+03 -0.17307281006E+04  0.17615685255E+04  0.10100000352E+00 0. -1.
       -3    1    3    3    0  502 -0.27655839577E+03  0.17668999784E+03 -0.46832314807E+02  0.33150743207E+03  0.10100000352E+00 0.  1.
</event>
<event>
 5   0  0.2185750E-03  0.1121279E+04  0.7818609E-02  0.9184696E-01
       -4   -1    0    0    0  501  0.00000000000E+00  0.00000000000E+00  0.38645365693E+03  0.38645574372E+03  0.12699999809E+01 0.  1.
        4   -1    0    0  501    0  0.00000000000E+00  0.00000000000E+00 -0.81333131015E+03  0.81333230169E+03  0.12699999809E+01 0. -1.
    10030    2    1    2    0    0  0.00000000000E+00  0.00000000000E+00 -0.42687765322E+03  0.11997880454E+04  0.11212791013E+04 0.  0.
        5    1    3    3  502    0 -0.12671574346E+03  0.34402871079E+03  0.24038222205E+03  0.43842711613E+03  0.46999998093E+01 0.  1.
       -5    1    3    3    0  502  0.12671574346E+03 -0.34402871079E+03 -0.66725987527E+03  0.76136092928E+03  0.46999998093E+01 0. -1.
</event>
<event>
 5   0  0.5500363E-03  0.1088461E+04  0.7818609E-02  0.9216512E-01
       -2   -1    0    0    0  501  0.00000000000E+00  0.00000000000E+00  0.59063945413E+03  0.59063945414E+03  0.25500000920E-02 0.  1.
        2   -1    0    0  501    0  0.00000000000E+00  0.00000000000E+00 -0.50146817672E+03  0.50146817673E+03  0.25500000920E-02 0. -1.
    10030    2    1    2    0    0  0.00000000000E+00  0.00000000000E+00  0.89171277413E+02  0.10921076309E+04  0.10884610975E+04 0.  0.
        3    1    3    3  502    0  0.20304466741E+03  0.28229796443E+03  0.46463792490E+03  0.58035134974E+03  0.10100000352E+00 0.  1.
       -3    1    3    3    0  502 -0.20304466741E+03 -0.28229796443E+03 -0.37546664749E+03  0.51175628112E+03  0.10100000352E+00 0. -1.
</event>
<event>
 5   0  0.5500363E-03  0.1085064E+04  0.7818609E-02  0.9219873E-01
        2   -1    0    0  501    0  0.00000000000E+00  0.00000000000E+00  0.11773667016E+04  0.11773667016E+04  0.25500000920E-02 0.  1.
       -2   -1    0    0    0  501  0.00000000000E+00  0.00000000000E+00 -0.24999955368E+03  0.24999955369E+03  0.25500000920E-02 0. -1.
    10030    2    1    2    0    0  0.00000000000E+00  0.00000000000E+00  0.92736714794E+03  0.14273662553E+04  0.10850643298E+04 0.  0.
        3    1    3    3  502    0  0.59066758093E+02 -0.14375747145E+02  0.11728722814E+04  0.11744466539E+04  0.10100000352E+00 0.  1.
       -3    1    3    3    0  502 -0.59066758093E+02  0.14375747145E+02 -0.24550513350E+03  0.25291960144E+03  0.10100000352E+00 0. -1.
</event>
<event>
 5   0  0.5946359E-03  0.1094904E+04  0.7818609E-02  0.9210173E-01
       -2   -1    0    0    0  501  0.00000000000E+00  0.00000000000E+00  0.75612861704E+03  0.75612861705E+03  0.25500000920E-02 0. -1.
        2   -1    0    0  501    0  0.00000000000E+00  0.00000000000E+00 -0.39636597337E+03  0.39636597338E+03  0.25500000920E-02 0.  1.
    10030    2    1    2    0    0  0.00000000000E+00  0.00000000000E+00  0.35976264368E+03  0.11524945904E+04  0.10949039324E+04 0.  0.
        4    1    3    3  502    0  0.39254320106E+02  0.13391786874E+03  0.73709014059E+03  0.75018556736E+03  0.12699999809E+01 0. -1.
       -4    1    3    3    0  502 -0.39254320106E+02 -0.13391786874E+03 -0.37732749691E+03  0.40230902307E+03  0.12699999809E+01 0.  1.
</event>
<event>
 5   0  0.3215352E-03  0.1112813E+04  0.7818609E-02  0.9192793E-01
        1   -1    0    0  501    0  0.00000000000E+00  0.00000000000E+00  0.50548643355E+03  0.50548643357E+03  0.50400001928E-02 0. -1.
       -1   -1    0    0    0  501  0.00000000000E+00  0.00000000000E+00 -0.61245590184E+03  0.61245590186E+03  0.50400001928E-02 0.  1.
    10030    2    1    2    0    0  0.00000000000E+00  0.00000000000E+00 -0.10696946829E+03  0.11179423354E+04  0.11128129215E+04 0.  0.
        1    1    3    3  502    0  0.11293670795E+03 -0.41415782330E+03  0.30213386812E+03  0.52494407026E+03  0.50400001928E-02 0. -1.
       -1    1    3    3    0  502 -0.11293670795E+03  0.41415782330E+03 -0.40910333642E+03  0.59299826518E+03  0.50400001928E-02 0.  1.
</event>
<event>
 5   0  0.5946359E-03  0.1117021E+04  0.7818609E-02  0.9188759E-01
       -2   -1    0    0    0  501  0.00000000000E+00  0.00000000000E+00  0.30206386853E+03  0.30206386854E+03  0.25500000920E-02 0. -1.
        2   -1    0    0  501    0  0.00000000000E+00  0.00000000000E+00 -0.10326762732E+04  0.10326762732E+04  0.25500000920E-02 0.  1.
    10030    2    1    2    0    0  0.00000000000E+00  0.00000000000E+00 -0.73061240466E+03  0.13347401417E+04  0.11170213785E+04 0.  0.
        4    1    3    3  502    0  0.23632821979E+03 -0.36396694849E+03 -0.78541459239E+03  0.89732973978E+03  0.12699999809E+01 0.  1.
       -4    1    3    3    0  502 -0.23632821979E+03  0.36396694849E+03  0.54802187722E+02  0.43741040196E+03  0.12699999809E+01 0. -1.
</event>
<event>
 5   0  0.3328741E-03  0.1096298E+04  0.7818609E-02  0.9208807E-01
        1   -1    0    0  501    0  0.00000000000E+00  0.00000000000E+00  0.12567151311E+04  0.12567151311E+04  0.50400001928E-02 0.  1.
       -1   -1    0    0    0  501  0.00000000000E+00  0.00000000000E+00 -0.23908956220E+03  0.23908956225E+03  0.50400001928E-02 0. -1.
    10030    2    1    2    0    0  0.00000000000E+00  0.00000000000E+00  0.10176255689E+04  0.14958046934E+04  0.10962982633E+04 0.  0.
        3    1    3    3  502    0 -0.11753073095E+03 -0.44077681657E+03  0.94134652716E+02  0.46578859775E+03  0.10100000352E+00 0. -1.
       -3    1    3    3    0  502  0.11753073095E+03  0.44077681657E+03  0.92349091620E+03  0.10300160956E+04  0.10100000352E+00 0.  1.
</event>
<event>
 5   0  0.5500363E-03  0.1101579E+04  0.7818609E-02  0.9203654E-01
       -2   -1    0    0    0  501  0.00000000000E+00  0.00000000000E+00  0.26457194883E+03  0.26457194884E+03  0.25500000920E-02 0. -1.
        2   -1    0    0  501    0  0.00000000000E+00  0.00000000000E+00 -0.11466406274E+04  0.11466406274E+04  0.25500000920E-02 0.  1.
    10030    2    1    2    0    0  0.00000000000E+00  0.00000000000E+00 -0.88206867853E+03  0.14112125762E+04  0.11015787678E+04 0.  0.
        3    1    3    3  502    0  0.20800551322E+02 -0.55027122579E+03 -0.42599319852E+03  0.69620492691E+03  0.10100000352E+00 0.  1.
       -3    1    3    3    0  502 -0.20800551322E+02  0.55027122579E+03 -0.45607548002E+03  0.71500764929E+03  0.10100000352E+00 0. -1.
</event>
<event>
 5   0  0.5500363E-03  0.1098524E+04  0.7818609E-02  0.9206631E-01
       -2   -1    0    0    0  501  0.00000000000E+00  0.00000000000E+00  0.26038585761E+03  0.26038585762E+03  0.25500000920E-02 0. -1.
        2   -1    0    0  501    0  0.00000000000E+00  0.00000000000E+00 -0.11586224518E+04  0.11586224518E+04  0.25500000920E-02 0.  1.
    10030    2    1    2    0    0  0.00000000000E+00  0.00000000000E+00 -0.89823659423E+03  0.14190083095E+04  0.10985242843E+04 0.  0.
        3    1    3    3  502    0 -0.43107059933E+03 -0.15296746375E+03 -0.84191783775E+03  0.95814746376E+03  0.10100000352E+00 0.  1.
       -3    1    3    3    0  502  0.43107059933E+03  0.15296746375E+03 -0.56318756479E+02  0.46086084571E+03  0.10100000352E+00 0. -1.
</event>
<event>
 5   0  0.3316784E-03  0.1098168E+04  0.7818609E-02  0.9206979E-01
       -1   -1    0    0    0  501  0.00000000000E+00  0.00000000000E+00  0.25081522924E+03  0.25081522929E+03  0.50400001928E-02 0.  1.
        1   -1    0    0  501    0  0.00000000000E+00  0.00000000000E+00 -0.12020540468E+04  0.12020540468E+04  0.50400001928E-02 0. -1.
    10030    2    1    2    0    0  0.00000000000E+00  0.00000000000E+00 -0.95123881757E+03  0.14528692761E+04  0.10981684048E+04 0.  0.
        4    1    3    3  502    0  0.89539006752E-01  0.45134034516E+03 -0.88932453503E+03  0.99730028411E+03  0.12699999809E+01 0. -1.
       -4    1    3    3    0  502 -0.89539006752E-01 -0.45134034516E+03 -0.61914282541E+02  0.45556899199E+03  0.12699999809E+01 0.  1.
</event>
<event>
 5   0  0.3215352E-03  0.1007001E+04  0.7818609E-02  0.9300899E-01
       -1   -1    0    0    0  501  0.00000000000E+00  0.00000000000E+00  0.14561564829E+03  0.14561564838E+03  0.50400001928E-02 0.  1.
        1   -1    0    0  501    0  0.00000000000E+00  0.00000000000E+00 -0.17409736140E+04  0.17409736140E+04  0.50400001928E-02 0. -1.
    10030    2    1    2    0    0  0.00000000000E+00  0.00000000000E+00 -0.15953579657E+04  0.18865892624E+04  0.10070014926E+04 0.  0.
        1    1    3    3  502    0  0.15290695087E+03  0.42974819660E+03 -0.39827794647E+03  0.60554881783E+03  0.50400001928E-02 0.  1.
       -1    1    3    3    0  502 -0.15290695087E+03 -0.42974819660E+03 -0.11970800192E+04  0.12810404445E+04  0.50400001928E-02 0. -1.
</event>
<event>
 5   0  0.5723194E-03  0.1013675E+04  0.7818609E-02  0.9293672E-01
       -2   -1    0    0    0  501  0.00000000000E+00  0.00000000000E+00  0.59476772641E+03  0.59476772641E+03  0.25500000920E-02 0.  1.
        2   -1    0    0  501    0  0.00000000000E+00  0.00000000000E+00 -0.43190666833E+03  0.43190666834E+03  0.25500000920E-02 0. -1.
    10030    2    1    2    0    0  0.00000000000E+00  0.00000000000E+00  0.16286105808E+03  0.10266743948E+04  0.10136747943E+04 0.  0.
        1    1    3    3  502    0  0.31687209258E+03  0.14908479831E+03 -0.28966963360E+03  0.45446968744E+03  0.50400001928E-02 0. -1.
       -1    1    3    3    0  502 -0.31687209258E+03 -0.14908479831E+03  0.45253069168E+03  0.57220470732E+03  0.50400001928E-02 0.  1.
</event>
<event>
 5   0  0.3316784E-03  0.1170488E+04  0.7818609E-02  0.9139088E-01
       -1   -1    0    0    0  501  0.00000000000E+00  0.00000000000E+00  0.34232933387E+03  0.34232933391E+03  0.50400001928E-02 0.  1.
        1   -1    0    0  501    0  0.00000000000E+00  0.00000000000E+00 -0.10005292821E+04  0.10005292821E+04  0.50400001928E-02 0. -1.
    10030    2    1    2    0    0  0.00000000000E+00  0.00000000000E+00 -0.65819994823E+03  0.13428586160E+04  0.11704879712E+04 0.  0.
        4    1    3    3  502    0 -0.48828118339E+02 -0.22066808904E+03 -0.94844221486E+03  0.97499889153E+03  0.12699999809E+01 0. -1.
       -4    1    3    3    0  502  0.48828118339E+02  0.22066808904E+03  0.29024226663E+03  0.36785972449E+03  0.12699999809E+01 0.  1.
</event>
<event>
 5   0  0.5941585E-03  0.1092157E+04  0.7818609E-02  0.9212870E-01
       -2   -1    0    0    0  501  0.00000000000E+00  0.00000000000E+00  0.18848262845E+03  0.18848262846E+03  0.25500000920E-02 0. -1.
        2   -1    0    0  501    0  0.00000000000E+00  0.00000000000E+00 -0.15821186777E+04  0.15821186777E+04  0.25500000920E-02 0.  1.
    10030    2    1    2    0    0  0.00000000000E+00  0.00000000000E+00 -0.13936360493E+04  0.17706013062E+04  0.10921572907E+04 0.  0.
        5    1    3    3  502    0  0.85326821827E+02 -0.53005171757E+03 -0.53515047551E+03  0.75805251221E+03  0.46999998093E+01 0. -1.
       -5    1    3    3    0  502 -0.85326821827E+02  0.53005171757E+03 -0.85848557376E+03  0.10125487940E+04  0.46999998093E+01 0.  1.
</event>
<event>
 5   0  0.3320192E-03  0.1096404E+04  0.7818609E-02  0.9208703E-01
        1   -1    0    0  501    0  0.00000000000E+00  0.00000000000E+00  0.42666143766E+03  0.42666143769E+03  0.50400001928E-02 0.  1.
       -1   -1    0    0    0  501  0.00000000000E+00  0.00000000000E+00 -0.70436566096E+03  0.70436566098E+03  0.50400001928E-02 0. -1.
    10030    2    1    2    0    0  0.00000000000E+00  0.00000000000E+00 -0.27770422330E+03  0.11310270987E+04  0.10964044246E+04 0.  0.
        2    1    3    3  502    0  0.32033642099E+03  0.39488909946E+03  0.72490183561E+02  0.51362208890E+03  0.25500000920E-02 0. -1.
       -2    1    3    3    0  502 -0.32033642099E+03 -0.39488909946E+03 -0.35019440686E+03  0.61740500977E+03  0.25500000920E-02 0.  1.
</event>
<event>
 5   0  0.3241189E-03  0.1031446E+04  0.7818609E-02  0.9274713E-01
       -1   -1    0    0    0  501  0.00000000000E+00  0.00000000000E+00  0.52373624400E+03  0.52373624402E+03  0.50400001928E-02 0. -1.
        1   -1    0    0  501    0  0.00000000000E+00  0.00000000000E+00 -0.50783206419E+03  0.50783206421E+03  0.50400001928E-02 0.  1.
    10030    2    1    2    0    0  0.00000000000E+00  0.00000000000E+00  0.15904179813E+02  0.10315683082E+04  0.10314456998E+04 0.  0.
        5    1    3    3  502    0 -0.26387167457E+03  0.36094462678E+02 -0.43370757917E+03  0.50897487669E+03  0.46999998093E+01 0.  1.
       -5    1    3    3    0  502  0.26387167457E+03 -0.36094462678E+02  0.44961175899E+03  0.52259343154E+03  0.46999998093E+01 0. -1.
</event>
<event>
 5   0  0.3215352E-03  0.1110717E+04  0.7818609E-02  0.9194809E-01
       -1   -1    0    0    0  501  0.00000000000E+00  0.00000000000E+00  0.37933404879E+03  0.37933404882E+03  0.50400001928E-02 0.  1.
        1   -1    0    0  501    0  0.00000000000E+00  0.00000000000E+00 -0.81306447414E+03  0.81306447416E+03  0.50400001928E-02 0. -1.
    10030    2    1    2    0    0  0.00000000000E+00  0.00000000000E+00 -0.43373042536E+03  0.11923985230E+04  0.11107169557E+04 0.  0.
        1    1    3    3  502    0  0.28231849266E+03  0.39749105503E+03  0.68623979671E+02  0.49235365413E+03  0.50400001928E-02 0.  1.
       -1    1    3    3    0  502 -0.28231849266E+03 -0.39749105503E+03 -0.50235440503E+03  0.70004486885E+03  0.50400001928E-02 0. -1.
</event>
<event>
 5   0  0.5941585E-03  0.1123194E+04  0.7818609E-02  0.9182876E-01
        2   -1    0    0  501    0  0.00000000000E+00  0.00000000000E+00  0.35394751476E+03  0.35394751477E+03  0.25500000920E-02 0.  1.
       -2   -1    0    0    0  501  0.00000000000E+00  0.00000000000E+00 -0.89106798222E+03  0.89106798222E+03  0.25500000920E-02 0. -1.
    10030    2    1    2    0    0  0.00000000000E+00  0.00000000000E+00 -0.53712046746E+03  0.12450154970E+04  0.11231941912E+04 0.  0.
        5    1    3    3  502    0 -0.25223204512E+03 -0.50070543081E+03 -0.30434605763E+03  0.63794635027E+03  0.46999998093E+01 0.  1.
       -5    1    3    3    0  502  0.25223204512E+03  0.50070543081E+03 -0.23277440983E+03  0.60706914672E+03  0.46999998093E+01 0. -1.
</event>
<event>
 5   0  0.3320192E-03  0.1121088E+04  0.7818609E-02  0.9184879E-01
       -1   -1    0    0    0  501  0.00000000000E+00  0.00000000000E+00  0.35053645380E+03  0.35053645383E+03  0.50400001928E-02 0. -1.
        1   -1    0    0  501    0  0.00000000000E+00  0.00000000000E+00 -0.89636737367E+03  0.89636737368E+03  0.50400001928E-02 0.  1.
    10030    2    1    2    0    0  0.00000000000E+00  0.00000000000E+00 -0.54583091987E+03  0.12469038275E+04  0.11210877584E+04 0.  0.
        2    1    3    3  502    0  0.33855755115E+03  0.44398916355E+03 -0.21773009251E+03  0.59929457363E+03  0.25500000920E-02 0.  1.
       -2    1    3    3    0  502 -0.33855755115E+03 -0.44398916355E+03 -0.32810082737E+03  0.64760925389E+03  0.25500000920E-02 0. -1.
</event>
<event>
 5   0  0.3328741E-03  0.1078481E+04  0.7818609E-02  0.9226423E-01
        1   -1    0    0  501    0  0.00000000000E+00  0.00000000000E+00  0.42724582650E+03  0.42724582653E+03  0.50400001928E-02 0.  1.
       -1   -1    0    0    0  501  0.00000000000E+00  0.00000000000E+00 -0.68059236195E+03  0.68059236196E+03  0.50400001928E-02 0. -1.
    10030    2    1    2    0    0  0.00000000000E+00  0.00000000000E+00 -0.25334653545E+03  0.11078381885E+04  0.10784808690E+04 0.  0.
        3    1    3    3  502    0 -0.29098070194E+03  0.38562674847E+03  0.11943670166E+03  0.49763731165E+03  0.10100000352E+00 0.  1.
       -3    1    3    3    0  502  0.29098070194E+03 -0.38562674847E+03 -0.37278323710E+03  0.61020087685E+03  0.10100000352E+00 0. -1.
</event>
<event>
 5   0  0.5500363E-03  0.1096076E+04  0.7818609E-02  0.9209025E-01
       -2   -1    0    0    0  501  0.00000000000E+00  0.00000000000E+00  0.19154847002E+03  0.19154847004E+03  0.25500000920E-02 0. -1.
        2   -1    0    0  501    0  0.00000000000E+00  0.00000000000E+00 -0.15679874789E+04  0.15679874789E+04  0.25500000920E-02 0.  1.
    10030    2    1    2    0    0  0.00000000000E+00  0.00000000000E+00 -0.13764390088E+04  0.17595359489E+04  0.10960759145E+04 0.  0.
        3    1    3    3  502    0 -0.19145245089E+03  0.42741982554E+03 -0.11451081072E+04  0.12371799932E+04  0.10100000352E+00 0.  1.
       -3    1    3    3    0  502  0.19145245089E+03 -0.42741982554E+03 -0.23133090167E+03  0.52235595573E+03  0.10100000352E+00 0. -1.
</event>
<event>
 5   0  0.5941585E-03  0.1103969E+04  0.7818609E-02  0.9201332E-01
        2   -1    0    0  501    0  0.00000000000E+00  0.00000000000E+00  0.13542910032E+04  0.13542910032E+04  0.25500000920E-02 0. -1.
       -2   -1    0    0    0  501  0.00000000000E+00  0.00000000000E+00 -0.22497900225E+03  0.22497900226E+03  0.25500000920E-02 0.  1.
    10030    2    1    2    0    0  0.00000000000E+00  0.00000000000E+00  0.11293120009E+04  0.15792700054E+04  0.11039692725E+04 0.  0.
        5    1    3    3  502    0  0.43507136498E+02  0.91877577814E+02  0.13407549593E+04  0.13446115837E+04  0.46999998093E+01 0. -1.
       -5    1    3    3    0  502 -0.43507136498E+02 -0.91877577814E+02 -0.21144295837E+03  0.23465842170E+03  0.46999998093E+01 0.  1.
</event>
<event>
 5   0  0.5723194E-03  0.1083301E+04  0.7818609E-02  0.9221622E-01
        2   -1    0    0  501    0  0.00000000000E+00  0.00000000000E+00  0.85819091798E+03  0.85819091798E+03  0.25500000920E-02 0.  1.
       -2   -1    0    0    0  501  0.00000000000E+00  0.00000000000E+00 -0.34186488365E+03  0.34186488366E+03  0.25500000920E-02 0. -1.
    10030    2    1    2    0    0  0.00000000000E+00  0.00000000000E+00  0.51632603433E+03  0.12000558016E+04  0.10833011369E+04 0.  0.
        1    1    3    3  502    0 -0.19957391010E+03 -0.33965236136E+03 -0.15364375345E+03  0.42284734264E+03  0.50400001928E-02 0. -1.
       -1    1    3    3    0  502  0.19957391010E+03  0.33965236136E+03  0.66996978779E+03  0.77720845900E+03  0.50400001928E-02 0.  1.
</event>
<event>
 5   0  0.3316784E-03  0.1089223E+04  0.7818609E-02  0.9215759E-01
       -1   -1    0    0    0  501  0.00000000000E+00  0.00000000000E+00  0.75552246865E+03  0.75552246867E+03  0.50400001928E-02 0. -1.
        1   -1    0    0  501    0  0.00000000000E+00  0.00000000000E+00 -0.39257860181E+03  0.39257860184E+03  0.50400001928E-02 0.  1.
    10030    2    1    2    0    0  0.00000000000E+00  0.00000000000E+00  0.36294386684E+03  0.11481010705E+04  0.10892234930E+04 0.  0.
        4    1    3    3  502    0 -0.26864187900E+03  0.31628200110E+03  0.55323743348E+03  0.69157503864E+03  0.12699999809E+01 0. -1.
       -4    1    3    3    0  502  0.26864187900E+03 -0.31628200110E+03 -0.19029356664E+03  0.45652603187E+03  0.12699999809E+01 0.  1.
</event>
<event>
 5   0  0.3328741E-03  0.1097461E+04  0.7818609E-02  0.9207670E-01
        1   -1    0    0  501    0  0.00000000000E+00  0.00000000000E+00  0.48826799414E+03  0.48826799417E+03  0.50400001928E-02 0. -1.
       -1   -1    0    0    0  501  0.00000000000E+00  0.00000000000E+00 -0.61668011643E+03  0.61668011645E+03  0.50400001928E-02 0.  1.
    10030    2    1    2    0    0  0.00000000000E+00  0.00000000000E+00 -0.12841212228E+03  0.11049481106E+04  0.10974610034E+04 0.  0.
        3    1    3    3  502    0  0.40610047357E+03 -0.21852565629E+03  0.23520142665E+03  0.51767825760E+03  0.10100000352E+00 0. -1.
       -3    1    3    3    0  502 -0.40610047357E+03  0.21852565629E+03 -0.36361354894E+03  0.58726985302E+03  0.10100000352E+00 0.  1.
</event>
<event>
 5   0  0.3215352E-03  0.1096089E+04  0.7818609E-02  0.9209012E-01
       -1   -1    0    0    0  501  0.00000000000E+00  0.00000000000E+00  0.20867325514E+03  0.20867325520E+03  0.50400001928E-02 0.  1.
        1   -1    0    0  501    0  0.00000000000E+00  0.00000000000E+00 -0.14393447894E+04  0.14393447894E+04  0.50400001928E-02 0. -1.
    10030    2    1    2    0    0  0.00000000000E+00  0.00000000000E+00 -0.12306715343E+04  0.16480180446E+04  0.10960889791E+04 0.  0.
        1    1    3    3  502    0  0.15029471451E+02  0.11493563307E+03  0.19003163692E+03  0.22259404264E+03  0.50400001928E-02 0.  1.
       -1    1    3    3    0  502 -0.15029471451E+02 -0.11493563307E+03 -0.14207031712E+04  0.14254240020E+04  0.50400001928E-02 0. -1.
</event>
<event>
 5   0  0.5627232E-03  0.1085785E+04  0.7818609E-02  0.9219159E-01
        2   -1    0    0  501    0  0.00000000000E+00  0.00000000000E+00  0.73026298572E+03  0.73026298572E+03  0.25500000920E-02 0. -1.
       -2   -1    0    0    0  501  0.00000000000E+00  0.00000000000E+00 -0.40359737602E+03  0.40359737603E+03  0.25500000920E-02 0.  1.
    10030    2    1    2    0    0  0.00000000000E+00  0.00000000000E+00  0.32666560969E+03  0.11338603618E+04  0.10857849232E+04 0.  0.
        2    1    3    3  502    0  0.10074714853E+03  0.12511100878E+02 -0.39359665479E+03  0.40647858769E+03  0.25500000920E-02 0.  1.
       -2    1    3    3    0  502 -0.10074714853E+03 -0.12511100878E+02  0.72026226449E+03  0.72738177406E+03  0.25500000920E-02 0. -1.
</event>
<event>
 5   0  0.3215352E-03  0.1056821E+04  0.7818609E-02  0.9248330E-01
       -1   -1    0    0    0  501  0.00000000000E+00  0.00000000000E+00  0.16773177779E+03  0.16773177787E+03  0.50400001928E-02 0. -1.
        1   -1    0    0  501    0  0.00000000000E+00  0.00000000000E+00 -0.16646690617E+04  0.16646690617E+04  0.50400001928E-02 0.  1.
    10030    2    1    2    0    0  0.00000000000E+00  0.00000000000E+00 -0.14969372839E+04  0.18324008395E+04  0.10568214631E+04 0.  0.
        1    1    3    3  502    0  0.17462668439E+03 -0.47168761455E+03 -0.46763255890E+03  0.68677790790E+03  0.50400001928E-02 0. -1.
       -1    1    3    3    0  502 -0.17462668439E+03  0.47168761455E+03 -0.10293047250E+04  0.11456229316E+04  0.50400001928E-02 0.  1.
</event>
<event>
 5   0  0.2185750E-03  0.1141157E+04  0.7818609E-02  0.9165980E-01
        4   -1    0    0  501    0  0.00000000000E+00  0.00000000000E+00  0.77109752176E+03  0.77109856761E+03  0.12699999809E+01 0.  1.
       -4   -1    0    0    0  501  0.00000000000E+00  0.00000000000E+00 -0.42220123841E+03  0.42220314851E+03  0.12699999809E+01 0. -1.
    10030    2    1    2    0    0  0.00000000000E+00  0.00000000000E+00  0.34889628335E+03  0.11933017161E+04  0.11411574690E+04 0.  0.
        5    1    3    3  502    0 -0.35575224306E+03 -0.35420934553E+03 -0.10907594581E+03  0.51375438768E+03  0.46999998093E+01 0.  1.
       -5    1    3    3    0  502  0.35575224306E+03  0.35420934553E+03  0.45797222917E+03  0.67954732844E+03  0.46999998093E+01 0. -1.
</event>
<event>
 5   0  0.3316784E-03  0.1076973E+04  0.7818609E-02  0.9227931E-01
        1   -1    0    0  501    0  0.00000000000E+00  0.00000000000E+00  0.93423853960E+03  0.93423853961E+03  0.50400001928E-02 0.  1.
       -1   -1    0    0    0  501  0.00000000000E+00  0.00000000000E+00 -0.31037837907E+03  0.31037837911E+03  0.50400001928E-02 0. -1.
    10030    2    1    2    0    0  0.00000000000E+00  0.00000000000E+00  0.62386016053E+03  0.12446169187E+04  0.10769725040E+04 0.  0.
        4    1    3    3  502    0  0.31620370588E+03 -0.42854820887E+03  0.40385779575E+03  0.66838692614E+03  0.12699999809E+01 0. -1.
       -4    1    3    3    0  502 -0.31620370588E+03  0.42854820887E+03  0.22000236478E+03  0.57622999258E+03  0.12699999809E+01 0.  1.
</event>
<event>
 5   0  0.5500363E-03  0.1099617E+04  0.7818609E-02  0.9205565E-01
       -2   -1    0    0    0  501  0.00000000000E+00  0.00000000000E+00  0.38195265270E+03  0.38195265271E+03  0.25500000920E-02 0.  1.
        2   -1    0    0  501    0  0.00000000000E+00  0.00000000000E+00 -0.79143196387E+03  0.79143196388E+03  0.25500000920E-02 0. -1.
    10030    2    1    2    0    0  0.00000000000E+00  0.00000000000E+00 -0.40947931117E+03  0.11733846166E+04  0.10996172753E+04 0.  0.
        3    1    3    3  502    0  0.35230013981E+03 -0.21510375056E+03  0.18281117156E+03  0.45144761231E+03  0.10100000352E+00 0.  1.
       -3    1    3    3    0  502 -0.35230013981E+03  0.21510375056E+03 -0.59229048273E+03  0.72193700428E+03  0.10100000352E+00 0. -1.
</event>
<event>
 5   0  0.5500363E-03  0.1101971E+04  0.7818609E-02  0.9203273E-01
       -2   -1    0    0    0  501  0.00000000000E+00  0.00000000000E+00  0.70476171490E+03  0.70476171491E+03  0.25500000920E-02 0.  1.
        2   -1    0    0  501    0  0.00000000000E+00  0.00000000000E+00 -0.43076265054E+03  0.43076265055E+03  0.25500000920E-02 0. -1.
    10030    2    1    2    0    0  0.00000000000E+00  0.00000000000E+00  0.27399906436E+03  0.11355243655E+04  0.11019710056E+04 0.  0.
        3    1    3    3  502    0 -0.20137263398E+03 -0.27594724308E+03  0.58246707158E+03  0.67525233680E+03  0.10100000352E+00 0.  1.
       -3    1    3    3    0  502  0.20137263398E+03  0.27594724308E+03 -0.30846800722E+03  0.46027202865E+03  0.10100000352E+00 0. -1.
</event>
<event>
 5   0  0.3320192E-03  0.1096698E+04  0.7818609E-02  0.9208416E-01
       -1   -1    0    0    0  501  0.00000000000E+00  0.00000000000E+00  0.41577970227E+03  0.41577970230E+03  0.50400001928E-02 0. -1.
        1   -1    0    0  501    0  0.00000000000E+00  0.00000000000E+00 -0.72318698228E+03  0.72318698230E+03  0.50400001928E-02 0.  1.
    10030    2    1    2    0    0  0.00000000000E+00  0.00000000000E+00 -0.30740728001E+03  0.11389666846E+04  0.10966977126E+04 0.  0.
        2    1    3    3  502    0  0.16178080736E+03 -0.52229815758E+03 -0.19675084013E+03  0.58110178811E+03  0.25500000920E-02 0. -1.
       -2    1    3    3    0  502 -0.16178080736E+03  0.52229815758E+03 -0.11065643989E+03  0.55786489649E+03  0.25500000920E-02 0.  1.
</event>
<event>
 5   0  0.2185750E-03  0.1107946E+04  0.7818609E-02  0.9197481E-01
       -3   -1    0    0    0  501  0.00000000000E+00  0.00000000000E+00  0.92482669158E+03  0.92482669710E+03  0.10100000352E+00 0.  1.
        3   -1    0    0  501    0  0.00000000000E+00  0.00000000000E+00 -0.33183095710E+03  0.33183097247E+03  0.10100000352E+00 0. -1.
    10030    2    1    2    0    0  0.00000000000E+00  0.00000000000E+00  0.59299573448E+03  0.12566576696E+04  0.11079460986E+04 0.  0.
        1    1    3    3  502    0 -0.37648095786E+03  0.15948359876E+03 -0.12745452302E+03  0.42827279316E+03  0.50400001928E-02 0. -1.
       -1    1    3    3    0  502  0.37648095786E+03 -0.15948359876E+03  0.72045025750E+03  0.82838487641E+03  0.50400001928E-02 0.  1.
</event>
<event>
 5   0  0.3241189E-03  0.1098649E+04  0.7818609E-02  0.9206510E-01
        1   -1    0    0  501    0  0.00000000000E+00  0.00000000000E+00  0.60621578920E+03  0.60621578922E+03  0.50400001928E-02 0.  1.
       -1   -1    0    0    0  501  0.00000000000E+00  0.00000000000E+00 -0.49777191206E+03  0.49777191209E+03  0.50400001928E-02 0. -1.
    10030    2    1    2    0    0  0.00000000000E+00  0.00000000000E+00  0.10844387714E+03  0.11039877013E+04  0.10986486109E+04 0.  0.
        5    1    3    3  502    0  0.44005105454E+03 -0.32866085921E+03  0.62760973637E+02  0.55283263361E+03  0.46999998093E+01 0.  1.
       -5    1    3    3    0  502 -0.44005105454E+03  0.32866085921E+03  0.45682903503E+02  0.55115506770E+03  0.46999998093E+01 0. -1.
</event>
<event>
 5   0  0.5941585E-03  0.1101103E+04  0.7818609E-02  0.9204118E-01
        2   -1    0    0  501    0  0.00000000000E+00  0.00000000000E+00  0.17558212423E+04  0.17558212423E+04  0.25500000920E-02 0. -1.
       -2   -1    0    0    0  501  0.00000000000E+00  0.00000000000E+00 -0.17262963958E+03  0.17262963960E+03  0.25500000920E-02 0.  1.
    10030    2    1    2    0    0  0.00000000000E+00  0.00000000000E+00  0.15831916027E+04  0.19284508819E+04  0.11011026987E+04 0.  0.
        5    1    3    3  502    0  0.20811804589E+03  0.50870477933E+03  0.73646135772E+03  0.91896196600E+03  0.46999998093E+01 0.  1.
       -5    1    3    3    0  502 -0.20811804589E+03 -0.50870477933E+03  0.84673024502E+03  0.10094889159E+04  0.46999998093E+01 0. -1.
</event>
<event>
 5   0  0.5723194E-03  0.1098584E+04  0.7818609E-02  0.9206573E-01
       -2   -1    0    0    0  501  0.00000000000E+00  0.00000000000E+00  0.51148445110E+03  0.51148445111E+03  0.25500000920E-02 0.  1.
        2   -1    0    0  501    0  0.00000000000E+00  0.00000000000E+00 -0.58989453699E+03  0.58989453700E+03  0.25500000920E-02 0. -1.
    10030    2    1    2    0    0  0.00000000000E+00  0.00000000000E+00 -0.78410085893E+02  0.11013789881E+04  0.10985843317E+04 0.  0.
        1    1    3    3  502    0 -0.37669771171E+03 -0.79176490832E+02 -0.43205873866E+03  0.57865778867E+03  0.50400001928E-02 0. -1.
       -1    1    3    3    0  502  0.37669771171E+03  0.79176490832E+02  0.35364865276E+03  0.52272119943E+03  0.50400001928E-02 0.  1.
</event>
<event>
 5   0  0.2185750E-03  0.1030769E+04  0.7818609E-02  0.9275427E-01
        3   -1    0    0  501    0  0.00000000000E+00  0.00000000000E+00  0.39983712533E+03  0.39983713809E+03  0.10100000352E+00 0. -1.
       -3   -1    0    0    0  501  0.00000000000E+00  0.00000000000E+00 -0.66432299495E+03  0.66432300263E+03  0.10100000352E+00 0.  1.
    10030    2    1    2    0    0  0.00000000000E+00  0.00000000000E+00 -0.26448586962E+03  0.10641601407E+04  0.10307686597E+04 0.  0.
        2    1    3    3  502    0 -0.27368383159E+03  0.21304512650E+02 -0.58256623642E+03  0.64400321564E+03  0.25500000920E-02 0.  1.
       -2    1    3    3    0  502  0.27368383159E+03 -0.21304512650E+02  0.31808036681E+03  0.42015692507E+03  0.25500000920E-02 0. -1.
</event>
<event>
 5   0  0.3316784E-03  0.1034642E+04  0.7818609E-02  0.9271346E-01
       -1   -1    0    0    0  501  0.00000000000E+00  0.00000000000E+00  0.53039511989E+03  0.53039511991E+03  0.50400001928E-02 0.  1.
        1   -1    0    0  501    0  0.00000000000E+00  0.00000000000E+00 -0.50456871841E+03  0.50456871843E+03  0.50400001928E-02 0. -1.
    10030    2    1    2    0    0  0.00000000000E+00  0.00000000000E+00  0.25826401480E+02  0.10349638383E+04  0.10346415532E+04 0.  0.
        4    1    3    3  502    0 -0.12950020914E+03  0.16582360203E+02 -0.48781629036E+03  0.50498675713E+03  0.12699999809E+01 0. -1.
       -4    1    3    3    0  502  0.12950020914E+03 -0.16582360203E+02  0.51364269184E+03  0.52997708122E+03  0.12699999809E+01 0.  1.
</event>
<event>
 5   0  0.5946359E-03  0.1082870E+04  0.7818609E-02  0.9222050E-01
       -2   -1    0    0    0  501  0.00000000000E+00  0.00000000000E+00  0.33701215216E+03  0.33701215217E+03  0.25500000920E-02 0. -1.
        2   -1    0    0  501    0  0.00000000000E+00  0.00000000000E+00 -0.86985573431E+03  0.86985573432E+03  0.25500000920E-02 0.  1.
    10030    2    1    2    0    0  0.00000000000E+00  0.00000000000E+00 -0.53284358215E+03  0.12068678865E+04  0.10828701734E+04 0.  0.
        4    1    3    3  502    0  0.22552185274E+03 -0.39876768256E+03  0.55195609666E+02  0.46143682010E+03  0.12699999809E+01 0. -1.
       -4    1    3    3    0  502 -0.22552185274E+03  0.39876768256E+03 -0.58803919182E+03  0.74543106639E+03  0.12699999809E+01 0.  1.
</event>
<event>
 5   0  0.5500363E-03  0.1103767E+04  0.7818609E-02  0.9201528E-01
        2   -1    0    0  501    0  0.00000000000E+00  0.00000000000E+00  0.82415557121E+03  0.82415557121E+03  0.25500000920E-02 0.  1.
       -2   -1    0    0    0  501  0.00000000000E+00  0.00000000000E+00 -0.36956050340E+03  0.36956050341E+03  0.25500000920E-02 0. -1.
    10030    2    1    2    0    0  0.00000000000E+00  0.00000000000E+00  0.45459506781E+03  0.11937160746E+04  0.11037669098E+04 0.  0.
        3    1    3    3  502    0 -0.20068534583E+03 -0.20070186997E+03  0.73917566205E+03  0.79179322946E+03  0.10100000352E+00 0.  1.
       -3    1    3    3    0  502  0.20068534583E+03  0.20070186997E+03 -0.28458059425E+03  0.40192284516E+03  0.10100000352E+00 0. -1.
</event>
<event>
 5   0  0.5941585E-03  0.1007084E+04  0.7818609E-02  0.9300809E-01
       -2   -1    0    0    0  501  0.00000000000E+00  0.00000000000E+00  0.49303337426E+03  0.49303337427E+03  0.25500000920E-02 0.  1.
        2   -1    0    0  501    0  0.00000000000E+00  0.00000000000E+00 -0.51427459934E+03  0.51427459935E+03  0.25500000920E-02 0. -1.
    10030    2    1    2    0    0  0.00000000000E+00  0.00000000000E+00 -0.21241225076E+02  0.10073079736E+04  0.10070839906E+04 0.  0.
        5    1    3    3  502    0 -0.12812277443E+03 -0.20898449073E+01 -0.49767104240E+03  0.51392447813E+03  0.46999998093E+01 0. -1.
       -5    1    3    3    0  502  0.12812277443E+03  0.20898449073E+01  0.47642981733E+03  0.49338349548E+03  0.46999998093E+01 0.  1.
</event>
<event>
 5   0  0.5941585E-03  0.1090014E+04  0.7818609E-02  0.9214980E-01
        2   -1    0    0  501    0  0.00000000000E+00  0.00000000000E+00  0.13548380681E+04  0.13548380681E+04  0.25500000920E-02 0. -1.
       -2   -1    0    0    0  501  0.00000000000E+00  0.00000000000E+00 -0.21923829819E+03  0.21923829820E+03  0.25500000920E-02 0.  1.
    10030    2    1    2    0    0  0.00000000000E+00  0.00000000000E+00  0.11355997699E+04  0.15740763663E+04  0.10900135639E+04 0.  0.
        5    1    3    3  502    0 -0.52248277976E+03  0.83006617963E+02  0.37878444673E+03  0.65067511160E+03  0.46999998093E+01 0.  1.
       -5    1    3    3    0  502  0.52248277976E+03 -0.83006617963E+02  0.75681532314E+03  0.92340125466E+03  0.46999998093E+01 0. -1.
</event>
<event>
 5   0  0.5941585E-03  0.1074223E+04  0.7818609E-02  0.9230687E-01
       -2   -1    0    0    0  501  0.00000000000E+00  0.00000000000E+00  0.23196780335E+03  0.23196780336E+03  0.25500000920E-02 0.  1.
        2   -1    0    0  501    0  0.00000000000E+00  0.00000000000E+00 -0.12436576707E+04  0.12436576707E+04  0.25500000920E-02 0. -1.
    10030    2    1    2    0    0  0.00000000000E+00  0.00000000000E+00 -0.10116898673E+04  0.14756254740E+04  0.10742225803E+04 0.  0.
        5    1    3    3  502    0 -0.52755279955E+03 -0.45315221520E+02 -0.38220698725E+03  0.65304647363E+03  0.46999998093E+01 0. -1.
       -5    1    3    3    0  502  0.52755279955E+03  0.45315221520E+02 -0.62948288005E+03  0.82257900039E+03  0.46999998093E+01 0.  1.
</event>
<event>
 5   0  0.3241189E-03  0.1091806E+04  0.7818609E-02  0.9213216E-01
        1   -1    0    0  501    0  0.00000000000E+00  0.00000000000E+00  0.88077637969E+03  0.88077637970E+03  0.50400001928E-02 0. -1.
       -1   -1    0    0    0  501  0.00000000000E+00  0.00000000000E+00 -0.33834906693E+03  0.33834906697E+03  0.50400001928E-02 0.  1.
    10030    2    1    2    0    0  0.00000000000E+00  0.00000000000E+00  0.54242731276E+03  0.12191254467E+04  0.10918055986E+04 0.  0.
        5    1    3    3  502    0 -0.10428848884E+03 -0.15697976354E+03  0.84327436769E+03  0.86409055328E+03  0.46999998093E+01 0. -1.
       -5    1    3    3    0  502  0.10428848884E+03  0.15697976354E+03 -0.30084705493E+03  0.35503489339E+03  0.46999998093E+01 0.  1.
</event>
<event>
 5   0  0.5723194E-03  0.1086624E+04  0.7818609E-02  0.9218328E-01
       -2   -1    0    0    0  501  0.00000000000E+00  0.00000000000E+00  0.14757308619E+03  0.14757308621E+03  0.25500000920E-02 0.  1.
        2   -1    0    0  501    0  0.00000000000E+00  0.00000000000E+00 -0.20002841792E+04  0.20002841792E+04  0.25500000920E-02 0. -1.
    10030    2    1    2    0    0  0.00000000000E+00  0.00000000000E+00 -0.18527110930E+04  0.21478572654E+04  0.10866243318E+04 0.  0.
        1    1    3    3  502    0  0.68232753646E+02 -0.28736034934E+03 -0.18277443699E+04  0.18514537966E+04  0.50400001928E-02 0. -1.
       -1    1    3    3    0  502 -0.68232753646E+02  0.28736034934E+03 -0.24966723069E+02  0.29640346882E+03  0.50400001928E-02 0.  1.
</event>
<event>
 5   0  0.3320192E-03  0.1087588E+04  0.7818609E-02  0.9217375E-01
        1   -1    0    0  501    0  0.00000000000E+00  0.00000000000E+00  0.10275037023E+04  0.10275037023E+04  0.50400001928E-02 0. -1.
       -1   -1    0    0    0  501  0.00000000000E+00  0.00000000000E+00 -0.28779647148E+03  0.28779647152E+03  0.50400001928E-02 0.  1.
    10030    2    1    2    0    0  0.00000000000E+00  0.00000000000E+00  0.73970723078E+03  0.13153001738E+04  0.10875880470E+04 0.  0.
        2    1    3    3  502    0 -0.42613323024E+03  0.17705047306E+02  0.77784279332E+03  0.88709774531E+03  0.25500000920E-02 0. -1.
       -2    1    3    3    0  502  0.42613323024E+03 -0.17705047306E+02 -0.38135562543E+02  0.42820242847E+03  0.25500000920E-02 0.  1.
</event>
<event>
 5   0  0.3320192E-03  0.1132536E+04  0.7818609E-02  0.9174047E-01
       -1   -1    0    0    0  501  0.00000000000E+00  0.00000000000E+00  0.87884268575E+03  0.87884268577E+03  0.50400001928E-02 0. -1.
        1   -1    0    0  501    0  0.00000000000E+00  0.00000000000E+00 -0.36486586449E+03  0.36486586452E+03  0.50400001928E-02 0.  1.
    10030    2    1    2    0    0  0.00000000000E+00  0.00000000000E+00  0.51397682126E+03  0.12437085503E+04  0.11325364388E+04 0.  0.
        2    1    3    3  502    0 -0.15584492477E+02 -0.50059959432E+03 -0.33177648277E+02  0.50193982368E+03  0.25500000920E-02 0. -1.
       -2    1    3    3    0  502  0.15584492477E+02  0.50059959432E+03  0.54715446954E+03  0.74176872662E+03  0.25500000920E-02 0.  1.
</event>
<event>
 5   0  0.3328741E-03  0.1101537E+04  0.7818609E-02  0.9203695E-01
        1   -1    0    0  501    0  0.00000000000E+00  0.00000000000E+00  0.48237215968E+03  0.48237215970E+03  0.50400001928E-02 0. -1.
       -1   -1    0    0    0  501  0.00000000000E+00  0.00000000000E+00 -0.62886261308E+03  0.62886261310E+03  0.50400001928E-02 0.  1.
    10030    2    1    2    0    0  0.00000000000E+00  0.00000000000E+00 -0.14649045340E+03  0.11112347728E+04  0.11015367753E+04 0.  0.
        3    1    3    3  502    0  0.36909865348E+03  0.95205170803E+02  0.32780731929E+03  0.50274793816E+03  0.10100000352E+00 0. -1.
       -3    1    3    3    0  502 -0.36909865348E+03 -0.95205170803E+02 -0.47429777269E+03  0.60848683464E+03  0.10100000352E+00 0.  1.
</event>
<event>
 5   0  0.5723194E-03  0.1120628E+04  0.7818609E-02  0.9185316E-01
        2   -1    0    0  501    0  0.00000000000E+00  0.00000000000E+00  0.14776605657E+04  0.14776605657E+04  0.25500000920E-02 0. -1.
       -2   -1    0    0    0  501  0.00000000000E+00  0.00000000000E+00 -0.21246553272E+03  0.21246553273E+03  0.25500000920E-02 0.  1.
    10030    2    1    2    0    0  0.00000000000E+00  0.00000000000E+00  0.12651950330E+04  0.16901260984E+04  0.11206282868E+04 0.  0.
        1    1    3    3  502    0 -0.25810396591E+03 -0.46808543386E+03  0.88600261034E+03  0.10347571001E+04  0.50400001928E-02 0. -1.
       -1    1    3    3    0  502  0.25810396591E+03  0.46808543386E+03  0.37919242265E+03  0.65536899837E+03  0.50400001928E-02 0.  1.
</event>
<event>
 5   0  0.3316784E-03  0.1099024E+04  0.7818609E-02  0.9206144E-01
        1   -1    0    0  501    0  0.00000000000E+00  0.00000000000E+00  0.16127349412E+04  0.16127349412E+04  0.50400001928E-02 0. -1.
       -1   -1    0    0    0  501  0.00000000000E+00  0.00000000000E+00 -0.18723687814E+03  0.18723687821E+03  0.50400001928E-02 0.  1.
    10030    2    1    2    0    0  0.00000000000E+00  0.00000000000E+00  0.14254980631E+04  0.17999718194E+04  0.10990240320E+04 0.  0.
        4    1    3    3  502    0  0.28503530967E+03  0.12142531745E+03  0.14560475206E+04  0.14886454348E+04  0.12699999809E+01 0. -1.
       -4    1    3    3    0  502 -0.28503530967E+03 -0.12142531745E+03 -0.30549457557E+02  0.31132638458E+03  0.12699999809E+01 0.  1.
</event>
<event>
 5   0  0.3316784E-03  0.1097438E+04  0.7818609E-02  0.9207692E-01
       -1   -1    0    0    0  501  0.00000000000E+00  0.00000000000E+00  0.48116386401E+03  0.48116386403E+03  0.50400001928E-02 0.  1.
        1   -1    0    0  501    0  0.00000000000E+00  0.00000000000E+00 -0.62575927672E+03  0.62575927674E+03  0.50400001928E-02 0. -1.
    10030    2    1    2    0    0  0.00000000000E+00  0.00000000000E+00 -0.14459541272E+03  0.11069231408E+04  0.10974383838E+04 0.  0.
        4    1    3    3  502    0  0.20080621378E+02 -0.25412898371E+03 -0.56240500502E+03  0.61748342025E+03  0.12699999809E+01 0. -1.
       -4    1    3    3    0  502 -0.20080621378E+02  0.25412898371E+03  0.41780959230E+03  0.48943972053E+03  0.12699999809E+01 0.  1.
</event>
<event>
 5   0  0.3241189E-03  0.1115658E+04  0.7818609E-02  0.9190064E-01
        1   -1    0    0  501    0  0.00000000000E+00  0.00000000000E+00  0.32809468548E+03  0.32809468552E+03  0.50400001928E-02 0. -1.
       -1   -1    0    0    0  501  0.00000000000E+00  0.00000000000E+00 -0.94842449255E+03  0.94842449256E+03  0.50400001928E-02 0.  1.
    10030    2    1    2    0    0  0.00000000000E+00  0.00000000000E+00 -0.62032980707E+03  0.12765191781E+04  0.11156577174E+04 0.  0.
        5    1    3    3  502    0 -0.54836615046E+03 -0.87799362480E+02 -0.37002212040E+03  0.66734745268E+03  0.46999998093E+01 0.  1.
       -5    1    3    3    0  502  0.54836615046E+03  0.87799362480E+02 -0.25030768667E+03  0.60917172540E+03  0.46999998093E+01 0. -1.
</event>
<event>
 5   0  0.5627232E-03  0.1101755E+04  0.7818609E-02  0.9203483E-01
        2   -1    0    0  501    0  0.00000000000E+00  0.00000000000E+00  0.20788905148E+04  0.20788905148E+04  0.25500000920E-02 0.  1.
       -2   -1    0    0    0  501  0.00000000000E+00  0.00000000000E+00 -0.14597499184E+03  0.14597499186E+03  0.25500000920E-02 0. -1.
    10030    2    1    2    0    0  0.00000000000E+00  0.00000000000E+00  0.19329155230E+04  0.22248655067E+04  0.11017550108E+04 0.  0.
        2    1    3    3  502    0 -0.21347674619E+03  0.49931401993E+03  0.11535012038E+04  0.12749320919E+04  0.25500000920E-02 0.  1.
       -2    1    3    3    0  502  0.21347674619E+03 -0.49931401993E+03  0.77941431915E+03  0.94993341481E+03  0.25500000920E-02 0. -1.
</event>
<event>
 5   0  0.5946359E-03  0.1101161E+04  0.7818609E-02  0.9204061E-01
       -2   -1    0    0    0  501  0.00000000000E+00  0.00000000000E+00  0.25094277918E+03  0.25094277919E+03  0.25500000920E-02 0. -1.
        2   -1    0    0  501    0  0.00000000000E+00  0.00000000000E+00 -0.12079992982E+04  0.12079992982E+04  0.25500000920E-02 0.  1.
    10030    2    1    2    0    0  0.00000000000E+00  0.00000000000E+00 -0.95705651905E+03  0.14589420774E+04  0.11011606625E+04 0.  0.
        4    1    3    3  502    0 -0.53800738704E+03 -0.74136788132E+02 -0.59842283088E+03  0.80812109815E+03  0.12699999809E+01 0.  1.
       -4    1    3    3    0  502  0.53800738704E+03  0.74136788132E+02 -0.35863368818E+03  0.65082097927E+03  0.12699999809E+01 0. -1.
</event>
<event>
 5   0  0.5941585E-03  0.1099387E+04  0.7818609E-02  0.9205789E-01
       -2   -1    0    0    0  501  0.00000000000E+00  0.00000000000E+00  0.16605804812E+03  0.16605804814E+03  0.25500000920E-02 0. -1.
        2   -1    0    0  501    0  0.00000000000E+00  0.00000000000E+00 -0.18196228871E+04  0.18196228871E+04  0.25500000920E-02 0.  1.
    10030    2    1    2    0    0  0.00000000000E+00  0.00000000000E+00 -0.16535648390E+04  0.19856809353E+04  0.10993871474E+04 0.  0.
        5    1    3    3  502    0 -0.13546853126E+03  0.49318188494E+03 -0.11905401930E+04  0.12957577458E+04  0.46999998093E+01 0. -1.
       -5    1    3    3    0  502  0.13546853126E+03 -0.49318188494E+03 -0.46302464602E+03  0.68992318950E+03  0.46999998093E+01 0.  1.
</event>
<event>
 5   0  0.5500363E-03  0.1094767E+04  0.7818609E-02  0.9210307E-01
        2   -1    0    0  501    0  0.00000000000E+00  0.00000000000E+00  0.92838485531E+03  0.92838485532E+03  0.25500000920E-02 0.  1.
       -2   -1    0    0    0  501  0.00000000000E+00  0.00000000000E+00 -0.32274218026E+03  0.32274218027E+03  0.25500000920E-02 0. -1.
    10030    2    1    2    0    0  0.00000000000E+00  0.00000000000E+00  0.60564267505E+03  0.12511270356E+04  0.10947674682E+04 0.  0.
        3    1    3    3  502    0 -0.51638847249E+03  0.48482353203E+02  0.50280369569E+03  0.72237051414E+03  0.10100000352E+00 0.  1.
       -3    1    3    3    0  502  0.51638847249E+03 -0.48482353203E+02  0.10283897936E+03  0.52875652145E+03  0.10100000352E+00 0. -1.
</event>
<event>
 5   0  0.5941585E-03  0.1106930E+04  0.7818609E-02  0.9198463E-01
       -2   -1    0    0    0  501  0.00000000000E+00  0.00000000000E+00  0.23979057497E+03  0.23979057498E+03  0.25500000920E-02 0.  1.
        2   -1    0    0  501    0  0.00000000000E+00  0.00000000000E+00 -0.12774635819E+04  0.12774635819E+04  0.25500000920E-02 0. -1.
    10030    2    1    2    0    0  0.00000000000E+00  0.00000000000E+00 -0.10376730070E+04  0.15172541569E+04  0.11069303986E+04 0.  0.
        5    1    3    3  502    0  0.28877696127E+03 -0.28810260667E+03 -0.10315288088E+04  0.11092650805E+04  0.46999998093E+01 0. -1.
       -5    1    3    3    0  502 -0.28877696127E+03  0.28810260667E+03 -0.61441981511E+01  0.40798907645E+03  0.46999998093E+01 0.  1.
</event>
<event>
 5   0  0.5627232E-03  0.1106820E+04  0.7818609E-02  0.9198570E-01
        2   -1    0    0  501    0  0.00000000000E+00  0.00000000000E+00  0.22411535408E+04  0.22411535408E+04  0.25500000920E-02 0. -1.
       -2   -1    0    0    0  501  0.00000000000E+00  0.00000000000E+00 -0.13665391693E+03  0.13665391695E+03  0.25500000920E-02 0.  1.
    10030    2    1    2    0    0  0.00000000000E+00  0.00000000000E+00  0.21044996239E+04  0.23778074577E+04  0.11068196056E+04 0.  0.
        2    1    3    3  502    0  0.22034811928E+03  0.85703396084E+02  0.21271937636E+04  0.21402924272E+04  0.25500000920E-02 0. -1.
       -2    1    3    3    0  502 -0.22034811928E+03 -0.85703396084E+02 -0.22694139753E+02  0.23751503059E+03  0.25500000920E-02 0.  1.
</event>
<event>
 5   0  0.3215352E-03  0.1134244E+04  0.7818609E-02  0.9172444E-01
        1   -1    0    0  501    0  0.00000000000E+00  0.00000000000E+00  0.12755800028E+04  0.12755800029E+04  0.50400001928E-02 0.  1.
       -1   -1    0    0    0  501  0.00000000000E+00  0.00000000000E+00 -0.25214196726E+03  0.25214196731E+03  0.50400001928E-02 0. -1.
    10030    2    1    2    0    0  0.00000000000E+00  0.00000000000E+00  0.10234380356E+04  0.15277219702E+04  0.11342438033E+04 0.  0.
        1    1    3    3  502    0 -0.19353379449E+03  0.21665740088E+03 -0.14431155543E+03  0.32437876629E+03  0.50400001928E-02 0. -1.
       -1    1    3    3    0  502  0.19353379449E+03 -0.21665740088E+03  0.11677495910E+04  0.12033432039E+04  0.50400001928E-02 0.  1.
</event>
<event>
 5   0  0.3316784E-03  0.1085687E+04  0.7818609E-02  0.9219256E-01
       -1   -1    0    0    0  501  0.00000000000E+00  0.00000000000E+00  0.21057385921E+03  0.21057385927E+03  0.50400001928E-02 0.  1.
        1   -1    0    0  501    0  0.00000000000E+00  0.00000000000E+00 -0.13994098436E+04  0.13994098436E+04  0.50400001928E-02 0. -1.
    10030    2    1    2    0    0  0.00000000000E+00  0.00000000000E+00 -0.11888359844E+04  0.16099837029E+04  0.10856871215E+04 0.  0.
        4    1    3    3  502    0 -0.31280236737E+03  0.30014576486E+03 -0.10992222245E+03  0.44723294722E+03  0.12699999809E+01 0.  1.
       -4    1    3    3    0  502  0.31280236737E+03 -0.30014576486E+03 -0.10789137619E+04  0.11627507557E+04  0.12699999809E+01 0. -1.
</event>
<event>
 5   0  0.5946359E-03  0.1090112E+04  0.7818609E-02  0.9214884E-01
        2   -1    0    0  501    0  0.00000000000E+00  0.00000000000E+00  0.37474991453E+03  0.37474991454E+03  0.25500000920E-02 0. -1.
       -2   -1    0    0    0  501  0.00000000000E+00  0.00000000000E+00 -0.79275765609E+03  0.79275765609E+03  0.25500000920E-02 0.  1.
    10030    2    1    2    0    0  0.00000000000E+00  0.00000000000E+00 -0.41800774156E+03  0.11675075706E+04  0.10901116711E+04 0.  0.
        4    1    3    3  502    0 -0.28508742120E+02 -0.15835383639E+03  0.34873383719E+03  0.38406456226E+03  0.12699999809E+01 0. -1.
       -4    1    3    3    0  502  0.28508742120E+02  0.15835383639E+03 -0.76674157876E+03  0.78344300837E+03  0.12699999809E+01 0.  1.
</event>
<event>
 5   0  0.5946359E-03  0.1083448E+04  0.7818609E-02  0.9221477E-01
        2   -1    0    0  501    0  0.00000000000E+00  0.00000000000E+00  0.22753088297E+04  0.22753088297E+04  0.25500000920E-02 0.  1.
       -2   -1    0    0    0  501  0.00000000000E+00  0.00000000000E+00 -0.12897797772E+03  0.12897797775E+03  0.25500000920E-02 0. -1.
    10030    2    1    2    0    0  0.00000000000E+00  0.00000000000E+00  0.21463308520E+04  0.24042868075E+04  0.10834477036E+04 0.  0.
        4    1    3    3  502    0 -0.59191002076E+02 -0.41515316368E+03  0.18341846624E+04  0.18815128787E+04  0.12699999809E+01 0.  1.
       -4    1    3    3    0  502  0.59191002076E+02  0.41515316368E+03  0.31214618966E+03  0.52277392883E+03  0.12699999809E+01 0. -1.
</event>
<event>
 5   0  0.3320192E-03  0.1083855E+04  0.7818609E-02  0.9221072E-01
        1   -1    0    0  501    0  0.00000000000E+00  0.00000000000E+00  0.94692167570E+03  0.94692167571E+03  0.50400001928E-02 0.  1.
       -1   -1    0    0    0  501  0.00000000000E+00  0.00000000000E+00 -0.31014764664E+03  0.31014764668E+03  0.50400001928E-02 0. -1.
    10030    2    1    2    0    0  0.00000000000E+00  0.00000000000E+00  0.63677402906E+03  0.12570693224E+04  0.10838552104E+04 0.  0.
        2    1    3    3  502    0  0.51227110782E+02 -0.27720371227E+02 -0.30650670567E+03  0.31199198144E+03  0.25500000920E-02 0. -1.
       -2    1    3    3    0  502 -0.51227110782E+02  0.27720371227E+02  0.94328073473E+03  0.94507734095E+03  0.25500000920E-02 0.  1.
</event>
<event>
 5   0  0.3320192E-03  0.1111276E+04  0.7818609E-02  0.9194271E-01
       -1   -1    0    0    0  501  0.00000000000E+00  0.00000000000E+00  0.30541260622E+03  0.30541260626E+03  0.50400001928E-02 0.  1.
        1   -1    0    0  501    0  0.00000000000E+00  0.00000000000E+00 -0.10108731692E+04  0.10108731692E+04  0.50400001928E-02 0. -1.
    10030    2    1    2    0    0  0.00000000000E+00  0.00000000000E+00 -0.70546056301E+03  0.13162857755E+04  0.11112756799E+04 0.  0.
        2    1    3    3  502    0 -0.20022389669E+03  0.56659620065E+02 -0.96297809920E+03  0.98520390828E+03  0.25500000920E-02 0. -1.
       -2    1    3    3    0  502  0.20022389669E+03 -0.56659620065E+02  0.25751753618E+03  0.33108186722E+03  0.25500000920E-02 0.  1.
</event>
<event>
 5   0  0.5627232E-03  0.1093035E+04  0.7818609E-02  0.9212007E-01
        2   -1    0    0  501    0  0.00000000000E+00  0.00000000000E+00  0.39089870895E+03  0.39089870896E+03  0.25500000920E-02 0.  1.
       -2   -1    0    0    0  501  0.00000000000E+00  0.00000000000E+00 -0.76408955033E+03  0.76408955033E+03  0.25500000920E-02 0. -1.
    10030    2    1    2    0    0  0.00000000000E+00  0.00000000000E+00 -0.37319084138E+03  0.11549882593E+04  0.10930354409E+04 0.  0.
        2    1    3    3  502    0  0.42799307422E+03 -0.13702099777E+03  0.14204517624E+03  0.47130633086E+03  0.25500000920E-02 0.  1.
       -2    1    3    3    0  502 -0.42799307422E+03  0.13702099777E+03 -0.51523601762E+03  0.68368192843E+03  0.25500000920E-02 0. -1.
</event>
<event>
 5   0  0.5500363E-03  0.1097232E+04  0.7818609E-02  0.9207894E-01
       -2   -1    0    0    0  501  0.00000000000E+00  0.00000000000E+00  0.26568846899E+03  0.26568846900E+03  0.25500000920E-02 0.  1.
        2   -1    0    0  501    0  0.00000000000E+00  0.00000000000E+00 -0.11328290696E+04  0.11328290696E+04  0.25500000920E-02 0. -1.
    10030    2    1    2    0    0  0.00000000000E+00  0.00000000000E+00 -0.86714060062E+03  0.13985175386E+04  0.10972321926E+04 0.  0.
        3    1    3    3  502    0 -0.26056635704E+03 -0.37104501315E+03 -0.39868686585E+02  0.45514695492E+03  0.10100000352E+00 0.  1.
       -3    1    3    3    0  502  0.26056635704E+03  0.37104501315E+03 -0.82727191404E+03  0.94337058369E+03  0.10100000352E+00 0. -1.
</event>
<event>
 5   0  0.5627232E-03  0.1103218E+04  0.7818609E-02  0.9202061E-01
        2   -1    0    0  501    0  0.00000000000E+00  0.00000000000E+00  0.88078904739E+03  0.88078904740E+03  0.25500000920E-02 0. -1.
       -2   -1    0    0    0  501  0.00000000000E+00  0.00000000000E+00 -0.34545471381E+03  0.34545471382E+03  0.25500000920E-02 0.  1.
    10030    2    1    2    0    0  0.00000000000E+00  0.00000000000E+00  0.53533433358E+03  0.12262437612E+04  0.11032184340E+04 0.  0.
        2    1    3    3  502    0 -0.12087915126E+03  0.49649144270E+03  0.36757580459E+02  0.51231498281E+03  0.25500000920E-02 0.  1.
       -2    1    3    3    0  502  0.12087915126E+03 -0.49649144270E+03  0.49857675312E+03  0.71392877841E+03  0.25500000920E-02 0. -1.
</event>
<event>
 5   0  0.5723194E-03  0.1080837E+04  0.7818609E-02  0.9224073E-01
       -2   -1    0    0    0  501  0.00000000000E+00  0.00000000000E+00  0.19733327698E+03  0.19733327699E+03  0.25500000920E-02 0.  1.
        2   -1    0    0  501    0  0.00000000000E+00  0.00000000000E+00 -0.14799947526E+04  0.14799947526E+04  0.25500000920E-02 0. -1.
    10030    2    1    2    0    0  0.00000000000E+00  0.00000000000E+00 -0.12826614756E+04  0.16773280296E+04  0.10808371098E+04 0.  0.
        1    1    3    3  502    0  0.10304829254E+03  0.31909109103E+03 -0.12990310045E+04  0.13416108324E+04  0.50400001928E-02 0. -1.
       -1    1    3    3    0  502 -0.10304829254E+03 -0.31909109103E+03  0.16369528902E+02  0.33571719716E+03  0.50400001928E-02 0.  1.
</event>
<event>
 5   0  0.3241189E-03  0.9391722E+03  0.7818609E-02  0.9377897E-01
       -1   -1    0    0    0  501  0.00000000000E+00  0.00000000000E+00  0.43821568252E+03  0.43821568255E+03  0.50400001928E-02 0.  1.
        1   -1    0    0  501    0  0.00000000000E+00  0.00000000000E+00 -0.50320222375E+03  0.50320222378E+03  0.50400001928E-02 0. -1.
    10030    2    1    2    0    0  0.00000000000E+00  0.00000000000E+00 -0.64986541235E+02  0.94141790633E+03  0.93917220136E+03 0.  0.
        5    1    3    3  502    0 -0.26600486165E+03  0.36227122809E+03 -0.16879630561E+03  0.48011801873E+03  0.46999998093E+01 0. -1.
       -5    1    3    3    0  502  0.26600486165E+03 -0.36227122809E+03  0.10380976437E+03  0.46129988760E+03  0.46999998093E+01 0.  1.
</event>
<event>
 5   0  0.5941585E-03  0.1126586E+04  0.7818609E-02  0.9179660E-01
       -2   -1    0    0    0  501  0.00000000000E+00  0.00000000000E+00  0.41669853807E+03  0.41669853808E+03  0.25500000920E-02 0.  1.
        2   -1    0    0  501    0  0.00000000000E+00  0.00000000000E+00 -0.76145961956E+03  0.76145961956E+03  0.25500000920E-02 0. -1.
    10030    2    1    2    0    0  0.00000000000E+00  0.00000000000E+00 -0.34476108149E+03  0.11781581576E+04  0.11265861889E+04 0.  0.
        5    1    3    3  502    0 -0.96354192840E+02  0.43813925976E+03  0.18383960480E+03  0.48483938754E+03  0.46999998093E+01 0.  1.
       -5    1    3    3    0  502  0.96354192840E+02 -0.43813925976E+03 -0.52860068629E+03  0.69331877010E+03  0.46999998093E+01 0. -1.
</event>
<event>
 5   0  0.5946359E-03  0.1411743E+04  0.7818609E-02  0.8945362E-01
       -2   -1    0    0    0  501  0.00000000000E+00  0.00000000000E+00  0.28543078997E+03  0.28543078998E+03  0.25500000920E-02 0.  1.
        2   -1    0    0  501    0  0.00000000000E+00  0.00000000000E+00 -0.17456241829E+04  0.17456241829E+04  0.25500000920E-02 0. -1.
    10030    2    1    2    0    0  0.00000000000E+00  0.00000000000E+00 -0.14601933930E+04  0.20310549729E+04  0.14117434463E+04 0.  0.
        4    1    3    3  502    0  0.22223223994E+03  0.48844043605E+03 -0.13898435442E+04  0.14898415749E+04  0.12699999809E+01 0. -1.
       -4    1    3    3    0  502 -0.22223223994E+03 -0.48844043605E+03 -0.70349848714E+02  0.54121339798E+03  0.12699999809E+01 0.  1.
</event>
<event>
 5   0  0.5627232E-03  0.1109469E+04  0.7818609E-02  0.9196011E-01
       -2   -1    0    0    0  501  0.00000000000E+00  0.00000000000E+00  0.52593672765E+03  0.52593672765E+03  0.25500000920E-02 0.  1.
        2   -1    0    0  501    0  0.00000000000E+00  0.00000000000E+00 -0.58510961530E+03  0.58510961530E+03  0.25500000920E-02 0. -1.
    10030    2    1    2    0    0  0.00000000000E+00  0.00000000000E+00 -0.59172887649E+02  0.11110463430E+04  0.11094694883E+04 0.  0.
        2    1    3    3  502    0  0.23356129139E+03 -0.25069780004E+03  0.40730230448E+03  0.53225504321E+03  0.25500000920E-02 0.  1.
       -2    1    3    3    0  502 -0.23356129139E+03  0.25069780004E+03 -0.46647519213E+03  0.57879129974E+03  0.25500000920E-02 0. -1.
</event>
<event>
 5   0  0.3328741E-03  0.1121359E+04  0.7818609E-02  0.9184621E-01
        1   -1    0    0  501    0  0.00000000000E+00  0.00000000000E+00  0.13205513945E+04  0.13205513945E+04  0.50400001928E-02 0. -1.
       -1   -1    0    0    0  501  0.00000000000E+00  0.00000000000E+00 -0.23805308048E+03  0.23805308053E+03  0.50400001928E-02 0.  1.
    10030    2    1    2    0    0  0.00000000000E+00  0.00000000000E+00  0.10824983140E+04  0.15586044750E+04  0.11213586892E+04 0.  0.
        3    1    3    3  502    0 -0.55751662535E+03  0.51478391067E+00  0.62390313277E+03  0.83670794297E+03  0.10100000352E+00 0.  1.
       -3    1    3    3    0  502  0.55751662535E+03 -0.51478391067E+00  0.45859518127E+03  0.72189653208E+03  0.10100000352E+00 0. -1.
</event>
<event>
 5   0  0.3241189E-03  0.1065225E+04  0.7818609E-02  0.9239765E-01
        1   -1    0    0  501    0  0.00000000000E+00  0.00000000000E+00  0.53815762833E+03  0.53815762835E+03  0.50400001928E-02 0. -1.
       -1   -1    0    0    0  501  0.00000000000E+00  0.00000000000E+00 -0.52712460463E+03  0.52712460465E+03  0.50400001928E-02 0.  1.
    10030    2    1    2    0    0  0.00000000000E+00  0.00000000000E+00  0.11033023704E+02  0.10652822330E+04  0.10652250975E+04 0.  0.
        5    1    3    3  502    0 -0.48038686996E+03 -0.14230666458E+03  0.18616757346E+03  0.53451210185E+03  0.46999998093E+01 0. -1.
       -5    1    3    3    0  502  0.48038686996E+03  0.14230666458E+03 -0.17513454976E+03  0.53077013116E+03  0.46999998093E+01 0.  1.
</event>
<event>
 5   0  0.5723194E-03  0.1096215E+04  0.7818609E-02  0.9208889E-01
        2   -1    0    0  501    0  0.00000000000E+00  0.00000000000E+00  0.91871179625E+03  0.91871179626E+03  0.25500000920E-02 0.  1.
       -2   -1    0    0    0  501  0.00000000000E+00  0.00000000000E+00 -0.32700347949E+03  0.32700347950E+03  0.25500000920E-02 0. -1.
    10030    2    1    2    0    0  0.00000000000E+00  0.00000000000E+00  0.59170831677E+03  0.12457152758E+04  0.10962152234E+04 0.  0.
        1    1    3    3  502    0 -0.13529654494E+03  0.48992290314E+03  0.52899831596E+03  0.73359990758E+03  0.50400001928E-02 0. -1.
       -1    1    3    3    0  502  0.13529654494E+03 -0.48992290314E+03  0.62710000807E+02  0.51211536817E+03  0.50400001928E-02 0.  1.
</event>
<event>
 5   0  0.5941585E-03  0.1116476E+04  0.7818609E-02  0.9189281E-01
        2   -1    0    0  501    0  0.00000000000E+00  0.00000000000E+00  0.11891559334E+04  0.11891559334E+04  0.25500000920E-02 0. -1.
       -2   -1    0    0    0  501  0.00000000000E+00  0.00000000000E+00 -0.26205941564E+03  0.26205941566E+03  0.25500000920E-02 0.  1.
    10030    2    1    2    0    0  0.00000000000E+00  0.00000000000E+00  0.92709651775E+03  0.14512153490E+04  0.11164757212E+04 0.  0.
        5    1    3    3  502    0  0.34451160205E+03  0.16851491315E+03  0.99077136664E+03  0.10624196491E+04  0.46999998093E+01 0. -1.
       -5    1    3    3    0  502 -0.34451160205E+03 -0.16851491315E+03 -0.63674848890E+02  0.38879569992E+03  0.46999998093E+01 0.  1.
</event>
<event>
 5   0  0.5941585E-03  0.1083258E+04  0.7818609E-02  0.9221665E-01
        2   -1    0    0  501    0  0.00000000000E+00  0.00000000000E+00  0.16205321147E+04  0.16205321147E+04  0.25500000920E-02 0. -1.
       -2   -1    0    0    0  501  0.00000000000E+00  0.00000000000E+00 -0.18102823020E+03  0.18102823022E+03  0.25500000920E-02 0.  1.
    10030    2    1    2    0    0  0.00000000000E+00  0.00000000000E+00  0.14395038845E+04  0.18015603449E+04  0.10832581608E+04 0.  0.
        5    1    3    3  502    0  0.98651240881E+02  0.41549022730E+03  0.16572493426E+03  0.45809501214E+03  0.46999998093E+01 0.  1.
       -5    1    3    3    0  502 -0.98651240881E+02 -0.41549022730E+03  0.12737789503E+04  0.13434653328E+04  0.46999998093E+01 0. -1.
</event>
<event>
 5   0  0.3316784E-03  0.1122055E+04  0.7818609E-02  0.9183958E-01
       -1   -1    0    0    0  501  0.00000000000E+00  0.00000000000E+00  0.74265773888E+03  0.74265773890E+03  0.50400001928E-02 0. -1.
        1   -1    0    0  501    0  0.00000000000E+00  0.00000000000E+00 -0.42381852971E+03  0.42381852974E+03  0.50400001928E-02 0.  1.
    10030    2    1    2    0    0  0.00000000000E+00  0.00000000000E+00  0.31883920918E+03  0.11664762686E+04  0.11220554550E+04 0.  0.
        4    1    3    3  502    0 -0.43434485398E+03 -0.17712769571E+03 -0.16053202247E+03  0.49578404161E+03  0.12699999809E+01 0.  1.
       -4    1    3    3    0  502  0.43434485398E+03  0.17712769571E+03  0.47937123165E+03  0.67069222703E+03  0.12699999809E+01 0. -1.
</event>
<event>
 5   0  0.3316784E-03  0.1094480E+04  0.7818609E-02  0.9210589E-01
       -1   -1    0    0    0  501  0.00000000000E+00  0.00000000000E+00  0.40069381553E+03  0.40069381556E+03  0.50400001928E-02 0.  1.
        1   -1    0    0  501    0  0.00000000000E+00  0.00000000000E+00 -0.74738261108E+03  0.74738261109E+03  0.50400001928E-02 0. -1.
    10030    2    1    2    0    0  0.00000000000E+00  0.00000000000E+00 -0.34668879554E+03  0.11480764267E+04  0.10944799498E+04 0.  0.
        4    1    3    3  502    0 -0.30817430368E+03  0.35640311318E+03  0.11863008250E+03  0.48586962233E+03  0.12699999809E+01 0.  1.
       -4    1    3    3    0  502  0.30817430368E+03 -0.35640311318E+03 -0.46531887804E+03  0.66220680433E+03  0.12699999809E+01 0. -1.
</event>
<event>
 5   0  0.3320192E-03  0.1101438E+04  0.7818609E-02  0.9203791E-01
        1   -1    0    0  501    0  0.00000000000E+00  0.00000000000E+00  0.12866848589E+04  0.12866848589E+04  0.50400001928E-02 0. -1.
       -1   -1    0    0    0  501  0.00000000000E+00  0.00000000000E+00 -0.23571535418E+03  0.23571535423E+03  0.50400001928E-02 0.  1.
    10030    2    1    2    0    0  0.00000000000E+00  0.00000000000E+00  0.10509695047E+04  0.15224002131E+04  0.11014379279E+04 0.  0.
        2    1    3    3  502    0  0.34729350757E+03  0.32188481547E+03  0.91414603487E+03  0.10295074492E+04  0.25500000920E-02 0. -1.
       -2    1    3    3    0  502 -0.34729350757E+03 -0.32188481547E+03  0.13682346981E+03  0.49289276393E+03  0.25500000920E-02 0.  1.
</event>
<event>
 5   0  0.5723194E-03  0.1109799E+04  0.7818609E-02  0.9195693E-01
        2   -1    0    0  501    0  0.00000000000E+00  0.00000000000E+00  0.38887167750E+03  0.38887167751E+03  0.25500000920E-02 0. -1.
       -2   -1    0    0    0  501  0.00000000000E+00  0.00000000000E+00 -0.79181235246E+03  0.79181235247E+03  0.25500000920E-02 0.  1.
    10030    2    1    2    0    0  0.00000000000E+00  0.00000000000E+00 -0.40294067496E+03  0.11806840300E+04  0.11097988967E+04 0.  0.
        1    1    3    3  502    0 -0.50044664710E+03  0.22600660296E+03 -0.28649738916E+03  0.61935981884E+03  0.50400001928E-02 0.  1.
       -1    1    3    3    0  502  0.50044664710E+03 -0.22600660296E+03 -0.11644328580E+03  0.56132421113E+03  0.50400001928E-02 0. -1.
</event>
<event>
 5   0  0.5941585E-03  0.1086623E+04  0.7818609E-02  0.9218329E-01
        2   -1    0    0  501    0  0.00000000000E+00  0.00000000000E+00  0.11229676487E+04  0.11229676487E+04  0.25500000920E-02 0.  1.
       -2   -1    0    0    0  501  0.00000000000E+00  0.00000000000E+00 -0.26286367672E+03  0.26286367673E+03  0.25500000920E-02 0. -1.
    10030    2    1    2    0    0  0.00000000000E+00  0.00000000000E+00  0.86010397200E+03  0.13858313255E+04  0.10866230349E+04 0.  0.
        5    1    3    3  502    0  0.37662833277E+03 -0.36048315634E+03  0.23509217272E+03  0.57191557657E+03  0.46999998093E+01 0.  1.
       -5    1    3    3    0  502 -0.37662833277E+03  0.36048315634E+03  0.62501179928E+03  0.81391574889E+03  0.46999998093E+01 0. -1.
</event>
<event>
 5   0  0.5500363E-03  0.1105589E+04  0.7818609E-02  0.9199762E-01
       -2   -1    0    0    0  501  0.00000000000E+00  0.00000000000E+00  0.82051618091E+03  0.82051618091E+03  0.25500000920E-02 0.  1.
        2   -1    0    0  501    0  0.00000000000E+00  0.00000000000E+00 -0.37242596344E+03  0.37242596344E+03  0.25500000920E-02 0. -1.
    10030    2    1    2    0    0  0.00000000000E+00  0.00000000000E+00  0.44809021747E+03  0.11929421444E+04  0.11055885839E+04 0.  0.
        3    1    3    3  502    0  0.26323963531E+03  0.30956061950E+03 -0.18034456742E+03  0.44457514094E+03  0.10100000352E+00 0. -1.
       -3    1    3    3    0  502 -0.26323963531E+03 -0.30956061950E+03  0.62843478490E+03  0.74836700342E+03  0.10100000352E+00 0.  1.
</event>
<event>
 5   0  0.3316784E-03  0.1084913E+04  0.7818609E-02  0.9220023E-01
        1   -1    0    0  501    0  0.00000000000E+00  0.00000000000E+00  0.13438297958E+04  0.13438297958E+04  0.50400001928E-02 0.  1.
       -1   -1    0    0    0  501  0.00000000000E+00  0.00000000000E+00 -0.21897053020E+03  0.21897053026E+03  0.50400001928E-02 0. -1.
    10030    2    1    2    0    0  0.00000000000E+00  0.00000000000E+00  0.11248592656E+04  0.15628003261E+04  0.10849131264E+04 0.  0.
        4    1    3    3  502    0  0.48910856870E+03  0.23043806729E+03  0.49916932170E+03  0.73586718873E+03  0.12699999809E+01 0. -1.
       -4    1    3    3    0  502 -0.48910856870E+03 -0.23043806729E+03  0.62568994393E+03  0.82693313736E+03  0.12699999809E+01 0.  1.
</event>
<event>
 5   0  0.5723194E-03  0.1085594E+04  0.7818609E-02  0.9219348E-01
       -2   -1    0    0    0  501  0.00000000000E+00  0.00000000000E+00  0.26774077502E+03  0.26774077503E+03  0.25500000920E-02 0. -1.
        2   -1    0    0  501    0  0.00000000000E+00  0.00000000000E+00 -0.11004242001E+04  0.11004242001E+04  0.25500000920E-02 0.  1.
    10030    2    1    2    0    0  0.00000000000E+00  0.00000000000E+00 -0.83268342509E+03  0.13681649751E+04  0.10855937144E+04 0.  0.
        1    1    3    3  502    0  0.22815871007E+03  0.44669124289E+03 -0.67779978570E+03  0.84320935300E+03  0.50400001928E-02 0.  1.
       -1    1    3    3    0  502 -0.22815871007E+03 -0.44669124289E+03 -0.15488363938E+03  0.52495562215E+03  0.50400001928E-02 0. -1.
</event>
<event>
 5   0  0.3316784E-03  0.1094303E+04  0.7818609E-02  0.9210762E-01
        1   -1    0    0  501    0  0.00000000000E+00  0.00000000000E+00  0.11703591285E+04  0.11703591285E+04  0.50400001928E-02 0. -1.
       -1   -1    0    0    0  501  0.00000000000E+00  0.00000000000E+00 -0.25579740943E+03  0.25579740948E+03  0.50400001928E-02 0.  1.
    10030    2    1    2    0    0  0.00000000000E+00  0.00000000000E+00  0.91456171902E+03  0.14261565379E+04  0.10943031266E+04 0.  0.
        4    1    3    3  502    0  0.12890099873E+03 -0.15741821603E+03 -0.20466164442E+03  0.28858961140E+03  0.12699999809E+01 0.  1.
       -4    1    3    3    0  502 -0.12890099873E+03  0.15741821603E+03  0.11192233634E+04  0.11375669266E+04  0.12699999809E+01 0. -1.
</event>
<event>
 5   0  0.5500363E-03  0.1105450E+04  0.7818609E-02  0.9199896E-01
       -2   -1    0    0    0  501  0.00000000000E+00  0.00000000000E+00  0.53586166100E+03  0.53586166101E+03  0.25500000920E-02 0. -1.
        2   -1    0    0  501    0  0.00000000000E+00  0.00000000000E+00 -0.57011931141E+03  0.57011931141E+03  0.25500000920E-02 0.  1.
    10030    2    1    2    0    0  0.00000000000E+00  0.00000000000E+00 -0.34257650407E+02  0.11059809724E+04  0.11054502814E+04 0.  0.
        3    1    3    3  502    0 -0.20026589500E+03  0.47925731896E+03  0.17193560877E+03  0.54713423421E+03  0.10100000352E+00 0. -1.
       -3    1    3    3    0  502  0.20026589500E+03 -0.47925731896E+03 -0.20619325918E+03  0.55884673821E+03  0.10100000352E+00 0.  1.
</event>
<event>
 5   0  0.5946359E-03  0.1100447E+04  0.7818609E-02  0.9204757E-01
        2   -1    0    0  501    0  0.00000000000E+00  0.00000000000E+00  0.11405489518E+04  0.11405489518E+04  0.25500000920E-02 0.  1.
       -2   -1    0    0    0  501  0.00000000000E+00  0.00000000000E+00 -0.26543855988E+03  0.26543855989E+03  0.25500000920E-02 0. -1.
    10030    2    1    2    0    0  0.00000000000E+00  0.00000000000E+00  0.87511039193E+03  0.14059875117E+04  0.11004465843E+04 0.  0.
        4    1    3    3  502    0 -0.59335254537E+02 -0.38557334508E+03 -0.58194400105E+02  0.39443082787E+03  0.12699999809E+01 0. -1.
       -4    1    3    3    0  502  0.59335254537E+02  0.38557334508E+03  0.93330479204E+03  0.10115566838E+04  0.12699999809E+01 0.  1.
</event>
<event>
 5   0  0.3215352E-03  0.1050889E+04  0.7818609E-02  0.9254426E-01
       -1   -1    0    0    0  501  0.00000000000E+00  0.00000000000E+00  0.23606040952E+03  0.23606040958E+03  0.50400001928E-02 0. -1.
        1   -1    0    0  501    0  0.00000000000E+00  0.00000000000E+00 -0.11695821892E+04  0.11695821892E+04  0.50400001928E-02 0.  1.
    10030    2    1    2    0    0  0.00000000000E+00  0.00000000000E+00 -0.93352177970E+03  0.14056425988E+04  0.10508892437E+04 0.  0.
        1    1    3    3  502    0 -0.17176016635E+03  0.20027280939E+03  0.14103579066E+03  0.29916859326E+03  0.50400001928E-02 0. -1.
       -1    1    3    3    0  502  0.17176016635E+03 -0.20027280939E+03 -0.10745575704E+04  0.11064740055E+04  0.50400001928E-02 0.  1.
</event>
<event>
 5   0  0.5723194E-03  0.1087555E+04  0.7818609E-02  0.9217407E-01
        2   -1    0    0  501    0  0.00000000000E+00  0.00000000000E+00  0.63563947662E+03  0.63563947662E+03  0.25500000920E-02 0. -1.
       -2   -1    0    0    0  501  0.00000000000E+00  0.00000000000E+00 -0.46519152434E+03  0.46519152434E+03  0.25500000920E-02 0.  1.
    10030    2    1    2    0    0  0.00000000000E+00  0.00000000000E+00  0.17044795228E+03  0.11008310010E+04  0.10875552346E+04 0.  0.
        1    1    3    3  502    0  0.74450555459E+02 -0.50108596069E+03 -0.11483501908E+03  0.51943922343E+03  0.50400001928E-02 0.  1.
       -1    1    3    3    0  502 -0.74450555459E+02  0.50108596069E+03  0.28528297136E+03  0.58139177753E+03  0.50400001928E-02 0. -1.
</event>
<event>
 5   0  0.3241189E-03  0.1097789E+04  0.7818609E-02  0.9207350E-01
        1   -1    0    0  501    0  0.00000000000E+00  0.00000000000E+00  0.41811806606E+03  0.41811806609E+03  0.50400001928E-02 0.  1.
       -1   -1    0    0    0  501  0.00000000000E+00  0.00000000000E+00 -0.72057422168E+03  0.72057422170E+03  0.50400001928E-02 0. -1.
    10030    2    1    2    0    0  0.00000000000E+00  0.00000000000E+00 -0.30245615561E+03  0.11386922878E+04  0.10977888687E+04 0.  0.
        5    1    3    3  502    0  0.13256658948E+03 -0.92070250637E+01 -0.70361576914E+03  0.71606976653E+03  0.46999998093E+01 0. -1.
       -5    1    3    3    0  502 -0.13256658948E+03  0.92070250637E+01  0.40115961353E+03  0.42262252126E+03  0.46999998093E+01 0.  1.
</event>
<event>
 5   0  0.3241189E-03  0.1099779E+04  0.7818609E-02  0.9205407E-01
        1   -1    0    0  501    0  0.00000000000E+00  0.00000000000E+00  0.80515517142E+03  0.80515517143E+03  0.50400001928E-02 0. -1.
       -1   -1    0    0    0  501  0.00000000000E+00  0.00000000000E+00 -0.37555302558E+03  0.37555302561E+03  0.50400001928E-02 0.  1.
    10030    2    1    2    0    0  0.00000000000E+00  0.00000000000E+00  0.42960214584E+03  0.11807081970E+04  0.10997789973E+04 0.  0.
        5    1    3    3  502    0 -0.24812479045E+03 -0.20872595717E+03  0.69157990481E+03  0.76383066943E+03  0.46999998093E+01 0. -1.
       -5    1    3    3    0  502  0.24812479045E+03  0.20872595717E+03 -0.26197775897E+03  0.41687752761E+03  0.46999998093E+01 0.  1.
</event>
<event>
 5   0  0.3316784E-03  0.1105304E+04  0.7818609E-02  0.9200037E-01
        1   -1    0    0  501    0  0.00000000000E+00  0.00000000000E+00  0.48561711195E+03  0.48561711198E+03  0.50400001928E-02 0. -1.
       -1   -1    0    0    0  501  0.00000000000E+00  0.00000000000E+00 -0.62894097580E+03  0.62894097582E+03  0.50400001928E-02 0.  1.
    10030    2    1    2    0    0  0.00000000000E+00  0.00000000000E+00 -0.14332386384E+03  0.11145580878E+04  0.11053044834E+04 0.  0.
        4    1    3    3  502    0  0.54812242759E+02  0.26054174473E+03  0.41668223013E+03  0.49448162404E+03  0.12699999809E+01 0. -1.
       -4    1    3    3    0  502 -0.54812242759E+02 -0.26054174473E+03 -0.56000609398E+03  0.62007646375E+03  0.12699999809E+01 0.  1.
</event>
<event>
 5   0  0.3328741E-03  0.1017588E+04  0.7818609E-02  0.9289462E-01
        1   -1    0    0  501    0  0.00000000000E+00  0.00000000000E+00  0.83700395768E+03  0.83700395770E+03  0.50400001928E-02 0. -1.
       -1   -1    0    0    0  501  0.00000000000E+00  0.00000000000E+00 -0.30928323052E+03  0.30928323056E+03  0.50400001928E-02 0.  1.
    10030    2    1    2    0    0  0.00000000000E+00  0.00000000000E+00  0.52772072716E+03  0.11462871883E+04  0.10175879088E+04 0.  0.
        3    1    3    3  502    0 -0.43109459556E+02 -0.44749657928E+03 -0.45142350321E+01  0.44959092794E+03  0.10100000352E+00 0.  1.
       -3    1    3    3    0  502  0.43109459556E+02  0.44749657928E+03  0.53223496219E+03  0.69669626032E+03  0.10100000352E+00 0. -1.
</event>
<event>
 5   0  0.3328741E-03  0.1081448E+04  0.7818609E-02  0.9223464E-01
       -1   -1    0    0    0  501  0.00000000000E+00  0.00000000000E+00  0.16675640495E+03  0.16675640502E+03  0.50400001928E-02 0. -1.
        1   -1    0    0  501    0  0.00000000000E+00  0.00000000000E+00 -0.17533520734E+04  0.17533520734E+04  0.50400001928E-02 0.  1.
    10030    2    1    2    0    0  0.00000000000E+00  0.00000000000E+00 -0.15865956684E+04  0.19201084784E+04  0.10814484517E+04 0.  0.
        3    1    3    3  502    0  0.48672250680E+02  0.18184847760E+03  0.10669670985E+03  0.21638404490E+03  0.10100000352E+00 0. -1.
       -3    1    3    3    0  502 -0.48672250680E+02 -0.18184847760E+03 -0.16932923783E+04  0.17037244335E+04  0.10100000352E+00 0.  1.
</event>
<event>
 5   0  0.3316784E-03  0.1095460E+04  0.7818609E-02  0.9209628E-01
        1   -1    0    0  501    0  0.00000000000E+00  0.00000000000E+00  0.39128071355E+03  0.39128071358E+03  0.50400001928E-02 0.  1.
       -1   -1    0    0    0  501  0.00000000000E+00  0.00000000000E+00 -0.76673410097E+03  0.76673410099E+03  0.50400001928E-02 0. -1.
    10030    2    1    2    0    0  0.00000000000E+00  0.00000000000E+00 -0.37545338742E+03  0.11580148146E+04  0.10954602068E+04 0.  0.
        4    1    3    3  502    0 -0.24708825891E+03 -0.14999397821E+03  0.30408876476E+03  0.41955022458E+03  0.12699999809E+01 0.  1.
       -4    1    3    3    0  502  0.24708825891E+03  0.14999397821E+03 -0.67954215218E+03  0.73846458999E+03  0.12699999809E+01 0. -1.
</event>
<event>
 5   0  0.3328741E-03  0.1105091E+04  0.7818609E-02  0.9200244E-01
       -1   -1    0    0    0  501  0.00000000000E+00  0.00000000000E+00  0.44487871470E+03  0.44487871472E+03  0.50400001928E-02 0. -1.
        1   -1    0    0  501    0  0.00000000000E+00  0.00000000000E+00 -0.68626938638E+03  0.68626938640E+03  0.50400001928E-02 0.  1.
    10030    2    1    2    0    0  0.00000000000E+00  0.00000000000E+00 -0.24139067168E+03  0.11311481011E+04  0.11050912045E+04 0.  0.
        3    1    3    3  502    0  0.54155954632E+03  0.32689139847E+02 -0.13579324972E+02  0.54271514660E+03  0.10100000352E+00 0.  1.
       -3    1    3    3    0  502 -0.54155954632E+03 -0.32689139847E+02 -0.22781134671E+03  0.58843295452E+03  0.10100000352E+00 0. -1.
</event>
<event>
 5   0  0.3215352E-03  0.1098674E+04  0.7818609E-02  0.9206485E-01
        1   -1    0    0  501    0  0.00000000000E+00  0.00000000000E+00  0.94586897984E+03  0.94586897986E+03  0.50400001928E-02 0. -1.
       -1   -1    0    0    0  501  0.00000000000E+00  0.00000000000E+00 -0.31904140097E+03  0.31904140101E+03  0.50400001928E-02 0.  1.
    10030    2    1    2    0    0  0.00000000000E+00  0.00000000000E+00  0.62682757887E+03  0.12649103809E+04  0.10986744095E+04 0.  0.
        1    1    3    3  502    0  0.19808342465E+03 -0.16230153202E+03  0.87294437411E+03  0.90973112002E+03  0.50400001928E-02 0. -1.
       -1    1    3    3    0  502 -0.19808342465E+03  0.16230153202E+03 -0.24611679524E+03  0.35517926085E+03  0.50400001928E-02 0.  1.
</event>
<event>
 5   0  0.3241189E-03  0.1090823E+04  0.7818609E-02  0.9214183E-01
        1   -1    0    0  501    0  0.00000000000E+00  0.00000000000E+00  0.56113335229E+03  0.56113335231E+03  0.50400001928E-02 0.  1.
       -1   -1    0    0    0  501  0.00000000000E+00  0.00000000000E+00 -0.53013037930E+03  0.53013037932E+03  0.50400001928E-02 0. -1.
    10030    2    1    2    0    0  0.00000000000E+00  0.00000000000E+00  0.31002972988E+02  0.10912637316E+04  0.10908232431E+04 0.  0.
        5    1    3    3  502    0  0.45203876387E+02  0.76685564941E+02  0.55379653372E+03  0.56092491215E+03  0.46999998093E+01 0.  1.
       -5    1    3    3    0  502 -0.45203876387E+02 -0.76685564941E+02 -0.52279356073E+03  0.53033881948E+03  0.46999998093E+01 0. -1.
</event>
<event>
 5   0  0.5500363E-03  0.1098514E+04  0.7818609E-02  0.9206642E-01
       -2   -1    0    0    0  501  0.00000000000E+00  0.00000000000E+00  0.27048522121E+03  0.27048522123E+03  0.25500000920E-02 0. -1.
        2   -1    0    0  501    0  0.00000000000E+00  0.00000000000E+00 -0.11153400390E+04  0.11153400390E+04  0.25500000920E-02 0.  1.
    10030    2    1    2    0    0  0.00000000000E+00  0.00000000000E+00 -0.84485481775E+03  0.13858252602E+04  0.10985135360E+04 0.  0.
        3    1    3    3  502    0  0.63450911327E+02 -0.68389423209E+01  0.26579207673E+03  0.27334635087E+03  0.10100000352E+00 0. -1.
       -3    1    3    3    0  502 -0.63450911327E+02  0.68389423209E+01 -0.11106468945E+04  0.11124789093E+04  0.10100000352E+00 0.  1.
</event>
<event>
 5   0  0.5627232E-03  0.1084797E+04  0.7818609E-02  0.9220138E-01
        2   -1    0    0  501    0  0.00000000000E+00  0.00000000000E+00  0.79659164904E+03  0.79659164905E+03  0.25500000920E-02 0.  1.
       -2   -1    0    0    0  501  0.00000000000E+00  0.00000000000E+00 -0.36931838492E+03  0.36931838493E+03  0.25500000920E-02 0. -1.
    10030    2    1    2    0    0  0.00000000000E+00  0.00000000000E+00  0.42727326412E+03  0.11659100340E+04  0.10847966469E+04 0.  0.
        2    1    3    3  502    0 -0.29894113893E+03  0.14045562555E+03  0.67604179731E+03  0.75241351597E+03  0.25500000920E-02 0.  1.
       -2    1    3    3    0  502  0.29894113893E+03 -0.14045562555E+03 -0.24876853319E+03  0.41349651801E+03  0.25500000920E-02 0. -1.
</event>
<event>
 5   0  0.3241189E-03  0.1085693E+04  0.7818609E-02  0.9219249E-01
        1   -1    0    0  501    0  0.00000000000E+00  0.00000000000E+00  0.18675565690E+04  0.18675565690E+04  0.50400001928E-02 0.  1.
       -1   -1    0    0    0  501  0.00000000000E+00  0.00000000000E+00 -0.15779043392E+03  0.15779043400E+03  0.50400001928E-02 0. -1.
    10030    2    1    2    0    0  0.00000000000E+00  0.00000000000E+00  0.17097661351E+04  0.20253470030E+04  0.10856934401E+04 0.  0.
        5    1    3    3  502    0  0.21432173601E+03  0.17881091909E+03 -0.13627500254E+02  0.27949051876E+03  0.46999998093E+01 0. -1.
       -5    1    3    3    0  502 -0.21432173601E+03 -0.17881091909E+03  0.17233936353E+04  0.17458564843E+04  0.46999998093E+01 0.  1.
</event>
<event>
 5   0  0.5500363E-03  0.1094793E+04  0.7818609E-02  0.9210282E-01
        2   -1    0    0  501    0  0.00000000000E+00  0.00000000000E+00  0.49397599995E+03  0.49397599995E+03  0.25500000920E-02 0.  1.
       -2   -1    0    0    0  501  0.00000000000E+00  0.00000000000E+00 -0.60659414663E+03  0.60659414664E+03  0.25500000920E-02 0. -1.
    10030    2    1    2    0    0  0.00000000000E+00  0.00000000000E+00 -0.11261814668E+03  0.11005701466E+04  0.10947930401E+04 0.  0.
        3    1    3    3  502    0  0.50030583860E+03  0.21549451961E+03 -0.21814717489E+01  0.54474635303E+03  0.10100000352E+00 0. -1.
       -3    1    3    3    0  502 -0.50030583860E+03 -0.21549451961E+03 -0.11043667494E+03  0.55582379356E+03  0.10100000352E+00 0.  1.
</event>
<event>
 5   0  0.5723194E-03  0.1110625E+04  0.7818609E-02  0.9194898E-01
        2   -1    0    0  501    0  0.00000000000E+00  0.00000000000E+00  0.95823441953E+03  0.95823441953E+03  0.25500000920E-02 0. -1.
       -2   -1    0    0    0  501  0.00000000000E+00  0.00000000000E+00 -0.32181250339E+03  0.32181250340E+03  0.25500000920E-02 0.  1.
    10030    2    1    2    0    0  0.00000000000E+00  0.00000000000E+00  0.63642191614E+03  0.12800469229E+04  0.11106247204E+04 0.  0.
        1    1    3    3  502    0  0.31605378033E+01  0.17400244635E+03  0.92599223600E+03  0.94220404451E+03  0.50400001928E-02 0. -1.
       -1    1    3    3    0  502 -0.31605378033E+01 -0.17400244635E+03 -0.28957031986E+03  0.33784287842E+03  0.50400001928E-02 0.  1.
</event>
<event>
 5   0  0.5946359E-03  0.1103408E+04  0.7818609E-02  0.9201877E-01
        2   -1    0    0  501    0  0.00000000000E+00  0.00000000000E+00  0.23040238525E+04  0.23040238525E+04  0.25500000920E-02 0.  1.
       -2   -1    0    0    0  501  0.00000000000E+00  0.00000000000E+00 -0.13210681680E+03  0.13210681683E+03  0.25500000920E-02 0. -1.
    10030    2    1    2    0    0  0.00000000000E+00  0.00000000000E+00  0.21719170357E+04  0.24361306693E+04  0.11034079155E+04 0.  0.
        4    1    3    3  502    0 -0.51872738679E+03  0.51569341223E+02  0.68709233191E+03  0.86245868552E+03  0.12699999809E+01 0. -1.
       -4    1    3    3    0  502  0.51872738679E+03 -0.51569341223E+02  0.14848247038E+04  0.15736719838E+04  0.12699999809E+01 0.  1.
</event>
<event>
 5   0  0.5627232E-03  0.1107132E+04  0.7818609E-02  0.9198268E-01
       -2   -1    0    0    0  501  0.00000000000E+00  0.00000000000E+00  0.61676446679E+03  0.61676446680E+03  0.25500000920E-02 0.  1.
        2   -1    0    0  501    0  0.00000000000E+00  0.00000000000E+00 -0.49684354550E+03  0.49684354550E+03  0.25500000920E-02 0. -1.
    10030    2    1    2    0    0  0.00000000000E+00  0.00000000000E+00  0.11992092130E+03  0.11136080123E+04  0.11071322314E+04 0.  0.
        2    1    3    3  502    0  0.44279739341E+03  0.18890947258E+03 -0.21491277837E+03  0.52720377726E+03  0.25500000920E-02 0.  1.
       -2    1    3    3    0  502 -0.44279739341E+03 -0.18890947258E+03  0.33483369967E+03  0.58640423505E+03  0.25500000920E-02 0. -1.
</event>
<event>
 5   0  0.3241189E-03  0.1097108E+04  0.7818609E-02  0.9208015E-01
        1   -1    0    0  501    0  0.00000000000E+00  0.00000000000E+00  0.56059009478E+03  0.56059009480E+03  0.50400001928E-02 0. -1.
       -1   -1    0    0    0  501  0.00000000000E+00  0.00000000000E+00 -0.53677612489E+03  0.53677612492E+03  0.50400001928E-02 0.  1.
    10030    2    1    2    0    0  0.00000000000E+00  0.00000000000E+00  0.23813969888E+02  0.10973662197E+04  0.10971077955E+04 0.  0.
        5    1    3    3  502    0 -0.75198967795E+02 -0.52233041120E+03  0.16162639568E+03  0.55193217428E+03  0.46999998093E+01 0. -1.
       -5    1    3    3    0  502  0.75198967795E+02  0.52233041120E+03 -0.13781242579E+03  0.54543404544E+03  0.46999998093E+01 0.  1.
</event>
<event>
 5   0  0.5627232E-03  0.1103559E+04  0.7818609E-02  0.9201730E-01
       -2   -1    0    0    0  501  0.00000000000E+00  0.00000000000E+00  0.20679060321E+04  0.20679060321E+04  0.25500000920E-02 0. -1.
        2   -1    0    0  501    0  0.00000000000E+00  0.00000000000E+00 -0.14723148381E+03  0.14723148383E+03  0.25500000920E-02 0.  1.
    10030    2    1    2    0    0  0.00000000000E+00  0.00000000000E+00  0.19206745483E+04  0.22151375159E+04  0.11035594656E+04 0.  0.
        2    1    3    3  502    0  0.46873589344E+03 -0.24688274710E+03  0.12699800785E+04  0.13760500820E+04  0.25500000920E-02 0. -1.
       -2    1    3    3    0  502 -0.46873589344E+03  0.24688274710E+03  0.65069446983E+03  0.83908743388E+03  0.25500000920E-02 0.  1.
</event>
<event>
 5   0  0.3241189E-03  0.1132375E+04  0.7818609E-02  0.9174199E-01
        1   -1    0    0  501    0  0.00000000000E+00  0.00000000000E+00  0.87982545848E+03  0.87982545849E+03  0.50400001928E-02 0. -1.
       -1   -1    0    0    0  501  0.00000000000E+00  0.00000000000E+00 -0.36435430781E+03  0.36435430785E+03  0.50400001928E-02 0.  1.
    10030    2    1    2    0    0  0.00000000000E+00  0.00000000000E+00  0.51547115066E+03  0.12441797663E+04  0.11323748424E+04 0.  0.
        5    1    3    3  502    0  0.96821745695E+02 -0.79256001862E+02  0.86442246924E+03  0.87344390753E+03  0.46999998093E+01 0. -1.
       -5    1    3    3    0  502 -0.96821745695E+02  0.79256001862E+02 -0.34895131858E+03  0.37073585881E+03  0.46999998093E+01 0.  1.
</event>
<event>
 5   0  0.3316784E-03  0.1104255E+04  0.7818609E-02  0.9201054E-01
       -1   -1    0    0    0  501  0.00000000000E+00  0.00000000000E+00  0.25888598052E+03  0.25888598057E+03  0.50400001928E-02 0.  1.
        1   -1    0    0  501    0  0.00000000000E+00  0.00000000000E+00 -0.11775262497E+04  0.11775262497E+04  0.50400001928E-02 0. -1.
    10030    2    1    2    0    0  0.00000000000E+00  0.00000000000E+00 -0.91864026916E+03  0.14364122303E+04  0.11042554737E+04 0.  0.
        4    1    3    3  502    0 -0.33236194299E+03 -0.16982755680E+03 -0.98856641501E+03  0.10566792465E+04  0.12699999809E+01 0.  1.
       -4    1    3    3    0  502  0.33236194299E+03  0.16982755680E+03  0.69926145843E+02  0.37973298378E+03  0.12699999809E+01 0. -1.
</event>
<event>
 5   0  0.3320192E-03  0.1119662E+04  0.7818609E-02  0.9186237E-01
       -1   -1    0    0    0  501  0.00000000000E+00  0.00000000000E+00  0.36405247862E+03  0.36405247866E+03  0.50400001928E-02 0.  1.
        1   -1    0    0  501    0  0.00000000000E+00  0.00000000000E+00 -0.86089382878E+03  0.86089382880E+03  0.50400001928E-02 0. -1.
    10030    2    1    2    0    0  0.00000000000E+00  0.00000000000E+00 -0.49684135016E+03  0.12249463075E+04  0.11196616136E+04 0.  0.
        2    1    3    3  502    0 -0.49379487884E+03 -0.36720893986E+02  0.37347521501E+02  0.49656484350E+03  0.25500000920E-02 0.  1.
       -2    1    3    3    0  502  0.49379487884E+03  0.36720893986E+02 -0.53418887166E+03  0.72838146396E+03  0.25500000920E-02 0. -1.
</event>
<event>
 5   0  0.3316784E-03  0.1152490E+04  0.7818609E-02  0.9155489E-01
        1   -1    0    0  501    0  0.00000000000E+00  0.00000000000E+00  0.15349324341E+04  0.15349324341E+04  0.50400001928E-02 0. -1.
       -1   -1    0    0    0  501  0.00000000000E+00  0.00000000000E+00 -0.21633422489E+03  0.21633422495E+03  0.50400001928E-02 0.  1.
    10030    2    1    2    0    0  0.00000000000E+00  0.00000000000E+00  0.13185982092E+04  0.17512666591E+04  0.11524902055E+04 0.  0.
        4    1    3    3  502    0  0.27635762287E+03  0.33538587053E+03  0.12343230368E+04  0.13085916819E+04  0.12699999809E+01 0. -1.
       -4    1    3    3    0  502 -0.27635762287E+03 -0.33538587053E+03  0.84275172487E+02  0.44267497723E+03  0.12699999809E+01 0.  1.
</event>
<event>
 5   0  0.5723194E-03  0.1190389E+04  0.7818609E-02  0.9121310E-01
        2   -1    0    0  501    0  0.00000000000E+00  0.00000000000E+00  0.14312378638E+04  0.14312378638E+04  0.25500000920E-02 0. -1.
       -2   -1    0    0    0  501  0.00000000000E+00  0.00000000000E+00 -0.24751774344E+03  0.24751774345E+03  0.25500000920E-02 0.  1.
    10030    2    1    2    0    0  0.00000000000E+00  0.00000000000E+00  0.11837201203E+04  0.16787556072E+04  0.11903894596E+04 0.  0.
        1    1    3    3  502    0 -0.26973980273E+03 -0.99143947711E+02 -0.14319080446E+03  0.32108050400E+03  0.50400001928E-02 0.  1.
       -1    1    3    3    0  502  0.26973980273E+03  0.99143947711E+02  0.13269109248E+04  0.13576751032E+04  0.50400001928E-02 0. -1.
</event>
<event>
 5   0  0.5946359E-03  0.9327126E+03  0.7818609E-02  0.9385588E-01
        2   -1    0    0  501    0  0.00000000000E+00  0.00000000000E+00  0.50885349482E+03  0.50885349483E+03  0.25500000920E-02 0. -1.
       -2   -1    0    0    0  501  0.00000000000E+00  0.00000000000E+00 -0.42740831346E+03  0.42740831346E+03  0.25500000920E-02 0.  1.
    10030    2    1    2    0    0  0.00000000000E+00  0.00000000000E+00  0.81445181364E+02  0.93626180829E+03  0.93271263318E+03 0.  0.
        4    1    3    3  502    0 -0.31269075639E+03  0.28059639434E+03 -0.16247484975E+03  0.45045480944E+03  0.12699999809E+01 0.  1.
       -4    1    3    3    0  502  0.31269075639E+03 -0.28059639434E+03  0.24392003112E+03  0.48580699885E+03  0.12699999809E+01 0. -1.
</event>
<event>
 5   0  0.3328741E-03  0.1081983E+04  0.7818609E-02  0.9222933E-01
        1   -1    0    0  501    0  0.00000000000E+00  0.00000000000E+00  0.62207149751E+03  0.62207149753E+03  0.50400001928E-02 0.  1.
       -1   -1    0    0    0  501  0.00000000000E+00  0.00000000000E+00 -0.47047907587E+03  0.47047907590E+03  0.50400001928E-02 0. -1.
    10030    2    1    2    0    0  0.00000000000E+00  0.00000000000E+00  0.15159242164E+03  0.10925505734E+04  0.10819826677E+04 0.  0.
        3    1    3    3  502    0 -0.35554533788E+03 -0.16141187490E+03  0.45389345436E+03  0.59873663556E+03  0.10100000352E+00 0.  1.
       -3    1    3    3    0  502  0.35554533788E+03  0.16141187490E+03 -0.30230103273E+03  0.49381393787E+03  0.10100000352E+00 0. -1.
</event>
<event>
 5   0  0.5500363E-03  0.1100914E+04  0.7818609E-02  0.9204301E-01
       -2   -1    0    0    0  501  0.00000000000E+00  0.00000000000E+00  0.44718121142E+03  0.44718121142E+03  0.25500000920E-02 0.  1.
        2   -1    0    0  501    0  0.00000000000E+00  0.00000000000E+00 -0.67758477671E+03  0.67758477671E+03  0.25500000920E-02 0. -1.
    10030    2    1    2    0    0  0.00000000000E+00  0.00000000000E+00 -0.23040356529E+03  0.11247659881E+04  0.11009144949E+04 0.  0.
        3    1    3    3  502    0 -0.52718951860E+03  0.13791316578E+03 -0.19469718911E+03  0.57866729255E+03  0.10100000352E+00 0. -1.
       -3    1    3    3    0  502  0.52718951860E+03 -0.13791316578E+03 -0.35706376177E+02  0.54609869558E+03  0.10100000352E+00 0.  1.
</event>
<event>
 5   0  0.3328741E-03  0.1106873E+04  0.7818609E-02  0.9198518E-01
        1   -1    0    0  501    0  0.00000000000E+00  0.00000000000E+00  0.70092623073E+03  0.70092623075E+03  0.50400001928E-02 0.  1.
       -1   -1    0    0    0  501  0.00000000000E+00  0.00000000000E+00 -0.43698196108E+03  0.43698196111E+03  0.50400001928E-02 0. -1.
    10030    2    1    2    0    0  0.00000000000E+00  0.00000000000E+00  0.26394426965E+03  0.11379081919E+04  0.11068732880E+04 0.  0.
        3    1    3    3  502    0  0.24440644798E+03  0.15871879409E+03  0.61565947261E+03  0.68114812180E+03  0.10100000352E+00 0.  1.
       -3    1    3    3    0  502 -0.24440644798E+03 -0.15871879409E+03 -0.35171520296E+03  0.45676007006E+03  0.10100000352E+00 0. -1.
</event>
<event>
 5   0  0.3320192E-03  0.1096148E+04  0.7818609E-02  0.9208954E-01
        1   -1    0    0  501    0  0.00000000000E+00  0.00000000000E+00  0.14301466974E+04  0.14301466974E+04  0.50400001928E-02 0.  1.
       -1   -1    0    0    0  501  0.00000000000E+00  0.00000000000E+00 -0.21003812575E+03  0.21003812581E+03  0.50400001928E-02 0. -1.
    10030    2    1    2    0    0  0.00000000000E+00  0.00000000000E+00  0.12201085716E+04  0.16401848232E+04  0.10961484059E+04 0.  0.
        2    1    3    3  502    0  0.19944556363E+03  0.12412528714E+03  0.13509949160E+04  0.13712668897E+04  0.25500000920E-02 0.  1.
       -2    1    3    3    0  502 -0.19944556363E+03 -0.12412528714E+03 -0.13088634443E+03  0.26891793343E+03  0.25500000920E-02 0. -1.
</event>
<event>
 5   0  0.5627232E-03  0.1116685E+04  0.7818609E-02  0.9189081E-01
       -2   -1    0    0    0  501  0.00000000000E+00  0.00000000000E+00  0.40888970323E+03  0.40888970323E+03  0.25500000920E-02 0. -1.
        2   -1    0    0  501    0  0.00000000000E+00  0.00000000000E+00 -0.76242109325E+03  0.76242109325E+03  0.25500000920E-02 0.  1.
    10030    2    1    2    0    0  0.00000000000E+00  0.00000000000E+00 -0.35353139002E+03  0.11713107965E+04  0.11166846190E+04 0.  0.
        2    1    3    3  502    0 -0.41204889082E+03  0.17500996058E+03 -0.52675459423E+03  0.69129094980E+03  0.25500000920E-02 0.  1.
       -2    1    3    3    0  502  0.41204889082E+03 -0.17500996058E+03  0.17322320421E+03  0.48001984669E+03  0.25500000920E-02 0. -1.
</event>
<event>
 5   0  0.3241189E-03  0.1108297E+04  0.7818609E-02  0.9197142E-01
        1   -1    0    0  501    0  0.00000000000E+00  0.00000000000E+00  0.13395936644E+04  0.13395936644E+04  0.50400001928E-02 0.  1.
       -1   -1    0    0    0  501  0.00000000000E+00  0.00000000000E+00 -0.22923424822E+03  0.22923424827E+03  0.50400001928E-02 0. -1.
    10030    2    1    2    0    0  0.00000000000E+00  0.00000000000E+00  0.11103594162E+04  0.15688279127E+04  0.11082973367E+04 0.  0.
        5    1    3    3  502    0 -0.29073554989E+03 -0.42954342026E+03  0.83120419728E+03  0.97977406448E+03  0.46999998093E+01 0.  1.
       -5    1    3    3    0  502  0.29073554989E+03  0.42954342026E+03  0.27915521893E+03  0.58905384823E+03  0.46999998093E+01 0. -1.
</event>
<event>
 5   0  0.3215352E-03  0.1096145E+04  0.7818609E-02  0.9208958E-01
        1   -1    0    0  501    0  0.00000000000E+00  0.00000000000E+00  0.16429168552E+04  0.16429168552E+04  0.50400001928E-02 0.  1.
       -1   -1    0    0    0  501  0.00000000000E+00  0.00000000000E+00 -0.18283538726E+03  0.18283538733E+03  0.50400001928E-02 0. -1.
    10030    2    1    2    0    0  0.00000000000E+00  0.00000000000E+00  0.14600814680E+04  0.18257522426E+04  0.10961447706E+04 0.  0.
        1    1    3    3  502    0 -0.33734375296E+03  0.91098962196E+02  0.26758712334E+02  0.35045093421E+03  0.50400001928E-02 0. -1.
       -1    1    3    3    0  502  0.33734375296E+03 -0.91098962196E+02  0.14333227556E+04  0.14753013084E+04  0.50400001928E-02 0.  1.
</event>
<event>
 5   0  0.5946359E-03  0.1100474E+04  0.7818609E-02  0.9204730E-01
        2   -1    0    0  501    0  0.00000000000E+00  0.00000000000E+00  0.11504764530E+04  0.11504764530E+04  0.25500000920E-02 0.  1.
       -2   -1    0    0    0  501  0.00000000000E+00  0.00000000000E+00 -0.26316133369E+03  0.26316133370E+03  0.25500000920E-02 0. -1.
    10030    2    1    2    0    0  0.00000000000E+00  0.00000000000E+00  0.88731511931E+03  0.14136377867E+04  0.11004742937E+04 0.  0.
        4    1    3    3  502    0  0.12035733363E+03  0.52630361230E+03  0.58007592461E+03  0.79244625767E+03  0.12699999809E+01 0.  1.
       -4    1    3    3    0  502 -0.12035733363E+03 -0.52630361230E+03  0.30723919470E+03  0.62119152903E+03  0.12699999809E+01 0. -1.
</event>
<event>
 5   0  0.3215352E-03  0.1132355E+04  0.7818609E-02  0.9174218E-01
        1   -1    0    0  501    0  0.00000000000E+00  0.00000000000E+00  0.86564468294E+03  0.86564468295E+03  0.50400001928E-02 0. -1.
       -1   -1    0    0    0  501  0.00000000000E+00  0.00000000000E+00 -0.37031012848E+03  0.37031012852E+03  0.50400001928E-02 0.  1.
    10030    2    1    2    0    0  0.00000000000E+00  0.00000000000E+00  0.49533455446E+03  0.12359548115E+04  0.11323550570E+04 0.  0.
        1    1    3    3  502    0 -0.23121507885E+03 -0.21898251315E+03  0.75862387071E+03  0.82275387024E+03  0.50400001928E-02 0. -1.
       -1    1    3    3    0  502  0.23121507885E+03  0.21898251315E+03 -0.26328931625E+03  0.41320094123E+03  0.50400001928E-02 0.  1.
</event>
<event>
 5   0  0.5946359E-03  0.1097034E+04  0.7818609E-02  0.9208088E-01
        2   -1    0    0  501    0  0.00000000000E+00  0.00000000000E+00  0.26106751127E+03  0.26106751128E+03  0.25500000920E-02 0. -1.
       -2   -1    0    0    0  501  0.00000000000E+00  0.00000000000E+00 -0.11524636822E+04  0.11524636822E+04  0.25500000920E-02 0.  1.
    10030    2    1    2    0    0  0.00000000000E+00  0.00000000000E+00 -0.89139617093E+03  0.14135311935E+04  0.10970338652E+04 0.  0.
        4    1    3    3  502    0 -0.94684229131E+02  0.49431602876E+03 -0.16471059552E+03  0.52957023398E+03  0.12699999809E+01 0. -1.
       -4    1    3    3    0  502  0.94684229131E+02 -0.49431602876E+03 -0.72668557541E+03  0.88396095951E+03  0.12699999809E+01 0.  1.
</event>
<event>
 5   0  0.5941585E-03  0.1071329E+04  0.7818609E-02  0.9233596E-01
       -2   -1    0    0    0  501  0.00000000000E+00  0.00000000000E+00  0.33022003938E+03  0.33022003939E+03  0.25500000920E-02 0. -1.
        2   -1    0    0  501    0  0.00000000000E+00  0.00000000000E+00 -0.86892440388E+03  0.86892440389E+03  0.25500000920E-02 0.  1.
    10030    2    1    2    0    0  0.00000000000E+00  0.00000000000E+00 -0.53870436450E+03  0.11991444433E+04  0.10713286160E+04 0.  0.
        5    1    3    3  502    0 -0.46836760208E+03  0.25608777845E+03 -0.31896913217E+03  0.62186216980E+03  0.46999998093E+01 0. -1.
       -5    1    3    3    0  502  0.46836760208E+03 -0.25608777845E+03 -0.21973523233E+03  0.57728227348E+03  0.46999998093E+01 0.  1.
</event>
<event>
 5   0  0.3316784E-03  0.1127612E+04  0.7818609E-02  0.9178690E-01
        1   -1    0    0  501    0  0.00000000000E+00  0.00000000000E+00  0.13816636580E+04  0.13816636580E+04  0.50400001928E-02 0.  1.
       -1   -1    0    0    0  501  0.00000000000E+00  0.00000000000E+00 -0.23006836461E+03  0.23006836466E+03  0.50400001928E-02 0. -1.
    10030    2    1    2    0    0  0.00000000000E+00  0.00000000000E+00  0.11515952934E+04  0.16117320227E+04  0.11276118096E+04 0.  0.
        4    1    3    3  502    0 -0.40807532248E+03  0.20718672369E+02  0.20523183304E+02  0.40911801006E+03  0.12699999809E+01 0. -1.
       -4    1    3    3    0  502  0.40807532248E+03 -0.20718672369E+02  0.11310721101E+04  0.12026140126E+04  0.12699999809E+01 0.  1.
</event>
<event>
 5   0  0.5941585E-03  0.1100465E+04  0.7818609E-02  0.9204739E-01
        2   -1    0    0  501    0  0.00000000000E+00  0.00000000000E+00  0.68058101832E+03  0.68058101833E+03  0.25500000920E-02 0. -1.
       -2   -1    0    0    0  501  0.00000000000E+00  0.00000000000E+00 -0.44484916619E+03  0.44484916619E+03  0.25500000920E-02 0.  1.
    10030    2    1    2    0    0  0.00000000000E+00  0.00000000000E+00  0.23573185214E+03  0.11254301845E+04  0.11004651717E+04 0.  0.
        5    1    3    3  502    0  0.42542928836E+03 -0.19130097055E+03  0.41628641340E+03  0.62522204752E+03  0.46999998093E+01 0. -1.
       -5    1    3    3    0  502 -0.42542928836E+03  0.19130097055E+03 -0.18055456126E+03  0.50020813700E+03  0.46999998093E+01 0.  1.
</event>
<event>
 5   0  0.3320192E-03  0.1018177E+04  0.7818609E-02  0.9288830E-01
       -1   -1    0    0    0  501  0.00000000000E+00  0.00000000000E+00  0.27309787658E+03  0.27309787663E+03  0.50400001928E-02 0. -1.
        1   -1    0    0  501    0  0.00000000000E+00  0.00000000000E+00 -0.94900532792E+03  0.94900532793E+03  0.50400001928E-02 0.  1.
    10030    2    1    2    0    0  0.00000000000E+00  0.00000000000E+00 -0.67590745134E+03  0.12221032046E+04  0.10181774697E+04 0.  0.
        2    1    3    3  502    0  0.20158098264E+03  0.99271403593E+02 -0.88626416734E+03  0.91430513422E+03  0.25500000920E-02 0.  1.
       -2    1    3    3    0  502 -0.20158098264E+03 -0.99271403593E+02  0.21035671600E+03  0.30779807034E+03  0.25500000920E-02 0. -1.
</event>
<event>
 5   0  0.5627232E-03  0.1217899E+04  0.7818609E-02  0.9097332E-01
        2   -1    0    0  501    0  0.00000000000E+00  0.00000000000E+00  0.11996968999E+04  0.11996968999E+04  0.25500000920E-02 0. -1.
       -2   -1    0    0    0  501  0.00000000000E+00  0.00000000000E+00 -0.30909448471E+03  0.30909448472E+03  0.25500000920E-02 0.  1.
    10030    2    1    2    0    0  0.00000000000E+00  0.00000000000E+00  0.89060241517E+03  0.15087913846E+04  0.12178993310E+04 0.  0.
        2    1    3    3  502    0  0.45777430046E+03  0.35156836428E+03  0.20488159240E+03  0.61248191143E+03  0.25500000920E-02 0.  1.
       -2    1    3    3    0  502 -0.45777430046E+03 -0.35156836428E+03  0.68572082277E+03  0.89630947318E+03  0.25500000920E-02 0. -1.
</event>
<event>
 5   0  0.3241189E-03  0.1130078E+04  0.7818609E-02  0.9176362E-01
       -1   -1    0    0    0  501  0.00000000000E+00  0.00000000000E+00  0.18750358939E+03  0.18750358945E+03  0.50400001928E-02 0.  1.
        1   -1    0    0  501    0  0.00000000000E+00  0.00000000000E+00 -0.17027344449E+04  0.17027344449E+04  0.50400001928E-02 0. -1.
    10030    2    1    2    0    0  0.00000000000E+00  0.00000000000E+00 -0.15152308555E+04  0.18902380344E+04  0.11300775553E+04 0.  0.
        5    1    3    3  502    0 -0.92125597919E+02 -0.49682057525E+03 -0.33469668392E+03  0.60610376175E+03  0.46999998093E+01 0.  1.
       -5    1    3    3    0  502  0.92125597919E+02  0.49682057525E+03 -0.11805341716E+04  0.12841342726E+04  0.46999998093E+01 0. -1.
</event>
</LesHouchesEvents>
