<LesHouchesEvents version="3.0">
<header>
<!--
#*********************************************************************
#                                                                    *
#                        MadGraph5_aMC@NLO                           *
#                                                                    *
#                           Going Beyond                             *
#                                                                    *
#                   http://madgraph.hep.uiuc.edu                     *
#                   http://madgraph.phys.ucl.ac.be                   *
#                   http://amcatnlo.cern.ch                          *
#                                                                    *
#                     The MadGraph5_aMC@NLO team                     *
#                                                                    *
#....................................................................*
#                                                                    *
# This file contains all the information necessary to reproduce      *
# the events generated:                                              *
#                                                                    *
# 1. software version                                                *
# 2. proc_card          : code generation info including model       *
# 3. param_card         : model primary parameters in the LH format  *
# 4. run_card           : running parameters (collider and cuts)     *
# 5. pythia_card        : present only if pythia has been run        *
# 6. pgs_card           : present only if pgs has been run           *
# 7. delphes_cards      : present only if delphes has been run       *
#                                                                    *
#                                                                    *
#*********************************************************************
-->
<MGVersion>
#5.2.2.3
</MGVersion>
<MG5ProcCard>
#************************************************************
#*                     MadGraph5_aMC@NLO                    *
#*                                                          *
#*                *                       *                 *
#*                  *        * *        *                   *
#*                    * * * * 5 * * * *                     *
#*                  *        * *        *                   *
#*                *                       *                 *
#*                                                          *
#*                                                          *
#*         VERSION 2.2.3                 2015-02-10         *
#*                                                          *
#*    The MadGraph5_aMC@NLO Development Team - Find us at   *
#*    https://server06.fynu.ucl.ac.be/projects/madgraph     *
#*                                                          *
#************************************************************
#*                                                          *
#*               Command File for MadGraph5_aMC@NLO         *
#*                                                          *
#*     run as ./bin/mg5_aMC  filename                       *
#*                                                          *
#************************************************************
set group_subprocesses Auto
set ignore_six_quark_processes False
set loop_optimized_output True
set gauge unitary
set complex_mass_scheme False
import model sm
define p = g u c d s u~ c~ d~ s~
define j = g u c d s u~ c~ d~ s~
define l+ = e+ mu+
define l- = e- mu-
define vl = ve vm vt
define vl~ = ve~ vm~ vt~
import model Zprime_UFO
generate p p > zph, zph > j j
add process p p > zph, zph > b b~
output Dijet_signal
</MG5ProcCard>
<MGProcCard>
#*********************************************************************
#                        MadGraph/MadEvent                           *
#                   http://madgraph.hep.uiuc.edu                     *
#                                                                    *
#                          proc_card.dat                             *
#*********************************************************************
#                                                                    *
#            This Files is generated by MADGRAPH 5                   *
#                                                                    *
# WARNING: This Files is generated for MADEVENT (compatibility issue)*
#          This files is NOT a valid MG4 proc_card.dat               *
#          Running this in MG4 will NEVER reproduce the result of MG5*
#                                                                    *
#*********************************************************************
#*********************************************************************
# Process(es) requested : mg2 input                                  *
#*********************************************************************
# Begin PROCESS # This is TAG. Do not modify this line
p p > zph , zph > j j           #Process
# Be carefull the coupling are here in MG5 convention
          
end_coup           # End the couplings input

done               # this tells MG there are no more procs
# End PROCESS  # This is TAG. Do not modify this line
#*********************************************************************
# Model information                                                  *
#*********************************************************************
# Begin MODEL  # This is TAG. Do not modify this line
Zprime_UFO
# End   MODEL  # This is TAG. Do not modify this line
#*********************************************************************
# Start multiparticle definitions                                    *
#*********************************************************************
# Begin MULTIPARTICLES # This is TAG. Do not modify this line

# End  MULTIPARTICLES # This is TAG. Do not modify this line
</MGProcCard>
<MGRunCard>
#*********************************************************************
#                       MadGraph5_aMC@NLO                            *
#                                                                    *
#                     run_card.dat MadEvent                          *
#                                                                    *
#  This file is used to set the parameters of the run.               *
#                                                                    *
#  Some notation/conventions:                                        *
#                                                                    *
#   Lines starting with a '# ' are info or comments                  *
#                                                                    *
#   mind the format:   value    = variable     ! comment             *
#*********************************************************************
#
#*******************                                                 
# Running parameters
#*******************                                                 
#                                                                    
#*********************************************************************
# Tag name for the run (one word)                                    *
#*********************************************************************
  tag_1     = run_tag ! name of the run 
#*********************************************************************
# Run to generate the grid pack                                      *
#*********************************************************************
  .false.     = gridpack  !True = setting up the grid pack
#*********************************************************************
# Number of events and rnd seed                                      *
# Warning: Do not generate more than 1M events in a single run       *
# If you want to run Pythia, avoid more than 50k events in a run.    *
#*********************************************************************
  2000 = nevents ! Number of unweighted events requested 
 2676 = iseed   ! rnd seed (0=assigned automatically=default))
#*********************************************************************
# Collider type and energy                                           *
# lpp: 0=No PDF, 1=proton, -1=antiproton, 2=photon from proton,      *
#                                         3=photon from electron     *
#*********************************************************************
        1     = lpp1    ! beam 1 type 
        1     = lpp2    ! beam 2 type
     4000     = ebeam1  ! beam 1 total energy in GeV
     4000     = ebeam2  ! beam 2 total energy in GeV
#*********************************************************************
# Beam polarization from -100 (left-handed) to 100 (right-handed)    *
#*********************************************************************
        0     = polbeam1 ! beam polarization for beam 1
        0     = polbeam2 ! beam polarization for beam 2
#*********************************************************************
# PDF CHOICE: this automatically fixes also alpha_s and its evol.    *
#*********************************************************************
 'nn23lo1'    = pdlabel     ! PDF set                                     
 230000    = lhaid     ! if pdlabel=lhapdf, this is the lhapdf number
#*********************************************************************
# Renormalization and factorization scales                           *
#*********************************************************************
 F        = fixed_ren_scale  ! if .true. use fixed ren scale
 F        = fixed_fac_scale  ! if .true. use fixed fac scale
 91.1880  = scale            ! fixed ren scale
 91.1880  = dsqrt_q2fact1    ! fixed fact scale for pdf1
 91.1880  = dsqrt_q2fact2    ! fixed fact scale for pdf2
 1        = scalefact        ! scale factor for event-by-event scales
#*********************************************************************
# Matching - Warning! ickkw > 1 is still beta
#*********************************************************************
 0        = ickkw            ! 0 no matching, 1 MLM, 2 CKKW matching
 1        = highestmult      ! for ickkw=2, highest mult group
 1        = ktscheme         ! for ickkw=1, 1 Durham kT, 2 Pythia pTE
 1        = alpsfact         ! scale factor for QCD emission vx
 F        = chcluster        ! cluster only according to channel diag
 T        = pdfwgt           ! for ickkw=1, perform pdf reweighting
 5        = asrwgtflavor     ! highest quark flavor for a_s reweight
 T        = clusinfo         ! include clustering tag in output
 3.0      = lhe_version       ! Change the way clustering information pass to shower.        
#*********************************************************************
#**********************************************************
#
#**********************************************************
# Automatic ptj and mjj cuts if xqcut > 0
# (turn off for VBF and single top processes)
#**********************************************************
   T  = auto_ptj_mjj  ! Automatic setting of ptj and mjj
#**********************************************************
#                                                                    
#**********************************
# BW cutoff (M+/-bwcutoff*Gamma)
#**********************************
  15  = bwcutoff      ! (M+/-bwcutoff*Gamma)
#**********************************************************
# Apply pt/E/eta/dr/mij cuts on decay products or not
# (note that etmiss/ptll/ptheavy/ht/sorted cuts always apply)
#**********************************************************
   T  = cut_decays    ! Cut decay products 
#*************************************************************
# Number of helicities to sum per event (0 = all helicities)
# 0 gives more stable result, but longer run time (needed for
# long decay chains e.g.).
# Use >=2 if most helicities contribute, e.g. pure QCD.
#*************************************************************
   0  = nhel          ! Number of helicities used per event
#*******************                                                 
# Standard Cuts
#*******************                                                 
#                                                                    
#*********************************************************************
# Minimum and maximum pt's (for max, -1 means no cut)                *
#*********************************************************************
 20  = ptj       ! minimum pt for the jets 
  0  = ptb       ! minimum pt for the b 
 10  = pta       ! minimum pt for the photons 
 10  = ptl       ! minimum pt for the charged leptons 
  0  = misset    ! minimum missing Et (sum of neutrino's momenta)
  0  = ptheavy   ! minimum pt for one heavy final state
 1.0 = ptonium   ! minimum pt for the quarkonium states
 -1  = ptjmax    ! maximum pt for the jets
 -1  = ptbmax    ! maximum pt for the b
 -1  = ptamax    ! maximum pt for the photons
 -1  = ptlmax    ! maximum pt for the charged leptons
 -1  = missetmax ! maximum missing Et (sum of neutrino's momenta)
#*********************************************************************
# Minimum and maximum E's (in the center of mass frame)              *
#*********************************************************************
  0  = ej     ! minimum E for the jets 
  0  = eb     ! minimum E for the b 
  0  = ea     ! minimum E for the photons 
  0  = el     ! minimum E for the charged leptons 
 -1   = ejmax ! maximum E for the jets
 -1   = ebmax ! maximum E for the b
 -1   = eamax ! maximum E for the photons
 -1   = elmax ! maximum E for the charged leptons
#*********************************************************************
# Maximum and minimum absolute rapidity (for max, -1 means no cut)   *
#*********************************************************************
   5  = etaj    ! max rap for the jets 
  -1  = etab    ! max rap for the b
 2.5  = etaa    ! max rap for the photons 
 2.5  = etal    ! max rap for the charged leptons 
 0.6  = etaonium ! max rap for the quarkonium states
   0  = etajmin ! min rap for the jets
   0  = etabmin ! min rap for the b
   0  = etaamin ! min rap for the photons
   0  = etalmin ! main rap for the charged leptons
#*********************************************************************
# Minimum and maximum DeltaR distance                                *
#*********************************************************************
 0.4 = drjj    ! min distance between jets 
 0   = drbb    ! min distance between b's 
 0.4 = drll    ! min distance between leptons 
 0.4 = draa    ! min distance between gammas 
 0   = drbj    ! min distance between b and jet 
 0.4 = draj    ! min distance between gamma and jet 
 0.4 = drjl    ! min distance between jet and lepton 
 0   = drab    ! min distance between gamma and b 
 0   = drbl    ! min distance between b and lepton 
 0.4 = dral    ! min distance between gamma and lepton 
 -1  = drjjmax ! max distance between jets
 -1  = drbbmax ! max distance between b's
 -1  = drllmax ! max distance between leptons
 -1  = draamax ! max distance between gammas
 -1  = drbjmax ! max distance between b and jet
 -1  = drajmax ! max distance between gamma and jet
 -1  = drjlmax ! max distance between jet and lepton
 -1  = drabmax ! max distance between gamma and b
 -1  = drblmax ! max distance between b and lepton
 -1  = dralmax ! maxdistance between gamma and lepton
#*********************************************************************
# Minimum and maximum invariant mass for pairs                       *
# WARNING: for four lepton final state mmll cut require to have      *
#          different lepton masses for each flavor!                  *           
#*********************************************************************
 0   = mmjj    ! min invariant mass of a jet pair 
 0   = mmbb    ! min invariant mass of a b pair 
 0   = mmaa    ! min invariant mass of gamma gamma pair
 0   = mmll    ! min invariant mass of l+l- (same flavour) lepton pair
 -1  = mmjjmax ! max invariant mass of a jet pair
 -1  = mmbbmax ! max invariant mass of a b pair
 -1  = mmaamax ! max invariant mass of gamma gamma pair
 -1  = mmllmax ! max invariant mass of l+l- (same flavour) lepton pair
#*********************************************************************
# Minimum and maximum invariant mass for all letpons                 *
#*********************************************************************
 0   = mmnl    ! min invariant mass for all letpons (l+- and vl) 
 -1  = mmnlmax ! max invariant mass for all letpons (l+- and vl) 
#*********************************************************************
# Minimum and maximum pt for 4-momenta sum of leptons                *
#*********************************************************************
 0   = ptllmin  ! Minimum pt for 4-momenta sum of leptons(l and vl)
 -1  = ptllmax  ! Maximum pt for 4-momenta sum of leptons(l and vl)
#*********************************************************************
# Inclusive cuts                                                     *
#*********************************************************************
 0  = xptj ! minimum pt for at least one jet  
 0  = xptb ! minimum pt for at least one b 
 0  = xpta ! minimum pt for at least one photon 
 0  = xptl ! minimum pt for at least one charged lepton 
#*********************************************************************
# Control the pt's of the jets sorted by pt                          *
#*********************************************************************
 0   = ptj1min ! minimum pt for the leading jet in pt
 0   = ptj2min ! minimum pt for the second jet in pt
 0   = ptj3min ! minimum pt for the third jet in pt
 0   = ptj4min ! minimum pt for the fourth jet in pt
 -1  = ptj1max ! maximum pt for the leading jet in pt 
 -1  = ptj2max ! maximum pt for the second jet in pt
 -1  = ptj3max ! maximum pt for the third jet in pt
 -1  = ptj4max ! maximum pt for the fourth jet in pt
 0   = cutuse  ! reject event if fails any (0) / all (1) jet pt cuts
#*********************************************************************
# Control the pt's of leptons sorted by pt                           *
#*********************************************************************
 0   = ptl1min ! minimum pt for the leading lepton in pt
 0   = ptl2min ! minimum pt for the second lepton in pt
 0   = ptl3min ! minimum pt for the third lepton in pt
 0   = ptl4min ! minimum pt for the fourth lepton in pt
 -1  = ptl1max ! maximum pt for the leading lepton in pt 
 -1  = ptl2max ! maximum pt for the second lepton in pt
 -1  = ptl3max ! maximum pt for the third lepton in pt
 -1  = ptl4max ! maximum pt for the fourth lepton in pt
#*********************************************************************
# Control the Ht(k)=Sum of k leading jets                            *
#*********************************************************************
 0   = htjmin ! minimum jet HT=Sum(jet pt)
 -1  = htjmax ! maximum jet HT=Sum(jet pt)
 0   = ihtmin  !inclusive Ht for all partons (including b)
 -1  = ihtmax  !inclusive Ht for all partons (including b)
 0   = ht2min ! minimum Ht for the two leading jets
 0   = ht3min ! minimum Ht for the three leading jets
 0   = ht4min ! minimum Ht for the four leading jets
 -1  = ht2max ! maximum Ht for the two leading jets
 -1  = ht3max ! maximum Ht for the three leading jets
 -1  = ht4max ! maximum Ht for the four leading jets
#***********************************************************************
# Photon-isolation cuts, according to hep-ph/9801442                   *
# When ptgmin=0, all the other parameters are ignored                  *
# When ptgmin>0, pta and draj are not going to be used                 *
#***********************************************************************
   0 = ptgmin ! Min photon transverse momentum
 0.4 = R0gamma ! Radius of isolation code
 1.0 = xn ! n parameter of eq.(3.4) in hep-ph/9801442
 1.0 = epsgamma ! epsilon_gamma parameter of eq.(3.4) in hep-ph/9801442
 .true. = isoEM ! isolate photons from EM energy (photons and leptons)
#*********************************************************************
# WBF cuts                                                           *
#*********************************************************************
 0   = xetamin ! minimum rapidity for two jets in the WBF case  
 0   = deltaeta ! minimum rapidity for two jets in the WBF case 
#*********************************************************************
# KT DURHAM CUT                                                      *
#*********************************************************************
 -1    =  ktdurham        
 0.4  =  dparameter 
#*********************************************************************
# maximal pdg code for quark to be considered as a light jet         *
# (otherwise b cuts are applied)                                     *
#*********************************************************************
 4 = maxjetflavor    ! Maximum jet pdg code
#*********************************************************************
# Jet measure cuts                                                   *
#*********************************************************************
 0   = xqcut   ! minimum kt jet measure between partons
#*********************************************************************
#
#*********************************************************************
# Store info for systematics studies                                 *
# WARNING: If use_syst is T, matched Pythia output is                *
#          meaningful ONLY if plotted taking matchscale              *
#          reweighting into account!                                 *
#*********************************************************************
   F  = use_syst      ! Enable systematics studies
#
#**************************************
# Parameter of the systematics study
#  will be used by SysCalc (if installed)
#**************************************                                  
#
0.5 1 2 = sys_scalefact  # factorization/renormalization scale factor
0.5 1 2 = sys_alpsfact  # \alpha_s emission scale factors
30 50 = sys_matchscale # variation of merging scale
# PDF sets and number of members (0 or none for all members).
CT10nlo.LHgrid = sys_pdf # matching scales
# MSTW2008nlo68cl.LHgrid 1  = sys_pdf
</MGRunCard>
<slha>
######################################################################
## PARAM_CARD AUTOMATICALY GENERATED BY MG5 FOLLOWING UFO MODEL   ####
######################################################################
##                                                                  ##
##  Width set on Auto will be computed following the information    ##
##        present in the decay.py files of the model.               ##
##        See  arXiv:1402.1178 for more details.                    ##
##                                                                  ##
######################################################################

###################################
## INFORMATION FOR CKMBLOCK
###################################
Block ckmblock 
    1 2.277360e-01 # cabi 

###################################
## INFORMATION FOR FRBLOCK
###################################
Block frblock 
    1 1.400000e+00 # gz 

###################################
## INFORMATION FOR MASS
###################################
Block mass 
    1 5.040000e-03 # MD 
    2 2.550000e-03 # MU 
    3 1.010000e-01 # MS 
    4 1.270000e+00 # MC 
    5 4.700000e+00 # MB 
    6 1.720000e+02 # MT 
   11 5.110000e-04 # Me 
   13 1.056600e-01 # MM 
   15 1.777000e+00 # MTA 
   23 9.118760e+01 # MZ 
   25 1.200000e+02 # MH 
  10030 3.100000e+03 # MZph 
  10031 3.000000e+02 # MZpl 
## Dependent parameters, given by model restrictions.
## Those values should be edited following the 
## analytical expression. MG5 ignores those values 
## but they are important for interfacing the output of MG5
## to external program such as Pythia.
  12 0.000000 # ve : 0.0 
  14 0.000000 # vm : 0.0 
  16 0.000000 # vt : 0.0 
  21 0.000000 # g : 0.0 
  22 0.000000 # a : 0.0 
  24 79.824360 # w+ : cmath.sqrt(MZ__exp__2/2. + cmath.sqrt(MZ__exp__4/4. - (aEW*cmath.pi*MZ__exp__2)/(Gf*sqrt__2))) 

###################################
## INFORMATION FOR SMINPUTS
###################################
Block sminputs 
    1 1.279000e+02 # aEWM1 
    2 1.166370e-05 # Gf 
    3 1.184000e-01 # aS 

###################################
## INFORMATION FOR YUKAWA
###################################
Block yukawa 
    1 5.040000e-03 # ymdo 
    2 2.550000e-03 # ymup 
    3 1.010000e-01 # yms 
    4 1.270000e+00 # ymc 
    5 4.700000e+00 # ymb 
    6 1.720000e+02 # ymt 
   11 5.110000e-04 # yme 
   13 1.056600e-01 # ymm 
   15 1.777000e+00 # ymtau 

###################################
## INFORMATION FOR DECAY
###################################
DECAY   6 1.508336e+00 # WT 
DECAY  23 2.495200e+00 # WZ 
DECAY  24 2.085000e+00 # WW 
DECAY  25 5.753088e-03 # WH 
## Dependent parameters, given by model restrictions.
## Those values should be edited following the 
## analytical expression. MG5 ignores those values 
## but they are important for interfacing the output of MG5
## to external program such as Pythia.
DECAY  1 0.000000 # d : 0.0 
DECAY  2 0.000000 # u : 0.0 
DECAY  3 0.000000 # s : 0.0 
DECAY  4 0.000000 # c : 0.0 
DECAY  5 0.000000 # b : 0.0 
DECAY  11 0.000000 # e- : 0.0 
DECAY  12 0.000000 # ve : 0.0 
DECAY  13 0.000000 # mu- : 0.0 
DECAY  14 0.000000 # vm : 0.0 
DECAY  15 0.000000 # ta- : 0.0 
DECAY  16 0.000000 # vt : 0.0 
DECAY  21 0.000000 # g : 0.0 
DECAY  22 0.000000 # a : 0.0 
DECAY  10030 0.308725 # zph : (gz__exp__2*MZph*(5 + cmath.sqrt(1 - (4*MT__exp__2)/MZph__exp__2)))/(144.*cmath.pi) 
DECAY  10031 0.132629 # zpl : (5*gz__exp__2*MZpl)/(144.*cmath.pi) 
#===========================================================
# QUANTUM NUMBERS OF NEW STATE(S) (NON SM PDG CODE)
#===========================================================

Block QNUMBERS 10030  # zph 
        1 0  # 3 times electric charge
        2 3  # number of spin states (2S+1)
        3 1  # colour rep (1: singlet, 3: triplet, 8: octet)
        4 0  # Particle/Antiparticle distinction (0=own anti)
Block QNUMBERS 10031  # zpl 
        1 0  # 3 times electric charge
        2 3  # number of spin states (2S+1)
        3 1  # colour rep (1: singlet, 3: triplet, 8: octet)
        4 0  # Particle/Antiparticle distinction (0=own anti)
</slha>
## END BANNER##
<MGGenerationInfo>
#  Number of Events        :         3971
#  Integrated weight (pb)  :  0.19146E-02
#  Max wgt                 :  0.74148E-06
#  Average wgt             :  0.48215E-06
</MGGenerationInfo>
</header>
<init>
     2212     2212  0.40000000000E+04  0.40000000000E+04 0 0  247000  247000 2   1
  0.19173691419E-02  0.52364627108E-05  0.74148080000E-06   0
</init>
<event>
 5   0  0.7071012E-06  0.3115078E+04  0.7818609E-02  0.8211612E-01
       -2   -1    0    0    0  501  0.00000000000E+00  0.00000000000E+00  0.84579776777E+03  0.84579776777E+03  0.25500000920E-02 0. -1.
        2   -1    0    0  501    0  0.00000000000E+00  0.00000000000E+00 -0.28682116170E+04  0.28682116170E+04  0.25500000920E-02 0.  1.
    10030    2    1    2    0    0  0.00000000000E+00  0.00000000000E+00 -0.20224138492E+04  0.37140093848E+04  0.31150775163E+04 0.  0.
        1    1    3    3  502    0 -0.12891548036E+04  0.20422574020E+03 -0.20244941372E+04  0.24087766131E+04  0.50400001928E-02 0.  1.
       -1    1    3    3    0  502  0.12891548036E+04 -0.20422574020E+03  0.20802879512E+01  0.13052327716E+04  0.50400001928E-02 0. -1.
</event>
<event>
 5   0  0.7071012E-06  0.3352713E+04  0.7818609E-02  0.8149610E-01
        2   -1    0    0  501    0  0.00000000000E+00  0.00000000000E+00  0.14457898667E+04  0.14457898667E+04  0.25500000920E-02 0.  1.
       -2   -1    0    0    0  501  0.00000000000E+00  0.00000000000E+00 -0.19436931721E+04  0.19436931721E+04  0.25500000920E-02 0. -1.
    10030    2    1    2    0    0  0.00000000000E+00  0.00000000000E+00 -0.49790330544E+03  0.33894830388E+04  0.33527134636E+04 0.  0.
        1    1    3    3  502    0 -0.16482306460E+03 -0.16453825827E+04 -0.52714475754E+03  0.17356071219E+04  0.50400001928E-02 0.  1.
       -1    1    3    3    0  502  0.16482306460E+03  0.16453825827E+04  0.29241452104E+02  0.16538759169E+04  0.50400001928E-02 0. -1.
</event>
<event>
 5   0  0.7094341E-06  0.2981832E+04  0.7818609E-02  0.8248938E-01
        2   -1    0    0  501    0  0.00000000000E+00  0.00000000000E+00  0.14529967321E+04  0.14529967321E+04  0.25500000920E-02 0.  1.
       -2   -1    0    0    0  501  0.00000000000E+00  0.00000000000E+00 -0.15298249540E+04  0.15298249540E+04  0.25500000920E-02 0. -1.
    10030    2    1    2    0    0  0.00000000000E+00  0.00000000000E+00 -0.76828221916E+02  0.29828216861E+04  0.29818320938E+04 0.  0.
        3    1    3    3  502    0 -0.25070757393E+02 -0.82605618030E+03  0.12028979060E+04  0.14594385011E+04  0.10100000352E+00 0.  1.
       -3    1    3    3    0  502  0.25070757393E+02  0.82605618030E+03 -0.12797261279E+04  0.15233831851E+04  0.10100000352E+00 0. -1.
</event>
<event>
 5   0  0.7071012E-06  0.2495245E+04  0.7818609E-02  0.8404682E-01
       -2   -1    0    0    0  501  0.00000000000E+00  0.00000000000E+00  0.88159490090E+03  0.88159490091E+03  0.25500000920E-02 0. -1.
        2   -1    0    0  501    0  0.00000000000E+00  0.00000000000E+00 -0.17656196630E+04  0.17656196630E+04  0.25500000920E-02 0.  1.
    10030    2    1    2    0    0  0.00000000000E+00  0.00000000000E+00 -0.88402476208E+03  0.26472145639E+04  0.24952445105E+04 0.  0.
        1    1    3    3  502    0 -0.92084390176E+02  0.11495608879E+04 -0.94701992148E+03  0.14922521575E+04  0.50400001928E-02 0.  1.
       -1    1    3    3    0  502  0.92084390176E+02 -0.11495608879E+04  0.62995159403E+02  0.11549624064E+04  0.50400001928E-02 0. -1.
</event>
<event>
 5   0  0.7094341E-06  0.3054108E+04  0.7818609E-02  0.8228447E-01
        2   -1    0    0  501    0  0.00000000000E+00  0.00000000000E+00  0.22667736612E+04  0.22667736612E+04  0.25500000920E-02 0. -1.
       -2   -1    0    0    0  501  0.00000000000E+00  0.00000000000E+00 -0.10287282594E+04  0.10287282594E+04  0.25500000920E-02 0.  1.
    10030    2    1    2    0    0  0.00000000000E+00  0.00000000000E+00  0.12380454018E+04  0.32955019206E+04  0.30541081336E+04 0.  0.
        3    1    3    3  502    0  0.59794946934E+03  0.82161766081E+03 -0.61093743870E+03  0.11856828044E+04  0.10100000352E+00 0.  1.
       -3    1    3    3    0  502 -0.59794946934E+03 -0.82161766081E+03  0.18489828405E+04  0.21098191162E+04  0.10100000352E+00 0. -1.
</event>
<event>
 5   0  0.2624011E-06  0.2808728E+04  0.7818609E-02  0.8300564E-01
        1   -1    0    0  501    0  0.00000000000E+00  0.00000000000E+00  0.21478892989E+04  0.21478892989E+04  0.50400001928E-02 0.  1.
       -1   -1    0    0    0  501  0.00000000000E+00  0.00000000000E+00 -0.91822179487E+03  0.91822179488E+03  0.50400001928E-02 0. -1.
    10030    2    1    2    0    0  0.00000000000E+00  0.00000000000E+00  0.12296675040E+04  0.30661110938E+04  0.28087283722E+04 0.  0.
        1    1    3    3  502    0  0.67190030122E+03 -0.11204250211E+04  0.11772508128E+04  0.17586135786E+04  0.50400001928E-02 0.  1.
       -1    1    3    3    0  502 -0.67190030122E+03  0.11204250211E+04  0.52416691236E+02  0.13074975152E+04  0.50400001928E-02 0. -1.
</event>
<event>
 5   0  0.2517725E-06  0.2126360E+04  0.7818609E-02  0.8549720E-01
        1   -1    0    0  501    0  0.00000000000E+00  0.00000000000E+00  0.14095416700E+04  0.14095416700E+04  0.50400001928E-02 0. -1.
       -1   -1    0    0    0  501  0.00000000000E+00  0.00000000000E+00 -0.80192820985E+03  0.80192820986E+03  0.50400001928E-02 0.  1.
    10030    2    1    2    0    0  0.00000000000E+00  0.00000000000E+00  0.60761346011E+03  0.22114698798E+04  0.21263595445E+04 0.  0.
        3    1    3    3  502    0 -0.10609665328E+04  0.60028641475E+02  0.26934752752E+03  0.10962670853E+04  0.10100000352E+00 0. -1.
       -3    1    3    3    0  502  0.10609665328E+04 -0.60028641475E+02  0.33826593259E+03  0.11152027945E+04  0.10100000352E+00 0.  1.
</event>
<event>
 5   0  0.7071012E-06  0.3144288E+04  0.7818609E-02  0.8203687E-01
       -2   -1    0    0    0  501  0.00000000000E+00  0.00000000000E+00  0.12182522027E+04  0.12182522028E+04  0.25500000920E-02 0.  1.
        2   -1    0    0  501    0  0.00000000000E+00  0.00000000000E+00 -0.20288387635E+04  0.20288387635E+04  0.25500000920E-02 0. -1.
    10030    2    1    2    0    0  0.00000000000E+00  0.00000000000E+00 -0.81058656076E+03  0.32470909663E+04  0.31442883409E+04 0.  0.
        1    1    3    3  502    0 -0.11922497574E+04  0.13611200606E+03  0.64361753001E+03  0.13617009536E+04  0.50400001928E-02 0.  1.
       -1    1    3    3    0  502  0.11922497574E+04 -0.13611200606E+03 -0.14542040908E+04  0.18853900126E+04  0.50400001928E-02 0. -1.
</event>
<event>
 5   0  0.2598987E-06  0.2829326E+04  0.7818609E-02  0.8294221E-01
        1   -1    0    0  501    0  0.00000000000E+00  0.00000000000E+00  0.15460582522E+04  0.15460582522E+04  0.50400001928E-02 0.  1.
       -1   -1    0    0    0  501  0.00000000000E+00  0.00000000000E+00 -0.12944345316E+04  0.12944345316E+04  0.50400001928E-02 0. -1.
    10030    2    1    2    0    0  0.00000000000E+00  0.00000000000E+00  0.25162372065E+03  0.28404927838E+04  0.28293258487E+04 0.  0.
        2    1    3    3  502    0 -0.11154200832E+04  0.81012405273E+03 -0.19294442249E+03  0.13920095161E+04  0.25500000920E-02 0. -1.
       -2    1    3    3    0  502  0.11154200832E+04 -0.81012405273E+03  0.44456814314E+03  0.14484832677E+04  0.25500000920E-02 0.  1.
</event>
<event>
 5   0  0.7071012E-06  0.3005074E+04  0.7818609E-02  0.8242283E-01
        2   -1    0    0  501    0  0.00000000000E+00  0.00000000000E+00  0.12818110564E+04  0.12818110564E+04  0.25500000920E-02 0. -1.
       -2   -1    0    0    0  501  0.00000000000E+00  0.00000000000E+00 -0.17612716385E+04  0.17612716385E+04  0.25500000920E-02 0.  1.
    10030    2    1    2    0    0  0.00000000000E+00  0.00000000000E+00 -0.47946058215E+03  0.30430826949E+04  0.30050740154E+04 0.  0.
        1    1    3    3  502    0 -0.17969518690E+02  0.13348232340E+04  0.45858698783E+03  0.14115162043E+04  0.50400001928E-02 0. -1.
       -1    1    3    3    0  502  0.17969518690E+02 -0.13348232340E+04 -0.93804756998E+03  0.16315664906E+04  0.50400001928E-02 0.  1.
</event>
<event>
 5   0  0.2393250E-06  0.3098073E+04  0.7818609E-02  0.8216267E-01
        4   -1    0    0  501    0  0.00000000000E+00  0.00000000000E+00  0.16700608938E+04  0.16700613766E+04  0.12699999809E+01 0. -1.
       -4   -1    0    0    0  501  0.00000000000E+00  0.00000000000E+00 -0.14367814563E+04  0.14367820176E+04  0.12699999809E+01 0.  1.
    10030    2    1    2    0    0  0.00000000000E+00  0.00000000000E+00  0.23327943743E+03  0.31068433943E+04  0.30980730431E+04 0.  0.
        2    1    3    3  502    0  0.56560282642E+03  0.39443389185E+03 -0.12743809146E+04  0.14489759721E+04  0.25500000920E-02 0.  1.
       -2    1    3    3    0  502 -0.56560282642E+03 -0.39443389185E+03  0.15076603520E+04  0.16578674221E+04  0.25500000920E-02 0. -1.
</event>
<event>
 5   0  0.7079223E-06  0.2879473E+04  0.7818609E-02  0.8279011E-01
        2   -1    0    0  501    0  0.00000000000E+00  0.00000000000E+00  0.21026528010E+04  0.21026528010E+04  0.25500000920E-02 0. -1.
       -2   -1    0    0    0  501  0.00000000000E+00  0.00000000000E+00 -0.98582219134E+03  0.98582219135E+03  0.25500000920E-02 0.  1.
    10030    2    1    2    0    0  0.00000000000E+00  0.00000000000E+00  0.11168306097E+04  0.30884749924E+04  0.28794734185E+04 0.  0.
        5    1    3    3  502    0  0.49591935747E+03 -0.33720440178E+02  0.20076918664E+04  0.20683137571E+04  0.46999998093E+01 0. -1.
       -5    1    3    3    0  502 -0.49591935747E+03  0.33720440178E+02 -0.89086125675E+03  0.10201612353E+04  0.46999998093E+01 0.  1.
</event>
<event>
 5   0  0.2674441E-06  0.3155574E+04  0.7818609E-02  0.8200649E-01
       -1   -1    0    0    0  501  0.00000000000E+00  0.00000000000E+00  0.19437031686E+04  0.19437031686E+04  0.50400001928E-02 0. -1.
        1   -1    0    0  501    0  0.00000000000E+00  0.00000000000E+00 -0.12807572079E+04  0.12807572079E+04  0.50400001928E-02 0.  1.
    10030    2    1    2    0    0  0.00000000000E+00  0.00000000000E+00  0.66294596068E+03  0.32244603765E+04  0.31555740164E+04 0.  0.
        5    1    3    3  502    0  0.10634936640E+04  0.39812733002E+03  0.14507690428E+04  0.18423563851E+04  0.46999998093E+01 0. -1.
       -5    1    3    3    0  502 -0.10634936640E+04 -0.39812733002E+03 -0.78782308216E+03  0.13821039914E+04  0.46999998093E+01 0.  1.
</event>
<event>
 5   0  0.2393250E-06  0.3121105E+04  0.7818609E-02  0.8209970E-01
       -3   -1    0    0    0  501  0.00000000000E+00  0.00000000000E+00  0.25212951903E+04  0.25212951923E+04  0.10100000352E+00 0. -1.
        3   -1    0    0  501    0  0.00000000000E+00  0.00000000000E+00 -0.96590211528E+03  0.96590212056E+03  0.10100000352E+00 0.  1.
    10030    2    1    2    0    0  0.00000000000E+00  0.00000000000E+00  0.15553930750E+04  0.34871973129E+04  0.31211051698E+04 0.  0.
        5    1    3    3  502    0 -0.39879260876E+03 -0.14542084161E+04  0.32862620465E+03  0.15433000145E+04  0.46999998093E+01 0.  1.
       -5    1    3    3    0  502  0.39879260876E+03  0.14542084161E+04  0.12267668703E+04  0.19438972983E+04  0.46999998093E+01 0. -1.
</event>
<event>
 5   0  0.2624011E-06  0.3112785E+04  0.7818609E-02  0.8212238E-01
        1   -1    0    0  501    0  0.00000000000E+00  0.00000000000E+00  0.23638955570E+04  0.23638955570E+04  0.50400001928E-02 0.  1.
       -1   -1    0    0    0  501  0.00000000000E+00  0.00000000000E+00 -0.10247315561E+04  0.10247315561E+04  0.50400001928E-02 0. -1.
    10030    2    1    2    0    0  0.00000000000E+00  0.00000000000E+00  0.13391640010E+04  0.33886271131E+04  0.31127854874E+04 0.  0.
        1    1    3    3  502    0  0.26781226785E+03 -0.87221698602E+03  0.20422191098E+04  0.22367710598E+04  0.50400001928E-02 0.  1.
       -1    1    3    3    0  502 -0.26781226785E+03  0.87221698602E+03 -0.70305510883E+03  0.11518560533E+04  0.50400001928E-02 0. -1.
</event>
<event>
 5   0  0.2517725E-06  0.3088338E+04  0.7818609E-02  0.8218946E-01
        1   -1    0    0  501    0  0.00000000000E+00  0.00000000000E+00  0.15199750172E+04  0.15199750172E+04  0.50400001928E-02 0. -1.
       -1   -1    0    0    0  501  0.00000000000E+00  0.00000000000E+00 -0.15687478900E+04  0.15687478900E+04  0.50400001928E-02 0.  1.
    10030    2    1    2    0    0  0.00000000000E+00  0.00000000000E+00 -0.48772872853E+02  0.30887229072E+04  0.30883378061E+04 0.  0.
        3    1    3    3  502    0 -0.50582147850E+02  0.49098525405E+03  0.14389544173E+04  0.15212543833E+04  0.10100000352E+00 0. -1.
       -3    1    3    3    0  502  0.50582147850E+02 -0.49098525405E+03 -0.14877272902E+04  0.15674685239E+04  0.10100000352E+00 0.  1.
</event>
<event>
 5   0  0.2517725E-06  0.3516989E+04  0.7818609E-02  0.8109775E-01
        1   -1    0    0  501    0  0.00000000000E+00  0.00000000000E+00  0.33363822678E+04  0.33363822678E+04  0.50400001928E-02 0. -1.
       -1   -1    0    0    0  501  0.00000000000E+00  0.00000000000E+00 -0.92684337018E+03  0.92684337020E+03  0.50400001928E-02 0.  1.
    10030    2    1    2    0    0  0.00000000000E+00  0.00000000000E+00  0.24095388976E+04  0.42632256380E+04  0.35169894998E+04 0.  0.
        3    1    3    3  502    0  0.15618216749E+04  0.63263634539E+03  0.18142299262E+04  0.24760747010E+04  0.10100000352E+00 0. -1.
       -3    1    3    3    0  502 -0.15618216749E+04 -0.63263634539E+03  0.59530897140E+03  0.17871509369E+04  0.10100000352E+00 0.  1.
</event>
<event>
 5   0  0.7071012E-06  0.3102579E+04  0.7818609E-02  0.8215031E-01
        2   -1    0    0  501    0  0.00000000000E+00  0.00000000000E+00  0.15067890736E+04  0.15067890736E+04  0.25500000920E-02 0.  1.
       -2   -1    0    0    0  501  0.00000000000E+00  0.00000000000E+00 -0.15971039765E+04  0.15971039765E+04  0.25500000920E-02 0. -1.
    10030    2    1    2    0    0  0.00000000000E+00  0.00000000000E+00 -0.90314902904E+02  0.31038930502E+04  0.31025788121E+04 0.  0.
        1    1    3    3  502    0 -0.10267674360E+04  0.79205946207E+03 -0.89692239074E+03  0.15767305839E+04  0.50400001928E-02 0. -1.
       -1    1    3    3    0  502  0.10267674360E+04 -0.79205946207E+03  0.80660748784E+03  0.15271624663E+04  0.50400001928E-02 0.  1.
</event>
<event>
 5   0  0.2612331E-06  0.3103406E+04  0.7818609E-02  0.8214804E-01
        1   -1    0    0  501    0  0.00000000000E+00  0.00000000000E+00  0.16120062527E+04  0.16120062527E+04  0.50400001928E-02 0.  1.
       -1   -1    0    0    0  501  0.00000000000E+00  0.00000000000E+00 -0.14936554865E+04  0.14936554865E+04  0.50400001928E-02 0. -1.
    10030    2    1    2    0    0  0.00000000000E+00  0.00000000000E+00  0.11835076621E+03  0.31056617392E+04  0.31034058604E+04 0.  0.
        4    1    3    3  502    0  0.59970017313E+03  0.14120032704E+04 -0.17420399557E+03  0.15439372326E+04  0.12699999809E+01 0.  1.
       -4    1    3    3    0  502 -0.59970017313E+03 -0.14120032704E+04  0.29255476178E+03  0.15617245067E+04  0.12699999809E+01 0. -1.
</event>
<event>
 5   0  0.2624011E-06  0.2952761E+04  0.7818609E-02  0.8257350E-01
        1   -1    0    0  501    0  0.00000000000E+00  0.00000000000E+00  0.10643505611E+04  0.10643505611E+04  0.50400001928E-02 0.  1.
       -1   -1    0    0    0  501  0.00000000000E+00  0.00000000000E+00 -0.20479148280E+04  0.20479148280E+04  0.50400001928E-02 0. -1.
    10030    2    1    2    0    0  0.00000000000E+00  0.00000000000E+00 -0.98356426691E+03  0.31122653891E+04  0.29527609427E+04 0.  0.
        1    1    3    3  502    0 -0.11249636122E+04  0.50855360283E+03  0.36160172241E+03  0.12864391557E+04  0.50400001928E-02 0.  1.
       -1    1    3    3    0  502  0.11249636122E+04 -0.50855360283E+03 -0.13451659893E+04  0.18258262334E+04  0.50400001928E-02 0. -1.
</event>
<event>
 5   0  0.7414808E-06  0.2898208E+04  0.7818609E-02  0.8273411E-01
        2   -1    0    0  501    0  0.00000000000E+00  0.00000000000E+00  0.12573250936E+04  0.12573250936E+04  0.25500000920E-02 0. -1.
       -2   -1    0    0    0  501  0.00000000000E+00  0.00000000000E+00 -0.16701348622E+04  0.16701348622E+04  0.25500000920E-02 0.  1.
    10030    2    1    2    0    0  0.00000000000E+00  0.00000000000E+00 -0.41280976856E+03  0.29274599558E+04  0.28982080477E+04 0.  0.
        2    1    3    3  502    0  0.60591899652E+03  0.78302967883E+03 -0.12752099567E+04  0.16144453357E+04  0.25500000920E-02 0.  1.
       -2    1    3    3    0  502 -0.60591899652E+03 -0.78302967883E+03  0.86240018812E+03  0.13130146202E+04  0.25500000920E-02 0. -1.
</event>
<event>
 5   0  0.2517725E-06  0.3073038E+04  0.7818609E-02  0.8223177E-01
        1   -1    0    0  501    0  0.00000000000E+00  0.00000000000E+00  0.14440906158E+04  0.14440906158E+04  0.50400001928E-02 0. -1.
       -1   -1    0    0    0  501  0.00000000000E+00  0.00000000000E+00 -0.16348629701E+04  0.16348629701E+04  0.50400001928E-02 0.  1.
    10030    2    1    2    0    0  0.00000000000E+00  0.00000000000E+00 -0.19077235430E+03  0.30789535859E+04  0.30730377631E+04 0.  0.
        3    1    3    3  502    0 -0.13988137250E+04  0.48155369148E+03  0.32052312818E+03  0.15137069997E+04  0.10100000352E+00 0. -1.
       -3    1    3    3    0  502  0.13988137250E+04 -0.48155369148E+03 -0.51129548248E+03  0.15652465862E+04  0.10100000352E+00 0.  1.
</event>
<event>
 5   0  0.7094341E-06  0.3082809E+04  0.7818609E-02  0.8220472E-01
        2   -1    0    0  501    0  0.00000000000E+00  0.00000000000E+00  0.19388201177E+04  0.19388201177E+04  0.25500000920E-02 0.  1.
       -2   -1    0    0    0  501  0.00000000000E+00  0.00000000000E+00 -0.12254504482E+04  0.12254504482E+04  0.25500000920E-02 0. -1.
    10030    2    1    2    0    0  0.00000000000E+00  0.00000000000E+00  0.71336966951E+03  0.31642705660E+04  0.30828090971E+04 0.  0.
        3    1    3    3  502    0  0.44174596114E+03  0.78142495196E+03  0.16428579326E+04  0.18720968582E+04  0.10100000352E+00 0.  1.
       -3    1    3    3    0  502 -0.44174596114E+03 -0.78142495196E+03 -0.92948826305E+03  0.12921737078E+04  0.10100000352E+00 0. -1.
</event>
<event>
 5   0  0.2624011E-06  0.3057873E+04  0.7818609E-02  0.8227395E-01
        1   -1    0    0  501    0  0.00000000000E+00  0.00000000000E+00  0.16095347002E+04  0.16095347002E+04  0.50400001928E-02 0.  1.
       -1   -1    0    0    0  501  0.00000000000E+00  0.00000000000E+00 -0.14523744026E+04  0.14523744026E+04  0.50400001928E-02 0. -1.
    10030    2    1    2    0    0  0.00000000000E+00  0.00000000000E+00  0.15716029758E+03  0.30619091028E+04  0.30578731162E+04 0.  0.
        1    1    3    3  502    0 -0.55875424002E+03  0.63607836387E+03  0.13533846189E+04  0.15963871437E+04  0.50400001928E-02 0.  1.
       -1    1    3    3    0  502  0.55875424002E+03 -0.63607836387E+03 -0.11962243214E+04  0.14655219592E+04  0.50400001928E-02 0. -1.
</event>
<event>
 5   0  0.7414808E-06  0.3121374E+04  0.7818609E-02  0.8209896E-01
        2   -1    0    0  501    0  0.00000000000E+00  0.00000000000E+00  0.25233238885E+04  0.25233238885E+04  0.25500000920E-02 0.  1.
       -2   -1    0    0    0  501  0.00000000000E+00  0.00000000000E+00 -0.96529166325E+03  0.96529166325E+03  0.25500000920E-02 0. -1.
    10030    2    1    2    0    0  0.00000000000E+00  0.00000000000E+00  0.15580322252E+04  0.34886155517E+04  0.31213737445E+04 0.  0.
        2    1    3    3  502    0  0.13798411064E+04 -0.29244097732E+03  0.15256392950E+04  0.20777532247E+04  0.25500000920E-02 0.  1.
       -2    1    3    3    0  502 -0.13798411064E+04  0.29244097732E+03  0.32392930187E+02  0.14108623271E+04  0.25500000920E-02 0. -1.
</event>
<event>
 5   0  0.2598987E-06  0.3099900E+04  0.7818609E-02  0.8215765E-01
        1   -1    0    0  501    0  0.00000000000E+00  0.00000000000E+00  0.20126926241E+04  0.20126926241E+04  0.50400001928E-02 0. -1.
       -1   -1    0    0    0  501  0.00000000000E+00  0.00000000000E+00 -0.11935976977E+04  0.11935976977E+04  0.50400001928E-02 0.  1.
    10030    2    1    2    0    0  0.00000000000E+00  0.00000000000E+00  0.81909492646E+03  0.32062903218E+04  0.30999001805E+04 0.  0.
        2    1    3    3  502    0  0.14281992811E+04 -0.29287389153E+03  0.95373864159E+03  0.17421669551E+04  0.25500000920E-02 0.  1.
       -2    1    3    3    0  502 -0.14281992811E+04  0.29287389153E+03 -0.13464371513E+03  0.14641233667E+04  0.25500000920E-02 0. -1.
</event>
<event>
 5   0  0.7094341E-06  0.3101963E+04  0.7818609E-02  0.8215199E-01
       -2   -1    0    0    0  501  0.00000000000E+00  0.00000000000E+00  0.74529817169E+03  0.74529817169E+03  0.25500000920E-02 0.  1.
        2   -1    0    0  501    0  0.00000000000E+00  0.00000000000E+00 -0.32276254940E+04  0.32276254940E+04  0.25500000920E-02 0. -1.
    10030    2    1    2    0    0  0.00000000000E+00  0.00000000000E+00 -0.24823273223E+04  0.39729236657E+04  0.31019628493E+04 0.  0.
        3    1    3    3  502    0  0.73397895514E+03  0.13022924076E+03 -0.29831425841E+04  0.30748698263E+04  0.10100000352E+00 0. -1.
       -3    1    3    3    0  502 -0.73397895514E+03 -0.13022924076E+03  0.50081526178E+03  0.89805383935E+03  0.10100000352E+00 0.  1.
</event>
<event>
 5   0  0.7079223E-06  0.3118731E+04  0.7818609E-02  0.8210616E-01
        2   -1    0    0  501    0  0.00000000000E+00  0.00000000000E+00  0.12885590033E+04  0.12885590033E+04  0.25500000920E-02 0.  1.
       -2   -1    0    0    0  501  0.00000000000E+00  0.00000000000E+00 -0.18870853839E+04  0.18870853839E+04  0.25500000920E-02 0. -1.
    10030    2    1    2    0    0  0.00000000000E+00  0.00000000000E+00 -0.59852638058E+03  0.31756443873E+04  0.31187310634E+04 0.  0.
        5    1    3    3  502    0  0.52833456203E+03  0.64045552336E+03 -0.16433046777E+04  0.18411390606E+04  0.46999998093E+01 0. -1.
       -5    1    3    3    0  502 -0.52833456203E+03 -0.64045552336E+03  0.10447782971E+04  0.13345053267E+04  0.46999998093E+01 0.  1.
</event>
<event>
 5   0  0.2598987E-06  0.1962470E+04  0.7818609E-02  0.8624371E-01
       -1   -1    0    0    0  501  0.00000000000E+00  0.00000000000E+00  0.76910372318E+03  0.76910372320E+03  0.50400001928E-02 0.  1.
        1   -1    0    0  501    0  0.00000000000E+00  0.00000000000E+00 -0.12518758608E+04  0.12518758608E+04  0.50400001928E-02 0. -1.
    10030    2    1    2    0    0  0.00000000000E+00  0.00000000000E+00 -0.48277213764E+03  0.20209795840E+04  0.19624702653E+04 0.  0.
        2    1    3    3  502    0 -0.28000389603E+03 -0.93819420192E+03 -0.17455245578E+03  0.99452456085E+03  0.25500000920E-02 0. -1.
       -2    1    3    3    0  502  0.28000389603E+03  0.93819420192E+03 -0.30821968186E+03  0.10264550232E+04  0.25500000920E-02 0.  1.
</event>
<event>
 5   0  0.7094341E-06  0.3119641E+04  0.7818609E-02  0.8210368E-01
        2   -1    0    0  501    0  0.00000000000E+00  0.00000000000E+00  0.13527223235E+04  0.13527223235E+04  0.25500000920E-02 0. -1.
       -2   -1    0    0    0  501  0.00000000000E+00  0.00000000000E+00 -0.17986252127E+04  0.17986252127E+04  0.25500000920E-02 0.  1.
    10030    2    1    2    0    0  0.00000000000E+00  0.00000000000E+00 -0.44590288921E+03  0.31513475363E+04  0.31196413107E+04 0.  0.
        3    1    3    3  502    0 -0.58464864796E+01  0.22430969704E+03  0.13363336975E+04  0.13550412476E+04  0.10100000352E+00 0. -1.
       -3    1    3    3    0  502  0.58464864796E+01 -0.22430969704E+03 -0.17822365867E+04  0.17963062886E+04  0.10100000352E+00 0.  1.
</event>
<event>
 5   0  0.7071012E-06  0.3179752E+04  0.7818609E-02  0.8194185E-01
        2   -1    0    0  501    0  0.00000000000E+00  0.00000000000E+00  0.14312875034E+04  0.14312875034E+04  0.25500000920E-02 0. -1.
       -2   -1    0    0    0  501  0.00000000000E+00  0.00000000000E+00 -0.17660365349E+04  0.17660365349E+04  0.25500000920E-02 0.  1.
    10030    2    1    2    0    0  0.00000000000E+00  0.00000000000E+00 -0.33474903149E+03  0.31973240383E+04  0.31797522060E+04 0.  0.
        1    1    3    3  502    0  0.13267648185E+03  0.79762921970E+03  0.12090914960E+04  0.14545506752E+04  0.50400001928E-02 0. -1.
       -1    1    3    3    0  502 -0.13267648185E+03 -0.79762921970E+03 -0.15438405275E+04  0.17427733631E+04  0.50400001928E-02 0.  1.
</event>
<event>
 5   0  0.2517725E-06  0.3098647E+04  0.7818609E-02  0.8216109E-01
       -1   -1    0    0    0  501  0.00000000000E+00  0.00000000000E+00  0.11013876102E+04  0.11013876102E+04  0.50400001928E-02 0.  1.
        1   -1    0    0  501    0  0.00000000000E+00  0.00000000000E+00 -0.21794356896E+04  0.21794356896E+04  0.50400001928E-02 0. -1.
    10030    2    1    2    0    0  0.00000000000E+00  0.00000000000E+00 -0.10780480794E+04  0.32808232998E+04  0.30986471021E+04 0.  0.
        3    1    3    3  502    0  0.13266965482E+03 -0.79149230813E+03 -0.19422101711E+04  0.21014855865E+04  0.10100000352E+00 0. -1.
       -3    1    3    3    0  502 -0.13266965482E+03  0.79149230813E+03  0.86416209175E+03  0.11793377134E+04  0.10100000352E+00 0.  1.
</event>
<event>
 5   0  0.7094341E-06  0.3154720E+04  0.7818609E-02  0.8200879E-01
       -2   -1    0    0    0  501  0.00000000000E+00  0.00000000000E+00  0.12555242012E+04  0.12555242012E+04  0.25500000920E-02 0.  1.
        2   -1    0    0  501    0  0.00000000000E+00  0.00000000000E+00 -0.19816937626E+04  0.19816937626E+04  0.25500000920E-02 0. -1.
    10030    2    1    2    0    0  0.00000000000E+00  0.00000000000E+00 -0.72616956139E+03  0.32372179638E+04  0.31547199421E+04 0.  0.
        3    1    3    3  502    0 -0.10904101197E+04  0.11392695233E+04 -0.32851108305E+03  0.16108534439E+04  0.10100000352E+00 0. -1.
       -3    1    3    3    0  502  0.10904101197E+04 -0.11392695233E+04 -0.39765847834E+03  0.16263645199E+04  0.10100000352E+00 0.  1.
</event>
<event>
 5   0  0.2612331E-06  0.3195245E+04  0.7818609E-02  0.8190074E-01
       -1   -1    0    0    0  501  0.00000000000E+00  0.00000000000E+00  0.12418633858E+04  0.12418633858E+04  0.50400001928E-02 0.  1.
        1   -1    0    0  501    0  0.00000000000E+00  0.00000000000E+00 -0.20552964488E+04  0.20552964488E+04  0.50400001928E-02 0. -1.
    10030    2    1    2    0    0  0.00000000000E+00  0.00000000000E+00 -0.81343306305E+03  0.32971598346E+04  0.31952448461E+04 0.  0.
        4    1    3    3  502    0 -0.46809868291E+03 -0.11686807493E+04  0.60825398497E+03  0.13981793855E+04  0.12699999809E+01 0.  1.
       -4    1    3    3    0  502  0.46809868291E+03  0.11686807493E+04 -0.14216870480E+04  0.18989804491E+04  0.12699999809E+01 0. -1.
</event>
<event>
 5   0  0.2624011E-06  0.3147231E+04  0.7818609E-02  0.8202894E-01
        1   -1    0    0  501    0  0.00000000000E+00  0.00000000000E+00  0.17711062771E+04  0.17711062771E+04  0.50400001928E-02 0.  1.
       -1   -1    0    0    0  501  0.00000000000E+00  0.00000000000E+00 -0.13981464896E+04  0.13981464896E+04  0.50400001928E-02 0. -1.
    10030    2    1    2    0    0  0.00000000000E+00  0.00000000000E+00  0.37295978749E+03  0.31692527667E+04  0.31472311793E+04 0.  0.
        1    1    3    3  502    0 -0.19954390080E+03 -0.31603636696E+03 -0.13527998822E+04  0.14034829087E+04  0.50400001928E-02 0. -1.
       -1    1    3    3    0  502  0.19954390080E+03  0.31603636696E+03  0.17257596697E+04  0.17657698580E+04  0.50400001928E-02 0.  1.
</event>
<event>
 5   0  0.2517725E-06  0.3086334E+04  0.7818609E-02  0.8219498E-01
       -1   -1    0    0    0  501  0.00000000000E+00  0.00000000000E+00  0.76385311524E+03  0.76385311526E+03  0.50400001928E-02 0.  1.
        1   -1    0    0  501    0  0.00000000000E+00  0.00000000000E+00 -0.31175691673E+04  0.31175691673E+04  0.50400001928E-02 0. -1.
    10030    2    1    2    0    0  0.00000000000E+00  0.00000000000E+00 -0.23537160520E+04  0.38814222826E+04  0.30863343438E+04 0.  0.
        3    1    3    3  502    0  0.66300853765E+03 -0.93375555282E+03 -0.24776759257E+04  0.27295343479E+04  0.10100000352E+00 0. -1.
       -3    1    3    3    0  502 -0.66300853765E+03  0.93375555282E+03  0.12395987369E+03  0.11518879346E+04  0.10100000352E+00 0.  1.
</event>
<event>
 5   0  0.7363513E-06  0.3107669E+04  0.7818609E-02  0.8213636E-01
        2   -1    0    0  501    0  0.00000000000E+00  0.00000000000E+00  0.20700456759E+04  0.20700456759E+04  0.25500000920E-02 0. -1.
       -2   -1    0    0    0  501  0.00000000000E+00  0.00000000000E+00 -0.11663522393E+04  0.11663522394E+04  0.25500000920E-02 0.  1.
    10030    2    1    2    0    0  0.00000000000E+00  0.00000000000E+00  0.90369343655E+03  0.32363979152E+04  0.31076694867E+04 0.  0.
        4    1    3    3  502    0  0.76329714061E+03  0.12008208327E+04  0.11020546156E+04  0.17997553127E+04  0.12699999809E+01 0. -1.
       -4    1    3    3    0  502 -0.76329714061E+03 -0.12008208327E+04 -0.19836117903E+03  0.14366426025E+04  0.12699999809E+01 0.  1.
</event>
<event>
 5   0  0.7363513E-06  0.2056535E+04  0.7818609E-02  0.8580635E-01
        2   -1    0    0  501    0  0.00000000000E+00  0.00000000000E+00  0.11150102656E+04  0.11150102656E+04  0.25500000920E-02 0. -1.
       -2   -1    0    0    0  501  0.00000000000E+00  0.00000000000E+00 -0.94827301993E+03  0.94827301993E+03  0.25500000920E-02 0.  1.
    10030    2    1    2    0    0  0.00000000000E+00  0.00000000000E+00  0.16673724571E+03  0.20632832856E+04  0.20565350975E+04 0.  0.
        4    1    3    3  502    0 -0.34733662715E+03 -0.62288585186E+02 -0.88562142500E+03  0.95333599624E+03  0.12699999809E+01 0.  1.
       -4    1    3    3    0  502  0.34733662715E+03  0.62288585186E+02  0.10523586707E+04  0.11099472893E+04  0.12699999809E+01 0. -1.
</event>
<event>
 5   0  0.2598987E-06  0.2961344E+04  0.7818609E-02  0.8254856E-01
       -1   -1    0    0    0  501  0.00000000000E+00  0.00000000000E+00  0.16027159559E+04  0.16027159559E+04  0.50400001928E-02 0.  1.
        1   -1    0    0  501    0  0.00000000000E+00  0.00000000000E+00 -0.13679218839E+04  0.13679218839E+04  0.50400001928E-02 0. -1.
    10030    2    1    2    0    0  0.00000000000E+00  0.00000000000E+00  0.23479407198E+03  0.29706378398E+04  0.29613444445E+04 0.  0.
        2    1    3    3  502    0 -0.45828808871E+02 -0.41633692163E+03  0.15420488287E+04  0.15979209312E+04  0.25500000920E-02 0.  1.
       -2    1    3    3    0  502  0.45828808871E+02  0.41633692163E+03 -0.13072547568E+04  0.13727169086E+04  0.25500000920E-02 0. -1.
</event>
<event>
 5   0  0.2517725E-06  0.3125767E+04  0.7818609E-02  0.8208702E-01
        1   -1    0    0  501    0  0.00000000000E+00  0.00000000000E+00  0.16830684851E+04  0.16830684851E+04  0.50400001928E-02 0.  1.
       -1   -1    0    0    0  501  0.00000000000E+00  0.00000000000E+00 -0.14512809716E+04  0.14512809716E+04  0.50400001928E-02 0. -1.
    10030    2    1    2    0    0  0.00000000000E+00  0.00000000000E+00  0.23178751352E+03  0.31343494567E+04  0.31257672763E+04 0.  0.
        3    1    3    3  502    0 -0.10292499821E+04  0.52395526820E+03 -0.93995529707E+03  0.14890938921E+04  0.10100000352E+00 0. -1.
       -3    1    3    3    0  502  0.10292499821E+04 -0.52395526820E+03  0.11717428106E+04  0.16452555647E+04  0.10100000352E+00 0.  1.
</event>
<event>
 5   0  0.2674441E-06  0.3190304E+04  0.7818609E-02  0.8191383E-01
        1   -1    0    0  501    0  0.00000000000E+00  0.00000000000E+00  0.23626362573E+04  0.23626362573E+04  0.50400001928E-02 0. -1.
       -1   -1    0    0    0  501  0.00000000000E+00  0.00000000000E+00 -0.10769788784E+04  0.10769788784E+04  0.50400001928E-02 0.  1.
    10030    2    1    2    0    0  0.00000000000E+00  0.00000000000E+00  0.12856573789E+04  0.34396151357E+04  0.31903036510E+04 0.  0.
        5    1    3    3  502    0 -0.11612277801E+03 -0.97888640726E+02 -0.10691583648E+04  0.10799020255E+04  0.46999998093E+01 0.  1.
       -5    1    3    3    0  502  0.11612277801E+03  0.97888640726E+02  0.23548157437E+04  0.23597131102E+04  0.46999998093E+01 0. -1.
</event>
<event>
 5   0  0.7414808E-06  0.3124024E+04  0.7818609E-02  0.8209176E-01
        2   -1    0    0  501    0  0.00000000000E+00  0.00000000000E+00  0.15471016759E+04  0.15471016759E+04  0.25500000920E-02 0.  1.
       -2   -1    0    0    0  501  0.00000000000E+00  0.00000000000E+00 -0.15770660535E+04  0.15770660535E+04  0.25500000920E-02 0. -1.
    10030    2    1    2    0    0  0.00000000000E+00  0.00000000000E+00 -0.29964377597E+02  0.31241677294E+04  0.31240240296E+04 0.  0.
        2    1    3    3  502    0  0.13112116716E+04 -0.68924604559E+03 -0.51053033501E+03  0.15668367439E+04  0.25500000920E-02 0. -1.
       -2    1    3    3    0  502 -0.13112116716E+04  0.68924604559E+03  0.48056595741E+03  0.15573309855E+04  0.25500000920E-02 0.  1.
</event>
<event>
 5   0  0.7094341E-06  0.3194984E+04  0.7818609E-02  0.8190143E-01
        2   -1    0    0  501    0  0.00000000000E+00  0.00000000000E+00  0.18933719906E+04  0.18933719906E+04  0.25500000920E-02 0.  1.
       -2   -1    0    0    0  501  0.00000000000E+00  0.00000000000E+00 -0.13478492331E+04  0.13478492331E+04  0.25500000920E-02 0. -1.
    10030    2    1    2    0    0  0.00000000000E+00  0.00000000000E+00  0.54552275755E+03  0.32412212237E+04  0.31949835589E+04 0.  0.
        3    1    3    3  502    0 -0.15212556456E+04 -0.48709205064E+03  0.25001886869E+03  0.16167828704E+04  0.10100000352E+00 0. -1.
       -3    1    3    3    0  502  0.15212556456E+04  0.48709205064E+03  0.29550388885E+03  0.16244383533E+04  0.10100000352E+00 0.  1.
</event>
<event>
 5   0  0.7071012E-06  0.3176173E+04  0.7818609E-02  0.8195138E-01
        2   -1    0    0  501    0  0.00000000000E+00  0.00000000000E+00  0.21331404321E+04  0.21331404321E+04  0.25500000920E-02 0. -1.
       -2   -1    0    0    0  501  0.00000000000E+00  0.00000000000E+00 -0.11823029102E+04  0.11823029102E+04  0.25500000920E-02 0.  1.
    10030    2    1    2    0    0  0.00000000000E+00  0.00000000000E+00  0.95083752195E+03  0.33154433423E+04  0.31761726280E+04 0.  0.
        1    1    3    3  502    0  0.15812552773E+04 -0.12132224991E+03  0.56232064883E+03  0.16826443036E+04  0.50400001928E-02 0. -1.
       -1    1    3    3    0  502 -0.15812552773E+04  0.12132224991E+03  0.38851687313E+03  0.16327990388E+04  0.50400001928E-02 0.  1.
</event>
<event>
 5   0  0.7414808E-06  0.3118523E+04  0.7818609E-02  0.8210673E-01
       -2   -1    0    0    0  501  0.00000000000E+00  0.00000000000E+00  0.15115348459E+04  0.15115348459E+04  0.25500000920E-02 0.  1.
        2   -1    0    0  501    0  0.00000000000E+00  0.00000000000E+00 -0.16084946158E+04  0.16084946158E+04  0.25500000920E-02 0. -1.
    10030    2    1    2    0    0  0.00000000000E+00  0.00000000000E+00 -0.96959769882E+02  0.31200294618E+04  0.31185225100E+04 0.  0.
        2    1    3    3  502    0  0.10044248832E+04 -0.31897381820E+02  0.11443247631E+04  0.15229464706E+04  0.25500000920E-02 0.  1.
       -2    1    3    3    0  502 -0.10044248832E+04  0.31897381820E+02 -0.12412845330E+04  0.15970829912E+04  0.25500000920E-02 0. -1.
</event>
<event>
 5   0  0.7094341E-06  0.3264443E+04  0.7818609E-02  0.8172002E-01
       -2   -1    0    0    0  501  0.00000000000E+00  0.00000000000E+00  0.16456753401E+04  0.16456753401E+04  0.25500000920E-02 0. -1.
        2   -1    0    0  501    0  0.00000000000E+00  0.00000000000E+00 -0.16188781313E+04  0.16188781313E+04  0.25500000920E-02 0.  1.
    10030    2    1    2    0    0  0.00000000000E+00  0.00000000000E+00  0.26797208773E+02  0.32645534715E+04  0.32644434867E+04 0.  0.
        3    1    3    3  502    0 -0.29381396113E+02 -0.14364969390E+04 -0.76106992410E+03  0.16259194820E+04  0.10100000352E+00 0.  1.
       -3    1    3    3    0  502  0.29381396113E+02  0.14364969390E+04  0.78786713287E+03  0.16386339895E+04  0.10100000352E+00 0. -1.
</event>
<event>
 5   0  0.2517725E-06  0.3090206E+04  0.7818609E-02  0.8218431E-01
        1   -1    0    0  501    0  0.00000000000E+00  0.00000000000E+00  0.13591682696E+04  0.13591682696E+04  0.50400001928E-02 0.  1.
       -1   -1    0    0    0  501  0.00000000000E+00  0.00000000000E+00 -0.17564741126E+04  0.17564741126E+04  0.50400001928E-02 0. -1.
    10030    2    1    2    0    0  0.00000000000E+00  0.00000000000E+00 -0.39730584308E+03  0.31156423822E+04  0.30902063881E+04 0.  0.
        3    1    3    3  502    0 -0.13638033967E+04 -0.69684180423E+03 -0.40477558083E+03  0.15841058948E+04  0.10100000352E+00 0. -1.
       -3    1    3    3    0  502  0.13638033967E+04  0.69684180423E+03  0.74697377456E+01  0.15315364874E+04  0.10100000352E+00 0.  1.
</event>
<event>
 5   0  0.7079223E-06  0.3082230E+04  0.7818609E-02  0.8220632E-01
       -2   -1    0    0    0  501  0.00000000000E+00  0.00000000000E+00  0.82471255653E+03  0.82471255653E+03  0.25500000920E-02 0.  1.
        2   -1    0    0  501    0  0.00000000000E+00  0.00000000000E+00 -0.28798345621E+04  0.28798345621E+04  0.25500000920E-02 0. -1.
    10030    2    1    2    0    0  0.00000000000E+00  0.00000000000E+00 -0.20551220056E+04  0.37045471186E+04  0.30822301823E+04 0.  0.
        5    1    3    3  502    0 -0.65698518790E+03 -0.10563279286E+04 -0.21209346285E+04  0.24588298067E+04  0.46999998093E+01 0. -1.
       -5    1    3    3    0  502  0.65698518790E+03  0.10563279286E+04  0.65812622969E+02  0.12457173119E+04  0.46999998093E+01 0.  1.
</event>
<event>
 5   0  0.2674441E-06  0.3127037E+04  0.7818609E-02  0.8208357E-01
       -1   -1    0    0    0  501  0.00000000000E+00  0.00000000000E+00  0.10898398889E+04  0.10898398889E+04  0.50400001928E-02 0. -1.
        1   -1    0    0  501    0  0.00000000000E+00  0.00000000000E+00 -0.22430725480E+04  0.22430725481E+04  0.50400001928E-02 0.  1.
    10030    2    1    2    0    0  0.00000000000E+00  0.00000000000E+00 -0.11532326592E+04  0.33329124369E+04  0.31270368955E+04 0.  0.
        5    1    3    3  502    0 -0.70657257060E+02 -0.71189526213E+03 -0.20583910114E+04  0.21791702453E+04  0.46999998093E+01 0.  1.
       -5    1    3    3    0  502  0.70657257060E+02  0.71189526213E+03  0.90515835221E+03  0.11537421916E+04  0.46999998093E+01 0. -1.
</event>
<event>
 5   0  0.2517725E-06  0.3069229E+04  0.7818609E-02  0.8224234E-01
        1   -1    0    0  501    0  0.00000000000E+00  0.00000000000E+00  0.14915038281E+04  0.14915038281E+04  0.50400001928E-02 0. -1.
       -1   -1    0    0    0  501  0.00000000000E+00  0.00000000000E+00 -0.15789713893E+04  0.15789713893E+04  0.50400001928E-02 0.  1.
    10030    2    1    2    0    0  0.00000000000E+00  0.00000000000E+00 -0.87467561210E+02  0.30704752174E+04  0.30692291355E+04 0.  0.
        3    1    3    3  502    0 -0.10399328850E+04  0.45566616293E+03 -0.10766013972E+04  0.15646605498E+04  0.10100000352E+00 0.  1.
       -3    1    3    3    0  502  0.10399328850E+04 -0.45566616293E+03  0.98913383598E+03  0.15058146676E+04  0.10100000352E+00 0. -1.
</event>
<event>
 5   0  0.7094341E-06  0.2768482E+04  0.7818609E-02  0.8313121E-01
        2   -1    0    0  501    0  0.00000000000E+00  0.00000000000E+00  0.14836676577E+04  0.14836676577E+04  0.25500000920E-02 0.  1.
       -2   -1    0    0    0  501  0.00000000000E+00  0.00000000000E+00 -0.12914774228E+04  0.12914774228E+04  0.25500000920E-02 0. -1.
    10030    2    1    2    0    0  0.00000000000E+00  0.00000000000E+00  0.19219023492E+03  0.27751450805E+04  0.27684820988E+04 0.  0.
        3    1    3    3  502    0 -0.12136603030E+03  0.94838056606E+03  0.10994876588E+04  0.14570616093E+04  0.10100000352E+00 0.  1.
       -3    1    3    3    0  502  0.12136603030E+03 -0.94838056606E+03 -0.90729742388E+03  0.13180834712E+04  0.10100000352E+00 0. -1.
</event>
<event>
 5   0  0.2624011E-06  0.2995973E+04  0.7818609E-02  0.8244882E-01
        1   -1    0    0  501    0  0.00000000000E+00  0.00000000000E+00  0.12109528453E+04  0.12109528453E+04  0.50400001928E-02 0.  1.
       -1   -1    0    0    0  501  0.00000000000E+00  0.00000000000E+00 -0.18530556313E+04  0.18530556313E+04  0.50400001928E-02 0. -1.
    10030    2    1    2    0    0  0.00000000000E+00  0.00000000000E+00 -0.64210278596E+03  0.30640084766E+04  0.29959726229E+04 0.  0.
        1    1    3    3  502    0 -0.89066766081E+03  0.10233017369E+04 -0.97071535711E+03  0.16681497629E+04  0.50400001928E-02 0. -1.
       -1    1    3    3    0  502  0.89066766081E+03 -0.10233017369E+04  0.32861257115E+03  0.13958587137E+04  0.50400001928E-02 0.  1.
</event>
<event>
 5   0  0.2517725E-06  0.2426565E+04  0.7818609E-02  0.8429625E-01
        1   -1    0    0  501    0  0.00000000000E+00  0.00000000000E+00  0.20402153547E+04  0.20402153547E+04  0.50400001928E-02 0.  1.
       -1   -1    0    0    0  501  0.00000000000E+00  0.00000000000E+00 -0.72151895018E+03  0.72151895020E+03  0.50400001928E-02 0. -1.
    10030    2    1    2    0    0  0.00000000000E+00  0.00000000000E+00  0.13186964045E+04  0.27617343049E+04  0.24265646836E+04 0.  0.
        3    1    3    3  502    0 -0.62689125943E+03  0.91952360020E+03  0.12093556212E+04  0.16434893767E+04  0.10100000352E+00 0.  1.
       -3    1    3    3    0  502  0.62689125943E+03 -0.91952360020E+03  0.10934078334E+03  0.11182449283E+04  0.10100000352E+00 0. -1.
</event>
<event>
 5   0  0.2598987E-06  0.3087126E+04  0.7818609E-02  0.8219280E-01
        1   -1    0    0  501    0  0.00000000000E+00  0.00000000000E+00  0.16411162244E+04  0.16411162244E+04  0.50400001928E-02 0. -1.
       -1   -1    0    0    0  501  0.00000000000E+00  0.00000000000E+00 -0.14518087172E+04  0.14518087172E+04  0.50400001928E-02 0.  1.
    10030    2    1    2    0    0  0.00000000000E+00  0.00000000000E+00  0.18930750725E+03  0.30929249416E+04  0.30871260684E+04 0.  0.
        2    1    3    3  502    0 -0.12479588512E+04 -0.85694932452E+03 -0.20728155096E+03  0.15279820288E+04  0.25500000920E-02 0.  1.
       -2    1    3    3    0  502  0.12479588512E+04  0.85694932452E+03  0.39658905821E+03  0.15649429127E+04  0.25500000920E-02 0. -1.
</event>
<event>
 5   0  0.2674441E-06  0.3112975E+04  0.7818609E-02  0.8212186E-01
       -1   -1    0    0    0  501  0.00000000000E+00  0.00000000000E+00  0.11827461556E+04  0.11827461556E+04  0.50400001928E-02 0.  1.
        1   -1    0    0  501    0  0.00000000000E+00  0.00000000000E+00 -0.20483295652E+04  0.20483295652E+04  0.50400001928E-02 0. -1.
    10030    2    1    2    0    0  0.00000000000E+00  0.00000000000E+00 -0.86558340960E+03  0.32310757207E+04  0.31129753732E+04 0.  0.
        5    1    3    3  502    0 -0.12249572152E+04 -0.33657489943E+03  0.50067709006E+03  0.13654678614E+04  0.46999998093E+01 0.  1.
       -5    1    3    3    0  502  0.12249572152E+04  0.33657489943E+03 -0.13662604997E+04  0.18656078594E+04  0.46999998093E+01 0. -1.
</event>
<event>
 5   0  0.7363513E-06  0.3010209E+04  0.7818609E-02  0.8240822E-01
       -2   -1    0    0    0  501  0.00000000000E+00  0.00000000000E+00  0.15616539617E+04  0.15616539617E+04  0.25500000920E-02 0.  1.
        2   -1    0    0  501    0  0.00000000000E+00  0.00000000000E+00 -0.14506024551E+04  0.14506024551E+04  0.25500000920E-02 0. -1.
    10030    2    1    2    0    0  0.00000000000E+00  0.00000000000E+00  0.11105150656E+03  0.30122564168E+04  0.30102086777E+04 0.  0.
        4    1    3    3  502    0  0.87537871241E+03 -0.18424197930E+03  0.12667641513E+04  0.15507823913E+04  0.12699999809E+01 0.  1.
       -4    1    3    3    0  502 -0.87537871241E+03  0.18424197930E+03 -0.11557126448E+04  0.14614740255E+04  0.12699999809E+01 0. -1.
</event>
<event>
 5   0  0.7071012E-06  0.3078438E+04  0.7818609E-02  0.8221680E-01
        2   -1    0    0  501    0  0.00000000000E+00  0.00000000000E+00  0.16598255013E+04  0.16598255013E+04  0.25500000920E-02 0. -1.
       -2   -1    0    0    0  501  0.00000000000E+00  0.00000000000E+00 -0.14273757879E+04  0.14273757879E+04  0.25500000920E-02 0.  1.
    10030    2    1    2    0    0  0.00000000000E+00  0.00000000000E+00  0.23244971340E+03  0.30872012893E+04  0.30784377420E+04 0.  0.
        1    1    3    3  502    0  0.32990455251E+03  0.14157150241E+04 -0.39128762662E+03  0.15053876743E+04  0.50400001928E-02 0.  1.
       -1    1    3    3    0  502 -0.32990455251E+03 -0.14157150241E+04  0.62373734002E+03  0.15818136150E+04  0.50400001928E-02 0. -1.
</event>
<event>
 5   0  0.2612331E-06  0.2713239E+04  0.7818609E-02  0.8330722E-01
        1   -1    0    0  501    0  0.00000000000E+00  0.00000000000E+00  0.29305799465E+04  0.29305799465E+04  0.50400001928E-02 0. -1.
       -1   -1    0    0    0  501  0.00000000000E+00  0.00000000000E+00 -0.62800428622E+03  0.62800428624E+03  0.50400001928E-02 0.  1.
    10030    2    1    2    0    0  0.00000000000E+00  0.00000000000E+00  0.23025756603E+04  0.35585842328E+04  0.27132392210E+04 0.  0.
        4    1    3    3  502    0  0.74612012484E+03  0.26138372857E+03 -0.29464628579E+03  0.84370299329E+03  0.12699999809E+01 0.  1.
       -4    1    3    3    0  502 -0.74612012484E+03 -0.26138372857E+03  0.25972219461E+04  0.27148812395E+04  0.12699999809E+01 0. -1.
</event>
<event>
 5   0  0.7414808E-06  0.2637870E+04  0.7818609E-02  0.8355450E-01
       -2   -1    0    0    0  501  0.00000000000E+00  0.00000000000E+00  0.10070332301E+04  0.10070332301E+04  0.25500000920E-02 0. -1.
        2   -1    0    0  501    0  0.00000000000E+00  0.00000000000E+00 -0.17274395294E+04  0.17274395294E+04  0.25500000920E-02 0.  1.
    10030    2    1    2    0    0  0.00000000000E+00  0.00000000000E+00 -0.72040629926E+03  0.27344727595E+04  0.26378696019E+04 0.  0.
        2    1    3    3  502    0  0.11273233580E+03 -0.13051279082E+04 -0.51918716327E+03  0.14091212676E+04  0.25500000920E-02 0.  1.
       -2    1    3    3    0  502 -0.11273233580E+03  0.13051279082E+04 -0.20121913598E+03  0.13253514919E+04  0.25500000920E-02 0. -1.
</event>
<event>
 5   0  0.2674441E-06  0.3027562E+04  0.7818609E-02  0.8235904E-01
       -1   -1    0    0    0  501  0.00000000000E+00  0.00000000000E+00  0.16584681941E+04  0.16584681941E+04  0.50400001928E-02 0.  1.
        1   -1    0    0  501    0  0.00000000000E+00  0.00000000000E+00 -0.13817166235E+04  0.13817166235E+04  0.50400001928E-02 0. -1.
    10030    2    1    2    0    0  0.00000000000E+00  0.00000000000E+00  0.27675157060E+03  0.30401848177E+04  0.30275621040E+04 0.  0.
        5    1    3    3  502    0 -0.82548356305E+03 -0.38994974627E+03  0.13508980398E+04  0.16304697242E+04  0.46999998093E+01 0.  1.
       -5    1    3    3    0  502  0.82548356305E+03  0.38994974627E+03 -0.10741464692E+04  0.14097150935E+04  0.46999998093E+01 0. -1.
</event>
<event>
 5   0  0.7414808E-06  0.3023568E+04  0.7818609E-02  0.8237033E-01
       -2   -1    0    0    0  501  0.00000000000E+00  0.00000000000E+00  0.12015321020E+04  0.12015321020E+04  0.25500000920E-02 0.  1.
        2   -1    0    0  501    0  0.00000000000E+00  0.00000000000E+00 -0.19021474375E+04  0.19021474375E+04  0.25500000920E-02 0. -1.
    10030    2    1    2    0    0  0.00000000000E+00  0.00000000000E+00 -0.70061533547E+03  0.31036795395E+04  0.30235682290E+04 0.  0.
        2    1    3    3  502    0  0.12223472292E+04 -0.42020390214E+03  0.45455074432E+03  0.13701534393E+04  0.25500000920E-02 0.  1.
       -2    1    3    3    0  502 -0.12223472292E+04  0.42020390214E+03 -0.11551660798E+04  0.17335261002E+04  0.25500000920E-02 0. -1.
</event>
<event>
 5   0  0.2612331E-06  0.3122772E+04  0.7818609E-02  0.8209516E-01
       -1   -1    0    0    0  501  0.00000000000E+00  0.00000000000E+00  0.12619538553E+04  0.12619538553E+04  0.50400001928E-02 0.  1.
        1   -1    0    0  501    0  0.00000000000E+00  0.00000000000E+00 -0.19318668614E+04  0.19318668614E+04  0.50400001928E-02 0. -1.
    10030    2    1    2    0    0  0.00000000000E+00  0.00000000000E+00 -0.66991300612E+03  0.31938207168E+04  0.31227723797E+04 0.  0.
        4    1    3    3  502    0  0.89444742763E+01  0.91790732407E+03 -0.16267414247E+04  0.18678659307E+04  0.12699999809E+01 0. -1.
       -4    1    3    3    0  502 -0.89444742763E+01 -0.91790732407E+03  0.95682841861E+03  0.13259547861E+04  0.12699999809E+01 0.  1.
</event>
<event>
 5   0  0.2598987E-06  0.2095932E+04  0.7818609E-02  0.8563037E-01
       -1   -1    0    0    0  501  0.00000000000E+00  0.00000000000E+00  0.12564814267E+04  0.12564814267E+04  0.50400001928E-02 0.  1.
        1   -1    0    0  501    0  0.00000000000E+00  0.00000000000E+00 -0.87405450738E+03  0.87405450739E+03  0.50400001928E-02 0. -1.
    10030    2    1    2    0    0  0.00000000000E+00  0.00000000000E+00  0.38242691933E+03  0.21305359341E+04  0.20959324936E+04 0.  0.
        2    1    3    3  502    0 -0.73130505285E+03  0.45579348716E+03 -0.41502064155E+03  0.95645016398E+03  0.25500000920E-02 0. -1.
       -2    1    3    3    0  502  0.73130505285E+03 -0.45579348716E+03  0.79744756088E+03  0.11740857701E+04  0.25500000920E-02 0.  1.
</event>
<event>
 5   0  0.2598987E-06  0.3139552E+04  0.7818609E-02  0.8204966E-01
       -1   -1    0    0    0  501  0.00000000000E+00  0.00000000000E+00  0.10910041052E+04  0.10910041052E+04  0.50400001928E-02 0.  1.
        1   -1    0    0  501    0  0.00000000000E+00  0.00000000000E+00 -0.22586498989E+04  0.22586498989E+04  0.50400001928E-02 0. -1.
    10030    2    1    2    0    0  0.00000000000E+00  0.00000000000E+00 -0.11676457937E+04  0.33496540042E+04  0.31395517591E+04 0.  0.
        2    1    3    3  502    0  0.92842238464E+03 -0.10072859177E+04 -0.14016743009E+04  0.19599193581E+04  0.25500000920E-02 0. -1.
       -2    1    3    3    0  502 -0.92842238464E+03  0.10072859177E+04  0.23402850720E+03  0.13897346461E+04  0.25500000920E-02 0.  1.
</event>
<event>
 5   0  0.7363513E-06  0.2094664E+04  0.7818609E-02  0.8563598E-01
       -2   -1    0    0    0  501  0.00000000000E+00  0.00000000000E+00  0.43048322067E+03  0.43048322068E+03  0.25500000920E-02 0.  1.
        2   -1    0    0  501    0  0.00000000000E+00  0.00000000000E+00 -0.25480772012E+04  0.25480772012E+04  0.25500000920E-02 0. -1.
    10030    2    1    2    0    0  0.00000000000E+00  0.00000000000E+00 -0.21175939805E+04  0.29785604218E+04  0.20946641545E+04 0.  0.
        4    1    3    3  502    0  0.40027581031E+03 -0.61822331144E+03 -0.21176502334E+04  0.22420671067E+04  0.12699999809E+01 0. -1.
       -4    1    3    3    0  502 -0.40027581031E+03  0.61822331144E+03  0.56252928325E-01  0.73649331510E+03  0.12699999809E+01 0.  1.
</event>
<event>
 5   0  0.2674441E-06  0.3109608E+04  0.7818609E-02  0.8213106E-01
       -1   -1    0    0    0  501  0.00000000000E+00  0.00000000000E+00  0.71253152373E+03  0.71253152374E+03  0.50400001928E-02 0.  1.
        1   -1    0    0  501    0  0.00000000000E+00  0.00000000000E+00 -0.33927134973E+04  0.33927134973E+04  0.50400001928E-02 0. -1.
    10030    2    1    2    0    0  0.00000000000E+00  0.00000000000E+00 -0.26801819735E+04  0.41052450210E+04  0.31096078967E+04 0.  0.
        5    1    3    3  502    0  0.95576576873E+03  0.12259349037E+04 -0.12985811102E+04  0.20255220519E+04  0.46999998093E+01 0. -1.
       -5    1    3    3    0  502 -0.95576576873E+03 -0.12259349037E+04 -0.13816008633E+04  0.20797229691E+04  0.46999998093E+01 0.  1.
</event>
<event>
 5   0  0.7079223E-06  0.2956425E+04  0.7818609E-02  0.8256285E-01
        2   -1    0    0  501    0  0.00000000000E+00  0.00000000000E+00  0.20120714851E+04  0.20120714851E+04  0.25500000920E-02 0.  1.
       -2   -1    0    0    0  501  0.00000000000E+00  0.00000000000E+00 -0.10860012452E+04  0.10860012452E+04  0.25500000920E-02 0. -1.
    10030    2    1    2    0    0  0.00000000000E+00  0.00000000000E+00  0.92607023988E+03  0.30980727303E+04  0.29564249615E+04 0.  0.
        5    1    3    3  502    0 -0.76418696922E+03 -0.98230960455E+03 -0.37278620132E+03  0.12991941830E+04  0.46999998093E+01 0. -1.
       -5    1    3    3    0  502  0.76418696922E+03  0.98230960455E+03  0.12988564412E+04  0.17988785473E+04  0.46999998093E+01 0.  1.
</event>
<event>
 5   0  0.7079223E-06  0.3148722E+04  0.7818609E-02  0.8202492E-01
        2   -1    0    0  501    0  0.00000000000E+00  0.00000000000E+00  0.22555876067E+04  0.22555876067E+04  0.25500000920E-02 0. -1.
       -2   -1    0    0    0  501  0.00000000000E+00  0.00000000000E+00 -0.10988765366E+04  0.10988765366E+04  0.25500000920E-02 0.  1.
    10030    2    1    2    0    0  0.00000000000E+00  0.00000000000E+00  0.11567110701E+04  0.33544641433E+04  0.31487218342E+04 0.  0.
        5    1    3    3  502    0  0.11115182079E+04 -0.10817451012E+04  0.29062452352E+03  0.15780145418E+04  0.46999998093E+01 0.  1.
       -5    1    3    3    0  502 -0.11115182079E+04  0.10817451012E+04  0.86608654663E+03  0.17764496015E+04  0.46999998093E+01 0. -1.
</event>
<event>
 5   0  0.7363513E-06  0.2978271E+04  0.7818609E-02  0.8249963E-01
        2   -1    0    0  501    0  0.00000000000E+00  0.00000000000E+00  0.17559046727E+04  0.17559046727E+04  0.25500000920E-02 0.  1.
       -2   -1    0    0    0  501  0.00000000000E+00  0.00000000000E+00 -0.12628953596E+04  0.12628953596E+04  0.25500000920E-02 0. -1.
    10030    2    1    2    0    0  0.00000000000E+00  0.00000000000E+00  0.49300931315E+03  0.30188000323E+04  0.29782705471E+04 0.  0.
        4    1    3    3  502    0  0.47687589550E+03 -0.14097119024E+04  0.19264033203E+03  0.15006032713E+04  0.12699999809E+01 0.  1.
       -4    1    3    3    0  502 -0.47687589550E+03  0.14097119024E+04  0.30036898112E+03  0.15181967610E+04  0.12699999809E+01 0. -1.
</event>
<event>
 5   0  0.2612331E-06  0.3080765E+04  0.7818609E-02  0.8221037E-01
       -1   -1    0    0    0  501  0.00000000000E+00  0.00000000000E+00  0.12796351814E+04  0.12796351814E+04  0.50400001928E-02 0.  1.
        1   -1    0    0  501    0  0.00000000000E+00  0.00000000000E+00 -0.18542616848E+04  0.18542616849E+04  0.50400001928E-02 0. -1.
    10030    2    1    2    0    0  0.00000000000E+00  0.00000000000E+00 -0.57462650341E+03  0.31338968663E+04  0.30807651566E+04 0.  0.
        4    1    3    3  502    0 -0.84619702913E+03  0.69047237726E+03  0.81768750494E+03  0.13643371960E+04  0.12699999809E+01 0.  1.
       -4    1    3    3    0  502  0.84619702913E+03 -0.69047237726E+03 -0.13923140084E+04  0.17695596703E+04  0.12699999809E+01 0. -1.
</event>
<event>
 5   0  0.2598987E-06  0.3091754E+04  0.7818609E-02  0.8218005E-01
        1   -1    0    0  501    0  0.00000000000E+00  0.00000000000E+00  0.13759020430E+04  0.13759020430E+04  0.50400001928E-02 0.  1.
       -1   -1    0    0    0  501  0.00000000000E+00  0.00000000000E+00 -0.17368498324E+04  0.17368498324E+04  0.50400001928E-02 0. -1.
    10030    2    1    2    0    0  0.00000000000E+00  0.00000000000E+00 -0.36094778944E+03  0.31127518754E+04  0.30917536983E+04 0.  0.
        2    1    3    3  502    0 -0.33899444782E+03  0.35879343059E+02  0.13375899016E+04  0.13803446337E+04  0.25500000920E-02 0.  1.
       -2    1    3    3    0  502  0.33899444782E+03 -0.35879343059E+02 -0.16985376911E+04  0.17324072416E+04  0.25500000920E-02 0. -1.
</event>
<event>
 5   0  0.7414808E-06  0.3130778E+04  0.7818609E-02  0.8207341E-01
        2   -1    0    0  501    0  0.00000000000E+00  0.00000000000E+00  0.23906899686E+04  0.23906899686E+04  0.25500000920E-02 0. -1.
       -2   -1    0    0    0  501  0.00000000000E+00  0.00000000000E+00 -0.10249942609E+04  0.10249942609E+04  0.25500000920E-02 0.  1.
    10030    2    1    2    0    0  0.00000000000E+00  0.00000000000E+00  0.13656957077E+04  0.34156842296E+04  0.31307784959E+04 0.  0.
        2    1    3    3  502    0 -0.70637268397E+03 -0.13969282601E+04  0.67355415276E+03  0.17041262070E+04  0.25500000920E-02 0.  1.
       -2    1    3    3    0  502  0.70637268397E+03  0.13969282601E+04  0.69214155494E+03  0.17115580226E+04  0.25500000920E-02 0. -1.
</event>
<event>
 5   0  0.2598987E-06  0.3090286E+04  0.7818609E-02  0.8218409E-01
       -1   -1    0    0    0  501  0.00000000000E+00  0.00000000000E+00  0.16036844304E+04  0.16036844304E+04  0.50400001928E-02 0.  1.
        1   -1    0    0  501    0  0.00000000000E+00  0.00000000000E+00 -0.14887383804E+04  0.14887383804E+04  0.50400001928E-02 0. -1.
    10030    2    1    2    0    0  0.00000000000E+00  0.00000000000E+00  0.11494604998E+03  0.30924228107E+04  0.30902857871E+04 0.  0.
        2    1    3    3  502    0  0.13688229120E+04  0.53914416541E+03  0.53014907948E+03  0.15637808804E+04  0.25500000920E-02 0.  1.
       -2    1    3    3    0  502 -0.13688229120E+04 -0.53914416541E+03 -0.41520302950E+03  0.15286419303E+04  0.25500000920E-02 0. -1.
</event>
<event>
 5   0  0.7094341E-06  0.3180860E+04  0.7818609E-02  0.8193890E-01
        2   -1    0    0  501    0  0.00000000000E+00  0.00000000000E+00  0.19207598794E+04  0.19207598794E+04  0.25500000920E-02 0. -1.
       -2   -1    0    0    0  501  0.00000000000E+00  0.00000000000E+00 -0.13169095752E+04  0.13169095752E+04  0.25500000920E-02 0.  1.
    10030    2    1    2    0    0  0.00000000000E+00  0.00000000000E+00  0.60385030423E+03  0.32376694546E+04  0.31808596805E+04 0.  0.
        3    1    3    3  502    0  0.45621655418E+03 -0.34164714538E+03 -0.12093862441E+04  0.13369635050E+04  0.10100000352E+00 0.  1.
       -3    1    3    3    0  502 -0.45621655418E+03  0.34164714538E+03  0.18132365483E+04  0.19007059495E+04  0.10100000352E+00 0. -1.
</event>
<event>
 5   0  0.7079223E-06  0.3126092E+04  0.7818609E-02  0.8208614E-01
       -2   -1    0    0    0  501  0.00000000000E+00  0.00000000000E+00  0.16187153136E+04  0.16187153136E+04  0.25500000920E-02 0. -1.
        2   -1    0    0  501    0  0.00000000000E+00  0.00000000000E+00 -0.15092909645E+04  0.15092909645E+04  0.25500000920E-02 0.  1.
    10030    2    1    2    0    0  0.00000000000E+00  0.00000000000E+00  0.10942434912E+03  0.31280062782E+04  0.31260917434E+04 0.  0.
        5    1    3    3  502    0 -0.47985333353E+03  0.81112363748E+02 -0.14315432135E+04  0.15120107471E+04  0.46999998093E+01 0.  1.
       -5    1    3    3    0  502  0.47985333353E+03 -0.81112363748E+02  0.15409675626E+04  0.16159955310E+04  0.46999998093E+01 0. -1.
</event>
<event>
 5   0  0.2674441E-06  0.3083700E+04  0.7818609E-02  0.8220225E-01
       -1   -1    0    0    0  501  0.00000000000E+00  0.00000000000E+00  0.15980734127E+04  0.15980734127E+04  0.50400001928E-02 0. -1.
        1   -1    0    0  501    0  0.00000000000E+00  0.00000000000E+00 -0.14876050142E+04  0.14876050142E+04  0.50400001928E-02 0.  1.
    10030    2    1    2    0    0  0.00000000000E+00  0.00000000000E+00  0.11046839855E+03  0.30856784269E+04  0.30837003887E+04 0.  0.
        5    1    3    3  502    0  0.49131872248E+02  0.45806934731E+03  0.15275850001E+04  0.15955499022E+04  0.46999998093E+01 0. -1.
       -5    1    3    3    0  502 -0.49131872248E+02 -0.45806934731E+03 -0.14171166015E+04  0.14901285247E+04  0.46999998093E+01 0.  1.
</event>
<event>
 5   0  0.2517725E-06  0.3125377E+04  0.7818609E-02  0.8208808E-01
        1   -1    0    0  501    0  0.00000000000E+00  0.00000000000E+00  0.14042050387E+04  0.14042050387E+04  0.50400001928E-02 0.  1.
       -1   -1    0    0    0  501  0.00000000000E+00  0.00000000000E+00 -0.17390593857E+04  0.17390593857E+04  0.50400001928E-02 0. -1.
    10030    2    1    2    0    0  0.00000000000E+00  0.00000000000E+00 -0.33485434700E+03  0.31432644245E+04  0.31253773865E+04 0.  0.
        3    1    3    3  502    0 -0.21919913054E+03  0.11494203047E+04 -0.12091061919E+04  0.16826030694E+04  0.10100000352E+00 0. -1.
       -3    1    3    3    0  502  0.21919913054E+03 -0.11494203047E+04  0.87425184488E+03  0.14606613551E+04  0.10100000352E+00 0.  1.
</event>
<event>
 5   0  0.7094341E-06  0.2863560E+04  0.7818609E-02  0.8283803E-01
       -2   -1    0    0    0  501  0.00000000000E+00  0.00000000000E+00  0.18926399965E+04  0.18926399965E+04  0.25500000920E-02 0. -1.
        2   -1    0    0  501    0  0.00000000000E+00  0.00000000000E+00 -0.10831399287E+04  0.10831399287E+04  0.25500000920E-02 0.  1.
    10030    2    1    2    0    0  0.00000000000E+00  0.00000000000E+00  0.80950006776E+03  0.29757799252E+04  0.28635599877E+04 0.  0.
        3    1    3    3  502    0 -0.98762940600E+03  0.75100992948E+03  0.11472912198E+04  0.16898831057E+04  0.10100000352E+00 0. -1.
       -3    1    3    3    0  502  0.98762940600E+03 -0.75100992948E+03 -0.33779115200E+03  0.12858968195E+04  0.10100000352E+00 0.  1.
</event>
<event>
 5   0  0.7071012E-06  0.3085948E+04  0.7818609E-02  0.8219605E-01
       -2   -1    0    0    0  501  0.00000000000E+00  0.00000000000E+00  0.15443712058E+04  0.15443712058E+04  0.25500000920E-02 0.  1.
        2   -1    0    0  501    0  0.00000000000E+00  0.00000000000E+00 -0.15415780232E+04  0.15415780232E+04  0.25500000920E-02 0. -1.
    10030    2    1    2    0    0  0.00000000000E+00  0.00000000000E+00  0.27931826005E+01  0.30859492290E+04  0.30859479649E+04 0.  0.
        1    1    3    3  502    0 -0.91168593209E+03 -0.65721610308E+03  0.10585935366E+04  0.15439315143E+04  0.50400001928E-02 0.  1.
       -1    1    3    3    0  502  0.91168593209E+03  0.65721610308E+03 -0.10558003540E+04  0.15420177147E+04  0.50400001928E-02 0. -1.
</event>
<event>
 5   0  0.7071012E-06  0.3107075E+04  0.7818609E-02  0.8213799E-01
        2   -1    0    0  501    0  0.00000000000E+00  0.00000000000E+00  0.17493578547E+04  0.17493578547E+04  0.25500000920E-02 0.  1.
       -2   -1    0    0    0  501  0.00000000000E+00  0.00000000000E+00 -0.13796365933E+04  0.13796365933E+04  0.25500000920E-02 0. -1.
    10030    2    1    2    0    0  0.00000000000E+00  0.00000000000E+00  0.36972126132E+03  0.31289944480E+04  0.31070745798E+04 0.  0.
        1    1    3    3  502    0 -0.27263917397E+03 -0.67482864477E+03  0.15670419263E+04  0.17278154467E+04  0.50400001928E-02 0.  1.
       -1    1    3    3    0  502  0.27263917397E+03  0.67482864477E+03 -0.11973206650E+04  0.14011790013E+04  0.50400001928E-02 0. -1.
</event>
<event>
 5   0  0.7414808E-06  0.3091115E+04  0.7818609E-02  0.8218181E-01
       -2   -1    0    0    0  501  0.00000000000E+00  0.00000000000E+00  0.93819190699E+03  0.93819190700E+03  0.25500000920E-02 0. -1.
        2   -1    0    0  501    0  0.00000000000E+00  0.00000000000E+00 -0.25461189346E+04  0.25461189346E+04  0.25500000920E-02 0.  1.
    10030    2    1    2    0    0  0.00000000000E+00  0.00000000000E+00 -0.16079270276E+04  0.34843108416E+04  0.30911151248E+04 0.  0.
        2    1    3    3  502    0  0.10337732664E+04 -0.91158609520E+03 -0.15922571575E+04  0.21059342893E+04  0.25500000920E-02 0.  1.
       -2    1    3    3    0  502 -0.10337732664E+04  0.91158609520E+03 -0.15669870170E+02  0.13783765524E+04  0.25500000920E-02 0. -1.
</event>
<event>
 5   0  0.2624011E-06  0.2737211E+04  0.7818609E-02  0.8323031E-01
        1   -1    0    0  501    0  0.00000000000E+00  0.00000000000E+00  0.15996303091E+04  0.15996303092E+04  0.50400001928E-02 0.  1.
       -1   -1    0    0    0  501  0.00000000000E+00  0.00000000000E+00 -0.11709465622E+04  0.11709465622E+04  0.50400001928E-02 0. -1.
    10030    2    1    2    0    0  0.00000000000E+00  0.00000000000E+00  0.42868374691E+03  0.27705768714E+04  0.27372114360E+04 0.  0.
        1    1    3    3  502    0  0.97876494361E+03 -0.94825905413E+03  0.86687300146E+02  0.13655367943E+04  0.50400001928E-02 0. -1.
       -1    1    3    3    0  502 -0.97876494361E+03  0.94825905413E+03  0.34199644677E+03  0.14050400771E+04  0.50400001928E-02 0.  1.
</event>
<event>
 5   0  0.7071012E-06  0.2180411E+04  0.7818609E-02  0.8526626E-01
        2   -1    0    0  501    0  0.00000000000E+00  0.00000000000E+00  0.15937718751E+04  0.15937718751E+04  0.25500000920E-02 0.  1.
       -2   -1    0    0    0  501  0.00000000000E+00  0.00000000000E+00 -0.74574570982E+03  0.74574570982E+03  0.25500000920E-02 0. -1.
    10030    2    1    2    0    0  0.00000000000E+00  0.00000000000E+00  0.84802616530E+03  0.23395175849E+04  0.21804114642E+04 0.  0.
        1    1    3    3  502    0 -0.29827409099E+03  0.53805939241E+03  0.13897303305E+04  0.15198110852E+04  0.50400001928E-02 0.  1.
       -1    1    3    3    0  502  0.29827409099E+03 -0.53805939241E+03 -0.54170416520E+03  0.81970649975E+03  0.50400001928E-02 0. -1.
</event>
<event>
 5   0  0.7363513E-06  0.3003318E+04  0.7818609E-02  0.8242784E-01
        2   -1    0    0  501    0  0.00000000000E+00  0.00000000000E+00  0.12653905259E+04  0.12653905259E+04  0.25500000920E-02 0.  1.
       -2   -1    0    0    0  501  0.00000000000E+00  0.00000000000E+00 -0.17820427823E+04  0.17820427823E+04  0.25500000920E-02 0. -1.
    10030    2    1    2    0    0  0.00000000000E+00  0.00000000000E+00 -0.51665225634E+03  0.30474333082E+04  0.30033182006E+04 0.  0.
        4    1    3    3  502    0 -0.14027860909E+04 -0.18450361273E+02 -0.80175730308E+03  0.16158482659E+04  0.12699999809E+01 0. -1.
       -4    1    3    3    0  502  0.14027860909E+04  0.18450361273E+02  0.28510504674E+03  0.14315850422E+04  0.12699999809E+01 0.  1.
</event>
<event>
 5   0  0.7094341E-06  0.3068069E+04  0.7818609E-02  0.8224556E-01
       -2   -1    0    0    0  501  0.00000000000E+00  0.00000000000E+00  0.11126661084E+04  0.11126661084E+04  0.25500000920E-02 0.  1.
        2   -1    0    0  501    0  0.00000000000E+00  0.00000000000E+00 -0.21149760545E+04  0.21149760545E+04  0.25500000920E-02 0. -1.
    10030    2    1    2    0    0  0.00000000000E+00  0.00000000000E+00 -0.10023099461E+04  0.32276421629E+04  0.30680692143E+04 0.  0.
        3    1    3    3  502    0 -0.44445292783E+03  0.21367040545E+03 -0.20293139140E+04  0.20883745878E+04  0.10100000352E+00 0. -1.
       -3    1    3    3    0  502  0.44445292783E+03 -0.21367040545E+03  0.10270039680E+04  0.11392675751E+04  0.10100000352E+00 0.  1.
</event>
<event>
 5   0  0.2517725E-06  0.3093209E+04  0.7818609E-02  0.8217604E-01
       -1   -1    0    0    0  501  0.00000000000E+00  0.00000000000E+00  0.29306836256E+04  0.29306836256E+04  0.50400001928E-02 0.  1.
        1   -1    0    0  501    0  0.00000000000E+00  0.00000000000E+00 -0.81618696150E+03  0.81618696152E+03  0.50400001928E-02 0. -1.
    10030    2    1    2    0    0  0.00000000000E+00  0.00000000000E+00  0.21144966641E+04  0.37468705871E+04  0.30932091837E+04 0.  0.
        3    1    3    3  502    0 -0.15435748813E+04  0.41981695413E+02  0.11628480275E+04  0.19330290795E+04  0.10100000352E+00 0.  1.
       -3    1    3    3    0  502  0.15435748813E+04 -0.41981695413E+02  0.95164863662E+03  0.18138415076E+04  0.10100000352E+00 0. -1.
</event>
<event>
 5   0  0.2598987E-06  0.3074055E+04  0.7818609E-02  0.8222895E-01
        1   -1    0    0  501    0  0.00000000000E+00  0.00000000000E+00  0.19192513643E+04  0.19192513643E+04  0.50400001928E-02 0. -1.
       -1   -1    0    0    0  501  0.00000000000E+00  0.00000000000E+00 -0.12309244258E+04  0.12309244259E+04  0.50400001928E-02 0.  1.
    10030    2    1    2    0    0  0.00000000000E+00  0.00000000000E+00  0.68832693843E+03  0.31501757901E+04  0.30740549010E+04 0.  0.
        2    1    3    3  502    0 -0.88943131648E+03 -0.85395893837E+03  0.12845578355E+04  0.17805681026E+04  0.25500000920E-02 0. -1.
       -2    1    3    3    0  502  0.88943131648E+03  0.85395893837E+03 -0.59623089709E+03  0.13696076875E+04  0.25500000920E-02 0.  1.
</event>
<event>
 5   0  0.7071012E-06  0.2983836E+04  0.7818609E-02  0.8248362E-01
       -2   -1    0    0    0  501  0.00000000000E+00  0.00000000000E+00  0.14702843951E+04  0.14702843951E+04  0.25500000920E-02 0.  1.
        2   -1    0    0  501    0  0.00000000000E+00  0.00000000000E+00 -0.15138696979E+04  0.15138696979E+04  0.25500000920E-02 0. -1.
    10030    2    1    2    0    0  0.00000000000E+00  0.00000000000E+00 -0.43585302773E+02  0.29841540930E+04  0.29838357817E+04 0.  0.
        1    1    3    3  502    0  0.62912379343E+03  0.12858350461E+04 -0.44213557282E+03  0.14982163989E+04  0.50400001928E-02 0. -1.
       -1    1    3    3    0  502 -0.62912379343E+03 -0.12858350461E+04  0.39855027004E+03  0.14859376942E+04  0.50400001928E-02 0.  1.
</event>
<event>
 5   0  0.7363513E-06  0.3029811E+04  0.7818609E-02  0.8235269E-01
        2   -1    0    0  501    0  0.00000000000E+00  0.00000000000E+00  0.12223478402E+04  0.12223478402E+04  0.25500000920E-02 0. -1.
       -2   -1    0    0    0  501  0.00000000000E+00  0.00000000000E+00 -0.18774845671E+04  0.18774845671E+04  0.25500000920E-02 0.  1.
    10030    2    1    2    0    0  0.00000000000E+00  0.00000000000E+00 -0.65513672685E+03  0.30998324073E+04  0.30298113510E+04 0.  0.
        4    1    3    3  502    0 -0.31457542310E+03  0.14805728549E+04 -0.26380699777E+03  0.15364405034E+04  0.12699999809E+01 0. -1.
       -4    1    3    3    0  502  0.31457542310E+03 -0.14805728549E+04 -0.39132972907E+03  0.15633919039E+04  0.12699999809E+01 0.  1.
</event>
<event>
 5   0  0.7094341E-06  0.2342735E+04  0.7818609E-02  0.8461259E-01
       -2   -1    0    0    0  501  0.00000000000E+00  0.00000000000E+00  0.89918747106E+03  0.89918747107E+03  0.25500000920E-02 0. -1.
        2   -1    0    0  501    0  0.00000000000E+00  0.00000000000E+00 -0.15259353739E+04  0.15259353739E+04  0.25500000920E-02 0.  1.
    10030    2    1    2    0    0  0.00000000000E+00  0.00000000000E+00 -0.62674790283E+03  0.24251228450E+04  0.23427351279E+04 0.  0.
        3    1    3    3  502    0  0.72759043039E+03 -0.81430854377E+03 -0.75208919627E+03  0.13259428375E+04  0.10100000352E+00 0.  1.
       -3    1    3    3    0  502 -0.72759043039E+03  0.81430854377E+03  0.12534129345E+03  0.10991800075E+04  0.10100000352E+00 0. -1.
</event>
<event>
 5   0  0.2624011E-06  0.3120790E+04  0.7818609E-02  0.8210055E-01
        1   -1    0    0  501    0  0.00000000000E+00  0.00000000000E+00  0.14055863064E+04  0.14055863064E+04  0.50400001928E-02 0.  1.
       -1   -1    0    0    0  501  0.00000000000E+00  0.00000000000E+00 -0.17322538372E+04  0.17322538372E+04  0.50400001928E-02 0. -1.
    10030    2    1    2    0    0  0.00000000000E+00  0.00000000000E+00 -0.32666753082E+03  0.31378401436E+04  0.31207898185E+04 0.  0.
        1    1    3    3  502    0 -0.57187442161E+03  0.50979063165E+03  0.12034699959E+04  0.14266277977E+04  0.50400001928E-02 0.  1.
       -1    1    3    3    0  502  0.57187442161E+03 -0.50979063165E+03 -0.15301375267E+04  0.17112123459E+04  0.50400001928E-02 0. -1.
</event>
<event>
 5   0  0.7414808E-06  0.3090499E+04  0.7818609E-02  0.8218350E-01
       -2   -1    0    0    0  501  0.00000000000E+00  0.00000000000E+00  0.11644112399E+04  0.11644112399E+04  0.25500000920E-02 0.  1.
        2   -1    0    0  501    0  0.00000000000E+00  0.00000000000E+00 -0.20506461625E+04  0.20506461625E+04  0.25500000920E-02 0. -1.
    10030    2    1    2    0    0  0.00000000000E+00  0.00000000000E+00 -0.88623492262E+03  0.32150574024E+04  0.30904986269E+04 0.  0.
        2    1    3    3  502    0 -0.88848365953E+03  0.23164787830E+03  0.84984726227E+03  0.12511212259E+04  0.25500000920E-02 0.  1.
       -2    1    3    3    0  502  0.88848365953E+03 -0.23164787830E+03 -0.17360821849E+04  0.19639361765E+04  0.25500000920E-02 0. -1.
</event>
<event>
 5   0  0.2624011E-06  0.3071091E+04  0.7818609E-02  0.8223717E-01
       -1   -1    0    0    0  501  0.00000000000E+00  0.00000000000E+00  0.12197531926E+04  0.12197531926E+04  0.50400001928E-02 0. -1.
        1   -1    0    0  501    0  0.00000000000E+00  0.00000000000E+00 -0.19330965365E+04  0.19330965365E+04  0.50400001928E-02 0.  1.
    10030    2    1    2    0    0  0.00000000000E+00  0.00000000000E+00 -0.71334334390E+03  0.31528497291E+04  0.30710914489E+04 0.  0.
        1    1    3    3  502    0 -0.14977939938E+04 -0.28806576999E+03 -0.17437201842E+03  0.15351789265E+04  0.50400001928E-02 0.  1.
       -1    1    3    3    0  502  0.14977939938E+04  0.28806576999E+03 -0.53897132548E+03  0.16176708025E+04  0.50400001928E-02 0. -1.
</event>
<event>
 5   0  0.2598987E-06  0.2839788E+04  0.7818609E-02  0.8291021E-01
       -1   -1    0    0    0  501  0.00000000000E+00  0.00000000000E+00  0.30355670179E+04  0.30355670179E+04  0.50400001928E-02 0.  1.
        1   -1    0    0  501    0  0.00000000000E+00  0.00000000000E+00 -0.66415904006E+03  0.66415904008E+03  0.50400001928E-02 0. -1.
    10030    2    1    2    0    0  0.00000000000E+00  0.00000000000E+00  0.23714079778E+04  0.36997260579E+04  0.28397882151E+04 0.  0.
        2    1    3    3  502    0  0.13001627399E+04 -0.17981563258E+03  0.48008366024E+03  0.13975826032E+04  0.25500000920E-02 0.  1.
       -2    1    3    3    0  502 -0.13001627399E+04  0.17981563258E+03  0.18913243176E+04  0.23021434547E+04  0.25500000920E-02 0. -1.
</event>
<event>
 5   0  0.7079223E-06  0.2772029E+04  0.7818609E-02  0.8312005E-01
        2   -1    0    0  501    0  0.00000000000E+00  0.00000000000E+00  0.14891578734E+04  0.14891578734E+04  0.25500000920E-02 0.  1.
       -2   -1    0    0    0  501  0.00000000000E+00  0.00000000000E+00 -0.12900148375E+04  0.12900148375E+04  0.25500000920E-02 0. -1.
    10030    2    1    2    0    0  0.00000000000E+00  0.00000000000E+00  0.19914303593E+03  0.27791727109E+04  0.27720286810E+04 0.  0.
        5    1    3    3  502    0 -0.12090638547E+04 -0.60632259288E+03 -0.20378251186E+03  0.13678493680E+04  0.46999998093E+01 0. -1.
       -5    1    3    3    0  502  0.12090638547E+04  0.60632259288E+03  0.40292554778E+03  0.14113233429E+04  0.46999998093E+01 0.  1.
</event>
<event>
 5   0  0.2624011E-06  0.3147279E+04  0.7818609E-02  0.8202881E-01
       -1   -1    0    0    0  501  0.00000000000E+00  0.00000000000E+00  0.17595228356E+04  0.17595228356E+04  0.50400001928E-02 0.  1.
        1   -1    0    0  501    0  0.00000000000E+00  0.00000000000E+00 -0.14073937813E+04  0.14073937813E+04  0.50400001928E-02 0. -1.
    10030    2    1    2    0    0  0.00000000000E+00  0.00000000000E+00  0.35212905431E+03  0.31669166169E+04  0.31472791404E+04 0.  0.
        1    1    3    3  502    0  0.15351812424E+04  0.77552149316E+02  0.51513247508E+03  0.16211592303E+04  0.50400001928E-02 0.  1.
       -1    1    3    3    0  502 -0.15351812424E+04 -0.77552149316E+02 -0.16300342077E+03  0.15457573866E+04  0.50400001928E-02 0. -1.
</event>
<event>
 5   0  0.7363513E-06  0.3084856E+04  0.7818609E-02  0.8219906E-01
       -2   -1    0    0    0  501  0.00000000000E+00  0.00000000000E+00  0.13680305162E+04  0.13680305162E+04  0.25500000920E-02 0.  1.
        2   -1    0    0  501    0  0.00000000000E+00  0.00000000000E+00 -0.17390573587E+04  0.17390573587E+04  0.25500000920E-02 0. -1.
    10030    2    1    2    0    0  0.00000000000E+00  0.00000000000E+00 -0.37102684247E+03  0.31070878749E+04  0.30848556116E+04 0.  0.
        4    1    3    3  502    0  0.47909447321E+03  0.60101665002E+03 -0.15324354393E+04  0.17143840049E+04  0.12699999809E+01 0. -1.
       -4    1    3    3    0  502 -0.47909447321E+03 -0.60101665002E+03  0.11614085968E+04  0.13927038700E+04  0.12699999809E+01 0.  1.
</event>
<event>
 5   0  0.2674441E-06  0.1911541E+04  0.7818609E-02  0.8649133E-01
        1   -1    0    0  501    0  0.00000000000E+00  0.00000000000E+00  0.10082554894E+04  0.10082554895E+04  0.50400001928E-02 0.  1.
       -1   -1    0    0    0  501  0.00000000000E+00  0.00000000000E+00 -0.90601791378E+03  0.90601791380E+03  0.50400001928E-02 0. -1.
    10030    2    1    2    0    0  0.00000000000E+00  0.00000000000E+00  0.10223757566E+03  0.19142734033E+04  0.19115412997E+04 0.  0.
        5    1    3    3  502    0 -0.91695192482E+03  0.26656242238E+03  0.10823388441E+02  0.95498460364E+03  0.46999998093E+01 0.  1.
       -5    1    3    3    0  502  0.91695192482E+03 -0.26656242238E+03  0.91414187220E+02  0.95928879962E+03  0.46999998093E+01 0. -1.
</event>
<event>
 5   0  0.7094341E-06  0.3125776E+04  0.7818609E-02  0.8208699E-01
       -2   -1    0    0    0  501  0.00000000000E+00  0.00000000000E+00  0.92048623519E+03  0.92048623519E+03  0.25500000920E-02 0. -1.
        2   -1    0    0  501    0  0.00000000000E+00  0.00000000000E+00 -0.26536182704E+04  0.26536182704E+04  0.25500000920E-02 0.  1.
    10030    2    1    2    0    0  0.00000000000E+00  0.00000000000E+00 -0.17331320352E+04  0.35741045056E+04  0.31257761221E+04 0.  0.
        3    1    3    3  502    0  0.12087117946E+04 -0.99072399591E+03 -0.87804839135E+03  0.17926202125E+04  0.10100000352E+00 0.  1.
       -3    1    3    3    0  502 -0.12087117946E+04  0.99072399591E+03 -0.85508364386E+03  0.17814842931E+04  0.10100000352E+00 0. -1.
</event>
<event>
 5   0  0.7094341E-06  0.3043106E+04  0.7818609E-02  0.8231528E-01
       -2   -1    0    0    0  501  0.00000000000E+00  0.00000000000E+00  0.12891600327E+04  0.12891600327E+04  0.25500000920E-02 0. -1.
        2   -1    0    0  501    0  0.00000000000E+00  0.00000000000E+00 -0.17958387382E+04  0.17958387382E+04  0.25500000920E-02 0.  1.
    10030    2    1    2    0    0  0.00000000000E+00  0.00000000000E+00 -0.50667870559E+03  0.30849987709E+04  0.30431059965E+04 0.  0.
        3    1    3    3  502    0  0.70185189602E+03  0.11905999302E+03 -0.16166016346E+04  0.17664009230E+04  0.10100000352E+00 0.  1.
       -3    1    3    3    0  502 -0.70185189602E+03 -0.11905999302E+03  0.11099229290E+04  0.13185978478E+04  0.10100000352E+00 0. -1.
</event>
<event>
 5   0  0.2517725E-06  0.2805972E+04  0.7818609E-02  0.8301417E-01
       -1   -1    0    0    0  501  0.00000000000E+00  0.00000000000E+00  0.12182082849E+04  0.12182082849E+04  0.50400001928E-02 0.  1.
        1   -1    0    0  501    0  0.00000000000E+00  0.00000000000E+00 -0.16157904353E+04  0.16157904353E+04  0.50400001928E-02 0. -1.
    10030    2    1    2    0    0  0.00000000000E+00  0.00000000000E+00 -0.39758215043E+03  0.28339987202E+04  0.28059716998E+04 0.  0.
        3    1    3    3  502    0 -0.23875297816E+02  0.11891315024E+04  0.55279603051E+03  0.13115590804E+04  0.10100000352E+00 0. -1.
       -3    1    3    3    0  502  0.23875297816E+02 -0.11891315024E+04 -0.95037818093E+03  0.15224396398E+04  0.10100000352E+00 0.  1.
</event>
<event>
 5   0  0.7414808E-06  0.2885791E+04  0.7818609E-02  0.8277118E-01
        2   -1    0    0  501    0  0.00000000000E+00  0.00000000000E+00  0.13793653675E+04  0.13793653675E+04  0.25500000920E-02 0.  1.
       -2   -1    0    0    0  501  0.00000000000E+00  0.00000000000E+00 -0.15093512320E+04  0.15093512320E+04  0.25500000920E-02 0. -1.
    10030    2    1    2    0    0  0.00000000000E+00  0.00000000000E+00 -0.12998586452E+03  0.28887165995E+04  0.28857905793E+04 0.  0.
        2    1    3    3  502    0 -0.33003763297E+03 -0.33098901856E+03  0.13014802857E+04  0.13828700241E+04  0.25500000920E-02 0.  1.
       -2    1    3    3    0  502  0.33003763297E+03  0.33098901856E+03 -0.14314661502E+04  0.15058465754E+04  0.25500000920E-02 0. -1.
</event>
<event>
 5   0  0.7363513E-06  0.3105279E+04  0.7818609E-02  0.8214291E-01
        2   -1    0    0  501    0  0.00000000000E+00  0.00000000000E+00  0.17639568354E+04  0.17639568354E+04  0.25500000920E-02 0.  1.
       -2   -1    0    0    0  501  0.00000000000E+00  0.00000000000E+00 -0.13666373273E+04  0.13666373273E+04  0.25500000920E-02 0. -1.
    10030    2    1    2    0    0  0.00000000000E+00  0.00000000000E+00  0.39731950817E+03  0.31305941627E+04  0.31052788957E+04 0.  0.
        4    1    3    3  502    0 -0.11962092882E+04 -0.32225002036E+02 -0.79871454064E+03  0.14387152749E+04  0.12699999809E+01 0. -1.
       -4    1    3    3    0  502  0.11962092882E+04  0.32225002036E+02  0.11960340488E+04  0.16918788877E+04  0.12699999809E+01 0.  1.
</event>
<event>
 5   0  0.7363513E-06  0.3074453E+04  0.7818609E-02  0.8222784E-01
        2   -1    0    0  501    0  0.00000000000E+00  0.00000000000E+00  0.21138972977E+04  0.21138972977E+04  0.25500000920E-02 0. -1.
       -2   -1    0    0    0  501  0.00000000000E+00  0.00000000000E+00 -0.11178712924E+04  0.11178712924E+04  0.25500000920E-02 0.  1.
    10030    2    1    2    0    0  0.00000000000E+00  0.00000000000E+00  0.99602600531E+03  0.32317685901E+04  0.30744528646E+04 0.  0.
        4    1    3    3  502    0  0.14209191594E+04 -0.27517194410E+03  0.10425271453E+04  0.17837026989E+04  0.12699999809E+01 0. -1.
       -4    1    3    3    0  502 -0.14209191594E+04  0.27517194410E+03 -0.46501139942E+02  0.14480658912E+04  0.12699999809E+01 0.  1.
</event>
<event>
 5   0  0.2612331E-06  0.3176613E+04  0.7818609E-02  0.8195021E-01
       -1   -1    0    0    0  501  0.00000000000E+00  0.00000000000E+00  0.15913561022E+04  0.15913561022E+04  0.50400001928E-02 0. -1.
        1   -1    0    0  501    0  0.00000000000E+00  0.00000000000E+00 -0.15852625150E+04  0.15852625150E+04  0.50400001928E-02 0.  1.
    10030    2    1    2    0    0  0.00000000000E+00  0.00000000000E+00  0.60935872103E+01  0.31766186172E+04  0.31766127726E+04 0.  0.
        4    1    3    3  502    0  0.12971864296E+04  0.15668966607E+03 -0.89998935193E+03  0.15865770486E+04  0.12699999809E+01 0.  1.
       -4    1    3    3    0  502 -0.12971864296E+04 -0.15668966607E+03  0.90608293914E+03  0.15900415686E+04  0.12699999809E+01 0. -1.
</event>
<event>
 5   0  0.2517725E-06  0.3126584E+04  0.7818609E-02  0.8208480E-01
       -1   -1    0    0    0  501  0.00000000000E+00  0.00000000000E+00  0.75832091785E+03  0.75832091787E+03  0.50400001928E-02 0.  1.
        1   -1    0    0  501    0  0.00000000000E+00  0.00000000000E+00 -0.32227539598E+04  0.32227539598E+04  0.50400001928E-02 0. -1.
    10030    2    1    2    0    0  0.00000000000E+00  0.00000000000E+00 -0.24644330419E+04  0.39810748777E+04  0.31265839127E+04 0.  0.
        3    1    3    3  502    0  0.96380283664E+03  0.12220952978E+04 -0.14186967643E+04  0.21059756276E+04  0.10100000352E+00 0.  1.
       -3    1    3    3    0  502 -0.96380283664E+03 -0.12220952978E+04 -0.10457362776E+04  0.18750992500E+04  0.10100000352E+00 0. -1.
</event>
<event>
 5   0  0.2624011E-06  0.3097829E+04  0.7818609E-02  0.8216334E-01
       -1   -1    0    0    0  501  0.00000000000E+00  0.00000000000E+00  0.11994838291E+04  0.11994838291E+04  0.50400001928E-02 0.  1.
        1   -1    0    0  501    0  0.00000000000E+00  0.00000000000E+00 -0.20001408827E+04  0.20001408827E+04  0.50400001928E-02 0. -1.
    10030    2    1    2    0    0  0.00000000000E+00  0.00000000000E+00 -0.80065705364E+03  0.31996247119E+04  0.30978293335E+04 0.  0.
        1    1    3    3  502    0 -0.60985770324E+03 -0.12878547887E+04  0.22678034105E+03  0.14428879715E+04  0.50400001928E-02 0.  1.
       -1    1    3    3    0  502  0.60985770324E+03  0.12878547887E+04 -0.10274373947E+04  0.17567367404E+04  0.50400001928E-02 0. -1.
</event>
<event>
 5   0  0.2612331E-06  0.3132885E+04  0.7818609E-02  0.8206770E-01
        1   -1    0    0  501    0  0.00000000000E+00  0.00000000000E+00  0.22240819888E+04  0.22240819888E+04  0.50400001928E-02 0. -1.
       -1   -1    0    0    0  501  0.00000000000E+00  0.00000000000E+00 -0.11032604922E+04  0.11032604922E+04  0.50400001928E-02 0.  1.
    10030    2    1    2    0    0  0.00000000000E+00  0.00000000000E+00  0.11208214966E+04  0.33273424810E+04  0.31328847982E+04 0.  0.
        4    1    3    3  502    0 -0.10641012724E+04  0.57578784853E+03  0.16171019373E+04  0.20196196307E+04  0.12699999809E+01 0. -1.
       -4    1    3    3    0  502  0.10641012724E+04 -0.57578784853E+03 -0.49628044071E+03  0.13077228503E+04  0.12699999809E+01 0.  1.
</event>
<event>
 5   0  0.2624011E-06  0.2940467E+04  0.7818609E-02  0.8260938E-01
       -1   -1    0    0    0  501  0.00000000000E+00  0.00000000000E+00  0.15760668331E+04  0.15760668331E+04  0.50400001928E-02 0. -1.
        1   -1    0    0  501    0  0.00000000000E+00  0.00000000000E+00 -0.13715072703E+04  0.13715072703E+04  0.50400001928E-02 0.  1.
    10030    2    1    2    0    0  0.00000000000E+00  0.00000000000E+00  0.20455956277E+03  0.29475741034E+04  0.29404673915E+04 0.  0.
        1    1    3    3  502    0  0.13363757583E+04 -0.32752477915E+01 -0.51212589663E+03  0.14311477312E+04  0.50400001928E-02 0.  1.
       -1    1    3    3    0  502 -0.13363757583E+04  0.32752477915E+01  0.71668545939E+03  0.15164263722E+04  0.50400001928E-02 0. -1.
</event>
<event>
 5   0  0.7414808E-06  0.2294959E+04  0.7818609E-02  0.8479911E-01
       -2   -1    0    0    0  501  0.00000000000E+00  0.00000000000E+00  0.93366348730E+03  0.93366348730E+03  0.25500000920E-02 0. -1.
        2   -1    0    0  501    0  0.00000000000E+00  0.00000000000E+00 -0.14102611989E+04  0.14102611989E+04  0.25500000920E-02 0.  1.
    10030    2    1    2    0    0  0.00000000000E+00  0.00000000000E+00 -0.47659771157E+03  0.23439246862E+04  0.22949591621E+04 0.  0.
        2    1    3    3  502    0 -0.29050857387E+03 -0.12868246380E+03 -0.13644371321E+04  0.14009436446E+04  0.25500000920E-02 0.  1.
       -2    1    3    3    0  502  0.29050857387E+03  0.12868246380E+03  0.88783942054E+03  0.94298104152E+03  0.25500000920E-02 0. -1.
</event>
<event>
 5   0  0.2612331E-06  0.3242774E+04  0.7818609E-02  0.8177611E-01
       -1   -1    0    0    0  501  0.00000000000E+00  0.00000000000E+00  0.13120237086E+04  0.13120237086E+04  0.50400001928E-02 0. -1.
        1   -1    0    0  501    0  0.00000000000E+00  0.00000000000E+00 -0.20036950309E+04  0.20036950309E+04  0.50400001928E-02 0.  1.
    10030    2    1    2    0    0  0.00000000000E+00  0.00000000000E+00 -0.69167132224E+03  0.33157187395E+04  0.32427737420E+04 0.  0.
        4    1    3    3  502    0 -0.15701726906E+04 -0.40390940105E+03 -0.32787086981E+03  0.16541118471E+04  0.12699999809E+01 0.  1.
       -4    1    3    3    0  502  0.15701726906E+04  0.40390940105E+03 -0.36380045243E+03  0.16616068924E+04  0.12699999809E+01 0. -1.
</event>
<event>
 5   0  0.7363513E-06  0.3065931E+04  0.7818609E-02  0.8225151E-01
       -2   -1    0    0    0  501  0.00000000000E+00  0.00000000000E+00  0.16226202955E+04  0.16226202955E+04  0.25500000920E-02 0. -1.
        2   -1    0    0  501    0  0.00000000000E+00  0.00000000000E+00 -0.14482641281E+04  0.14482641281E+04  0.25500000920E-02 0.  1.
    10030    2    1    2    0    0  0.00000000000E+00  0.00000000000E+00  0.17435616737E+03  0.30708844237E+04  0.30659307022E+04 0.  0.
        4    1    3    3  502    0 -0.94323348612E+03 -0.11018059544E+04 -0.40992551362E+03  0.15072180698E+04  0.12699999809E+01 0. -1.
       -4    1    3    3    0  502  0.94323348612E+03  0.11018059544E+04  0.58428168099E+03  0.15636663538E+04  0.12699999809E+01 0.  1.
</event>
<event>
 5   0  0.2624011E-06  0.3133809E+04  0.7818609E-02  0.8206520E-01
       -1   -1    0    0    0  501  0.00000000000E+00  0.00000000000E+00  0.16464807942E+04  0.16464807942E+04  0.50400001928E-02 0.  1.
        1   -1    0    0  501    0  0.00000000000E+00  0.00000000000E+00 -0.14911740690E+04  0.14911740690E+04  0.50400001928E-02 0. -1.
    10030    2    1    2    0    0  0.00000000000E+00  0.00000000000E+00  0.15530672523E+03  0.31376548632E+04  0.31338088426E+04 0.  0.
        1    1    3    3  502    0 -0.27582450448E+03  0.10167961438E+04  0.12389198540E+04  0.16263074617E+04  0.50400001928E-02 0.  1.
       -1    1    3    3    0  502  0.27582450448E+03 -0.10167961438E+04 -0.10836131287E+04  0.15113474015E+04  0.50400001928E-02 0. -1.
</event>
<event>
 5   0  0.2517725E-06  0.2011270E+04  0.7818609E-02  0.8601370E-01
       -1   -1    0    0    0  501  0.00000000000E+00  0.00000000000E+00  0.72344375119E+03  0.72344375121E+03  0.50400001928E-02 0.  1.
        1   -1    0    0  501    0  0.00000000000E+00  0.00000000000E+00 -0.13978991794E+04  0.13978991794E+04  0.50400001928E-02 0. -1.
    10030    2    1    2    0    0  0.00000000000E+00  0.00000000000E+00 -0.67445542821E+03  0.21213429306E+04  0.20112696748E+04 0.  0.
        3    1    3    3  502    0 -0.54121319339E+03  0.58529267180E+03 -0.98382187942E+03  0.12662482904E+04  0.10100000352E+00 0. -1.
       -3    1    3    3    0  502  0.54121319339E+03 -0.58529267180E+03  0.30936645121E+03  0.85509464020E+03  0.10100000352E+00 0.  1.
</event>
<event>
 5   0  0.7414808E-06  0.2750114E+04  0.7818609E-02  0.8318925E-01
        2   -1    0    0  501    0  0.00000000000E+00  0.00000000000E+00  0.13975872545E+04  0.13975872546E+04  0.25500000920E-02 0. -1.
       -2   -1    0    0    0  501  0.00000000000E+00  0.00000000000E+00 -0.13528904193E+04  0.13528904193E+04  0.25500000920E-02 0.  1.
    10030    2    1    2    0    0  0.00000000000E+00  0.00000000000E+00  0.44696835276E+02  0.27504776738E+04  0.27501144753E+04 0.  0.
        2    1    3    3  502    0  0.11251775508E+04  0.10939218812E+03  0.80526163406E+03  0.13879616245E+04  0.25500000920E-02 0. -1.
       -2    1    3    3    0  502 -0.11251775508E+04 -0.10939218812E+03 -0.76056479878E+03  0.13625160494E+04  0.25500000920E-02 0.  1.
</event>
<event>
 5   0  0.7071012E-06  0.3137939E+04  0.7818609E-02  0.8205402E-01
        2   -1    0    0  501    0  0.00000000000E+00  0.00000000000E+00  0.14920379010E+04  0.14920379010E+04  0.25500000920E-02 0. -1.
       -2   -1    0    0    0  501  0.00000000000E+00  0.00000000000E+00 -0.16498678671E+04  0.16498678671E+04  0.25500000920E-02 0.  1.
    10030    2    1    2    0    0  0.00000000000E+00  0.00000000000E+00 -0.15782996610E+03  0.31419057681E+04  0.31379390621E+04 0.  0.
        1    1    3    3  502    0 -0.13363354520E+04 -0.81050701795E+03  0.58922843256E+02  0.15640287618E+04  0.50400001928E-02 0.  1.
       -1    1    3    3    0  502  0.13363354520E+04  0.81050701795E+03 -0.21675280936E+03  0.15778770062E+04  0.50400001928E-02 0. -1.
</event>
<event>
 5   0  0.7079223E-06  0.3100006E+04  0.7818609E-02  0.8215736E-01
       -2   -1    0    0    0  501  0.00000000000E+00  0.00000000000E+00  0.16791513153E+04  0.16791513153E+04  0.25500000920E-02 0.  1.
        2   -1    0    0  501    0  0.00000000000E+00  0.00000000000E+00 -0.14307874541E+04  0.14307874541E+04  0.25500000920E-02 0. -1.
    10030    2    1    2    0    0  0.00000000000E+00  0.00000000000E+00  0.24836386118E+03  0.31099387693E+04  0.31000055712E+04 0.  0.
        5    1    3    3  502    0 -0.38725129570E+02 -0.61027398975E+03  0.15530183036E+04  0.16690781646E+04  0.46999998093E+01 0.  1.
       -5    1    3    3    0  502  0.38725129570E+02  0.61027398975E+03 -0.13046544424E+04  0.14408606048E+04  0.46999998093E+01 0. -1.
</event>
<event>
 5   0  0.2612331E-06  0.2989075E+04  0.7818609E-02  0.8246857E-01
        1   -1    0    0  501    0  0.00000000000E+00  0.00000000000E+00  0.19070768391E+04  0.19070768391E+04  0.50400001928E-02 0.  1.
       -1   -1    0    0    0  501  0.00000000000E+00  0.00000000000E+00 -0.11712388718E+04  0.11712388718E+04  0.50400001928E-02 0. -1.
    10030    2    1    2    0    0  0.00000000000E+00  0.00000000000E+00  0.73583796730E+03  0.30783157108E+04  0.29890751248E+04 0.  0.
        4    1    3    3  502    0  0.55980307039E+03 -0.76201844240E+03 -0.82404235170E+03  0.12542324324E+04  0.12699999809E+01 0. -1.
       -4    1    3    3    0  502 -0.55980307039E+03  0.76201844240E+03  0.15598803190E+04  0.18240832784E+04  0.12699999809E+01 0.  1.
</event>
<event>
 5   0  0.2624011E-06  0.2215231E+04  0.7818609E-02  0.8512115E-01
       -1   -1    0    0    0  501  0.00000000000E+00  0.00000000000E+00  0.71507328436E+03  0.71507328438E+03  0.50400001928E-02 0. -1.
        1   -1    0    0  501    0  0.00000000000E+00  0.00000000000E+00 -0.17156450178E+04  0.17156450179E+04  0.50400001928E-02 0.  1.
    10030    2    1    2    0    0  0.00000000000E+00  0.00000000000E+00 -0.10005717335E+04  0.24307183022E+04  0.22152308392E+04 0.  0.
        1    1    3    3  502    0  0.48270332645E+03 -0.84879500237E+03  0.73408140537E+02  0.97920590916E+03  0.50400001928E-02 0. -1.
       -1    1    3    3    0  502 -0.48270332645E+03  0.84879500237E+03 -0.10739798740E+04  0.14515123931E+04  0.50400001928E-02 0.  1.
</event>
<event>
 5   0  0.2517725E-06  0.3013871E+04  0.7818609E-02  0.8239781E-01
        1   -1    0    0  501    0  0.00000000000E+00  0.00000000000E+00  0.19724932254E+04  0.19724932254E+04  0.50400001928E-02 0. -1.
       -1   -1    0    0    0  501  0.00000000000E+00  0.00000000000E+00 -0.11512608906E+04  0.11512608906E+04  0.50400001928E-02 0.  1.
    10030    2    1    2    0    0  0.00000000000E+00  0.00000000000E+00  0.82123233478E+03  0.31237541160E+04  0.30138708050E+04 0.  0.
        3    1    3    3  502    0  0.12370012494E+04 -0.77845159099E+03  0.79100562628E+03  0.16618811274E+04  0.10100000352E+00 0.  1.
       -3    1    3    3    0  502 -0.12370012494E+04  0.77845159099E+03  0.30226708504E+02  0.14618729886E+04  0.10100000352E+00 0. -1.
</event>
<event>
 5   0  0.7094341E-06  0.3113106E+04  0.7818609E-02  0.8212150E-01
        2   -1    0    0  501    0  0.00000000000E+00  0.00000000000E+00  0.94280507545E+03  0.94280507546E+03  0.25500000920E-02 0.  1.
       -2   -1    0    0    0  501  0.00000000000E+00  0.00000000000E+00 -0.25698387806E+04  0.25698387806E+04  0.25500000920E-02 0. -1.
    10030    2    1    2    0    0  0.00000000000E+00  0.00000000000E+00 -0.16270337051E+04  0.35126438560E+04  0.31131058738E+04 0.  0.
        3    1    3    3  502    0 -0.11696467118E+04 -0.69547401657E+03 -0.16662165665E+04  0.21512868695E+04  0.10100000352E+00 0. -1.
       -3    1    3    3    0  502  0.11696467118E+04  0.69547401657E+03  0.39182861361E+02  0.13613569866E+04  0.10100000352E+00 0.  1.
</event>
<event>
 5   0  0.7414808E-06  0.3224094E+04  0.7818609E-02  0.8182483E-01
        2   -1    0    0  501    0  0.00000000000E+00  0.00000000000E+00  0.28321151937E+04  0.28321151937E+04  0.25500000920E-02 0.  1.
       -2   -1    0    0    0  501  0.00000000000E+00  0.00000000000E+00 -0.91758107874E+03  0.91758107874E+03  0.25500000920E-02 0. -1.
    10030    2    1    2    0    0  0.00000000000E+00  0.00000000000E+00  0.19145341150E+04  0.37496962724E+04  0.32240938662E+04 0.  0.
        2    1    3    3  502    0 -0.33829716883E+03 -0.71908862964E+03 -0.67393764209E+03  0.10419814668E+04  0.25500000920E-02 0. -1.
       -2    1    3    3    0  502  0.33829716883E+03  0.71908862964E+03  0.25884717570E+04  0.27077148056E+04  0.25500000920E-02 0.  1.
</event>
<event>
 5   0  0.2598987E-06  0.3104745E+04  0.7818609E-02  0.8214437E-01
       -1   -1    0    0    0  501  0.00000000000E+00  0.00000000000E+00  0.12547506952E+04  0.12547506952E+04  0.50400001928E-02 0.  1.
        1   -1    0    0  501    0  0.00000000000E+00  0.00000000000E+00 -0.19205885589E+04  0.19205885589E+04  0.50400001928E-02 0. -1.
    10030    2    1    2    0    0  0.00000000000E+00  0.00000000000E+00 -0.66583786370E+03  0.31753392541E+04  0.31047446461E+04 0.  0.
        2    1    3    3  502    0  0.52400367633E+03  0.14549239535E+04 -0.47193703191E+03  0.16168203751E+04  0.25500000920E-02 0. -1.
       -2    1    3    3    0  502 -0.52400367633E+03 -0.14549239535E+04 -0.19390083179E+03  0.15585188789E+04  0.25500000920E-02 0.  1.
</event>
<event>
 5   0  0.2598987E-06  0.3146378E+04  0.7818609E-02  0.8203124E-01
        1   -1    0    0  501    0  0.00000000000E+00  0.00000000000E+00  0.19116114130E+04  0.19116114130E+04  0.50400001928E-02 0.  1.
       -1   -1    0    0    0  501  0.00000000000E+00  0.00000000000E+00 -0.12946793714E+04  0.12946793714E+04  0.50400001928E-02 0. -1.
    10030    2    1    2    0    0  0.00000000000E+00  0.00000000000E+00  0.61693204162E+03  0.32062907844E+04  0.31463781480E+04 0.  0.
        2    1    3    3  502    0  0.63700891938E+03  0.63422603666E+03  0.16241357163E+04  0.18562973506E+04  0.25500000920E-02 0.  1.
       -2    1    3    3    0  502 -0.63700891938E+03 -0.63422603666E+03 -0.10072036747E+04  0.13499934338E+04  0.25500000920E-02 0. -1.
</event>
<event>
 5   0  0.7071012E-06  0.3100420E+04  0.7818609E-02  0.8215623E-01
        2   -1    0    0  501    0  0.00000000000E+00  0.00000000000E+00  0.18625809910E+04  0.18625809910E+04  0.25500000920E-02 0.  1.
       -2   -1    0    0    0  501  0.00000000000E+00  0.00000000000E+00 -0.12902260348E+04  0.12902260348E+04  0.25500000920E-02 0. -1.
    10030    2    1    2    0    0  0.00000000000E+00  0.00000000000E+00  0.57235495617E+03  0.31528070258E+04  0.31004196403E+04 0.  0.
        1    1    3    3  502    0  0.31273019786E+03  0.82780652769E+03  0.15805105068E+04  0.18113744191E+04  0.50400001928E-02 0.  1.
       -1    1    3    3    0  502 -0.31273019786E+03 -0.82780652769E+03 -0.10081555507E+04  0.13414326067E+04  0.50400001928E-02 0. -1.
</event>
<event>
 5   0  0.2517725E-06  0.3034618E+04  0.7818609E-02  0.8233914E-01
        1   -1    0    0  501    0  0.00000000000E+00  0.00000000000E+00  0.20218252963E+04  0.20218252963E+04  0.50400001928E-02 0.  1.
       -1   -1    0    0    0  501  0.00000000000E+00  0.00000000000E+00 -0.11386868842E+04  0.11386868842E+04  0.50400001928E-02 0. -1.
    10030    2    1    2    0    0  0.00000000000E+00  0.00000000000E+00  0.88313841204E+03  0.31605121805E+04  0.30346175687E+04 0.  0.
        3    1    3    3  502    0  0.10126728869E+03 -0.34152297451E+03 -0.10945197538E+04  0.11510284565E+04  0.10100000352E+00 0. -1.
       -3    1    3    3    0  502 -0.10126728869E+03  0.34152297451E+03  0.19776581659E+04  0.20094837240E+04  0.10100000352E+00 0.  1.
</event>
<event>
 5   0  0.7071012E-06  0.3074082E+04  0.7818609E-02  0.8222887E-01
        2   -1    0    0  501    0  0.00000000000E+00  0.00000000000E+00  0.99026379142E+03  0.99026379142E+03  0.25500000920E-02 0.  1.
       -2   -1    0    0    0  501  0.00000000000E+00  0.00000000000E+00 -0.23857229752E+04  0.23857229752E+04  0.25500000920E-02 0. -1.
    10030    2    1    2    0    0  0.00000000000E+00  0.00000000000E+00 -0.13954591838E+04  0.33759867667E+04  0.30740820280E+04 0.  0.
        1    1    3    3  502    0 -0.98593350275E+03 -0.62879165407E+03  0.39775938322E+03  0.12351746205E+04  0.50400001928E-02 0.  1.
       -1    1    3    3    0  502  0.98593350275E+03  0.62879165407E+03 -0.17932185671E+04  0.21408121462E+04  0.50400001928E-02 0. -1.
</event>
<event>
 5   0  0.2598987E-06  0.3119003E+04  0.7818609E-02  0.8210542E-01
       -1   -1    0    0    0  501  0.00000000000E+00  0.00000000000E+00  0.15010712016E+04  0.15010712016E+04  0.50400001928E-02 0.  1.
        1   -1    0    0  501    0  0.00000000000E+00  0.00000000000E+00 -0.16202063046E+04  0.16202063047E+04  0.50400001928E-02 0. -1.
    10030    2    1    2    0    0  0.00000000000E+00  0.00000000000E+00 -0.11913510309E+03  0.31212775062E+04  0.31190030616E+04 0.  0.
        2    1    3    3  502    0  0.12477081078E+04  0.30560467786E+03 -0.94444947573E+03  0.15944135453E+04  0.25500000920E-02 0. -1.
       -2    1    3    3    0  502 -0.12477081078E+04 -0.30560467786E+03  0.82531437264E+03  0.15268639609E+04  0.25500000920E-02 0.  1.
</event>
<event>
 5   0  0.2612331E-06  0.3042337E+04  0.7818609E-02  0.8231744E-01
        1   -1    0    0  501    0  0.00000000000E+00  0.00000000000E+00  0.92089241209E+03  0.92089241210E+03  0.50400001928E-02 0.  1.
       -1   -1    0    0    0  501  0.00000000000E+00  0.00000000000E+00 -0.25127290462E+04  0.25127290462E+04  0.50400001928E-02 0. -1.
    10030    2    1    2    0    0  0.00000000000E+00  0.00000000000E+00 -0.15918366341E+04  0.34336214583E+04  0.30423366759E+04 0.  0.
        4    1    3    3  502    0  0.71492669062E+03  0.12913411914E+04 -0.12110106279E+04  0.19092487003E+04  0.12699999809E+01 0.  1.
       -4    1    3    3    0  502 -0.71492669062E+03 -0.12913411914E+04 -0.38082600625E+03  0.15243727581E+04  0.12699999809E+01 0. -1.
</event>
<event>
 5   0  0.7363513E-06  0.3121344E+04  0.7818609E-02  0.8209905E-01
        2   -1    0    0  501    0  0.00000000000E+00  0.00000000000E+00  0.21349823168E+04  0.21349823168E+04  0.25500000920E-02 0.  1.
       -2   -1    0    0    0  501  0.00000000000E+00  0.00000000000E+00 -0.11408509757E+04  0.11408509757E+04  0.25500000920E-02 0. -1.
    10030    2    1    2    0    0  0.00000000000E+00  0.00000000000E+00  0.99413134105E+03  0.32758332925E+04  0.31213437230E+04 0.  0.
        4    1    3    3  502    0 -0.92324613867E+03  0.57978754322E+03  0.16691016342E+04  0.19935994849E+04  0.12699999809E+01 0.  1.
       -4    1    3    3    0  502  0.92324613867E+03 -0.57978754322E+03 -0.67497029319E+03  0.12822338076E+04  0.12699999809E+01 0. -1.
</event>
<event>
 5   0  0.7414808E-06  0.3049952E+04  0.7818609E-02  0.8229609E-01
        2   -1    0    0  501    0  0.00000000000E+00  0.00000000000E+00  0.14637809625E+04  0.14637809625E+04  0.25500000920E-02 0. -1.
       -2   -1    0    0    0  501  0.00000000000E+00  0.00000000000E+00 -0.15887289220E+04  0.15887289220E+04  0.25500000920E-02 0.  1.
    10030    2    1    2    0    0  0.00000000000E+00  0.00000000000E+00 -0.12494795949E+03  0.30525098846E+04  0.30499515739E+04 0.  0.
        2    1    3    3  502    0 -0.58826831660E+03 -0.12162673253E+04  0.64535707231E+03  0.14972813930E+04  0.25500000920E-02 0. -1.
       -2    1    3    3    0  502  0.58826831660E+03  0.12162673253E+04 -0.77030503180E+03  0.15552284916E+04  0.25500000920E-02 0.  1.
</event>
<event>
 5   0  0.2674441E-06  0.2995837E+04  0.7818609E-02  0.8244921E-01
       -1   -1    0    0    0  501  0.00000000000E+00  0.00000000000E+00  0.11562439980E+04  0.11562439980E+04  0.50400001928E-02 0. -1.
        1   -1    0    0  501    0  0.00000000000E+00  0.00000000000E+00 -0.19405588934E+04  0.19405588934E+04  0.50400001928E-02 0.  1.
    10030    2    1    2    0    0  0.00000000000E+00  0.00000000000E+00 -0.78431489538E+03  0.30968028915E+04  0.29958368269E+04 0.  0.
        5    1    3    3  502    0 -0.94925683442E+03  0.70944042148E+03 -0.13391906507E+04  0.17882527613E+04  0.46999998093E+01 0.  1.
       -5    1    3    3    0  502  0.94925683442E+03 -0.70944042148E+03  0.55487575532E+03  0.13085501302E+04  0.46999998093E+01 0. -1.
</event>
<event>
 5   0  0.7079223E-06  0.3090573E+04  0.7818609E-02  0.8218330E-01
        2   -1    0    0  501    0  0.00000000000E+00  0.00000000000E+00  0.14668390548E+04  0.14668390548E+04  0.25500000920E-02 0.  1.
       -2   -1    0    0    0  501  0.00000000000E+00  0.00000000000E+00 -0.16279297381E+04  0.16279297381E+04  0.25500000920E-02 0. -1.
    10030    2    1    2    0    0  0.00000000000E+00  0.00000000000E+00 -0.16109068333E+03  0.30947687929E+04  0.30905733568E+04 0.  0.
        5    1    3    3  502    0  0.61081309184E+02  0.79007921857E+03  0.12478801065E+04  0.14782364318E+04  0.46999998093E+01 0.  1.
       -5    1    3    3    0  502 -0.61081309184E+02 -0.79007921857E+03 -0.14089707899E+04  0.16165323612E+04  0.46999998093E+01 0. -1.
</event>
<event>
 5   0  0.7414808E-06  0.3071471E+04  0.7818609E-02  0.8223611E-01
       -2   -1    0    0    0  501  0.00000000000E+00  0.00000000000E+00  0.10954283038E+04  0.10954283038E+04  0.25500000920E-02 0.  1.
        2   -1    0    0  501    0  0.00000000000E+00  0.00000000000E+00 -0.21530242466E+04  0.21530242466E+04  0.25500000920E-02 0. -1.
    10030    2    1    2    0    0  0.00000000000E+00  0.00000000000E+00 -0.10575959428E+04  0.32484525504E+04  0.30714711123E+04 0.  0.
        2    1    3    3  502    0 -0.14266247188E+03  0.61627856452E+03  0.95124128892E+03  0.11423711480E+04  0.25500000920E-02 0.  1.
       -2    1    3    3    0  502  0.14266247188E+03 -0.61627856452E+03 -0.20088372317E+04  0.21060814024E+04  0.25500000920E-02 0. -1.
</event>
<event>
 5   0  0.7079223E-06  0.2150785E+04  0.7818609E-02  0.8539196E-01
        2   -1    0    0  501    0  0.00000000000E+00  0.00000000000E+00  0.12259867957E+04  0.12259867957E+04  0.25500000920E-02 0.  1.
       -2   -1    0    0    0  501  0.00000000000E+00  0.00000000000E+00 -0.94329644127E+03  0.94329644128E+03  0.25500000920E-02 0. -1.
    10030    2    1    2    0    0  0.00000000000E+00  0.00000000000E+00  0.28269035445E+03  0.21692832370E+04  0.21507849557E+04 0.  0.
        5    1    3    3  502    0 -0.69453080413E+02  0.38106207165E+03  0.11531757329E+04  0.12164984150E+04  0.46999998093E+01 0.  1.
       -5    1    3    3    0  502  0.69453080413E+02 -0.38106207165E+03 -0.87048537846E+03  0.95278482195E+03  0.46999998093E+01 0. -1.
</event>
<event>
 5   0  0.2517725E-06  0.2586107E+04  0.7818609E-02  0.8372936E-01
        1   -1    0    0  501    0  0.00000000000E+00  0.00000000000E+00  0.10483962278E+04  0.10483962278E+04  0.50400001928E-02 0. -1.
       -1   -1    0    0    0  501  0.00000000000E+00  0.00000000000E+00 -0.15948045389E+04  0.15948045389E+04  0.50400001928E-02 0.  1.
    10030    2    1    2    0    0  0.00000000000E+00  0.00000000000E+00 -0.54640831111E+03  0.26432007667E+04  0.25861067748E+04 0.  0.
        3    1    3    3  502    0 -0.27469890888E+03  0.35550135173E+03  0.96606027504E+03  0.10654168981E+04  0.10100000352E+00 0. -1.
       -3    1    3    3    0  502  0.27469890888E+03 -0.35550135173E+03 -0.15124685861E+04  0.15777838686E+04  0.10100000352E+00 0.  1.
</event>
<event>
 5   0  0.7071012E-06  0.2803620E+04  0.7818609E-02  0.8302145E-01
        2   -1    0    0  501    0  0.00000000000E+00  0.00000000000E+00  0.17631003231E+04  0.17631003231E+04  0.25500000920E-02 0. -1.
       -2   -1    0    0    0  501  0.00000000000E+00  0.00000000000E+00 -0.11145546695E+04  0.11145546695E+04  0.25500000920E-02 0.  1.
    10030    2    1    2    0    0  0.00000000000E+00  0.00000000000E+00  0.64854565365E+03  0.28776549926E+04  0.28036203009E+04 0.  0.
        1    1    3    3  502    0 -0.12915370407E+04 -0.26222505036E+03  0.81463517254E+03  0.15493419148E+04  0.50400001928E-02 0. -1.
       -1    1    3    3    0  502  0.12915370407E+04  0.26222505036E+03 -0.16608951889E+03  0.13283130778E+04  0.50400001928E-02 0.  1.
</event>
<event>
 5   0  0.2517725E-06  0.3346138E+04  0.7818609E-02  0.8151254E-01
       -1   -1    0    0    0  501  0.00000000000E+00  0.00000000000E+00  0.13951716414E+04  0.13951716414E+04  0.50400001928E-02 0.  1.
        1   -1    0    0  501    0  0.00000000000E+00  0.00000000000E+00 -0.20063194559E+04  0.20063194560E+04  0.50400001928E-02 0. -1.
    10030    2    1    2    0    0  0.00000000000E+00  0.00000000000E+00 -0.61114781459E+03  0.34014910973E+04  0.33461380775E+04 0.  0.
        3    1    3    3  502    0  0.41955546658E+03  0.50491681779E+03  0.12587761961E+04  0.14196778876E+04  0.10100000352E+00 0.  1.
       -3    1    3    3    0  502 -0.41955546658E+03 -0.50491681779E+03 -0.18699240107E+04  0.19818132098E+04  0.10100000352E+00 0. -1.
</event>
<event>
 5   0  0.7414808E-06  0.3144698E+04  0.7818609E-02  0.8203577E-01
       -2   -1    0    0    0  501  0.00000000000E+00  0.00000000000E+00  0.13996789979E+04  0.13996789979E+04  0.25500000920E-02 0.  1.
        2   -1    0    0  501    0  0.00000000000E+00  0.00000000000E+00 -0.17663202938E+04  0.17663202938E+04  0.25500000920E-02 0. -1.
    10030    2    1    2    0    0  0.00000000000E+00  0.00000000000E+00 -0.36664129590E+03  0.31659992917E+04  0.31446980260E+04 0.  0.
        2    1    3    3  502    0  0.88179383610E+03 -0.31297149939E+03 -0.14555137387E+04  0.17303270709E+04  0.25500000920E-02 0. -1.
       -2    1    3    3    0  502 -0.88179383610E+03  0.31297149939E+03  0.10888724428E+04  0.14356722208E+04  0.25500000920E-02 0.  1.
</event>
<event>
 5   0  0.7094341E-06  0.3244835E+04  0.7818609E-02  0.8177076E-01
        2   -1    0    0  501    0  0.00000000000E+00  0.00000000000E+00  0.11310629054E+04  0.11310629054E+04  0.25500000920E-02 0. -1.
       -2   -1    0    0    0  501  0.00000000000E+00  0.00000000000E+00 -0.23272251290E+04  0.23272251290E+04  0.25500000920E-02 0.  1.
    10030    2    1    2    0    0  0.00000000000E+00  0.00000000000E+00 -0.11961622236E+04  0.34582880344E+04  0.32448346743E+04 0.  0.
        3    1    3    3  502    0  0.68115541048E+03 -0.79756899490E+03  0.72114454908E+03  0.12728465994E+04  0.10100000352E+00 0. -1.
       -3    1    3    3    0  502 -0.68115541048E+03  0.79756899490E+03 -0.19173067726E+04  0.21854414349E+04  0.10100000352E+00 0.  1.
</event>
<event>
 5   0  0.7071012E-06  0.2384991E+04  0.7818609E-02  0.8445144E-01
       -2   -1    0    0    0  501  0.00000000000E+00  0.00000000000E+00  0.89242721221E+03  0.89242721221E+03  0.25500000920E-02 0. -1.
        2   -1    0    0  501    0  0.00000000000E+00  0.00000000000E+00 -0.15934583473E+04  0.15934583473E+04  0.25500000920E-02 0.  1.
    10030    2    1    2    0    0  0.00000000000E+00  0.00000000000E+00 -0.70103113504E+03  0.24858855595E+04  0.23849910613E+04 0.  0.
        1    1    3    3  502    0 -0.27790690042E+03 -0.39419615205E+03  0.78622797113E+03  0.92237588553E+03  0.50400001928E-02 0. -1.
       -1    1    3    3    0  502  0.27790690042E+03  0.39419615205E+03 -0.14872591062E+04  0.15635096739E+04  0.50400001928E-02 0.  1.
</event>
<event>
 5   0  0.7079223E-06  0.2926351E+04  0.7818609E-02  0.8265080E-01
       -2   -1    0    0    0  501  0.00000000000E+00  0.00000000000E+00  0.84522759109E+03  0.84522759109E+03  0.25500000920E-02 0.  1.
        2   -1    0    0  501    0  0.00000000000E+00  0.00000000000E+00 -0.25329071522E+04  0.25329071522E+04  0.25500000920E-02 0. -1.
    10030    2    1    2    0    0  0.00000000000E+00  0.00000000000E+00 -0.16876795611E+04  0.33781347433E+04  0.29263513191E+04 0.  0.
        5    1    3    3  502    0  0.66772181980E+03  0.74352910790E+03 -0.20775593154E+04  0.23054203005E+04  0.46999998093E+01 0. -1.
       -5    1    3    3    0  502 -0.66772181980E+03 -0.74352910790E+03  0.38987975431E+03  0.10727144428E+04  0.46999998093E+01 0.  1.
</event>
<event>
 5   0  0.2612331E-06  0.3138444E+04  0.7818609E-02  0.8205266E-01
       -1   -1    0    0    0  501  0.00000000000E+00  0.00000000000E+00  0.13212785669E+04  0.13212785669E+04  0.50400001928E-02 0. -1.
        1   -1    0    0  501    0  0.00000000000E+00  0.00000000000E+00 -0.18636936169E+04  0.18636936169E+04  0.50400001928E-02 0.  1.
    10030    2    1    2    0    0  0.00000000000E+00  0.00000000000E+00 -0.54241505003E+03  0.31849721839E+04  0.31384444755E+04 0.  0.
        4    1    3    3  502    0 -0.89453215908E+03  0.67727802485E+01  0.10371783870E+04  0.13696621020E+04  0.12699999809E+01 0. -1.
       -4    1    3    3    0  502  0.89453215908E+03 -0.67727802485E+01 -0.15795934370E+04  0.18153100819E+04  0.12699999809E+01 0.  1.
</event>
<event>
 5   0  0.2674441E-06  0.3075119E+04  0.7818609E-02  0.8222600E-01
        1   -1    0    0  501    0  0.00000000000E+00  0.00000000000E+00  0.23260914192E+04  0.23260914192E+04  0.50400001928E-02 0.  1.
       -1   -1    0    0    0  501  0.00000000000E+00  0.00000000000E+00 -0.10163357162E+04  0.10163357162E+04  0.50400001928E-02 0. -1.
    10030    2    1    2    0    0  0.00000000000E+00  0.00000000000E+00  0.13097557029E+04  0.33424271354E+04  0.30751193723E+04 0.  0.
        5    1    3    3  502    0  0.11562884270E+04  0.10113453158E+04  0.72569860110E+03  0.16989652215E+04  0.46999998093E+01 0.  1.
       -5    1    3    3    0  502 -0.11562884270E+04 -0.10113453158E+04  0.58405710184E+03  0.16434619139E+04  0.46999998093E+01 0. -1.
</event>
<event>
 5   0  0.7363513E-06  0.3339160E+04  0.7818609E-02  0.8153002E-01
        2   -1    0    0  501    0  0.00000000000E+00  0.00000000000E+00  0.13794335279E+04  0.13794335279E+04  0.25500000920E-02 0. -1.
       -2   -1    0    0    0  501  0.00000000000E+00  0.00000000000E+00 -0.20207557057E+04  0.20207557057E+04  0.25500000920E-02 0.  1.
    10030    2    1    2    0    0  0.00000000000E+00  0.00000000000E+00 -0.64132217777E+03  0.34001892336E+04  0.33391604766E+04 0.  0.
        4    1    3    3  502    0  0.32422996591E+03 -0.14180581256E+04  0.51375600297E+03  0.15427121449E+04  0.12699999809E+01 0.  1.
       -4    1    3    3    0  502 -0.32422996591E+03  0.14180581256E+04 -0.11550781807E+04  0.18574770887E+04  0.12699999809E+01 0. -1.
</event>
<event>
 5   0  0.2612331E-06  0.3104326E+04  0.7818609E-02  0.8214552E-01
       -1   -1    0    0    0  501  0.00000000000E+00  0.00000000000E+00  0.34446119235E+04  0.34446119235E+04  0.50400001928E-02 0. -1.
        1   -1    0    0  501    0  0.00000000000E+00  0.00000000000E+00 -0.69941410384E+03  0.69941410386E+03  0.50400001928E-02 0.  1.
    10030    2    1    2    0    0  0.00000000000E+00  0.00000000000E+00  0.27451978196E+04  0.41440260273E+04  0.31043261179E+04 0.  0.
        4    1    3    3  502    0 -0.18013527107E+03  0.12935485832E+04  0.25294272097E+03  0.13303000736E+04  0.12699999809E+01 0.  1.
       -4    1    3    3    0  502  0.18013527107E+03 -0.12935485832E+04  0.24922550986E+04  0.28137259537E+04  0.12699999809E+01 0. -1.
</event>
<event>
 5   0  0.2624011E-06  0.3094997E+04  0.7818609E-02  0.8217112E-01
        1   -1    0    0  501    0  0.00000000000E+00  0.00000000000E+00  0.12720130579E+04  0.12720130579E+04  0.50400001928E-02 0. -1.
       -1   -1    0    0    0  501  0.00000000000E+00  0.00000000000E+00 -0.18826464572E+04  0.18826464572E+04  0.50400001928E-02 0.  1.
    10030    2    1    2    0    0  0.00000000000E+00  0.00000000000E+00 -0.61063339933E+03  0.31546595151E+04  0.30949965279E+04 0.  0.
        1    1    3    3  502    0  0.11767425906E+04 -0.12532610816E+03 -0.13216956408E+04  0.17740657047E+04  0.50400001928E-02 0.  1.
       -1    1    3    3    0  502 -0.11767425906E+04  0.12532610816E+03  0.71106224143E+03  0.13805938103E+04  0.50400001928E-02 0. -1.
</event>
<event>
 5   0  0.7071012E-06  0.3410843E+04  0.7818609E-02  0.8135250E-01
        2   -1    0    0  501    0  0.00000000000E+00  0.00000000000E+00  0.20862523399E+04  0.20862523399E+04  0.25500000920E-02 0. -1.
       -2   -1    0    0    0  501  0.00000000000E+00  0.00000000000E+00 -0.13941083757E+04  0.13941083757E+04  0.25500000920E-02 0.  1.
    10030    2    1    2    0    0  0.00000000000E+00  0.00000000000E+00  0.69214396424E+03  0.34803607156E+04  0.34108426295E+04 0.  0.
        1    1    3    3  502    0 -0.14245310857E+04  0.46195582770E+03 -0.48650546176E+03  0.15746045742E+04  0.50400001928E-02 0.  1.
       -1    1    3    3    0  502  0.14245310857E+04 -0.46195582770E+03  0.11786494260E+04  0.19057561413E+04  0.50400001928E-02 0. -1.
</event>
<event>
 5   0  0.2674441E-06  0.3087757E+04  0.7818609E-02  0.8219106E-01
       -1   -1    0    0    0  501  0.00000000000E+00  0.00000000000E+00  0.20338971342E+04  0.20338971342E+04  0.50400001928E-02 0. -1.
        1   -1    0    0  501    0  0.00000000000E+00  0.00000000000E+00 -0.11719183625E+04  0.11719183625E+04  0.50400001928E-02 0.  1.
    10030    2    1    2    0    0  0.00000000000E+00  0.00000000000E+00  0.86197877167E+03  0.32058154967E+04  0.30877573733E+04 0.  0.
        5    1    3    3  502    0  0.14595863773E+04  0.45585925144E+03  0.20991798324E+03  0.15434661316E+04  0.46999998093E+01 0.  1.
       -5    1    3    3    0  502 -0.14595863773E+04 -0.45585925144E+03  0.65206078843E+03  0.16623493651E+04  0.46999998093E+01 0. -1.
</event>
<event>
 5   0  0.7363513E-06  0.3095523E+04  0.7818609E-02  0.8216968E-01
        2   -1    0    0  501    0  0.00000000000E+00  0.00000000000E+00  0.10519949694E+04  0.10519949694E+04  0.25500000920E-02 0. -1.
       -2   -1    0    0    0  501  0.00000000000E+00  0.00000000000E+00 -0.22771644934E+04  0.22771644934E+04  0.25500000920E-02 0.  1.
    10030    2    1    2    0    0  0.00000000000E+00  0.00000000000E+00 -0.12251695241E+04  0.33291594628E+04  0.30955229552E+04 0.  0.
        4    1    3    3  502    0  0.29008850552E+03 -0.71575038304E+03 -0.20551315687E+04  0.21954537866E+04  0.12699999809E+01 0.  1.
       -4    1    3    3    0  502 -0.29008850552E+03  0.71575038304E+03  0.82996204460E+03  0.11337056762E+04  0.12699999809E+01 0. -1.
</event>
<event>
 5   0  0.7071012E-06  0.3067613E+04  0.7818609E-02  0.8224683E-01
        2   -1    0    0  501    0  0.00000000000E+00  0.00000000000E+00  0.23036184453E+04  0.23036184453E+04  0.25500000920E-02 0. -1.
       -2   -1    0    0    0  501  0.00000000000E+00  0.00000000000E+00 -0.10212468401E+04  0.10212468401E+04  0.25500000920E-02 0.  1.
    10030    2    1    2    0    0  0.00000000000E+00  0.00000000000E+00  0.12823716052E+04  0.33248652854E+04  0.30676134424E+04 0.  0.
        1    1    3    3  502    0 -0.21466265375E+02  0.11370023997E+04 -0.47436308199E+03  0.12321751462E+04  0.50400001928E-02 0.  1.
       -1    1    3    3    0  502  0.21466265375E+02 -0.11370023997E+04  0.17567346872E+04  0.20926901392E+04  0.50400001928E-02 0. -1.
</event>
<event>
 5   0  0.7094341E-06  0.3127121E+04  0.7818609E-02  0.8208334E-01
       -2   -1    0    0    0  501  0.00000000000E+00  0.00000000000E+00  0.13200515557E+04  0.13200515557E+04  0.25500000920E-02 0. -1.
        2   -1    0    0  501    0  0.00000000000E+00  0.00000000000E+00 -0.18519893531E+04  0.18519893531E+04  0.25500000920E-02 0.  1.
    10030    2    1    2    0    0  0.00000000000E+00  0.00000000000E+00 -0.53193779739E+03  0.31720409088E+04  0.31271209933E+04 0.  0.
        3    1    3    3  502    0 -0.14806964757E+04 -0.44254840136E+03 -0.25048703615E+02  0.15456191602E+04  0.10100000352E+00 0. -1.
       -3    1    3    3    0  502  0.14806964757E+04  0.44254840136E+03 -0.50688909377E+03  0.16264217486E+04  0.10100000352E+00 0.  1.
</event>
<event>
 5   0  0.7414808E-06  0.3089928E+04  0.7818609E-02  0.8218508E-01
       -2   -1    0    0    0  501  0.00000000000E+00  0.00000000000E+00  0.10932187531E+04  0.10932187531E+04  0.25500000920E-02 0. -1.
        2   -1    0    0  501    0  0.00000000000E+00  0.00000000000E+00 -0.21833814709E+04  0.21833814709E+04  0.25500000920E-02 0.  1.
    10030    2    1    2    0    0  0.00000000000E+00  0.00000000000E+00 -0.10901627178E+04  0.32766002240E+04  0.30899278756E+04 0.  0.
        2    1    3    3  502    0  0.14165206903E+04 -0.51706844635E+03 -0.18858230189E+03  0.15196887605E+04  0.25500000920E-02 0. -1.
       -2    1    3    3    0  502 -0.14165206903E+04  0.51706844635E+03 -0.90158041587E+03  0.17569114635E+04  0.25500000920E-02 0.  1.
</event>
<event>
 5   0  0.7071012E-06  0.3194793E+04  0.7818609E-02  0.8190194E-01
        2   -1    0    0  501    0  0.00000000000E+00  0.00000000000E+00  0.22240811679E+04  0.22240811679E+04  0.25500000920E-02 0.  1.
       -2   -1    0    0    0  501  0.00000000000E+00  0.00000000000E+00 -0.11472945967E+04  0.11472945967E+04  0.25500000920E-02 0. -1.
    10030    2    1    2    0    0  0.00000000000E+00  0.00000000000E+00  0.10767865712E+04  0.33713757645E+04  0.31947934559E+04 0.  0.
        1    1    3    3  502    0 -0.81490776329E+03 -0.10987721559E+04 -0.33199904286E+03  0.14076925366E+04  0.50400001928E-02 0. -1.
       -1    1    3    3    0  502  0.81490776329E+03  0.10987721559E+04  0.14087856140E+04  0.19636832279E+04  0.50400001928E-02 0.  1.
</event>
<event>
 5   0  0.7079223E-06  0.3016966E+04  0.7818609E-02  0.8238903E-01
       -2   -1    0    0    0  501  0.00000000000E+00  0.00000000000E+00  0.10875411619E+04  0.10875411619E+04  0.25500000920E-02 0. -1.
        2   -1    0    0  501    0  0.00000000000E+00  0.00000000000E+00 -0.20923538390E+04  0.20923538390E+04  0.25500000920E-02 0.  1.
    10030    2    1    2    0    0  0.00000000000E+00  0.00000000000E+00 -0.10048126771E+04  0.31798950010E+04  0.30169659761E+04 0.  0.
        5    1    3    3  502    0 -0.35636259592E+03  0.34535777402E+03 -0.20038473587E+04  0.20643867416E+04  0.46999998093E+01 0.  1.
       -5    1    3    3    0  502  0.35636259592E+03 -0.34535777402E+03  0.99903468154E+03  0.11155082594E+04  0.46999998093E+01 0. -1.
</event>
<event>
 5   0  0.7414808E-06  0.3085325E+04  0.7818609E-02  0.8219777E-01
        2   -1    0    0  501    0  0.00000000000E+00  0.00000000000E+00  0.19661931216E+04  0.19661931216E+04  0.25500000920E-02 0.  1.
       -2   -1    0    0    0  501  0.00000000000E+00  0.00000000000E+00 -0.12103627251E+04  0.12103627251E+04  0.25500000920E-02 0. -1.
    10030    2    1    2    0    0  0.00000000000E+00  0.00000000000E+00  0.75583039653E+03  0.31765558467E+04  0.30853245306E+04 0.  0.
        2    1    3    3  502    0  0.51703873894E+03  0.13485513095E+04  0.93605881014E+03  0.17210827371E+04  0.25500000920E-02 0.  1.
       -2    1    3    3    0  502 -0.51703873894E+03 -0.13485513095E+04 -0.18022841361E+03  0.14554731096E+04  0.25500000920E-02 0. -1.
</event>
<event>
 5   0  0.2517725E-06  0.3085003E+04  0.7818609E-02  0.8219866E-01
        1   -1    0    0  501    0  0.00000000000E+00  0.00000000000E+00  0.13201846440E+04  0.13201846440E+04  0.50400001928E-02 0.  1.
       -1   -1    0    0    0  501  0.00000000000E+00  0.00000000000E+00 -0.18022561975E+04  0.18022561975E+04  0.50400001928E-02 0. -1.
    10030    2    1    2    0    0  0.00000000000E+00  0.00000000000E+00 -0.48207155355E+03  0.31224408415E+04  0.30850030512E+04 0.  0.
        3    1    3    3  502    0 -0.15927074419E+03 -0.49216934509E+02  0.13110406225E+04  0.13215963834E+04  0.10100000352E+00 0.  1.
       -3    1    3    3    0  502  0.15927074419E+03  0.49216934509E+02 -0.17931121760E+04  0.18008444582E+04  0.10100000352E+00 0. -1.
</event>
<event>
 5   0  0.2624011E-06  0.2956045E+04  0.7818609E-02  0.8256395E-01
       -1   -1    0    0    0  501  0.00000000000E+00  0.00000000000E+00  0.12538833913E+04  0.12538833913E+04  0.50400001928E-02 0.  1.
        1   -1    0    0  501    0  0.00000000000E+00  0.00000000000E+00 -0.17422279934E+04  0.17422279934E+04  0.50400001928E-02 0. -1.
    10030    2    1    2    0    0  0.00000000000E+00  0.00000000000E+00 -0.48834460210E+03  0.29961113847E+04  0.29560451585E+04 0.  0.
        1    1    3    3  502    0 -0.14283262407E+04 -0.37002928114E+03 -0.15631858842E+03  0.14837361692E+04  0.50400001928E-02 0. -1.
       -1    1    3    3    0  502  0.14283262407E+04  0.37002928114E+03 -0.33202601368E+03  0.15123752155E+04  0.50400001928E-02 0.  1.
</event>
<event>
 5   0  0.7363513E-06  0.2912782E+04  0.7818609E-02  0.8269085E-01
        2   -1    0    0  501    0  0.00000000000E+00  0.00000000000E+00  0.11684398072E+04  0.11684398072E+04  0.25500000920E-02 0.  1.
       -2   -1    0    0    0  501  0.00000000000E+00  0.00000000000E+00 -0.18153054979E+04  0.18153054979E+04  0.25500000920E-02 0. -1.
    10030    2    1    2    0    0  0.00000000000E+00  0.00000000000E+00 -0.64686569075E+03  0.29837453051E+04  0.29127823166E+04 0.  0.
        4    1    3    3  502    0  0.40738943753E+03  0.11491407088E+04 -0.11394475037E+04  0.16687818159E+04  0.12699999809E+01 0. -1.
       -4    1    3    3    0  502 -0.40738943753E+03 -0.11491407088E+04  0.49258181296E+03  0.13149634892E+04  0.12699999809E+01 0.  1.
</event>
<event>
 5   0  0.7079223E-06  0.3030816E+04  0.7818609E-02  0.8234986E-01
        2   -1    0    0  501    0  0.00000000000E+00  0.00000000000E+00  0.25897793793E+04  0.25897793793E+04  0.25500000920E-02 0. -1.
       -2   -1    0    0    0  501  0.00000000000E+00  0.00000000000E+00 -0.88674001421E+03  0.88674001422E+03  0.25500000920E-02 0.  1.
    10030    2    1    2    0    0  0.00000000000E+00  0.00000000000E+00  0.17030393651E+04  0.34765193936E+04  0.30308157342E+04 0.  0.
        5    1    3    3  502    0 -0.10120517220E+04 -0.10446055149E+04  0.36352862231E+03  0.14992079639E+04  0.46999998093E+01 0. -1.
       -5    1    3    3    0  502  0.10120517220E+04  0.10446055149E+04  0.13395107428E+04  0.19773114297E+04  0.46999998093E+01 0.  1.
</event>
<event>
 5   0  0.7079223E-06  0.3110804E+04  0.7818609E-02  0.8212779E-01
       -2   -1    0    0    0  501  0.00000000000E+00  0.00000000000E+00  0.11006165921E+04  0.11006165921E+04  0.25500000920E-02 0. -1.
        2   -1    0    0  501    0  0.00000000000E+00  0.00000000000E+00 -0.21981098109E+04  0.21981098109E+04  0.25500000920E-02 0.  1.
    10030    2    1    2    0    0  0.00000000000E+00  0.00000000000E+00 -0.10974932188E+04  0.32987264029E+04  0.31108044805E+04 0.  0.
        5    1    3    3  502    0 -0.15056884775E+04  0.20502020505E+03 -0.19685207166E+03  0.15322871479E+04  0.46999998093E+01 0. -1.
       -5    1    3    3    0  502  0.15056884775E+04 -0.20502020505E+03 -0.90064114714E+03  0.17664392550E+04  0.46999998093E+01 0.  1.
</event>
<event>
 5   0  0.2612331E-06  0.3124688E+04  0.7818609E-02  0.8208995E-01
       -1   -1    0    0    0  501  0.00000000000E+00  0.00000000000E+00  0.11462910758E+04  0.11462910758E+04  0.50400001928E-02 0.  1.
        1   -1    0    0  501    0  0.00000000000E+00  0.00000000000E+00 -0.21294052668E+04  0.21294052668E+04  0.50400001928E-02 0. -1.
    10030    2    1    2    0    0  0.00000000000E+00  0.00000000000E+00 -0.98311419101E+03  0.32756963426E+04  0.31246876670E+04 0.  0.
        4    1    3    3  502    0  0.25190418914E+03 -0.70942824837E+03  0.94360779350E+03  0.12071211376E+04  0.12699999809E+01 0.  1.
       -4    1    3    3    0  502 -0.25190418914E+03  0.70942824837E+03 -0.19267219845E+04  0.20685752050E+04  0.12699999809E+01 0. -1.
</event>
<event>
 5   0  0.2674441E-06  0.2922832E+04  0.7818609E-02  0.8266116E-01
       -1   -1    0    0    0  501  0.00000000000E+00  0.00000000000E+00  0.13116081886E+04  0.13116081887E+04  0.50400001928E-02 0. -1.
        1   -1    0    0  501    0  0.00000000000E+00  0.00000000000E+00 -0.16283347037E+04  0.16283347037E+04  0.50400001928E-02 0.  1.
    10030    2    1    2    0    0  0.00000000000E+00  0.00000000000E+00 -0.31672651501E+03  0.29399428923E+04  0.29228322779E+04 0.  0.
        5    1    3    3  502    0 -0.10631369791E+04 -0.67642215446E+03  0.58617800341E+03  0.13897603783E+04  0.46999998093E+01 0. -1.
       -5    1    3    3    0  502  0.10631369791E+04  0.67642215446E+03 -0.90290451842E+03  0.15501825140E+04  0.46999998093E+01 0.  1.
</event>
<event>
 5   0  0.7071012E-06  0.3161741E+04  0.7818609E-02  0.8198995E-01
       -2   -1    0    0    0  501  0.00000000000E+00  0.00000000000E+00  0.16629161519E+04  0.16629161519E+04  0.25500000920E-02 0. -1.
        2   -1    0    0  501    0  0.00000000000E+00  0.00000000000E+00 -0.15028732330E+04  0.15028732330E+04  0.25500000920E-02 0.  1.
    10030    2    1    2    0    0  0.00000000000E+00  0.00000000000E+00  0.16004291894E+03  0.31657893849E+04  0.31617414021E+04 0.  0.
        1    1    3    3  502    0 -0.23489804046E+03  0.14797082858E+04  0.58508621366E+03  0.16084276726E+04  0.50400001928E-02 0. -1.
       -1    1    3    3    0  502  0.23489804046E+03 -0.14797082858E+04 -0.42504329471E+03  0.15573617123E+04  0.50400001928E-02 0.  1.
</event>
<event>
 5   0  0.7363513E-06  0.3088194E+04  0.7818609E-02  0.8218985E-01
       -2   -1    0    0    0  501  0.00000000000E+00  0.00000000000E+00  0.14021457851E+04  0.14021457851E+04  0.25500000920E-02 0.  1.
        2   -1    0    0  501    0  0.00000000000E+00  0.00000000000E+00 -0.17004190839E+04  0.17004190839E+04  0.25500000920E-02 0. -1.
    10030    2    1    2    0    0  0.00000000000E+00  0.00000000000E+00 -0.29827329878E+03  0.31025648690E+04  0.30881939391E+04 0.  0.
        4    1    3    3  502    0 -0.10890677578E+04  0.22974919110E+03  0.92606818750E+03  0.14479147671E+04  0.12699999809E+01 0.  1.
       -4    1    3    3    0  502  0.10890677578E+04 -0.22974919110E+03 -0.12243414863E+04  0.16546501019E+04  0.12699999809E+01 0. -1.
</event>
<event>
 5   0  0.7414808E-06  0.3040751E+04  0.7818609E-02  0.8232189E-01
        2   -1    0    0  501    0  0.00000000000E+00  0.00000000000E+00  0.15088589955E+04  0.15088589955E+04  0.25500000920E-02 0. -1.
       -2   -1    0    0    0  501  0.00000000000E+00  0.00000000000E+00 -0.15319802680E+04  0.15319802680E+04  0.25500000920E-02 0.  1.
    10030    2    1    2    0    0  0.00000000000E+00  0.00000000000E+00 -0.23121272463E+02  0.30408392635E+04  0.30407513600E+04 0.  0.
        2    1    3    3  502    0 -0.15349699245E+03  0.71483229421E+03  0.13215179116E+04  0.15102834589E+04  0.25500000920E-02 0. -1.
       -2    1    3    3    0  502  0.15349699245E+03 -0.71483229421E+03 -0.13446391841E+04  0.15305558046E+04  0.25500000920E-02 0.  1.
</event>
<event>
 5   0  0.7414808E-06  0.2716786E+04  0.7818609E-02  0.8329579E-01
       -2   -1    0    0    0  501  0.00000000000E+00  0.00000000000E+00  0.78916170563E+03  0.78916170563E+03  0.25500000920E-02 0.  1.
        2   -1    0    0  501    0  0.00000000000E+00  0.00000000000E+00 -0.23382167955E+04  0.23382167955E+04  0.25500000920E-02 0. -1.
    10030    2    1    2    0    0  0.00000000000E+00  0.00000000000E+00 -0.15490550899E+04  0.31273785012E+04  0.27167857144E+04 0.  0.
        2    1    3    3  502    0 -0.10501598344E+04 -0.47695906525E+03 -0.16005442646E+04  0.19728323727E+04  0.25500000920E-02 0. -1.
       -2    1    3    3    0  502  0.10501598344E+04  0.47695906525E+03  0.51489174679E+02  0.11545461285E+04  0.25500000920E-02 0.  1.
</event>
<event>
 5   0  0.2598987E-06  0.3047159E+04  0.7818609E-02  0.8230391E-01
       -1   -1    0    0    0  501  0.00000000000E+00  0.00000000000E+00  0.12205885322E+04  0.12205885322E+04  0.50400001928E-02 0.  1.
        1   -1    0    0  501    0  0.00000000000E+00  0.00000000000E+00 -0.19017824079E+04  0.19017824079E+04  0.50400001928E-02 0. -1.
    10030    2    1    2    0    0  0.00000000000E+00  0.00000000000E+00 -0.68119387566E+03  0.31223709401E+04  0.30471585438E+04 0.  0.
        2    1    3    3  502    0 -0.36480874348E+03  0.87938480444E+03  0.87825484783E+03  0.12952739600E+04  0.25500000920E-02 0.  1.
       -2    1    3    3    0  502  0.36480874348E+03 -0.87938480444E+03 -0.15594487235E+04  0.18270969801E+04  0.25500000920E-02 0. -1.
</event>
<event>
 5   0  0.2517725E-06  0.2102151E+04  0.7818609E-02  0.8560297E-01
        1   -1    0    0  501    0  0.00000000000E+00  0.00000000000E+00  0.84593943435E+03  0.84593943437E+03  0.50400001928E-02 0.  1.
       -1   -1    0    0    0  501  0.00000000000E+00  0.00000000000E+00 -0.13059557580E+04  0.13059557580E+04  0.50400001928E-02 0. -1.
    10030    2    1    2    0    0  0.00000000000E+00  0.00000000000E+00 -0.46001632362E+03  0.21518951923E+04  0.21021507798E+04 0.  0.
        3    1    3    3  502    0  0.87093567808E+03  0.47500547020E+03  0.12548517870E+03  0.99995284506E+03  0.10100000352E+00 0.  1.
       -3    1    3    3    0  502 -0.87093567808E+03 -0.47500547020E+03 -0.58550150232E+03  0.11519423473E+04  0.10100000352E+00 0. -1.
</event>
<event>
 5   0  0.7079223E-06  0.3095157E+04  0.7818609E-02  0.8217068E-01
        2   -1    0    0  501    0  0.00000000000E+00  0.00000000000E+00  0.25889264255E+04  0.25889264255E+04  0.25500000920E-02 0. -1.
       -2   -1    0    0    0  501  0.00000000000E+00  0.00000000000E+00 -0.92509353078E+03  0.92509353079E+03  0.25500000920E-02 0.  1.
    10030    2    1    2    0    0  0.00000000000E+00  0.00000000000E+00  0.16638328947E+04  0.35140199562E+04  0.30951569187E+04 0.  0.
        5    1    3    3  502    0  0.92977826208E+03  0.11063335176E+04  0.20335492390E+03  0.14593960340E+04  0.46999998093E+01 0.  1.
       -5    1    3    3    0  502 -0.92977826208E+03 -0.11063335176E+04  0.14604779708E+04  0.20546239223E+04  0.46999998093E+01 0. -1.
</event>
<event>
 5   0  0.7071012E-06  0.3065869E+04  0.7818609E-02  0.8225168E-01
       -2   -1    0    0    0  501  0.00000000000E+00  0.00000000000E+00  0.17554430692E+04  0.17554430692E+04  0.25500000920E-02 0. -1.
        2   -1    0    0  501    0  0.00000000000E+00  0.00000000000E+00 -0.13386295715E+04  0.13386295715E+04  0.25500000920E-02 0.  1.
    10030    2    1    2    0    0  0.00000000000E+00  0.00000000000E+00  0.41681349775E+03  0.30940726407E+04  0.30658688840E+04 0.  0.
        1    1    3    3  502    0 -0.60660880270E+03  0.15772091539E+03 -0.12034041928E+04  0.13568462617E+04  0.50400001928E-02 0.  1.
       -1    1    3    3    0  502  0.60660880270E+03 -0.15772091539E+03  0.16202176906E+04  0.17372263789E+04  0.50400001928E-02 0. -1.
</event>
<event>
 5   0  0.2612331E-06  0.3160963E+04  0.7818609E-02  0.8199203E-01
        1   -1    0    0  501    0  0.00000000000E+00  0.00000000000E+00  0.20891991452E+04  0.20891991452E+04  0.50400001928E-02 0. -1.
       -1   -1    0    0    0  501  0.00000000000E+00  0.00000000000E+00 -0.11956362734E+04  0.11956362734E+04  0.50400001928E-02 0.  1.
    10030    2    1    2    0    0  0.00000000000E+00  0.00000000000E+00  0.89356287178E+03  0.32848354187E+04  0.31609633218E+04 0.  0.
        4    1    3    3  502    0  0.10795298057E+04 -0.10361953857E+04  0.97547718370E+03  0.17862370581E+04  0.12699999809E+01 0. -1.
       -4    1    3    3    0  502 -0.10795298057E+04  0.10361953857E+04 -0.81914311915E+02  0.14985983606E+04  0.12699999809E+01 0.  1.
</event>
<event>
 5   0  0.2517725E-06  0.3095050E+04  0.7818609E-02  0.8217098E-01
       -1   -1    0    0    0  501  0.00000000000E+00  0.00000000000E+00  0.28687875236E+04  0.28687875236E+04  0.50400001928E-02 0.  1.
        1   -1    0    0  501    0  0.00000000000E+00  0.00000000000E+00 -0.83478921102E+03  0.83478921104E+03  0.50400001928E-02 0. -1.
    10030    2    1    2    0    0  0.00000000000E+00  0.00000000000E+00  0.20339983126E+04  0.37035767346E+04  0.30950495139E+04 0.  0.
        3    1    3    3  502    0  0.37986032107E+03 -0.26391378547E+03 -0.75013889555E+03  0.88127902647E+03  0.10100000352E+00 0. -1.
       -3    1    3    3    0  502 -0.37986032107E+03  0.26391378547E+03  0.27841372081E+04  0.28222977082E+04  0.10100000352E+00 0.  1.
</event>
<event>
 5   0  0.7079223E-06  0.3058956E+04  0.7818609E-02  0.8227093E-01
       -2   -1    0    0    0  501  0.00000000000E+00  0.00000000000E+00  0.11423807710E+04  0.11423807710E+04  0.25500000920E-02 0. -1.
        2   -1    0    0  501    0  0.00000000000E+00  0.00000000000E+00 -0.20477437340E+04  0.20477437340E+04  0.25500000920E-02 0.  1.
    10030    2    1    2    0    0  0.00000000000E+00  0.00000000000E+00 -0.90536296297E+03  0.31901245051E+04  0.30589560741E+04 0.  0.
        5    1    3    3  502    0  0.70509922192E+02  0.12828581636E+04 -0.13180736043E+04  0.18406620638E+04  0.46999998093E+01 0.  1.
       -5    1    3    3    0  502 -0.70509922192E+02 -0.12828581636E+04  0.41271064128E+03  0.13494624412E+04  0.46999998093E+01 0. -1.
</event>
<event>
 5   0  0.7079223E-06  0.3150457E+04  0.7818609E-02  0.8202025E-01
       -2   -1    0    0    0  501  0.00000000000E+00  0.00000000000E+00  0.19107083130E+04  0.19107083130E+04  0.25500000920E-02 0.  1.
        2   -1    0    0  501    0  0.00000000000E+00  0.00000000000E+00 -0.12986514794E+04  0.12986514794E+04  0.25500000920E-02 0. -1.
    10030    2    1    2    0    0  0.00000000000E+00  0.00000000000E+00  0.61205683357E+03  0.32093597924E+04  0.31504565875E+04 0.  0.
        5    1    3    3  502    0  0.18261661564E+03  0.39986553127E+03  0.18469501758E+04  0.18985490021E+04  0.46999998093E+01 0.  1.
       -5    1    3    3    0  502 -0.18261661564E+03 -0.39986553127E+03 -0.12348933422E+04  0.13108107903E+04  0.46999998093E+01 0. -1.
</event>
<event>
 5   0  0.7414808E-06  0.3188672E+04  0.7818609E-02  0.8191815E-01
        2   -1    0    0  501    0  0.00000000000E+00  0.00000000000E+00  0.15245433852E+04  0.15245433852E+04  0.25500000920E-02 0. -1.
       -2   -1    0    0    0  501  0.00000000000E+00  0.00000000000E+00 -0.16673235650E+04  0.16673235651E+04  0.25500000920E-02 0.  1.
    10030    2    1    2    0    0  0.00000000000E+00  0.00000000000E+00 -0.14278017983E+03  0.31918669503E+04  0.31886718941E+04 0.  0.
        2    1    3    3  502    0  0.15548885703E+04  0.26562839347E+03  0.16051034501E+03  0.15855599896E+04  0.25500000920E-02 0. -1.
       -2    1    3    3    0  502 -0.15548885703E+04 -0.26562839347E+03 -0.30329052484E+03  0.16063069607E+04  0.25500000920E-02 0.  1.
</event>
<event>
 5   0  0.7363513E-06  0.3182516E+04  0.7818609E-02  0.8193450E-01
       -2   -1    0    0    0  501  0.00000000000E+00  0.00000000000E+00  0.99021661586E+03  0.99021661587E+03  0.25500000920E-02 0. -1.
        2   -1    0    0  501    0  0.00000000000E+00  0.00000000000E+00 -0.25571186109E+04  0.25571186109E+04  0.25500000920E-02 0.  1.
    10030    2    1    2    0    0  0.00000000000E+00  0.00000000000E+00 -0.15669019950E+04  0.35473352267E+04  0.31825155693E+04 0.  0.
        4    1    3    3  502    0  0.97564846497E+03  0.62207393937E+03  0.43412049201E+03  0.12358511754E+04  0.12699999809E+01 0. -1.
       -4    1    3    3    0  502 -0.97564846497E+03 -0.62207393937E+03 -0.20010224870E+04  0.23114840514E+04  0.12699999809E+01 0.  1.
</event>
<event>
 5   0  0.2624011E-06  0.3053103E+04  0.7818609E-02  0.8228727E-01
       -1   -1    0    0    0  501  0.00000000000E+00  0.00000000000E+00  0.10550188172E+04  0.10550188172E+04  0.50400001928E-02 0.  1.
        1   -1    0    0  501    0  0.00000000000E+00  0.00000000000E+00 -0.22088327559E+04  0.22088327559E+04  0.50400001928E-02 0. -1.
    10030    2    1    2    0    0  0.00000000000E+00  0.00000000000E+00 -0.11538139387E+04  0.32638515731E+04  0.30531034189E+04 0.  0.
        1    1    3    3  502    0  0.71862365746E+03 -0.10252968975E+04  0.35670753372E+03  0.13018809292E+04  0.50400001928E-02 0.  1.
       -1    1    3    3    0  502 -0.71862365746E+03  0.10252968975E+04 -0.15105214724E+04  0.19619706440E+04  0.50400001928E-02 0. -1.
</event>
<event>
 5   0  0.2624011E-06  0.3114010E+04  0.7818609E-02  0.8211904E-01
        1   -1    0    0  501    0  0.00000000000E+00  0.00000000000E+00  0.28861700207E+04  0.28861700207E+04  0.50400001928E-02 0. -1.
       -1   -1    0    0    0  501  0.00000000000E+00  0.00000000000E+00 -0.83995889723E+03  0.83995889725E+03  0.50400001928E-02 0.  1.
    10030    2    1    2    0    0  0.00000000000E+00  0.00000000000E+00  0.20462111235E+04  0.37261289180E+04  0.31140097546E+04 0.  0.
        1    1    3    3  502    0 -0.94622548503E+03 -0.73577565221E+02 -0.45382561373E+03  0.10520047597E+04  0.50400001928E-02 0.  1.
       -1    1    3    3    0  502  0.94622548503E+03  0.73577565221E+02  0.25000367372E+04  0.26741241583E+04  0.50400001928E-02 0. -1.
</event>
<event>
 5   0  0.2517725E-06  0.3081426E+04  0.7818609E-02  0.8220854E-01
        1   -1    0    0  501    0  0.00000000000E+00  0.00000000000E+00  0.16487931362E+04  0.16487931362E+04  0.50400001928E-02 0. -1.
       -1   -1    0    0    0  501  0.00000000000E+00  0.00000000000E+00 -0.14397177339E+04  0.14397177340E+04  0.50400001928E-02 0.  1.
    10030    2    1    2    0    0  0.00000000000E+00  0.00000000000E+00  0.20907540227E+03  0.30885108702E+04  0.30814261100E+04 0.  0.
        3    1    3    3  502    0 -0.84165926482E+03  0.10133051167E+04 -0.69643614959E+03  0.14900338581E+04  0.10100000352E+00 0. -1.
       -3    1    3    3    0  502  0.84165926482E+03 -0.10133051167E+04  0.90551155186E+03  0.15984770121E+04  0.10100000352E+00 0.  1.
</event>
<event>
 5   0  0.7071012E-06  0.2317770E+04  0.7818609E-02  0.8470947E-01
       -2   -1    0    0    0  501  0.00000000000E+00  0.00000000000E+00  0.91268640039E+03  0.91268640040E+03  0.25500000920E-02 0.  1.
        2   -1    0    0  501    0  0.00000000000E+00  0.00000000000E+00 -0.14714966425E+04  0.14714966425E+04  0.25500000920E-02 0. -1.
    10030    2    1    2    0    0  0.00000000000E+00  0.00000000000E+00 -0.55881024210E+03  0.23841830429E+04  0.23177704579E+04 0.  0.
        1    1    3    3  502    0 -0.16596949639E+03  0.72204987378E+03 -0.11960694813E+04  0.14069413983E+04  0.50400001928E-02 0. -1.
       -1    1    3    3    0  502  0.16596949639E+03 -0.72204987378E+03  0.63725923924E+03  0.97724164462E+03  0.50400001928E-02 0.  1.
</event>
<event>
 5   0  0.2393250E-06  0.2766965E+04  0.7818609E-02  0.8313598E-01
        3   -1    0    0  501    0  0.00000000000E+00  0.00000000000E+00  0.28040417612E+04  0.28040417630E+04  0.10100000352E+00 0. -1.
       -3   -1    0    0    0  501  0.00000000000E+00  0.00000000000E+00 -0.68259444575E+03  0.68259445322E+03  0.10100000352E+00 0.  1.
    10030    2    1    2    0    0  0.00000000000E+00  0.00000000000E+00  0.21214473154E+04  0.34866362162E+04  0.27669646532E+04 0.  0.
        3    1    3    3  502    0  0.11561315707E+03  0.34638475285E+03 -0.62077025771E+03  0.72021144267E+03  0.10100000352E+00 0.  1.
       -3    1    3    3    0  502 -0.11561315707E+03 -0.34638475285E+03  0.27422175731E+04  0.27664247735E+04  0.10100000352E+00 0. -1.
</event>
<event>
 5   0  0.7363513E-06  0.3104963E+04  0.7818609E-02  0.8214377E-01
       -2   -1    0    0    0  501  0.00000000000E+00  0.00000000000E+00  0.10358939324E+04  0.10358939324E+04  0.25500000920E-02 0.  1.
        2   -1    0    0  501    0  0.00000000000E+00  0.00000000000E+00 -0.23266847550E+04  0.23266847550E+04  0.25500000920E-02 0. -1.
    10030    2    1    2    0    0  0.00000000000E+00  0.00000000000E+00 -0.12907908227E+04  0.33625786874E+04  0.31049628792E+04 0.  0.
        4    1    3    3  502    0  0.25107220869E+03  0.93050880863E+03 -0.19634684510E+04  0.21872571563E+04  0.12699999809E+01 0. -1.
       -4    1    3    3    0  502 -0.25107220869E+03 -0.93050880863E+03  0.67267762832E+03  0.11753215311E+04  0.12699999809E+01 0.  1.
</event>
<event>
 5   0  0.2612331E-06  0.3024199E+04  0.7818609E-02  0.8236854E-01
       -1   -1    0    0    0  501  0.00000000000E+00  0.00000000000E+00  0.11149439224E+04  0.11149439225E+04  0.50400001928E-02 0. -1.
        1   -1    0    0  501    0  0.00000000000E+00  0.00000000000E+00 -0.20507262369E+04  0.20507262369E+04  0.50400001928E-02 0.  1.
    10030    2    1    2    0    0  0.00000000000E+00  0.00000000000E+00 -0.93578231442E+03  0.31656701593E+04  0.30241989051E+04 0.  0.
        4    1    3    3  502    0 -0.65356354686E+03 -0.11592188975E+04  0.28368604203E+03  0.13606664343E+04  0.12699999809E+01 0.  1.
       -4    1    3    3    0  502  0.65356354686E+03  0.11592188975E+04 -0.12194683565E+04  0.18050037250E+04  0.12699999809E+01 0. -1.
</event>
<event>
 5   0  0.2674441E-06  0.3121211E+04  0.7818609E-02  0.8209941E-01
        1   -1    0    0  501    0  0.00000000000E+00  0.00000000000E+00  0.21191486656E+04  0.21191486656E+04  0.50400001928E-02 0. -1.
       -1   -1    0    0    0  501  0.00000000000E+00  0.00000000000E+00 -0.11492773343E+04  0.11492773343E+04  0.50400001928E-02 0.  1.
    10030    2    1    2    0    0  0.00000000000E+00  0.00000000000E+00  0.96987133123E+03  0.32684259999E+04  0.31212110018E+04 0.  0.
        5    1    3    3  502    0  0.12504138966E+03 -0.16151427201E+03 -0.11352115938E+04  0.11534511962E+04  0.46999998093E+01 0.  1.
       -5    1    3    3    0  502 -0.12504138966E+03  0.16151427201E+03  0.21050829250E+04  0.21149748038E+04  0.46999998093E+01 0. -1.
</event>
<event>
 5   0  0.7071012E-06  0.3112871E+04  0.7818609E-02  0.8212214E-01
        2   -1    0    0  501    0  0.00000000000E+00  0.00000000000E+00  0.22896194953E+04  0.22896194953E+04  0.25500000920E-02 0. -1.
       -2   -1    0    0    0  501  0.00000000000E+00  0.00000000000E+00 -0.10580324346E+04  0.10580324346E+04  0.25500000920E-02 0.  1.
    10030    2    1    2    0    0  0.00000000000E+00  0.00000000000E+00  0.12315870607E+04  0.33476519299E+04  0.31128711434E+04 0.  0.
        1    1    3    3  502    0  0.13791492990E+04  0.32248031203E+03 -0.78204375998E+02  0.14185070550E+04  0.50400001928E-02 0.  1.
       -1    1    3    3    0  502 -0.13791492990E+04 -0.32248031203E+03  0.13097914367E+04  0.19291448749E+04  0.50400001928E-02 0. -1.
</event>
<event>
 5   0  0.2517725E-06  0.3394188E+04  0.7818609E-02  0.8139334E-01
       -1   -1    0    0    0  501  0.00000000000E+00  0.00000000000E+00  0.12850475190E+04  0.12850475190E+04  0.50400001928E-02 0. -1.
        1   -1    0    0  501    0  0.00000000000E+00  0.00000000000E+00 -0.22412613200E+04  0.22412613200E+04  0.50400001928E-02 0.  1.
    10030    2    1    2    0    0  0.00000000000E+00  0.00000000000E+00 -0.95621380104E+03  0.35263088390E+04  0.33941875604E+04 0.  0.
        3    1    3    3  502    0 -0.11366268352E+04 -0.55910541506E+03  0.69528504225E+03  0.14449708398E+04  0.10100000352E+00 0.  1.
       -3    1    3    3    0  502  0.11366268352E+04  0.55910541506E+03 -0.16514988433E+04  0.20813379993E+04  0.10100000352E+00 0. -1.
</event>
<event>
 5   0  0.7414808E-06  0.3105488E+04  0.7818609E-02  0.8214233E-01
        2   -1    0    0  501    0  0.00000000000E+00  0.00000000000E+00  0.27144901108E+04  0.27144901108E+04  0.25500000920E-02 0.  1.
       -2   -1    0    0    0  501  0.00000000000E+00  0.00000000000E+00 -0.88820136421E+03  0.88820136421E+03  0.25500000920E-02 0. -1.
    10030    2    1    2    0    0  0.00000000000E+00  0.00000000000E+00  0.18262887465E+04  0.36026914750E+04  0.31054879291E+04 0.  0.
        2    1    3    3  502    0 -0.85329213773E+03  0.83785147247E+03 -0.23583461241E+03  0.12189013605E+04  0.25500000920E-02 0. -1.
       -2    1    3    3    0  502  0.85329213773E+03 -0.83785147247E+03  0.20621233590E+04  0.23837901145E+04  0.25500000920E-02 0.  1.
</event>
<event>
 5   0  0.7414808E-06  0.3101499E+04  0.7818609E-02  0.8215327E-01
       -2   -1    0    0    0  501  0.00000000000E+00  0.00000000000E+00  0.14634444818E+04  0.14634444818E+04  0.25500000920E-02 0.  1.
        2   -1    0    0  501    0  0.00000000000E+00  0.00000000000E+00 -0.16432633224E+04  0.16432633224E+04  0.25500000920E-02 0. -1.
    10030    2    1    2    0    0  0.00000000000E+00  0.00000000000E+00 -0.17981884055E+03  0.31067078043E+04  0.31014994060E+04 0.  0.
        2    1    3    3  502    0 -0.26997725215E+03  0.88787408401E+03 -0.13344194963E+04  0.16253871840E+04  0.25500000920E-02 0. -1.
       -2    1    3    3    0  502  0.26997725215E+03 -0.88787408401E+03  0.11546006558E+04  0.14813206203E+04  0.25500000920E-02 0.  1.
</event>
<event>
 5   0  0.7363513E-06  0.2802836E+04  0.7818609E-02  0.8302389E-01
       -2   -1    0    0    0  501  0.00000000000E+00  0.00000000000E+00  0.12620255828E+04  0.12620255828E+04  0.25500000920E-02 0. -1.
        2   -1    0    0  501    0  0.00000000000E+00  0.00000000000E+00 -0.15562060367E+04  0.15562060367E+04  0.25500000920E-02 0.  1.
    10030    2    1    2    0    0  0.00000000000E+00  0.00000000000E+00 -0.29418045387E+03  0.28182316195E+04  0.28028355859E+04 0.  0.
        4    1    3    3  502    0 -0.10021664050E+04  0.39229394724E+03 -0.10496501184E+04  0.15033293147E+04  0.12699999809E+01 0.  1.
       -4    1    3    3    0  502  0.10021664050E+04 -0.39229394724E+03  0.75546966454E+03  0.13149023048E+04  0.12699999809E+01 0. -1.
</event>
<event>
 5   0  0.7094341E-06  0.3118925E+04  0.7818609E-02  0.8210563E-01
       -2   -1    0    0    0  501  0.00000000000E+00  0.00000000000E+00  0.16851223173E+04  0.16851223173E+04  0.25500000920E-02 0.  1.
        2   -1    0    0  501    0  0.00000000000E+00  0.00000000000E+00 -0.14431734600E+04  0.14431734600E+04  0.25500000920E-02 0. -1.
    10030    2    1    2    0    0  0.00000000000E+00  0.00000000000E+00  0.24194885727E+03  0.31282957773E+04  0.31189253311E+04 0.  0.
        3    1    3    3  502    0  0.13741337493E+04  0.58687437642E+03  0.56869956523E+03  0.15987758756E+04  0.10100000352E+00 0.  1.
       -3    1    3    3    0  502 -0.13741337493E+04 -0.58687437642E+03 -0.32675070796E+03  0.15295199018E+04  0.10100000352E+00 0. -1.
</event>
<event>
 5   0  0.7071012E-06  0.3123779E+04  0.7818609E-02  0.8209242E-01
       -2   -1    0    0    0  501  0.00000000000E+00  0.00000000000E+00  0.82010503765E+03  0.82010503766E+03  0.25500000920E-02 0.  1.
        2   -1    0    0  501    0  0.00000000000E+00  0.00000000000E+00 -0.29746175500E+04  0.29746175500E+04  0.25500000920E-02 0. -1.
    10030    2    1    2    0    0  0.00000000000E+00  0.00000000000E+00 -0.21545125123E+04  0.37947225876E+04  0.31237790177E+04 0.  0.
        1    1    3    3  502    0 -0.15113631504E+04 -0.75253378280E+02 -0.60737244508E+03  0.16305774837E+04  0.50400001928E-02 0.  1.
       -1    1    3    3    0  502  0.15113631504E+04  0.75253378280E+02 -0.15471400673E+04  0.21641451040E+04  0.50400001928E-02 0. -1.
</event>
<event>
 5   0  0.7079223E-06  0.3786731E+04  0.7818609E-02  0.8049008E-01
        2   -1    0    0  501    0  0.00000000000E+00  0.00000000000E+00  0.23688121300E+04  0.23688121300E+04  0.25500000920E-02 0. -1.
       -2   -1    0    0    0  501  0.00000000000E+00  0.00000000000E+00 -0.15133461621E+04  0.15133461622E+04  0.25500000920E-02 0.  1.
    10030    2    1    2    0    0  0.00000000000E+00  0.00000000000E+00  0.85546596788E+03  0.38821582922E+04  0.37867309098E+04 0.  0.
        5    1    3    3  502    0 -0.74264075705E+03 -0.87689470745E+03 -0.11149641482E+04  0.16011329626E+04  0.46999998093E+01 0.  1.
       -5    1    3    3    0  502  0.74264075705E+03  0.87689470745E+03  0.19704301161E+04  0.22810253296E+04  0.46999998093E+01 0. -1.
</event>
<event>
 5   0  0.2612331E-06  0.3151810E+04  0.7818609E-02  0.8201661E-01
        1   -1    0    0  501    0  0.00000000000E+00  0.00000000000E+00  0.21056445187E+04  0.21056445187E+04  0.50400001928E-02 0. -1.
       -1   -1    0    0    0  501  0.00000000000E+00  0.00000000000E+00 -0.11794375248E+04  0.11794375248E+04  0.50400001928E-02 0.  1.
    10030    2    1    2    0    0  0.00000000000E+00  0.00000000000E+00  0.92620699387E+03  0.32850820435E+04  0.31518097400E+04 0.  0.
        4    1    3    3  502    0  0.11358985104E+04 -0.10839861836E+04  0.60364994759E+03  0.16821671571E+04  0.12699999809E+01 0. -1.
       -4    1    3    3    0  502 -0.11358985104E+04  0.10839861836E+04  0.32255704628E+03  0.16029148864E+04  0.12699999809E+01 0.  1.
</event>
<event>
 5   0  0.2674441E-06  0.3076863E+04  0.7818609E-02  0.8222116E-01
        1   -1    0    0  501    0  0.00000000000E+00  0.00000000000E+00  0.85655037474E+03  0.85655037475E+03  0.50400001928E-02 0.  1.
       -1   -1    0    0    0  501  0.00000000000E+00  0.00000000000E+00 -0.27631439323E+04  0.27631439323E+04  0.50400001928E-02 0. -1.
    10030    2    1    2    0    0  0.00000000000E+00  0.00000000000E+00 -0.19065935576E+04  0.36196943071E+04  0.30768633189E+04 0.  0.
        5    1    3    3  502    0 -0.83498820577E+03  0.18366168323E+03 -0.24579295379E+04  0.26023790310E+04  0.46999998093E+01 0. -1.
       -5    1    3    3    0  502  0.83498820577E+03 -0.18366168323E+03  0.55133598035E+03  0.10173152761E+04  0.46999998093E+01 0.  1.
</event>
<event>
 5   0  0.7363513E-06  0.3111792E+04  0.7818609E-02  0.8212509E-01
       -2   -1    0    0    0  501  0.00000000000E+00  0.00000000000E+00  0.10515394664E+04  0.10515394664E+04  0.25500000920E-02 0. -1.
        2   -1    0    0  501    0  0.00000000000E+00  0.00000000000E+00 -0.23021603349E+04  0.23021603349E+04  0.25500000920E-02 0.  1.
    10030    2    1    2    0    0  0.00000000000E+00  0.00000000000E+00 -0.12506208685E+04  0.33536998014E+04  0.31117920562E+04 0.  0.
        4    1    3    3  502    0 -0.88968777680E+03  0.12677724076E+04 -0.46538463700E+03  0.16172123209E+04  0.12699999809E+01 0. -1.
       -4    1    3    3    0  502  0.88968777680E+03 -0.12677724076E+04 -0.78523623152E+03  0.17364874805E+04  0.12699999809E+01 0.  1.
</event>
<event>
 5   0  0.7414808E-06  0.2073502E+04  0.7818609E-02  0.8573006E-01
        2   -1    0    0  501    0  0.00000000000E+00  0.00000000000E+00  0.15216268267E+04  0.15216268267E+04  0.25500000920E-02 0. -1.
       -2   -1    0    0    0  501  0.00000000000E+00  0.00000000000E+00 -0.70638411411E+03  0.70638411412E+03  0.25500000920E-02 0.  1.
    10030    2    1    2    0    0  0.00000000000E+00  0.00000000000E+00  0.81524271262E+03  0.22280109409E+04  0.20735023685E+04 0.  0.
        2    1    3    3  502    0 -0.81321450687E+03 -0.60779872939E+03  0.63331030736E+03  0.11965864261E+04  0.25500000920E-02 0. -1.
       -2    1    3    3    0  502  0.81321450687E+03  0.60779872939E+03  0.18193240526E+03  0.10314245148E+04  0.25500000920E-02 0.  1.
</event>
<event>
 5   0  0.2674441E-06  0.3146678E+04  0.7818609E-02  0.8203043E-01
       -1   -1    0    0    0  501  0.00000000000E+00  0.00000000000E+00  0.15846071878E+04  0.15846071878E+04  0.50400001928E-02 0.  1.
        1   -1    0    0  501    0  0.00000000000E+00  0.00000000000E+00 -0.15621511979E+04  0.15621511979E+04  0.50400001928E-02 0. -1.
    10030    2    1    2    0    0  0.00000000000E+00  0.00000000000E+00  0.22455989877E+02  0.31467583857E+04  0.31466782591E+04 0.  0.
        5    1    3    3  502    0  0.55932232317E+03 -0.14119442105E+04  0.42226888832E+03  0.15763124750E+04  0.46999998093E+01 0.  1.
       -5    1    3    3    0  502 -0.55932232317E+03  0.14119442105E+04 -0.39981289844E+03  0.15704459107E+04  0.46999998093E+01 0. -1.
</event>
<event>
 5   0  0.2598987E-06  0.3135713E+04  0.7818609E-02  0.8206005E-01
        1   -1    0    0  501    0  0.00000000000E+00  0.00000000000E+00  0.23030969169E+04  0.23030969169E+04  0.50400001928E-02 0. -1.
       -1   -1    0    0    0  501  0.00000000000E+00  0.00000000000E+00 -0.10673343616E+04  0.10673343616E+04  0.50400001928E-02 0.  1.
    10030    2    1    2    0    0  0.00000000000E+00  0.00000000000E+00  0.12357625554E+04  0.33704312785E+04  0.31357133016E+04 0.  0.
        2    1    3    3  502    0  0.10428333317E+04  0.89047502993E+03  0.14348597045E+04  0.19847593074E+04  0.25500000920E-02 0. -1.
       -2    1    3    3    0  502 -0.10428333317E+04 -0.89047502993E+03 -0.19909714919E+03  0.13856719711E+04  0.25500000920E-02 0.  1.
</event>
<event>
 5   0  0.7079223E-06  0.3098555E+04  0.7818609E-02  0.8216135E-01
        2   -1    0    0  501    0  0.00000000000E+00  0.00000000000E+00  0.19732994181E+04  0.19732994181E+04  0.25500000920E-02 0. -1.
       -2   -1    0    0    0  501  0.00000000000E+00  0.00000000000E+00 -0.12163692937E+04  0.12163692937E+04  0.25500000920E-02 0.  1.
    10030    2    1    2    0    0  0.00000000000E+00  0.00000000000E+00  0.75693012433E+03  0.31896687118E+04  0.30985550307E+04 0.  0.
        5    1    3    3  502    0  0.41766244851E+03 -0.11090544254E+04 -0.64877359620E+03  0.13510636212E+04  0.46999998093E+01 0.  1.
       -5    1    3    3    0  502 -0.41766244851E+03  0.11090544254E+04  0.14057037205E+04  0.18386050906E+04  0.46999998093E+01 0. -1.
</event>
<event>
 5   0  0.2598987E-06  0.3030750E+04  0.7818609E-02  0.8235004E-01
       -1   -1    0    0    0  501  0.00000000000E+00  0.00000000000E+00  0.97128963381E+03  0.97128963382E+03  0.50400001928E-02 0. -1.
        1   -1    0    0  501    0  0.00000000000E+00  0.00000000000E+00 -0.23642396473E+04  0.23642396473E+04  0.50400001928E-02 0.  1.
    10030    2    1    2    0    0  0.00000000000E+00  0.00000000000E+00 -0.13929500135E+04  0.33355292812E+04  0.30307500467E+04 0.  0.
        2    1    3    3  502    0  0.31318219907E+03 -0.14826564816E+04 -0.69333712948E+03  0.16664542320E+04  0.25500000920E-02 0. -1.
       -2    1    3    3    0  502 -0.31318219907E+03  0.14826564816E+04 -0.69961288404E+03  0.16690750492E+04  0.25500000920E-02 0.  1.
</event>
<event>
 5   0  0.2517725E-06  0.3039780E+04  0.7818609E-02  0.8232462E-01
       -1   -1    0    0    0  501  0.00000000000E+00  0.00000000000E+00  0.81507806737E+03  0.81507806739E+03  0.50400001928E-02 0.  1.
        1   -1    0    0  501    0  0.00000000000E+00  0.00000000000E+00 -0.28341643874E+04  0.28341643874E+04  0.50400001928E-02 0. -1.
    10030    2    1    2    0    0  0.00000000000E+00  0.00000000000E+00 -0.20190863200E+04  0.36492424548E+04  0.30397797496E+04 0.  0.
        3    1    3    3  502    0 -0.72271252262E+03  0.94954397492E+03  0.12052957745E+03  0.11993642232E+04  0.10100000352E+00 0.  1.
       -3    1    3    3    0  502  0.72271252262E+03 -0.94954397492E+03 -0.21396158975E+04  0.24498782316E+04  0.10100000352E+00 0. -1.
</event>
<event>
 5   0  0.2624011E-06  0.3034627E+04  0.7818609E-02  0.8233911E-01
        1   -1    0    0  501    0  0.00000000000E+00  0.00000000000E+00  0.17980821904E+04  0.17980821904E+04  0.50400001928E-02 0. -1.
       -1   -1    0    0    0  501  0.00000000000E+00  0.00000000000E+00 -0.12803866111E+04  0.12803866111E+04  0.50400001928E-02 0.  1.
    10030    2    1    2    0    0  0.00000000000E+00  0.00000000000E+00  0.51769557929E+03  0.30784688015E+04  0.30346270692E+04 0.  0.
        1    1    3    3  502    0 -0.17217629113E+03 -0.14502179704E+03  0.17810474212E+04  0.17952175115E+04  0.50400001928E-02 0. -1.
       -1    1    3    3    0  502  0.17217629113E+03  0.14502179704E+03 -0.12633518419E+04  0.12832512900E+04  0.50400001928E-02 0.  1.
</event>
<event>
 5   0  0.7071012E-06  0.3020043E+04  0.7818609E-02  0.8238031E-01
        2   -1    0    0  501    0  0.00000000000E+00  0.00000000000E+00  0.16214771702E+04  0.16214771702E+04  0.25500000920E-02 0. -1.
       -2   -1    0    0    0  501  0.00000000000E+00  0.00000000000E+00 -0.14062266618E+04  0.14062266618E+04  0.25500000920E-02 0.  1.
    10030    2    1    2    0    0  0.00000000000E+00  0.00000000000E+00  0.21525050833E+03  0.30277038320E+04  0.30200426674E+04 0.  0.
        1    1    3    3  502    0 -0.51447738172E+03  0.11344745159E+04 -0.74802976544E+03  0.14530202798E+04  0.50400001928E-02 0.  1.
       -1    1    3    3    0  502  0.51447738172E+03 -0.11344745159E+04  0.96328027378E+03  0.15746835522E+04  0.50400001928E-02 0. -1.
</event>
<event>
 5   0  0.2393250E-06  0.2931057E+04  0.7818609E-02  0.8263697E-01
        3   -1    0    0  501    0  0.00000000000E+00  0.00000000000E+00  0.16616629401E+04  0.16616629431E+04  0.10100000352E+00 0.  1.
       -3   -1    0    0    0  501  0.00000000000E+00  0.00000000000E+00 -0.12925448836E+04  0.12925448876E+04  0.10100000352E+00 0. -1.
    10030    2    1    2    0    0  0.00000000000E+00  0.00000000000E+00  0.36911805644E+03  0.29542078307E+04  0.29310571075E+04 0.  0.
        5    1    3    3  502    0  0.43587421962E+02 -0.90735941028E+03  0.13436645127E+04  0.16219301389E+04  0.46999998093E+01 0.  1.
       -5    1    3    3    0  502 -0.43587421962E+02  0.90735941028E+03 -0.97454645624E+03  0.13322776918E+04  0.46999998093E+01 0. -1.
</event>
<event>
 5   0  0.7094341E-06  0.2269826E+04  0.7818609E-02  0.8489914E-01
       -2   -1    0    0    0  501  0.00000000000E+00  0.00000000000E+00  0.10847937651E+04  0.10847937651E+04  0.25500000920E-02 0. -1.
        2   -1    0    0  501    0  0.00000000000E+00  0.00000000000E+00 -0.11873482740E+04  0.11873482740E+04  0.25500000920E-02 0.  1.
    10030    2    1    2    0    0  0.00000000000E+00  0.00000000000E+00 -0.10255450886E+03  0.22721420391E+04  0.22698264291E+04 0.  0.
        3    1    3    3  502    0 -0.69742381736E+03  0.13977092566E+03 -0.93653916496E+03  0.11760278527E+04  0.10100000352E+00 0.  1.
       -3    1    3    3    0  502  0.69742381736E+03 -0.13977092566E+03  0.83398465610E+03  0.10961141863E+04  0.10100000352E+00 0. -1.
</event>
<event>
 5   0  0.7079223E-06  0.3154225E+04  0.7818609E-02  0.8201012E-01
        2   -1    0    0  501    0  0.00000000000E+00  0.00000000000E+00  0.24319344228E+04  0.24319344228E+04  0.25500000920E-02 0. -1.
       -2   -1    0    0    0  501  0.00000000000E+00  0.00000000000E+00 -0.10227593525E+04  0.10227593525E+04  0.25500000920E-02 0.  1.
    10030    2    1    2    0    0  0.00000000000E+00  0.00000000000E+00  0.14091750704E+04  0.34546937753E+04  0.31542248972E+04 0.  0.
        5    1    3    3  502    0  0.88748581655E+02 -0.89218228472E+03 -0.71646473700E+03  0.11476974119E+04  0.46999998093E+01 0.  1.
       -5    1    3    3    0  502 -0.88748581655E+02  0.89218228472E+03  0.21256398074E+04  0.23069963634E+04  0.46999998093E+01 0. -1.
</event>
<event>
 5   0  0.7363513E-06  0.3172060E+04  0.7818609E-02  0.8196235E-01
       -2   -1    0    0    0  501  0.00000000000E+00  0.00000000000E+00  0.12201004474E+04  0.12201004474E+04  0.25500000920E-02 0.  1.
        2   -1    0    0  501    0  0.00000000000E+00  0.00000000000E+00 -0.20617082761E+04  0.20617082761E+04  0.25500000920E-02 0. -1.
    10030    2    1    2    0    0  0.00000000000E+00  0.00000000000E+00 -0.84160782865E+03  0.32818087235E+04  0.31720600184E+04 0.  0.
        4    1    3    3  502    0  0.10076232159E+04 -0.11699764642E+04 -0.79575148924E+03  0.17370582942E+04  0.12699999809E+01 0.  1.
       -4    1    3    3    0  502 -0.10076232159E+04  0.11699764642E+04 -0.45856339419E+02  0.15447504293E+04  0.12699999809E+01 0. -1.
</event>
<event>
 5   0  0.7071012E-06  0.3253593E+04  0.7818609E-02  0.8174805E-01
        2   -1    0    0  501    0  0.00000000000E+00  0.00000000000E+00  0.17925695172E+04  0.17925695172E+04  0.25500000920E-02 0. -1.
       -2   -1    0    0    0  501  0.00000000000E+00  0.00000000000E+00 -0.14763542282E+04  0.14763542282E+04  0.25500000920E-02 0.  1.
    10030    2    1    2    0    0  0.00000000000E+00  0.00000000000E+00  0.31621528906E+03  0.32689237454E+04  0.32535934510E+04 0.  0.
        1    1    3    3  502    0 -0.44497922810E+03 -0.91960403041E+03 -0.11138707921E+04  0.15114186143E+04  0.50400001928E-02 0.  1.
       -1    1    3    3    0  502  0.44497922810E+03  0.91960403041E+03  0.14300860812E+04  0.17575051311E+04  0.50400001928E-02 0. -1.
</event>
<event>
 5   0  0.2598987E-06  0.3686361E+04  0.7818609E-02  0.8070991E-01
        1   -1    0    0  501    0  0.00000000000E+00  0.00000000000E+00  0.23293783712E+04  0.23293783712E+04  0.50400001928E-02 0.  1.
       -1   -1    0    0    0  501  0.00000000000E+00  0.00000000000E+00 -0.14584641811E+04  0.14584641811E+04  0.50400001928E-02 0. -1.
    10030    2    1    2    0    0  0.00000000000E+00  0.00000000000E+00  0.87091419010E+03  0.37878425523E+04  0.36863613055E+04 0.  0.
        2    1    3    3  502    0  0.17780389863E+04 -0.48021093155E+03  0.51018990573E+03  0.19111041090E+04  0.25500000920E-02 0. -1.
       -2    1    3    3    0  502 -0.17780389863E+04  0.48021093155E+03  0.36072428436E+03  0.18767384434E+04  0.25500000920E-02 0.  1.
</event>
<event>
 5   0  0.2517725E-06  0.3097998E+04  0.7818609E-02  0.8216288E-01
        1   -1    0    0  501    0  0.00000000000E+00  0.00000000000E+00  0.23291426936E+04  0.23291426936E+04  0.50400001928E-02 0.  1.
       -1   -1    0    0    0  501  0.00000000000E+00  0.00000000000E+00 -0.10301634747E+04  0.10301634747E+04  0.50400001928E-02 0. -1.
    10030    2    1    2    0    0  0.00000000000E+00  0.00000000000E+00  0.12989792189E+04  0.33593061682E+04  0.30979978891E+04 0.  0.
        3    1    3    3  502    0 -0.12238102940E+04 -0.25366585488E+00  0.16791550537E+04  0.20778049487E+04  0.10100000352E+00 0.  1.
       -3    1    3    3    0  502  0.12238102940E+04  0.25366585488E+00 -0.38017583484E+03  0.12815012196E+04  0.10100000352E+00 0. -1.
</event>
<event>
 5   0  0.7094341E-06  0.3144604E+04  0.7818609E-02  0.8203602E-01
       -2   -1    0    0    0  501  0.00000000000E+00  0.00000000000E+00  0.93637604987E+03  0.93637604987E+03  0.25500000920E-02 0.  1.
        2   -1    0    0  501    0  0.00000000000E+00  0.00000000000E+00 -0.26401069979E+04  0.26401069979E+04  0.25500000920E-02 0. -1.
    10030    2    1    2    0    0  0.00000000000E+00  0.00000000000E+00 -0.17037309481E+04  0.35764830478E+04  0.31446036074E+04 0.  0.
        3    1    3    3  502    0 -0.27200361532E+03  0.95375946981E+03  0.53573104798E+03  0.11272315019E+04  0.10100000352E+00 0.  1.
       -3    1    3    3    0  502  0.27200361532E+03 -0.95375946981E+03 -0.22394619961E+04  0.24492515459E+04  0.10100000352E+00 0. -1.
</event>
<event>
 5   0  0.7094341E-06  0.3107197E+04  0.7818609E-02  0.8213766E-01
        2   -1    0    0  501    0  0.00000000000E+00  0.00000000000E+00  0.22854879670E+04  0.22854879670E+04  0.25500000920E-02 0.  1.
       -2   -1    0    0    0  501  0.00000000000E+00  0.00000000000E+00 -0.10560841686E+04  0.10560841686E+04  0.25500000920E-02 0. -1.
    10030    2    1    2    0    0  0.00000000000E+00  0.00000000000E+00  0.12294037984E+04  0.33415721356E+04  0.31071965882E+04 0.  0.
        3    1    3    3  502    0  0.10698567638E+04 -0.86201885568E+03  0.13946649153E+04  0.19577436601E+04  0.10100000352E+00 0.  1.
       -3    1    3    3    0  502 -0.10698567638E+04  0.86201885568E+03 -0.16526111689E+03  0.13838284755E+04  0.10100000352E+00 0. -1.
</event>
<event>
 5   0  0.2598987E-06  0.3140991E+04  0.7818609E-02  0.8204578E-01
        1   -1    0    0  501    0  0.00000000000E+00  0.00000000000E+00  0.14832799078E+04  0.14832799079E+04  0.50400001928E-02 0.  1.
       -1   -1    0    0    0  501  0.00000000000E+00  0.00000000000E+00 -0.16628389134E+04  0.16628389134E+04  0.50400001928E-02 0. -1.
    10030    2    1    2    0    0  0.00000000000E+00  0.00000000000E+00 -0.17955900551E+03  0.31461188212E+04  0.31409906400E+04 0.  0.
        2    1    3    3  502    0  0.96981416174E+03  0.70826396060E+01  0.11474966980E+04  0.15024441234E+04  0.25500000920E-02 0.  1.
       -2    1    3    3    0  502 -0.96981416174E+03 -0.70826396060E+01 -0.13270557035E+04  0.16436746978E+04  0.25500000920E-02 0. -1.
</event>
<event>
 5   0  0.2624011E-06  0.3116653E+04  0.7818609E-02  0.8211182E-01
       -1   -1    0    0    0  501  0.00000000000E+00  0.00000000000E+00  0.12836369793E+04  0.12836369793E+04  0.50400001928E-02 0. -1.
        1   -1    0    0  501    0  0.00000000000E+00  0.00000000000E+00 -0.18917979931E+04  0.18917979931E+04  0.50400001928E-02 0.  1.
    10030    2    1    2    0    0  0.00000000000E+00  0.00000000000E+00 -0.60816101374E+03  0.31754349724E+04  0.31166532443E+04 0.  0.
        1    1    3    3  502    0 -0.59274394212E+03 -0.10151816547E+04  0.73817083190E+03  0.13881049492E+04  0.50400001928E-02 0. -1.
       -1    1    3    3    0  502  0.59274394212E+03  0.10151816547E+04 -0.13463318456E+04  0.17873300231E+04  0.50400001928E-02 0.  1.
</event>
<event>
 5   0  0.7079223E-06  0.3109583E+04  0.7818609E-02  0.8213113E-01
        2   -1    0    0  501    0  0.00000000000E+00  0.00000000000E+00  0.18900970261E+04  0.18900970261E+04  0.25500000920E-02 0. -1.
       -2   -1    0    0    0  501  0.00000000000E+00  0.00000000000E+00 -0.12789699004E+04  0.12789699004E+04  0.25500000920E-02 0.  1.
    10030    2    1    2    0    0  0.00000000000E+00  0.00000000000E+00  0.61112712570E+03  0.31690669264E+04  0.31095833838E+04 0.  0.
        5    1    3    3  502    0  0.44730552322E+03  0.36621165639E+03 -0.11653620718E+04  0.13008781867E+04  0.46999998093E+01 0.  1.
       -5    1    3    3    0  502 -0.44730552322E+03 -0.36621165639E+03  0.17764891975E+04  0.18681887397E+04  0.46999998093E+01 0. -1.
</event>
<event>
 5   0  0.2612331E-06  0.3132923E+04  0.7818609E-02  0.8206760E-01
        1   -1    0    0  501    0  0.00000000000E+00  0.00000000000E+00  0.98158115101E+03  0.98158115102E+03  0.50400001928E-02 0.  1.
       -1   -1    0    0    0  501  0.00000000000E+00  0.00000000000E+00 -0.24998460346E+04  0.24998460346E+04  0.50400001928E-02 0. -1.
    10030    2    1    2    0    0  0.00000000000E+00  0.00000000000E+00 -0.15182648836E+04  0.34814271856E+04  0.31329230747E+04 0.  0.
        4    1    3    3  502    0  0.10550039474E+04  0.11345362735E+04 -0.10163891361E+04  0.18529043078E+04  0.12699999809E+01 0. -1.
       -4    1    3    3    0  502 -0.10550039474E+04 -0.11345362735E+04 -0.50187574751E+03  0.16285228779E+04  0.12699999809E+01 0.  1.
</event>
<event>
 5   0  0.2624011E-06  0.3124872E+04  0.7818609E-02  0.8208945E-01
       -1   -1    0    0    0  501  0.00000000000E+00  0.00000000000E+00  0.12904557896E+04  0.12904557896E+04  0.50400001928E-02 0. -1.
        1   -1    0    0  501    0  0.00000000000E+00  0.00000000000E+00 -0.18917398710E+04  0.18917398710E+04  0.50400001928E-02 0.  1.
    10030    2    1    2    0    0  0.00000000000E+00  0.00000000000E+00 -0.60128408138E+03  0.31821956606E+04  0.31248722655E+04 0.  0.
        1    1    3    3  502    0 -0.12565848927E+04  0.26940231383E+03 -0.12055504701E+04  0.17620826131E+04  0.50400001928E-02 0.  1.
       -1    1    3    3    0  502  0.12565848927E+04 -0.26940231383E+03  0.60426638873E+03  0.14201130475E+04  0.50400001928E-02 0. -1.
</event>
<event>
 5   0  0.7363513E-06  0.3143960E+04  0.7818609E-02  0.8203776E-01
        2   -1    0    0  501    0  0.00000000000E+00  0.00000000000E+00  0.16049804641E+04  0.16049804641E+04  0.25500000920E-02 0.  1.
       -2   -1    0    0    0  501  0.00000000000E+00  0.00000000000E+00 -0.15396575793E+04  0.15396575793E+04  0.25500000920E-02 0. -1.
    10030    2    1    2    0    0  0.00000000000E+00  0.00000000000E+00  0.65322884748E+02  0.31446380434E+04  0.31439595012E+04 0.  0.
        4    1    3    3  502    0 -0.70077270411E+03  0.28367438856E+03  0.14112060424E+04  0.16009552300E+04  0.12699999809E+01 0.  1.
       -4    1    3    3    0  502  0.70077270411E+03 -0.28367438856E+03 -0.13458831576E+04  0.15436828134E+04  0.12699999809E+01 0. -1.
</event>
<event>
 5   0  0.2624011E-06  0.3033508E+04  0.7818609E-02  0.8234227E-01
       -1   -1    0    0    0  501  0.00000000000E+00  0.00000000000E+00  0.11225188565E+04  0.11225188565E+04  0.50400001928E-02 0.  1.
        1   -1    0    0  501    0  0.00000000000E+00  0.00000000000E+00 -0.20494464454E+04  0.20494464454E+04  0.50400001928E-02 0. -1.
    10030    2    1    2    0    0  0.00000000000E+00  0.00000000000E+00 -0.92692758897E+03  0.31719653019E+04  0.30335077256E+04 0.  0.
        1    1    3    3  502    0 -0.13214524236E+04  0.98332473281E+02 -0.12351428146E+04  0.18114865596E+04  0.50400001928E-02 0. -1.
       -1    1    3    3    0  502  0.13214524236E+04 -0.98332473281E+02  0.30821522563E+03  0.13604787423E+04  0.50400001928E-02 0.  1.
</event>
<event>
 5   0  0.2624011E-06  0.3168695E+04  0.7818609E-02  0.8197134E-01
       -1   -1    0    0    0  501  0.00000000000E+00  0.00000000000E+00  0.21677734936E+04  0.21677734937E+04  0.50400001928E-02 0.  1.
        1   -1    0    0  501    0  0.00000000000E+00  0.00000000000E+00 -0.11579423630E+04  0.11579423630E+04  0.50400001928E-02 0. -1.
    10030    2    1    2    0    0  0.00000000000E+00  0.00000000000E+00  0.10098311306E+04  0.33257158567E+04  0.31686948491E+04 0.  0.
        1    1    3    3  502    0  0.87468790392E+02 -0.13469090226E+03  0.21592083139E+04  0.21651727347E+04  0.50400001928E-02 0.  1.
       -1    1    3    3    0  502 -0.87468790392E+02  0.13469090226E+03 -0.11493771833E+04  0.11605431219E+04  0.50400001928E-02 0. -1.
</event>
<event>
 5   0  0.2624011E-06  0.3132861E+04  0.7818609E-02  0.8206777E-01
       -1   -1    0    0    0  501  0.00000000000E+00  0.00000000000E+00  0.15634348696E+04  0.15634348696E+04  0.50400001928E-02 0. -1.
        1   -1    0    0  501    0  0.00000000000E+00  0.00000000000E+00 -0.15694321262E+04  0.15694321262E+04  0.50400001928E-02 0.  1.
    10030    2    1    2    0    0  0.00000000000E+00  0.00000000000E+00 -0.59972565959E+01  0.31328669959E+04  0.31328612556E+04 0.  0.
        1    1    3    3  502    0  0.18046659840E+03 -0.10091525439E+04  0.11813801127E+04  0.15641662382E+04  0.50400001928E-02 0. -1.
       -1    1    3    3    0  502 -0.18046659840E+03  0.10091525439E+04 -0.11873773693E+04  0.15687007577E+04  0.50400001928E-02 0.  1.
</event>
<event>
 5   0  0.2674441E-06  0.3072750E+04  0.7818609E-02  0.8223256E-01
        1   -1    0    0  501    0  0.00000000000E+00  0.00000000000E+00  0.19035097810E+04  0.19035097810E+04  0.50400001928E-02 0. -1.
       -1   -1    0    0    0  501  0.00000000000E+00  0.00000000000E+00 -0.12400506515E+04  0.12400506515E+04  0.50400001928E-02 0.  1.
    10030    2    1    2    0    0  0.00000000000E+00  0.00000000000E+00  0.66345912950E+03  0.31435604325E+04  0.30727502626E+04 0.  0.
        5    1    3    3  502    0  0.51920501069E+02  0.13075344320E+04  0.11553181929E+04  0.17456013996E+04  0.46999998093E+01 0. -1.
       -5    1    3    3    0  502 -0.51920501069E+02 -0.13075344320E+04 -0.49185906343E+03  0.13979590329E+04  0.46999998093E+01 0.  1.
</event>
<event>
 5   0  0.2674441E-06  0.3039062E+04  0.7818609E-02  0.8232664E-01
        1   -1    0    0  501    0  0.00000000000E+00  0.00000000000E+00  0.17831539698E+04  0.17831539698E+04  0.50400001928E-02 0. -1.
       -1   -1    0    0    0  501  0.00000000000E+00  0.00000000000E+00 -0.12948820125E+04  0.12948820125E+04  0.50400001928E-02 0.  1.
    10030    2    1    2    0    0  0.00000000000E+00  0.00000000000E+00  0.48827195733E+03  0.30780359823E+04  0.30390616980E+04 0.  0.
        5    1    3    3  502    0 -0.12734014402E+04  0.14073160630E+03 -0.58340747986E+03  0.14077439364E+04  0.46999998093E+01 0.  1.
       -5    1    3    3    0  502  0.12734014402E+04 -0.14073160630E+03  0.10716794372E+04  0.16702920460E+04  0.46999998093E+01 0. -1.
</event>
<event>
 5   0  0.2598987E-06  0.3012614E+04  0.7818609E-02  0.8240138E-01
       -1   -1    0    0    0  501  0.00000000000E+00  0.00000000000E+00  0.98435436113E+03  0.98435436115E+03  0.50400001928E-02 0.  1.
        1   -1    0    0  501    0  0.00000000000E+00  0.00000000000E+00 -0.23050243399E+04  0.23050243399E+04  0.50400001928E-02 0. -1.
    10030    2    1    2    0    0  0.00000000000E+00  0.00000000000E+00 -0.13206699787E+04  0.32893787010E+04  0.30126139889E+04 0.  0.
        2    1    3    3  502    0  0.12953041029E+04  0.74167807502E+03 -0.43908221742E+03  0.15558574098E+04  0.25500000920E-02 0.  1.
       -2    1    3    3    0  502 -0.12953041029E+04 -0.74167807502E+03 -0.88158776132E+03  0.17335212912E+04  0.25500000920E-02 0. -1.
</event>
<event>
 5   0  0.2598987E-06  0.3105850E+04  0.7818609E-02  0.8214134E-01
        1   -1    0    0  501    0  0.00000000000E+00  0.00000000000E+00  0.18000623755E+04  0.18000623755E+04  0.50400001928E-02 0.  1.
       -1   -1    0    0    0  501  0.00000000000E+00  0.00000000000E+00 -0.13397181328E+04  0.13397181328E+04  0.50400001928E-02 0. -1.
    10030    2    1    2    0    0  0.00000000000E+00  0.00000000000E+00  0.46034424273E+03  0.31397805083E+04  0.31058500960E+04 0.  0.
        2    1    3    3  502    0 -0.97416785823E+03  0.10321188939E+02  0.14527084848E+04  0.17491344959E+04  0.25500000920E-02 0.  1.
       -2    1    3    3    0  502  0.97416785823E+03 -0.10321188939E+02 -0.99236424206E+03  0.13906460124E+04  0.25500000920E-02 0. -1.
</event>
<event>
 5   0  0.2598987E-06  0.3077315E+04  0.7818609E-02  0.8221991E-01
       -1   -1    0    0    0  501  0.00000000000E+00  0.00000000000E+00  0.11007308112E+04  0.11007308113E+04  0.50400001928E-02 0. -1.
        1   -1    0    0  501    0  0.00000000000E+00  0.00000000000E+00 -0.21508132347E+04  0.21508132347E+04  0.50400001928E-02 0.  1.
    10030    2    1    2    0    0  0.00000000000E+00  0.00000000000E+00 -0.10500824234E+04  0.32515440459E+04  0.30773146714E+04 0.  0.
        2    1    3    3  502    0 -0.61310654007E+03 -0.13697010137E+04 -0.88411377031E+03  0.17417340943E+04  0.25500000920E-02 0.  1.
       -2    1    3    3    0  502  0.61310654007E+03  0.13697010137E+04 -0.16596865311E+03  0.15098099516E+04  0.25500000920E-02 0. -1.
</event>
<event>
 5   0  0.7079223E-06  0.3184107E+04  0.7818609E-02  0.8193027E-01
       -2   -1    0    0    0  501  0.00000000000E+00  0.00000000000E+00  0.12375484142E+04  0.12375484142E+04  0.25500000920E-02 0. -1.
        2   -1    0    0  501    0  0.00000000000E+00  0.00000000000E+00 -0.20481098257E+04  0.20481098257E+04  0.25500000920E-02 0.  1.
    10030    2    1    2    0    0  0.00000000000E+00  0.00000000000E+00 -0.81056141145E+03  0.32856582399E+04  0.31841074522E+04 0.  0.
        5    1    3    3  502    0 -0.14769251392E+04 -0.49251284118E+03 -0.74866426908E+03  0.17275407501E+04  0.46999998093E+01 0.  1.
       -5    1    3    3    0  502  0.14769251392E+04  0.49251284118E+03 -0.61897142374E+02  0.15581174897E+04  0.46999998093E+01 0. -1.
</event>
<event>
 5   0  0.2624011E-06  0.3139451E+04  0.7818609E-02  0.8204994E-01
        1   -1    0    0  501    0  0.00000000000E+00  0.00000000000E+00  0.11988609726E+04  0.11988609726E+04  0.50400001928E-02 0.  1.
       -1   -1    0    0    0  501  0.00000000000E+00  0.00000000000E+00 -0.20553162388E+04  0.20553162388E+04  0.50400001928E-02 0. -1.
    10030    2    1    2    0    0  0.00000000000E+00  0.00000000000E+00 -0.85645526616E+03  0.32541772114E+04  0.31394511782E+04 0.  0.
        1    1    3    3  502    0  0.13299882237E+04 -0.82566332700E+03 -0.30801621927E+03  0.15954505935E+04  0.50400001928E-02 0. -1.
       -1    1    3    3    0  502 -0.13299882237E+04  0.82566332700E+03 -0.54843904689E+03  0.16587266179E+04  0.50400001928E-02 0.  1.
</event>
<event>
 5   0  0.2393250E-06  0.3158873E+04  0.7818609E-02  0.8199764E-01
        3   -1    0    0  501    0  0.00000000000E+00  0.00000000000E+00  0.24328808406E+04  0.24328808427E+04  0.10100000352E+00 0.  1.
       -3   -1    0    0    0  501  0.00000000000E+00  0.00000000000E+00 -0.10253768089E+04  0.10253768139E+04  0.10100000352E+00 0. -1.
    10030    2    1    2    0    0  0.00000000000E+00  0.00000000000E+00  0.14075040317E+04  0.34582576566E+04  0.31588729667E+04 0.  0.
        2    1    3    3  502    0 -0.11160774862E+04 -0.76350932526E+03 -0.18971124338E+03  0.13654910475E+04  0.25500000920E-02 0. -1.
       -2    1    3    3    0  502  0.11160774862E+04  0.76350932526E+03  0.15972152751E+04  0.20927666091E+04  0.25500000920E-02 0.  1.
</event>
<event>
 5   0  0.7094341E-06  0.3120313E+04  0.7818609E-02  0.8210185E-01
        2   -1    0    0  501    0  0.00000000000E+00  0.00000000000E+00  0.16080892406E+04  0.16080892406E+04  0.25500000920E-02 0.  1.
       -2   -1    0    0    0  501  0.00000000000E+00  0.00000000000E+00 -0.15136523869E+04  0.15136523869E+04  0.25500000920E-02 0. -1.
    10030    2    1    2    0    0  0.00000000000E+00  0.00000000000E+00  0.94436853660E+02  0.31217416276E+04  0.31203128801E+04 0.  0.
        3    1    3    3  502    0  0.36062553663E+03  0.43850684759E+03 -0.14066328026E+04  0.15168898723E+04  0.10100000352E+00 0. -1.
       -3    1    3    3    0  502 -0.36062553663E+03 -0.43850684759E+03  0.15010696563E+04  0.16048517552E+04  0.10100000352E+00 0.  1.
</event>
<event>
 5   0  0.2612331E-06  0.1939877E+04  0.7818609E-02  0.8635258E-01
        1   -1    0    0  501    0  0.00000000000E+00  0.00000000000E+00  0.12798023821E+04  0.12798023821E+04  0.50400001928E-02 0. -1.
       -1   -1    0    0    0  501  0.00000000000E+00  0.00000000000E+00 -0.73509828173E+03  0.73509828175E+03  0.50400001928E-02 0.  1.
    10030    2    1    2    0    0  0.00000000000E+00  0.00000000000E+00  0.54470410033E+03  0.20149006638E+04  0.19398768332E+04 0.  0.
        4    1    3    3  502    0  0.96714828098E+03 -0.44481751486E+02  0.21156965860E+03  0.99101854521E+03  0.12699999809E+01 0. -1.
       -4    1    3    3    0  502 -0.96714828098E+03  0.44481751486E+02  0.33313444173E+03  0.10238821186E+04  0.12699999809E+01 0.  1.
</event>
<event>
 5   0  0.7363513E-06  0.3024918E+04  0.7818609E-02  0.8236651E-01
        2   -1    0    0  501    0  0.00000000000E+00  0.00000000000E+00  0.17039723569E+04  0.17039723569E+04  0.25500000920E-02 0.  1.
       -2   -1    0    0    0  501  0.00000000000E+00  0.00000000000E+00 -0.13424698538E+04  0.13424698538E+04  0.25500000920E-02 0. -1.
    10030    2    1    2    0    0  0.00000000000E+00  0.00000000000E+00  0.36150250309E+03  0.30464422107E+04  0.30249175333E+04 0.  0.
        4    1    3    3  502    0  0.31499445513E+03 -0.62983779306E+03 -0.11672847096E+04  0.13632579941E+04  0.12699999809E+01 0. -1.
       -4    1    3    3    0  502 -0.31499445513E+03  0.62983779306E+03  0.15287872127E+04  0.16831842166E+04  0.12699999809E+01 0.  1.
</event>
<event>
 5   0  0.7071012E-06  0.3105383E+04  0.7818609E-02  0.8214262E-01
        2   -1    0    0  501    0  0.00000000000E+00  0.00000000000E+00  0.22280469893E+04  0.22280469893E+04  0.25500000920E-02 0.  1.
       -2   -1    0    0    0  501  0.00000000000E+00  0.00000000000E+00 -0.10820467012E+04  0.10820467012E+04  0.25500000920E-02 0. -1.
    10030    2    1    2    0    0  0.00000000000E+00  0.00000000000E+00  0.11460002881E+04  0.33100936906E+04  0.31053830005E+04 0.  0.
        1    1    3    3  502    0  0.29225138362E+03 -0.30545850875E+03  0.21655218330E+04  0.22063999141E+04  0.50400001928E-02 0.  1.
       -1    1    3    3    0  502 -0.29225138362E+03  0.30545850875E+03 -0.10195215449E+04  0.11036937765E+04  0.50400001928E-02 0. -1.
</event>
<event>
 5   0  0.2517725E-06  0.3157471E+04  0.7818609E-02  0.8200140E-01
       -1   -1    0    0    0  501  0.00000000000E+00  0.00000000000E+00  0.14106812425E+04  0.14106812425E+04  0.50400001928E-02 0.  1.
        1   -1    0    0  501    0  0.00000000000E+00  0.00000000000E+00 -0.17668101760E+04  0.17668101760E+04  0.50400001928E-02 0. -1.
    10030    2    1    2    0    0  0.00000000000E+00  0.00000000000E+00 -0.35612893352E+03  0.31774914186E+04  0.31574711238E+04 0.  0.
        3    1    3    3  502    0 -0.77488529076E+03 -0.12833777011E+04  0.31994748979E+03  0.15329292039E+04  0.10100000352E+00 0.  1.
       -3    1    3    3    0  502  0.77488529076E+03  0.12833777011E+04 -0.67607642332E+03  0.16445622147E+04  0.10100000352E+00 0. -1.
</event>
<event>
 5   0  0.7094341E-06  0.3085108E+04  0.7818609E-02  0.8219837E-01
       -2   -1    0    0    0  501  0.00000000000E+00  0.00000000000E+00  0.17743885898E+04  0.17743885898E+04  0.25500000920E-02 0. -1.
        2   -1    0    0  501    0  0.00000000000E+00  0.00000000000E+00 -0.13410103176E+04  0.13410103176E+04  0.25500000920E-02 0.  1.
    10030    2    1    2    0    0  0.00000000000E+00  0.00000000000E+00  0.43337827216E+03  0.31153989075E+04  0.30851083653E+04 0.  0.
        3    1    3    3  502    0  0.13109114589E+04 -0.78112240076E+03  0.44436305514E+03  0.15893708167E+04  0.10100000352E+00 0. -1.
       -3    1    3    3    0  502 -0.13109114589E+04  0.78112240076E+03 -0.10984782985E+02  0.15260280907E+04  0.10100000352E+00 0.  1.
</event>
<event>
 5   0  0.2612331E-06  0.3080341E+04  0.7818609E-02  0.8221154E-01
       -1   -1    0    0    0  501  0.00000000000E+00  0.00000000000E+00  0.11908745932E+04  0.11908745932E+04  0.50400001928E-02 0. -1.
        1   -1    0    0  501    0  0.00000000000E+00  0.00000000000E+00 -0.19919178922E+04  0.19919178922E+04  0.50400001928E-02 0.  1.
    10030    2    1    2    0    0  0.00000000000E+00  0.00000000000E+00 -0.80104329900E+03  0.31827924853E+04  0.30803405068E+04 0.  0.
        4    1    3    3  502    0  0.12793143793E+04  0.77262878782E+03 -0.15956964639E+02  0.14946092340E+04  0.12699999809E+01 0. -1.
       -4    1    3    3    0  502 -0.12793143793E+04 -0.77262878782E+03 -0.78508633436E+03  0.16881832513E+04  0.12699999809E+01 0.  1.
</event>
<event>
 5   0  0.7414808E-06  0.3084504E+04  0.7818609E-02  0.8220004E-01
       -2   -1    0    0    0  501  0.00000000000E+00  0.00000000000E+00  0.14670259595E+04  0.14670259595E+04  0.25500000920E-02 0.  1.
        2   -1    0    0  501    0  0.00000000000E+00  0.00000000000E+00 -0.16213355868E+04  0.16213355868E+04  0.25500000920E-02 0. -1.
    10030    2    1    2    0    0  0.00000000000E+00  0.00000000000E+00 -0.15430962732E+03  0.30883615463E+04  0.30845041060E+04 0.  0.
        2    1    3    3  502    0 -0.39646855012E+02 -0.37046154729E+02 -0.16203795545E+04  0.16212878188E+04  0.25500000920E-02 0. -1.
       -2    1    3    3    0  502  0.39646855012E+02  0.37046154729E+02  0.14660699272E+04  0.14670737276E+04  0.25500000920E-02 0.  1.
</event>
<event>
 5   0  0.2612331E-06  0.3074507E+04  0.7818609E-02  0.8222769E-01
        1   -1    0    0  501    0  0.00000000000E+00  0.00000000000E+00  0.22031999557E+04  0.22031999557E+04  0.50400001928E-02 0. -1.
       -1   -1    0    0    0  501  0.00000000000E+00  0.00000000000E+00 -0.10725982059E+04  0.10725982059E+04  0.50400001928E-02 0.  1.
    10030    2    1    2    0    0  0.00000000000E+00  0.00000000000E+00  0.11306017498E+04  0.32757981616E+04  0.30745069977E+04 0.  0.
        4    1    3    3  502    0  0.10984627189E+04  0.92030253087E+03  0.11581180965E+04  0.18425027087E+04  0.12699999809E+01 0. -1.
       -4    1    3    3    0  502 -0.10984627189E+04 -0.92030253087E+03 -0.27516346650E+02  0.14332954529E+04  0.12699999809E+01 0.  1.
</event>
<event>
 5   0  0.2612331E-06  0.2778916E+04  0.7818609E-02  0.8309844E-01
       -1   -1    0    0    0  501  0.00000000000E+00  0.00000000000E+00  0.10747710907E+04  0.10747710907E+04  0.50400001928E-02 0.  1.
        1   -1    0    0  501    0  0.00000000000E+00  0.00000000000E+00 -0.17962829931E+04  0.17962829931E+04  0.50400001928E-02 0. -1.
    10030    2    1    2    0    0  0.00000000000E+00  0.00000000000E+00 -0.72151190239E+03  0.28710540838E+04  0.27789156387E+04 0.  0.
        4    1    3    3  502    0 -0.13679451372E+04 -0.23689340853E+03 -0.41919126766E+03  0.14502121628E+04  0.12699999809E+01 0.  1.
       -4    1    3    3    0  502  0.13679451372E+04  0.23689340853E+03 -0.30232063473E+03  0.14208419210E+04  0.12699999809E+01 0. -1.
</event>
<event>
 5   0  0.2598987E-06  0.1990997E+04  0.7818609E-02  0.8610842E-01
       -1   -1    0    0    0  501  0.00000000000E+00  0.00000000000E+00  0.47265075662E+03  0.47265075665E+03  0.50400001928E-02 0. -1.
        1   -1    0    0  501    0  0.00000000000E+00  0.00000000000E+00 -0.20967210881E+04  0.20967210881E+04  0.50400001928E-02 0.  1.
    10030    2    1    2    0    0  0.00000000000E+00  0.00000000000E+00 -0.16240703315E+04  0.25693718448E+04  0.19909965432E+04 0.  0.
        2    1    3    3  502    0 -0.29326116629E+03  0.31421076836E+03 -0.19708154367E+04  0.20171375769E+04  0.25500000920E-02 0.  1.
       -2    1    3    3    0  502  0.29326116629E+03 -0.31421076836E+03  0.34674510521E+03  0.55223426786E+03  0.25500000920E-02 0. -1.
</event>
<event>
 5   0  0.7414808E-06  0.2561239E+04  0.7818609E-02  0.8381488E-01
       -2   -1    0    0    0  501  0.00000000000E+00  0.00000000000E+00  0.62960636120E+03  0.62960636120E+03  0.25500000920E-02 0.  1.
        2   -1    0    0  501    0  0.00000000000E+00  0.00000000000E+00 -0.26047807809E+04  0.26047807809E+04  0.25500000920E-02 0. -1.
    10030    2    1    2    0    0  0.00000000000E+00  0.00000000000E+00 -0.19751744197E+04  0.32343871421E+04  0.25612391916E+04 0.  0.
        2    1    3    3  502    0  0.45309375914E+03 -0.58439139477E+03 -0.23079326239E+04  0.24235016512E+04  0.25500000920E-02 0. -1.
       -2    1    3    3    0  502 -0.45309375914E+03  0.58439139477E+03  0.33275820422E+03  0.81088549089E+03  0.25500000920E-02 0.  1.
</event>
<event>
 5   0  0.7071012E-06  0.3081687E+04  0.7818609E-02  0.8220782E-01
        2   -1    0    0  501    0  0.00000000000E+00  0.00000000000E+00  0.13933445831E+04  0.13933445831E+04  0.25500000920E-02 0. -1.
       -2   -1    0    0    0  501  0.00000000000E+00  0.00000000000E+00 -0.17039570820E+04  0.17039570820E+04  0.25500000920E-02 0.  1.
    10030    2    1    2    0    0  0.00000000000E+00  0.00000000000E+00 -0.31061249890E+03  0.30973016651E+04  0.30816874404E+04 0.  0.
        1    1    3    3  502    0  0.81199960454E+03 -0.91653980755E+03  0.78474598057E+03  0.14543778156E+04  0.50400001928E-02 0. -1.
       -1    1    3    3    0  502 -0.81199960454E+03  0.91653980755E+03 -0.10953584795E+04  0.16429238495E+04  0.50400001928E-02 0.  1.
</event>
<event>
 5   0  0.7079223E-06  0.3131625E+04  0.7818609E-02  0.8207112E-01
        2   -1    0    0  501    0  0.00000000000E+00  0.00000000000E+00  0.19730141116E+04  0.19730141116E+04  0.25500000920E-02 0.  1.
       -2   -1    0    0    0  501  0.00000000000E+00  0.00000000000E+00 -0.12426515064E+04  0.12426515064E+04  0.25500000920E-02 0. -1.
    10030    2    1    2    0    0  0.00000000000E+00  0.00000000000E+00  0.73036260523E+03  0.32156656181E+04  0.31316251104E+04 0.  0.
        5    1    3    3  502    0 -0.12619362915E+04  0.83804349970E+03  0.77197787804E+03  0.17002270570E+04  0.46999998093E+01 0.  1.
       -5    1    3    3    0  502  0.12619362915E+04 -0.83804349970E+03 -0.41615272807E+02  0.15154385610E+04  0.46999998093E+01 0. -1.
</event>
<event>
 5   0  0.7071012E-06  0.3209071E+04  0.7818609E-02  0.8186426E-01
       -2   -1    0    0    0  501  0.00000000000E+00  0.00000000000E+00  0.16844829251E+04  0.16844829251E+04  0.25500000920E-02 0.  1.
        2   -1    0    0  501    0  0.00000000000E+00  0.00000000000E+00 -0.15283827026E+04  0.15283827026E+04  0.25500000920E-02 0. -1.
    10030    2    1    2    0    0  0.00000000000E+00  0.00000000000E+00  0.15610022247E+03  0.32128656278E+04  0.32090712461E+04 0.  0.
        1    1    3    3  502    0  0.29585364208E+03 -0.13677867429E+04 -0.70783955811E+03  0.15682495948E+04  0.50400001928E-02 0. -1.
       -1    1    3    3    0  502 -0.29585364208E+03  0.13677867429E+04  0.86393978058E+03  0.16446160330E+04  0.50400001928E-02 0.  1.
</event>
<event>
 5   0  0.2624011E-06  0.3101966E+04  0.7818609E-02  0.8215199E-01
       -1   -1    0    0    0  501  0.00000000000E+00  0.00000000000E+00  0.14481178472E+04  0.14481178472E+04  0.50400001928E-02 0. -1.
        1   -1    0    0  501    0  0.00000000000E+00  0.00000000000E+00 -0.16611551713E+04  0.16611551713E+04  0.50400001928E-02 0.  1.
    10030    2    1    2    0    0  0.00000000000E+00  0.00000000000E+00 -0.21303732413E+03  0.31092730185E+04  0.31019661188E+04 0.  0.
        1    1    3    3  502    0 -0.37920512605E+03  0.14779152208E+04 -0.38559598783E+03  0.15737579844E+04  0.50400001928E-02 0.  1.
       -1    1    3    3    0  502  0.37920512605E+03 -0.14779152208E+04  0.17255866370E+03  0.15355150341E+04  0.50400001928E-02 0. -1.
</event>
<event>
 5   0  0.7079223E-06  0.2781161E+04  0.7818609E-02  0.8309141E-01
        2   -1    0    0  501    0  0.00000000000E+00  0.00000000000E+00  0.11439493179E+04  0.11439493179E+04  0.25500000920E-02 0. -1.
       -2   -1    0    0    0  501  0.00000000000E+00  0.00000000000E+00 -0.16903843288E+04  0.16903843288E+04  0.25500000920E-02 0.  1.
    10030    2    1    2    0    0  0.00000000000E+00  0.00000000000E+00 -0.54643501094E+03  0.28343336467E+04  0.27811609087E+04 0.  0.
        5    1    3    3  502    0 -0.83225755010E+03 -0.18084679093E+03 -0.13934761485E+04  0.16331429998E+04  0.46999998093E+01 0.  1.
       -5    1    3    3    0  502  0.83225755010E+03  0.18084679093E+03  0.84704113756E+03  0.12011906469E+04  0.46999998093E+01 0. -1.
</event>
<event>
 5   0  0.2393250E-06  0.3120014E+04  0.7818609E-02  0.8210267E-01
       -3   -1    0    0    0  501  0.00000000000E+00  0.00000000000E+00  0.12405079856E+04  0.12405079897E+04  0.10100000352E+00 0. -1.
        3   -1    0    0  501    0  0.00000000000E+00  0.00000000000E+00 -0.19617943116E+04  0.19617943142E+04  0.10100000352E+00 0.  1.
    10030    2    1    2    0    0  0.00000000000E+00  0.00000000000E+00 -0.72128632605E+03  0.32023023039E+04  0.31200137951E+04 0.  0.
        1    1    3    3  502    0  0.64121991069E+03  0.99942512689E+03  0.67777587390E+03  0.13672577275E+04  0.50400001928E-02 0. -1.
       -1    1    3    3    0  502 -0.64121991069E+03 -0.99942512689E+03 -0.13990622000E+04  0.18350445764E+04  0.50400001928E-02 0.  1.
</event>
<event>
 5   0  0.7363513E-06  0.2859987E+04  0.7818609E-02  0.8284883E-01
       -2   -1    0    0    0  501  0.00000000000E+00  0.00000000000E+00  0.12046659079E+04  0.12046659079E+04  0.25500000920E-02 0.  1.
        2   -1    0    0  501    0  0.00000000000E+00  0.00000000000E+00 -0.16974673760E+04  0.16974673760E+04  0.25500000920E-02 0. -1.
    10030    2    1    2    0    0  0.00000000000E+00  0.00000000000E+00 -0.49280146809E+03  0.29021332840E+04  0.28599867676E+04 0.  0.
        4    1    3    3  502    0  0.25317241863E+03 -0.33426324500E+03  0.11408786683E+04  0.12154974040E+04  0.12699999809E+01 0.  1.
       -4    1    3    3    0  502 -0.25317241863E+03  0.33426324500E+03 -0.16336801364E+04  0.16866358799E+04  0.12699999809E+01 0. -1.
</event>
<event>
 5   0  0.7363513E-06  0.2401450E+04  0.7818609E-02  0.8438961E-01
        2   -1    0    0  501    0  0.00000000000E+00  0.00000000000E+00  0.18650681423E+04  0.18650681423E+04  0.25500000920E-02 0.  1.
       -2   -1    0    0    0  501  0.00000000000E+00  0.00000000000E+00 -0.77302315042E+03  0.77302315043E+03  0.25500000920E-02 0. -1.
    10030    2    1    2    0    0  0.00000000000E+00  0.00000000000E+00  0.10920449918E+04  0.26380912927E+04  0.24014502711E+04 0.  0.
        4    1    3    3  502    0  0.83193933495E+03 -0.40849232209E+03  0.13846274812E+04  0.16661884374E+04  0.12699999809E+01 0.  1.
       -4    1    3    3    0  502 -0.83193933495E+03  0.40849232209E+03 -0.29258248934E+03  0.97190285533E+03  0.12699999809E+01 0. -1.
</event>
<event>
 5   0  0.2598987E-06  0.3097106E+04  0.7818609E-02  0.8216533E-01
       -1   -1    0    0    0  501  0.00000000000E+00  0.00000000000E+00  0.27868763491E+04  0.27868763492E+04  0.50400001928E-02 0.  1.
        1   -1    0    0  501    0  0.00000000000E+00  0.00000000000E+00 -0.86046725097E+03  0.86046725098E+03  0.50400001928E-02 0. -1.
    10030    2    1    2    0    0  0.00000000000E+00  0.00000000000E+00  0.19264090982E+04  0.36473436001E+04  0.30971056365E+04 0.  0.
        2    1    3    3  502    0  0.41132756759E+03  0.71668192937E+02  0.27193387321E+04  0.27512051610E+04  0.25500000920E-02 0.  1.
       -2    1    3    3    0  502 -0.41132756759E+03 -0.71668192937E+02 -0.79292963394E+03  0.89613843916E+03  0.25500000920E-02 0. -1.
</event>
<event>
 5   0  0.2624011E-06  0.3058974E+04  0.7818609E-02  0.8227088E-01
       -1   -1    0    0    0  501  0.00000000000E+00  0.00000000000E+00  0.93826921786E+03  0.93826921787E+03  0.50400001928E-02 0. -1.
        1   -1    0    0  501    0  0.00000000000E+00  0.00000000000E+00 -0.24932405636E+04  0.24932405636E+04  0.50400001928E-02 0.  1.
    10030    2    1    2    0    0  0.00000000000E+00  0.00000000000E+00 -0.15549713458E+04  0.34315097815E+04  0.30589742553E+04 0.  0.
        1    1    3    3  502    0 -0.21176410270E+03 -0.27028683716E+03  0.89447446045E+03  0.95811459125E+03  0.50400001928E-02 0. -1.
       -1    1    3    3    0  502  0.21176410270E+03  0.27028683716E+03 -0.24494458062E+04  0.24733951903E+04  0.50400001928E-02 0.  1.
</event>
<event>
 5   0  0.2674441E-06  0.2867564E+04  0.7818609E-02  0.8282594E-01
        1   -1    0    0  501    0  0.00000000000E+00  0.00000000000E+00  0.18284202618E+04  0.18284202618E+04  0.50400001928E-02 0. -1.
       -1   -1    0    0    0  501  0.00000000000E+00  0.00000000000E+00 -0.11243207839E+04  0.11243207839E+04  0.50400001928E-02 0.  1.
    10030    2    1    2    0    0  0.00000000000E+00  0.00000000000E+00  0.70409947790E+03  0.29527410458E+04  0.28675640549E+04 0.  0.
        5    1    3    3  502    0 -0.51457963638E+03  0.13381504379E+04  0.33512949810E+03  0.14723357862E+04  0.46999998093E+01 0. -1.
       -5    1    3    3    0  502  0.51457963638E+03 -0.13381504379E+04  0.36896997981E+03  0.14804052596E+04  0.46999998093E+01 0.  1.
</event>
<event>
 5   0  0.7363513E-06  0.3068324E+04  0.7818609E-02  0.8224485E-01
        2   -1    0    0  501    0  0.00000000000E+00  0.00000000000E+00  0.21769260146E+04  0.21769260146E+04  0.25500000920E-02 0.  1.
       -2   -1    0    0    0  501  0.00000000000E+00  0.00000000000E+00 -0.10811819157E+04  0.10811819157E+04  0.25500000920E-02 0. -1.
    10030    2    1    2    0    0  0.00000000000E+00  0.00000000000E+00  0.10957440989E+04  0.32581079303E+04  0.30683239978E+04 0.  0.
        4    1    3    3  502    0 -0.13484335763E+04  0.68701328112E+03  0.28052322176E+03  0.15391410750E+04  0.12699999809E+01 0. -1.
       -4    1    3    3    0  502  0.13484335763E+04 -0.68701328112E+03  0.81522087715E+03  0.17189668553E+04  0.12699999809E+01 0.  1.
</event>
<event>
 5   0  0.7079223E-06  0.3159010E+04  0.7818609E-02  0.8199727E-01
       -2   -1    0    0    0  501  0.00000000000E+00  0.00000000000E+00  0.15488981632E+04  0.15488981632E+04  0.25500000920E-02 0.  1.
        2   -1    0    0  501    0  0.00000000000E+00  0.00000000000E+00 -0.16107169182E+04  0.16107169182E+04  0.25500000920E-02 0. -1.
    10030    2    1    2    0    0  0.00000000000E+00  0.00000000000E+00 -0.61818754986E+02  0.31596150814E+04  0.31590102729E+04 0.  0.
        5    1    3    3  502    0  0.84211429861E+03 -0.39165460347E+03  0.12469363237E+04  0.15548061313E+04  0.46999998093E+01 0.  1.
       -5    1    3    3    0  502 -0.84211429861E+03  0.39165460347E+03 -0.13087550787E+04  0.16048089501E+04  0.46999998093E+01 0. -1.
</event>
<event>
 5   0  0.7071012E-06  0.3042503E+04  0.7818609E-02  0.8231697E-01
        2   -1    0    0  501    0  0.00000000000E+00  0.00000000000E+00  0.15740155315E+04  0.15740155315E+04  0.25500000920E-02 0. -1.
       -2   -1    0    0    0  501  0.00000000000E+00  0.00000000000E+00 -0.14702563232E+04  0.14702563232E+04  0.25500000920E-02 0.  1.
    10030    2    1    2    0    0  0.00000000000E+00  0.00000000000E+00  0.10375920829E+03  0.30442718546E+04  0.30425031063E+04 0.  0.
        1    1    3    3  502    0  0.47334648028E+03 -0.79953615939E+03  0.12571093576E+04  0.15632142840E+04  0.50400001928E-02 0. -1.
       -1    1    3    3    0  502 -0.47334648028E+03  0.79953615939E+03 -0.11533501494E+04  0.14810575707E+04  0.50400001928E-02 0.  1.
</event>
<event>
 5   0  0.7071012E-06  0.2882883E+04  0.7818609E-02  0.8277988E-01
       -2   -1    0    0    0  501  0.00000000000E+00  0.00000000000E+00  0.77586975126E+03  0.77586975127E+03  0.25500000920E-02 0. -1.
        2   -1    0    0  501    0  0.00000000000E+00  0.00000000000E+00 -0.26779673531E+04  0.26779673531E+04  0.25500000920E-02 0.  1.
    10030    2    1    2    0    0  0.00000000000E+00  0.00000000000E+00 -0.19020976018E+04  0.34538371043E+04  0.28828831847E+04 0.  0.
        1    1    3    3  502    0  0.12871536752E+03 -0.13503119994E+04 -0.15353283058E+04  0.20486930342E+04  0.50400001928E-02 0.  1.
       -1    1    3    3    0  502 -0.12871536752E+03  0.13503119994E+04 -0.36676929598E+03  0.14051440702E+04  0.50400001928E-02 0. -1.
</event>
<event>
 5   0  0.2674441E-06  0.3127921E+04  0.7818609E-02  0.8208117E-01
        1   -1    0    0  501    0  0.00000000000E+00  0.00000000000E+00  0.17603735971E+04  0.17603735971E+04  0.50400001928E-02 0. -1.
       -1   -1    0    0    0  501  0.00000000000E+00  0.00000000000E+00 -0.13894620854E+04  0.13894620854E+04  0.50400001928E-02 0.  1.
    10030    2    1    2    0    0  0.00000000000E+00  0.00000000000E+00  0.37091151172E+03  0.31498356826E+04  0.31279209513E+04 0.  0.
        5    1    3    3  502    0 -0.10594966197E+04  0.11235347232E+04  0.43434506151E+03  0.16042260078E+04  0.46999998093E+01 0. -1.
       -5    1    3    3    0  502  0.10594966197E+04 -0.11235347232E+04 -0.63433549790E+02  0.15456096748E+04  0.46999998093E+01 0.  1.
</event>
<event>
 5   0  0.2674441E-06  0.3106847E+04  0.7818609E-02  0.8213861E-01
       -1   -1    0    0    0  501  0.00000000000E+00  0.00000000000E+00  0.19042704399E+04  0.19042704399E+04  0.50400001928E-02 0.  1.
        1   -1    0    0  501    0  0.00000000000E+00  0.00000000000E+00 -0.12672175742E+04  0.12672175742E+04  0.50400001928E-02 0. -1.
    10030    2    1    2    0    0  0.00000000000E+00  0.00000000000E+00  0.63705286566E+03  0.31714880141E+04  0.31068472556E+04 0.  0.
        5    1    3    3  502    0 -0.27914358204E+03 -0.34666567536E+03 -0.12007279332E+04  0.12805732660E+04  0.46999998093E+01 0. -1.
       -5    1    3    3    0  502  0.27914358204E+03  0.34666567536E+03  0.18377807989E+04  0.18909147481E+04  0.46999998093E+01 0.  1.
</event>
<event>
 5   0  0.7363513E-06  0.2904704E+04  0.7818609E-02  0.8271479E-01
        2   -1    0    0  501    0  0.00000000000E+00  0.00000000000E+00  0.13781798690E+04  0.13781798690E+04  0.25500000920E-02 0. -1.
       -2   -1    0    0    0  501  0.00000000000E+00  0.00000000000E+00 -0.15305154754E+04  0.15305154754E+04  0.25500000920E-02 0.  1.
    10030    2    1    2    0    0  0.00000000000E+00  0.00000000000E+00 -0.15233560637E+03  0.29086953444E+04  0.29047035080E+04 0.  0.
        4    1    3    3  502    0 -0.63019350885E+03  0.11667721536E+04  0.51694921573E+03  0.14232846594E+04  0.12699999809E+01 0.  1.
       -4    1    3    3    0  502  0.63019350885E+03 -0.11667721536E+04 -0.66928482210E+03  0.14854106850E+04  0.12699999809E+01 0. -1.
</event>
<event>
 5   0  0.2612331E-06  0.3046232E+04  0.7818609E-02  0.8230651E-01
        1   -1    0    0  501    0  0.00000000000E+00  0.00000000000E+00  0.23477662919E+04  0.23477662919E+04  0.50400001928E-02 0. -1.
       -1   -1    0    0    0  501  0.00000000000E+00  0.00000000000E+00 -0.98812309431E+03  0.98812309433E+03  0.50400001928E-02 0.  1.
    10030    2    1    2    0    0  0.00000000000E+00  0.00000000000E+00  0.13596431976E+04  0.33358893863E+04  0.30462318317E+04 0.  0.
        4    1    3    3  502    0  0.10606172308E+04 -0.73963039706E+03  0.15612942892E+04  0.20272157026E+04  0.12699999809E+01 0. -1.
       -4    1    3    3    0  502 -0.10606172308E+04  0.73963039706E+03 -0.20165109158E+03  0.13086736836E+04  0.12699999809E+01 0.  1.
</event>
<event>
 5   0  0.7363513E-06  0.2843154E+04  0.7818609E-02  0.8289995E-01
       -2   -1    0    0    0  501  0.00000000000E+00  0.00000000000E+00  0.83270095893E+03  0.83270095893E+03  0.25500000920E-02 0. -1.
        2   -1    0    0  501    0  0.00000000000E+00  0.00000000000E+00 -0.24268986371E+04  0.24268986371E+04  0.25500000920E-02 0.  1.
    10030    2    1    2    0    0  0.00000000000E+00  0.00000000000E+00 -0.15941976782E+04  0.32595995961E+04  0.28431537576E+04 0.  0.
        4    1    3    3  502    0  0.80281003367E+03  0.11361370642E+04 -0.11324649461E+04  0.17938199034E+04  0.12699999809E+01 0.  1.
       -4    1    3    3    0  502 -0.80281003367E+03 -0.11361370642E+04 -0.46173273211E+03  0.14657796927E+04  0.12699999809E+01 0. -1.
</event>
<event>
 5   0  0.2517725E-06  0.3140341E+04  0.7818609E-02  0.8204753E-01
        1   -1    0    0  501    0  0.00000000000E+00  0.00000000000E+00  0.18372177754E+04  0.18372177755E+04  0.50400001928E-02 0.  1.
       -1   -1    0    0    0  501  0.00000000000E+00  0.00000000000E+00 -0.13419398488E+04  0.13419398488E+04  0.50400001928E-02 0. -1.
    10030    2    1    2    0    0  0.00000000000E+00  0.00000000000E+00  0.49527792661E+03  0.31791576243E+04  0.31403412196E+04 0.  0.
        3    1    3    3  502    0  0.10011748576E+04 -0.73582397907E+03 -0.72425233887E+03  0.14381687954E+04  0.10100000352E+00 0. -1.
       -3    1    3    3    0  502 -0.10011748576E+04  0.73582397907E+03  0.12195302655E+04  0.17409888289E+04  0.10100000352E+00 0.  1.
</event>
<event>
 5   0  0.2612331E-06  0.3076287E+04  0.7818609E-02  0.8222276E-01
        1   -1    0    0  501    0  0.00000000000E+00  0.00000000000E+00  0.16030252734E+04  0.16030252734E+04  0.50400001928E-02 0.  1.
       -1   -1    0    0    0  501  0.00000000000E+00  0.00000000000E+00 -0.14758874778E+04  0.14758874778E+04  0.50400001928E-02 0. -1.
    10030    2    1    2    0    0  0.00000000000E+00  0.00000000000E+00  0.12713779559E+03  0.30789127512E+04  0.30762866756E+04 0.  0.
        4    1    3    3  502    0  0.20803205434E+03 -0.82571968287E+03  0.13455967874E+04  0.15923952579E+04  0.12699999809E+01 0.  1.
       -4    1    3    3    0  502 -0.20803205434E+03  0.82571968287E+03 -0.12184589918E+04  0.14865174933E+04  0.12699999809E+01 0. -1.
</event>
<event>
 5   0  0.2598987E-06  0.2662684E+04  0.7818609E-02  0.8347215E-01
        1   -1    0    0  501    0  0.00000000000E+00  0.00000000000E+00  0.23175741330E+04  0.23175741330E+04  0.50400001928E-02 0. -1.
       -1   -1    0    0    0  501  0.00000000000E+00  0.00000000000E+00 -0.76479625818E+03  0.76479625820E+03  0.50400001928E-02 0.  1.
    10030    2    1    2    0    0  0.00000000000E+00  0.00000000000E+00  0.15527778749E+04  0.30823703912E+04  0.26626843786E+04 0.  0.
        2    1    3    3  502    0 -0.53324344869E+03 -0.20705206533E+03  0.21680614755E+04  0.22422554928E+04  0.25500000920E-02 0. -1.
       -2    1    3    3    0  502  0.53324344869E+03  0.20705206533E+03 -0.61528360067E+03  0.84011489844E+03  0.25500000920E-02 0.  1.
</event>
<event>
 5   0  0.7071012E-06  0.3127139E+04  0.7818609E-02  0.8208329E-01
        2   -1    0    0  501    0  0.00000000000E+00  0.00000000000E+00  0.16982064093E+04  0.16982064093E+04  0.25500000920E-02 0. -1.
       -2   -1    0    0    0  501  0.00000000000E+00  0.00000000000E+00 -0.14396065963E+04  0.14396065963E+04  0.25500000920E-02 0.  1.
    10030    2    1    2    0    0  0.00000000000E+00  0.00000000000E+00  0.25859981306E+03  0.31378130056E+04  0.31271387233E+04 0.  0.
        1    1    3    3  502    0 -0.12293296322E+04  0.72969193423E+03  0.76474467704E+03  0.16212760667E+04  0.50400001928E-02 0. -1.
       -1    1    3    3    0  502  0.12293296322E+04 -0.72969193423E+03 -0.50614486397E+03  0.15165369388E+04  0.50400001928E-02 0.  1.
</event>
<event>
 5   0  0.2624011E-06  0.3104899E+04  0.7818609E-02  0.8214395E-01
       -1   -1    0    0    0  501  0.00000000000E+00  0.00000000000E+00  0.13042104763E+04  0.13042104763E+04  0.50400001928E-02 0.  1.
        1   -1    0    0  501    0  0.00000000000E+00  0.00000000000E+00 -0.18479379024E+04  0.18479379024E+04  0.50400001928E-02 0. -1.
    10030    2    1    2    0    0  0.00000000000E+00  0.00000000000E+00 -0.54372742610E+03  0.31521483788E+04  0.31048993362E+04 0.  0.
        1    1    3    3  502    0  0.10569863850E+04  0.72521184911E+03 -0.11609459918E+04  0.17294357577E+04  0.50400001928E-02 0. -1.
       -1    1    3    3    0  502 -0.10569863850E+04 -0.72521184911E+03  0.61721856568E+03  0.14227126210E+04  0.50400001928E-02 0.  1.
</event>
<event>
 5   0  0.7071012E-06  0.2821999E+04  0.7818609E-02  0.8296471E-01
        2   -1    0    0  501    0  0.00000000000E+00  0.00000000000E+00  0.22803894640E+04  0.22803894640E+04  0.25500000920E-02 0. -1.
       -2   -1    0    0    0  501  0.00000000000E+00  0.00000000000E+00 -0.87306147183E+03  0.87306147183E+03  0.25500000920E-02 0.  1.
    10030    2    1    2    0    0  0.00000000000E+00  0.00000000000E+00  0.14073279922E+04  0.31534509359E+04  0.28219994201E+04 0.  0.
        1    1    3    3  502    0  0.12679832734E+04 -0.50639044338E+03  0.11014321494E+04  0.17542421847E+04  0.50400001928E-02 0.  1.
       -1    1    3    3    0  502 -0.12679832734E+04  0.50639044338E+03  0.30589584285E+03  0.13992087512E+04  0.50400001928E-02 0. -1.
</event>
<event>
 5   0  0.7414808E-06  0.3097483E+04  0.7818609E-02  0.8216429E-01
       -2   -1    0    0    0  501  0.00000000000E+00  0.00000000000E+00  0.25409034942E+04  0.25409034942E+04  0.25500000920E-02 0.  1.
        2   -1    0    0  501    0  0.00000000000E+00  0.00000000000E+00 -0.94399502519E+03  0.94399502520E+03  0.25500000920E-02 0. -1.
    10030    2    1    2    0    0  0.00000000000E+00  0.00000000000E+00  0.15969084690E+04  0.34848985194E+04  0.30974830156E+04 0.  0.
        2    1    3    3  502    0  0.14549898163E+04 -0.40989697736E+03  0.41927021198E+03  0.15686932167E+04  0.25500000920E-02 0. -1.
       -2    1    3    3    0  502 -0.14549898163E+04  0.40989697736E+03  0.11776382570E+04  0.19162053027E+04  0.25500000920E-02 0.  1.
</event>
<event>
 5   0  0.7363513E-06  0.3092185E+04  0.7818609E-02  0.8217886E-01
        2   -1    0    0  501    0  0.00000000000E+00  0.00000000000E+00  0.32005416580E+04  0.32005416580E+04  0.25500000920E-02 0. -1.
       -2   -1    0    0    0  501  0.00000000000E+00  0.00000000000E+00 -0.74687433958E+03  0.74687433958E+03  0.25500000920E-02 0.  1.
    10030    2    1    2    0    0  0.00000000000E+00  0.00000000000E+00  0.24536673184E+04  0.39474159976E+04  0.30921852707E+04 0.  0.
        4    1    3    3  502    0 -0.10229392984E+04 -0.10216790433E+04  0.52742734574E+03  0.15389652672E+04  0.12699999809E+01 0. -1.
       -4    1    3    3    0  502  0.10229392984E+04  0.10216790433E+04  0.19262399727E+04  0.24084507304E+04  0.12699999809E+01 0.  1.
</event>
<event>
 5   0  0.2598987E-06  0.3107881E+04  0.7818609E-02  0.8213578E-01
       -1   -1    0    0    0  501  0.00000000000E+00  0.00000000000E+00  0.12389289729E+04  0.12389289729E+04  0.50400001928E-02 0.  1.
        1   -1    0    0  501    0  0.00000000000E+00  0.00000000000E+00 -0.19490468252E+04  0.19490468252E+04  0.50400001928E-02 0. -1.
    10030    2    1    2    0    0  0.00000000000E+00  0.00000000000E+00 -0.71011785236E+03  0.31879757981E+04  0.31078806806E+04 0.  0.
        2    1    3    3  502    0 -0.67616581863E+03  0.13258921246E+04 -0.81327059278E+03  0.16960540078E+04  0.25500000920E-02 0. -1.
       -2    1    3    3    0  502  0.67616581863E+03 -0.13258921246E+04  0.10315274042E+03  0.14919217903E+04  0.25500000920E-02 0.  1.
</event>
<event>
 5   0  0.2624011E-06  0.3026322E+04  0.7818609E-02  0.8236254E-01
        1   -1    0    0  501    0  0.00000000000E+00  0.00000000000E+00  0.15908876512E+04  0.15908876512E+04  0.50400001928E-02 0.  1.
       -1   -1    0    0    0  501  0.00000000000E+00  0.00000000000E+00 -0.14392316498E+04  0.14392316498E+04  0.50400001928E-02 0. -1.
    10030    2    1    2    0    0  0.00000000000E+00  0.00000000000E+00  0.15165600147E+03  0.30301193010E+04  0.30263217667E+04 0.  0.
        1    1    3    3  502    0 -0.56225807405E+03  0.13106339210E+04 -0.43053424030E+03  0.14897164659E+04  0.50400001928E-02 0.  1.
       -1    1    3    3    0  502  0.56225807405E+03 -0.13106339210E+04  0.58219024177E+03  0.15404028351E+04  0.50400001928E-02 0. -1.
</event>
<event>
 5   0  0.7363513E-06  0.3097470E+04  0.7818609E-02  0.8216433E-01
       -2   -1    0    0    0  501  0.00000000000E+00  0.00000000000E+00  0.11141530860E+04  0.11141530860E+04  0.25500000920E-02 0.  1.
        2   -1    0    0  501    0  0.00000000000E+00  0.00000000000E+00 -0.21528274963E+04  0.21528274963E+04  0.25500000920E-02 0. -1.
    10030    2    1    2    0    0  0.00000000000E+00  0.00000000000E+00 -0.10386744103E+04  0.32669805822E+04  0.30974695469E+04 0.  0.
        4    1    3    3  502    0 -0.65081514449E+03  0.10563464335E+04 -0.14969658445E+04  0.19443087441E+04  0.12699999809E+01 0. -1.
       -4    1    3    3    0  502  0.65081514449E+03 -0.10563464335E+04  0.45829143418E+03  0.13226718382E+04  0.12699999809E+01 0.  1.
</event>
<event>
 5   0  0.7094341E-06  0.3130514E+04  0.7818609E-02  0.8207413E-01
        2   -1    0    0  501    0  0.00000000000E+00  0.00000000000E+00  0.12216673137E+04  0.12216673137E+04  0.25500000920E-02 0. -1.
       -2   -1    0    0    0  501  0.00000000000E+00  0.00000000000E+00 -0.20054795374E+04  0.20054795374E+04  0.25500000920E-02 0.  1.
    10030    2    1    2    0    0  0.00000000000E+00  0.00000000000E+00 -0.78381222365E+03  0.32271468511E+04  0.31305135676E+04 0.  0.
        3    1    3    3  502    0 -0.32600367181E+03  0.11646034824E+04 -0.14162847243E+04  0.18623753906E+04  0.10100000352E+00 0.  1.
       -3    1    3    3    0  502  0.32600367181E+03 -0.11646034824E+04  0.63247250063E+03  0.13647714605E+04  0.10100000352E+00 0. -1.
</event>
<event>
 5   0  0.2598987E-06  0.2152997E+04  0.7818609E-02  0.8538250E-01
        1   -1    0    0  501    0  0.00000000000E+00  0.00000000000E+00  0.16580994757E+04  0.16580994757E+04  0.50400001928E-02 0.  1.
       -1   -1    0    0    0  501  0.00000000000E+00  0.00000000000E+00 -0.69890209741E+03  0.69890209743E+03  0.50400001928E-02 0. -1.
    10030    2    1    2    0    0  0.00000000000E+00  0.00000000000E+00  0.95919737824E+03  0.23570015731E+04  0.21529971679E+04 0.  0.
        2    1    3    3  502    0 -0.10470492353E+04  0.23732835798E+03  0.39331188350E+03  0.11433858003E+04  0.25500000920E-02 0. -1.
       -2    1    3    3    0  502  0.10470492353E+04 -0.23732835798E+03  0.56588549474E+03  0.12136157728E+04  0.25500000920E-02 0.  1.
</event>
<event>
 5   0  0.2517725E-06  0.3105969E+04  0.7818609E-02  0.8214102E-01
       -1   -1    0    0    0  501  0.00000000000E+00  0.00000000000E+00  0.10105562803E+04  0.10105562803E+04  0.50400001928E-02 0.  1.
        1   -1    0    0  501    0  0.00000000000E+00  0.00000000000E+00 -0.23865682561E+04  0.23865682561E+04  0.50400001928E-02 0. -1.
    10030    2    1    2    0    0  0.00000000000E+00  0.00000000000E+00 -0.13760119758E+04  0.33971245365E+04  0.31059694394E+04 0.  0.
        3    1    3    3  502    0 -0.14662950061E+04  0.16221411871E+03 -0.15731405803E+03  0.14836044581E+04  0.10100000352E+00 0.  1.
       -3    1    3    3    0  502  0.14662950061E+04 -0.16221411871E+03 -0.12186979178E+04  0.19135200783E+04  0.10100000352E+00 0. -1.
</event>
<event>
 5   0  0.7414808E-06  0.3113732E+04  0.7818609E-02  0.8211979E-01
       -2   -1    0    0    0  501  0.00000000000E+00  0.00000000000E+00  0.11096338982E+04  0.11096338982E+04  0.25500000920E-02 0. -1.
        2   -1    0    0  501    0  0.00000000000E+00  0.00000000000E+00 -0.21843522366E+04  0.21843522366E+04  0.25500000920E-02 0.  1.
    10030    2    1    2    0    0  0.00000000000E+00  0.00000000000E+00 -0.10747183384E+04  0.32939861348E+04  0.31137317080E+04 0.  0.
        2    1    3    3  502    0 -0.32262110435E+03  0.15032912178E+04 -0.79619102707E+03  0.17314413112E+04  0.25500000920E-02 0.  1.
       -2    1    3    3    0  502  0.32262110435E+03 -0.15032912178E+04 -0.27852731130E+03  0.15625448236E+04  0.25500000920E-02 0. -1.
</event>
<event>
 5   0  0.7363513E-06  0.3126371E+04  0.7818609E-02  0.8208538E-01
        2   -1    0    0  501    0  0.00000000000E+00  0.00000000000E+00  0.19032074804E+04  0.19032074804E+04  0.25500000920E-02 0. -1.
       -2   -1    0    0    0  501  0.00000000000E+00  0.00000000000E+00 -0.12839108465E+04  0.12839108465E+04  0.25500000920E-02 0.  1.
    10030    2    1    2    0    0  0.00000000000E+00  0.00000000000E+00  0.61929663390E+03  0.31871183269E+04  0.31263708848E+04 0.  0.
        4    1    3    3  502    0  0.49372948487E+03  0.11661161652E+04  0.12439449184E+04  0.17751045851E+04  0.12699999809E+01 0. -1.
       -4    1    3    3    0  502 -0.49372948487E+03 -0.11661161652E+04 -0.62464828451E+03  0.14120137419E+04  0.12699999809E+01 0.  1.
</event>
<event>
 5   0  0.2624011E-06  0.2962726E+04  0.7818609E-02  0.8254455E-01
        1   -1    0    0  501    0  0.00000000000E+00  0.00000000000E+00  0.20784196984E+04  0.20784196985E+04  0.50400001928E-02 0. -1.
       -1   -1    0    0    0  501  0.00000000000E+00  0.00000000000E+00 -0.10558198517E+04  0.10558198517E+04  0.50400001928E-02 0.  1.
    10030    2    1    2    0    0  0.00000000000E+00  0.00000000000E+00  0.10225998467E+04  0.31342395502E+04  0.29627262971E+04 0.  0.
        1    1    3    3  502    0  0.81841500246E+01  0.14644012214E+04  0.27498781886E+03  0.14900188650E+04  0.50400001928E-02 0.  1.
       -1    1    3    3    0  502 -0.81841500246E+01 -0.14644012214E+04  0.74761202787E+03  0.16442206852E+04  0.50400001928E-02 0. -1.
</event>
<event>
 5   0  0.2624011E-06  0.3108484E+04  0.7818609E-02  0.8213413E-01
        1   -1    0    0  501    0  0.00000000000E+00  0.00000000000E+00  0.10602010990E+04  0.10602010990E+04  0.50400001928E-02 0.  1.
       -1   -1    0    0    0  501  0.00000000000E+00  0.00000000000E+00 -0.22784999754E+04  0.22784999754E+04  0.50400001928E-02 0. -1.
    10030    2    1    2    0    0  0.00000000000E+00  0.00000000000E+00 -0.12182988764E+04  0.33387010744E+04  0.31084839894E+04 0.  0.
        1    1    3    3  502    0 -0.15171838666E+04  0.19459998269E+03 -0.90515434402E+03  0.17773633350E+04  0.50400001928E-02 0. -1.
       -1    1    3    3    0  502  0.15171838666E+04 -0.19459998269E+03 -0.31314453241E+03  0.15613377394E+04  0.50400001928E-02 0.  1.
</event>
<event>
 5   0  0.7094341E-06  0.3001417E+04  0.7818609E-02  0.8243326E-01
       -2   -1    0    0    0  501  0.00000000000E+00  0.00000000000E+00  0.97604774208E+03  0.97604774208E+03  0.25500000920E-02 0.  1.
        2   -1    0    0  501    0  0.00000000000E+00  0.00000000000E+00 -0.23073931994E+04  0.23073931994E+04  0.25500000920E-02 0. -1.
    10030    2    1    2    0    0  0.00000000000E+00  0.00000000000E+00 -0.13313454573E+04  0.32834409415E+04  0.30014169469E+04 0.  0.
        3    1    3    3  502    0  0.96694855053E+03 -0.60257207221E+03  0.40285777385E+03  0.12084605901E+04  0.10100000352E+00 0.  1.
       -3    1    3    3    0  502 -0.96694855053E+03  0.60257207221E+03 -0.17342032311E+04  0.20749803514E+04  0.10100000352E+00 0. -1.
</event>
<event>
 5   0  0.2612331E-06  0.3023680E+04  0.7818609E-02  0.8237001E-01
       -1   -1    0    0    0  501  0.00000000000E+00  0.00000000000E+00  0.13539115387E+04  0.13539115387E+04  0.50400001928E-02 0.  1.
        1   -1    0    0  501    0  0.00000000000E+00  0.00000000000E+00 -0.16881901728E+04  0.16881901728E+04  0.50400001928E-02 0. -1.
    10030    2    1    2    0    0  0.00000000000E+00  0.00000000000E+00 -0.33427863412E+03  0.30421017114E+04  0.30236799794E+04 0.  0.
        4    1    3    3  502    0  0.10097803599E+04 -0.10830857897E+04  0.13955777306E+03  0.14873497194E+04  0.12699999809E+01 0.  1.
       -4    1    3    3    0  502 -0.10097803599E+04  0.10830857897E+04 -0.47383640719E+03  0.15547519920E+04  0.12699999809E+01 0. -1.
</event>
<event>
 5   0  0.2624011E-06  0.3061035E+04  0.7818609E-02  0.8226514E-01
       -1   -1    0    0    0  501  0.00000000000E+00  0.00000000000E+00  0.10358389244E+04  0.10358389244E+04  0.50400001928E-02 0. -1.
        1   -1    0    0  501    0  0.00000000000E+00  0.00000000000E+00 -0.22614362236E+04  0.22614362236E+04  0.50400001928E-02 0.  1.
    10030    2    1    2    0    0  0.00000000000E+00  0.00000000000E+00 -0.12255972992E+04  0.32972751480E+04  0.30610349005E+04 0.  0.
        1    1    3    3  502    0  0.83224447777E+03 -0.86692449414E+03  0.40813220808E+03  0.12691575350E+04  0.50400001928E-02 0. -1.
       -1    1    3    3    0  502 -0.83224447777E+03  0.86692449414E+03 -0.16337295073E+04  0.20281176131E+04  0.50400001928E-02 0.  1.
</event>
<event>
 5   0  0.2624011E-06  0.2734286E+04  0.7818609E-02  0.8323965E-01
       -1   -1    0    0    0  501  0.00000000000E+00  0.00000000000E+00  0.73945911120E+03  0.73945911122E+03  0.50400001928E-02 0. -1.
        1   -1    0    0  501    0  0.00000000000E+00  0.00000000000E+00 -0.25276308473E+04  0.25276308473E+04  0.50400001928E-02 0.  1.
    10030    2    1    2    0    0  0.00000000000E+00  0.00000000000E+00 -0.17881717361E+04  0.32670899586E+04  0.27342857640E+04 0.  0.
        1    1    3    3  502    0  0.26361221630E+02 -0.12192703840E+04 -0.16323554052E+04  0.20376210031E+04  0.50400001928E-02 0.  1.
       -1    1    3    3    0  502 -0.26361221630E+02  0.12192703840E+04 -0.15581633091E+03  0.12294689554E+04  0.50400001928E-02 0. -1.
</event>
<event>
 5   0  0.2517725E-06  0.2636774E+04  0.7818609E-02  0.8355816E-01
       -1   -1    0    0    0  501  0.00000000000E+00  0.00000000000E+00  0.24052688238E+04  0.24052688238E+04  0.50400001928E-02 0.  1.
        1   -1    0    0  501    0  0.00000000000E+00  0.00000000000E+00 -0.72264022971E+03  0.72264022973E+03  0.50400001928E-02 0. -1.
    10030    2    1    2    0    0  0.00000000000E+00  0.00000000000E+00  0.16826285941E+04  0.31279090535E+04  0.26367737979E+04 0.  0.
        3    1    3    3  502    0  0.18111604416E+03 -0.16748643002E+03 -0.69501824001E+03  0.73749921345E+03  0.10100000352E+00 0. -1.
       -3    1    3    3    0  502 -0.18111604416E+03  0.16748643002E+03  0.23776468341E+04  0.23904098401E+04  0.10100000352E+00 0.  1.
</event>
<event>
 5   0  0.7079223E-06  0.3155824E+04  0.7818609E-02  0.8200582E-01
        2   -1    0    0  501    0  0.00000000000E+00  0.00000000000E+00  0.26228044407E+04  0.26228044407E+04  0.25500000920E-02 0.  1.
       -2   -1    0    0    0  501  0.00000000000E+00  0.00000000000E+00 -0.94929161013E+03  0.94929161013E+03  0.25500000920E-02 0. -1.
    10030    2    1    2    0    0  0.00000000000E+00  0.00000000000E+00  0.16735128305E+04  0.35720960508E+04  0.31558239815E+04 0.  0.
        5    1    3    3  502    0 -0.26722482055E+02 -0.32343577540E+01  0.26225366209E+04  0.26226789682E+04  0.46999998093E+01 0.  1.
       -5    1    3    3    0  502  0.26722482055E+02  0.32343577540E+01 -0.94902379036E+03  0.94941708263E+03  0.46999998093E+01 0. -1.
</event>
<event>
 5   0  0.2612331E-06  0.3100556E+04  0.7818609E-02  0.8215585E-01
        1   -1    0    0  501    0  0.00000000000E+00  0.00000000000E+00  0.14014450704E+04  0.14014450704E+04  0.50400001928E-02 0.  1.
       -1   -1    0    0    0  501  0.00000000000E+00  0.00000000000E+00 -0.17149165367E+04  0.17149165367E+04  0.50400001928E-02 0. -1.
    10030    2    1    2    0    0  0.00000000000E+00  0.00000000000E+00 -0.31347146632E+03  0.31163616072E+04  0.31005556448E+04 0.  0.
        4    1    3    3  502    0  0.10063945031E+04 -0.95177721452E+03  0.54298122954E+03  0.14877970260E+04  0.12699999809E+01 0.  1.
       -4    1    3    3    0  502 -0.10063945031E+04  0.95177721452E+03 -0.85645269586E+03  0.16285645812E+04  0.12699999809E+01 0. -1.
</event>
<event>
 5   0  0.2624011E-06  0.3062845E+04  0.7818609E-02  0.8226009E-01
        1   -1    0    0  501    0  0.00000000000E+00  0.00000000000E+00  0.17532469961E+04  0.17532469961E+04  0.50400001928E-02 0.  1.
       -1   -1    0    0    0  501  0.00000000000E+00  0.00000000000E+00 -0.13376632960E+04  0.13376632960E+04  0.50400001928E-02 0. -1.
    10030    2    1    2    0    0  0.00000000000E+00  0.00000000000E+00  0.41558370015E+03  0.30909102921E+04  0.30628445312E+04 0.  0.
        1    1    3    3  502    0  0.52861592477E+03  0.13970829628E+04  0.54849254603E+03  0.15912635463E+04  0.50400001928E-02 0. -1.
       -1    1    3    3    0  502 -0.52861592477E+03 -0.13970829628E+04 -0.13290884587E+03  0.14996467458E+04  0.50400001928E-02 0.  1.
</event>
<event>
 5   0  0.2624011E-06  0.1934568E+04  0.7818609E-02  0.8637838E-01
        1   -1    0    0  501    0  0.00000000000E+00  0.00000000000E+00  0.12121659991E+04  0.12121659991E+04  0.50400001928E-02 0.  1.
       -1   -1    0    0    0  501  0.00000000000E+00  0.00000000000E+00 -0.77187315123E+03  0.77187315125E+03  0.50400001928E-02 0. -1.
    10030    2    1    2    0    0  0.00000000000E+00  0.00000000000E+00  0.44029284789E+03  0.19840391504E+04  0.19345680547E+04 0.  0.
        1    1    3    3  502    0  0.34231984312E+03 -0.89849916566E+03  0.11182947551E+03  0.96798215753E+03  0.50400001928E-02 0. -1.
       -1    1    3    3    0  502 -0.34231984312E+03  0.89849916566E+03  0.32846337238E+03  0.10160569928E+04  0.50400001928E-02 0.  1.
</event>
<event>
 5   0  0.7079223E-06  0.2926736E+04  0.7818609E-02  0.8264967E-01
       -2   -1    0    0    0  501  0.00000000000E+00  0.00000000000E+00  0.14415543710E+04  0.14415543710E+04  0.25500000920E-02 0.  1.
        2   -1    0    0  501    0  0.00000000000E+00  0.00000000000E+00 -0.14855120230E+04  0.14855120230E+04  0.25500000920E-02 0. -1.
    10030    2    1    2    0    0  0.00000000000E+00  0.00000000000E+00 -0.43957652055E+02  0.29270663940E+04  0.29267363051E+04 0.  0.
        5    1    3    3  502    0 -0.55026970840E+02 -0.27307694677E+03 -0.14587428402E+04  0.14851100129E+04  0.46999998093E+01 0. -1.
       -5    1    3    3    0  502  0.55026970840E+02  0.27307694677E+03  0.14147851882E+04  0.14419563811E+04  0.46999998093E+01 0.  1.
</event>
<event>
 5   0  0.7363513E-06  0.3125680E+04  0.7818609E-02  0.8208725E-01
       -2   -1    0    0    0  501  0.00000000000E+00  0.00000000000E+00  0.21883747995E+04  0.21883747995E+04  0.25500000920E-02 0. -1.
        2   -1    0    0  501    0  0.00000000000E+00  0.00000000000E+00 -0.11161108814E+04  0.11161108814E+04  0.25500000920E-02 0.  1.
    10030    2    1    2    0    0  0.00000000000E+00  0.00000000000E+00  0.10722639181E+04  0.33044856809E+04  0.31256800388E+04 0.  0.
        4    1    3    3  502    0  0.16932752283E+03  0.87938611249E+03  0.18902116939E+04  0.20916246330E+04  0.12699999809E+01 0. -1.
       -4    1    3    3    0  502 -0.16932752283E+03 -0.87938611249E+03 -0.81794777572E+03  0.12128610479E+04  0.12699999809E+01 0.  1.
</event>
<event>
 5   0  0.2674441E-06  0.3014211E+04  0.7818609E-02  0.8239685E-01
       -1   -1    0    0    0  501  0.00000000000E+00  0.00000000000E+00  0.11057799741E+04  0.11057799741E+04  0.50400001928E-02 0.  1.
        1   -1    0    0  501    0  0.00000000000E+00  0.00000000000E+00 -0.20540852354E+04  0.20540852354E+04  0.50400001928E-02 0. -1.
    10030    2    1    2    0    0  0.00000000000E+00  0.00000000000E+00 -0.94830526122E+03  0.31598652095E+04  0.30142105556E+04 0.  0.
        5    1    3    3  502    0 -0.13987133747E+04 -0.12011735170E+03 -0.10488370913E+04  0.17524008151E+04  0.46999998093E+01 0. -1.
       -5    1    3    3    0  502  0.13987133747E+04  0.12011735170E+03  0.10053183008E+03  0.14074643944E+04  0.46999998093E+01 0.  1.
</event>
<event>
 5   0  0.7363513E-06  0.2013739E+04  0.7818609E-02  0.8600224E-01
        2   -1    0    0  501    0  0.00000000000E+00  0.00000000000E+00  0.15882529419E+04  0.15882529419E+04  0.25500000920E-02 0. -1.
       -2   -1    0    0    0  501  0.00000000000E+00  0.00000000000E+00 -0.63830277529E+03  0.63830277529E+03  0.25500000920E-02 0.  1.
    10030    2    1    2    0    0  0.00000000000E+00  0.00000000000E+00  0.94995016660E+03  0.22265557172E+04  0.20137390702E+04 0.  0.
        4    1    3    3  502    0  0.50106884963E+03  0.86463120091E+03  0.33898270893E+03  0.10552573125E+04  0.12699999809E+01 0. -1.
       -4    1    3    3    0  502 -0.50106884963E+03 -0.86463120091E+03  0.61096745766E+03  0.11712984047E+04  0.12699999809E+01 0.  1.
</event>
<event>
 5   0  0.2517725E-06  0.2771379E+04  0.7818609E-02  0.8312210E-01
       -1   -1    0    0    0  501  0.00000000000E+00  0.00000000000E+00  0.71752707556E+03  0.71752707558E+03  0.50400001928E-02 0. -1.
        1   -1    0    0  501    0  0.00000000000E+00  0.00000000000E+00 -0.26760449925E+04  0.26760449925E+04  0.50400001928E-02 0.  1.
    10030    2    1    2    0    0  0.00000000000E+00  0.00000000000E+00 -0.19585179170E+04  0.33935720681E+04  0.27713785289E+04 0.  0.
        3    1    3    3  502    0 -0.70733375121E+02  0.38911783411E+03  0.64694833375E+03  0.75825988680E+03  0.10100000352E+00 0. -1.
       -3    1    3    3    0  502  0.70733375121E+02 -0.38911783411E+03 -0.26054662507E+04  0.26353121813E+04  0.10100000352E+00 0.  1.
</event>
<event>
 5   0  0.7414808E-06  0.3042862E+04  0.7818609E-02  0.8231596E-01
        2   -1    0    0  501    0  0.00000000000E+00  0.00000000000E+00  0.14014148171E+04  0.14014148171E+04  0.25500000920E-02 0.  1.
       -2   -1    0    0    0  501  0.00000000000E+00  0.00000000000E+00 -0.16517252468E+04  0.16517252468E+04  0.25500000920E-02 0. -1.
    10030    2    1    2    0    0  0.00000000000E+00  0.00000000000E+00 -0.25031042966E+03  0.30531400639E+04  0.30428619651E+04 0.  0.
        2    1    3    3  502    0  0.29656903115E+03  0.12329161728E+04  0.71834883192E+03  0.14574157004E+04  0.25500000920E-02 0. -1.
       -2    1    3    3    0  502 -0.29656903115E+03 -0.12329161728E+04 -0.96865926159E+03  0.15957243636E+04  0.25500000920E-02 0.  1.
</event>
<event>
 5   0  0.7071012E-06  0.3164049E+04  0.7818609E-02  0.8198377E-01
        2   -1    0    0  501    0  0.00000000000E+00  0.00000000000E+00  0.15341171169E+04  0.15341171170E+04  0.25500000920E-02 0.  1.
       -2   -1    0    0    0  501  0.00000000000E+00  0.00000000000E+00 -0.16314280163E+04  0.16314280163E+04  0.25500000920E-02 0. -1.
    10030    2    1    2    0    0  0.00000000000E+00  0.00000000000E+00 -0.97310899324E+02  0.31655451332E+04  0.31640490798E+04 0.  0.
        1    1    3    3  502    0  0.76475666794E+03 -0.24730112003E+02 -0.14339896615E+04  0.16253586339E+04  0.50400001928E-02 0. -1.
       -1    1    3    3    0  502 -0.76475666794E+03  0.24730112003E+02  0.13366787621E+04  0.15401864993E+04  0.50400001928E-02 0.  1.
</event>
<event>
 5   0  0.2612331E-06  0.3080922E+04  0.7818609E-02  0.8220993E-01
        1   -1    0    0  501    0  0.00000000000E+00  0.00000000000E+00  0.13631685173E+04  0.13631685174E+04  0.50400001928E-02 0.  1.
       -1   -1    0    0    0  501  0.00000000000E+00  0.00000000000E+00 -0.17408121293E+04  0.17408121293E+04  0.50400001928E-02 0. -1.
    10030    2    1    2    0    0  0.00000000000E+00  0.00000000000E+00 -0.37764361193E+03  0.31039806466E+04  0.30809221277E+04 0.  0.
        4    1    3    3  502    0  0.60935938089E+03  0.75532384766E+03  0.10164535549E+04  0.14053513483E+04  0.12699999809E+01 0.  1.
       -4    1    3    3    0  502 -0.60935938089E+03 -0.75532384766E+03 -0.13940971668E+04  0.16986292984E+04  0.12699999809E+01 0. -1.
</event>
<event>
 5   0  0.7071012E-06  0.3069393E+04  0.7818609E-02  0.8224188E-01
        2   -1    0    0  501    0  0.00000000000E+00  0.00000000000E+00  0.21261331702E+04  0.21261331702E+04  0.25500000920E-02 0. -1.
       -2   -1    0    0    0  501  0.00000000000E+00  0.00000000000E+00 -0.11077826730E+04  0.11077826730E+04  0.25500000920E-02 0.  1.
    10030    2    1    2    0    0  0.00000000000E+00  0.00000000000E+00  0.10183504972E+04  0.32339158431E+04  0.30693930907E+04 0.  0.
        1    1    3    3  502    0 -0.11708555536E+04 -0.36258397195E+03  0.14822165489E+04  0.19233657380E+04  0.50400001928E-02 0. -1.
       -1    1    3    3    0  502  0.11708555536E+04  0.36258397195E+03 -0.46386605167E+03  0.13105501052E+04  0.50400001928E-02 0.  1.
</event>
<event>
 5   0  0.2598987E-06  0.3103394E+04  0.7818609E-02  0.8214807E-01
        1   -1    0    0  501    0  0.00000000000E+00  0.00000000000E+00  0.16209775783E+04  0.16209775783E+04  0.50400001928E-02 0.  1.
       -1   -1    0    0    0  501  0.00000000000E+00  0.00000000000E+00 -0.14853774022E+04  0.14853774022E+04  0.50400001928E-02 0. -1.
    10030    2    1    2    0    0  0.00000000000E+00  0.00000000000E+00  0.13560017604E+03  0.31063549805E+04  0.31033939255E+04 0.  0.
        2    1    3    3  502    0  0.11169600563E+04  0.99297849246E+03  0.48551997979E+03  0.15714120099E+04  0.25500000920E-02 0.  1.
       -2    1    3    3    0  502 -0.11169600563E+04 -0.99297849246E+03 -0.34991980374E+03  0.15349429706E+04  0.25500000920E-02 0. -1.
</event>
<event>
 5   0  0.7363513E-06  0.1949738E+04  0.7818609E-02  0.8630487E-01
        2   -1    0    0  501    0  0.00000000000E+00  0.00000000000E+00  0.16338706530E+04  0.16338706530E+04  0.25500000920E-02 0. -1.
       -2   -1    0    0    0  501  0.00000000000E+00  0.00000000000E+00 -0.58166777050E+03  0.58166777051E+03  0.25500000920E-02 0.  1.
    10030    2    1    2    0    0  0.00000000000E+00  0.00000000000E+00  0.10522028825E+04  0.22155384235E+04  0.19497383415E+04 0.  0.
        4    1    3    3  502    0  0.84469580156E+02 -0.55290054587E+03 -0.38120644403E+03  0.67687080707E+03  0.12699999809E+01 0.  1.
       -4    1    3    3    0  502 -0.84469580156E+02  0.55290054587E+03  0.14334093266E+04  0.15386676165E+04  0.12699999809E+01 0. -1.
</event>
<event>
 5   0  0.7094341E-06  0.3164715E+04  0.7818609E-02  0.8198199E-01
        2   -1    0    0  501    0  0.00000000000E+00  0.00000000000E+00  0.19247136627E+04  0.19247136627E+04  0.25500000920E-02 0.  1.
       -2   -1    0    0    0  501  0.00000000000E+00  0.00000000000E+00 -0.13008972828E+04  0.13008972828E+04  0.25500000920E-02 0. -1.
    10030    2    1    2    0    0  0.00000000000E+00  0.00000000000E+00  0.62381637991E+03  0.32256109455E+04  0.31647146942E+04 0.  0.
        3    1    3    3  502    0 -0.14912766833E+04  0.49286518027E+03  0.50804952302E+03  0.16507381864E+04  0.10100000352E+00 0. -1.
       -3    1    3    3    0  502  0.14912766833E+04 -0.49286518027E+03  0.11576685689E+03  0.15748727591E+04  0.10100000352E+00 0.  1.
</event>
<event>
 5   0  0.2598987E-06  0.2583430E+04  0.7818609E-02  0.8373852E-01
        1   -1    0    0  501    0  0.00000000000E+00  0.00000000000E+00  0.68460624568E+03  0.68460624570E+03  0.50400001928E-02 0.  1.
       -1   -1    0    0    0  501  0.00000000000E+00  0.00000000000E+00 -0.24372077570E+04  0.24372077570E+04  0.50400001928E-02 0. -1.
    10030    2    1    2    0    0  0.00000000000E+00  0.00000000000E+00 -0.17526015113E+04  0.31218140027E+04  0.25834300087E+04 0.  0.
        2    1    3    3  502    0 -0.34763014121E+03  0.11927546975E+04 -0.44903788460E+03  0.13210395548E+04  0.25500000920E-02 0.  1.
       -2    1    3    3    0  502  0.34763014121E+03 -0.11927546975E+04 -0.13035636267E+04  0.18007744480E+04  0.25500000920E-02 0. -1.
</event>
<event>
 5   0  0.2612331E-06  0.3031657E+04  0.7818609E-02  0.8234748E-01
        1   -1    0    0  501    0  0.00000000000E+00  0.00000000000E+00  0.19236199332E+04  0.19236199332E+04  0.50400001928E-02 0.  1.
       -1   -1    0    0    0  501  0.00000000000E+00  0.00000000000E+00 -0.11944852556E+04  0.11944852556E+04  0.50400001928E-02 0. -1.
    10030    2    1    2    0    0  0.00000000000E+00  0.00000000000E+00  0.72913467761E+03  0.31181051888E+04  0.30316567402E+04 0.  0.
        4    1    3    3  502    0 -0.11599595728E+03  0.55511833087E+03 -0.10812641500E+04  0.12209607686E+04  0.12699999809E+01 0. -1.
       -4    1    3    3    0  502  0.11599595728E+03 -0.55511833087E+03  0.18103988276E+04  0.18971444202E+04  0.12699999809E+01 0.  1.
</event>
<event>
 5   0  0.2517725E-06  0.3075079E+04  0.7818609E-02  0.8222611E-01
        1   -1    0    0  501    0  0.00000000000E+00  0.00000000000E+00  0.15478720010E+04  0.15478720010E+04  0.50400001928E-02 0. -1.
       -1   -1    0    0    0  501  0.00000000000E+00  0.00000000000E+00 -0.15272757650E+04  0.15272757651E+04  0.50400001928E-02 0.  1.
    10030    2    1    2    0    0  0.00000000000E+00  0.00000000000E+00  0.20596235988E+02  0.30751477661E+04  0.30750787922E+04 0.  0.
        3    1    3    3  502    0  0.11879302821E+04  0.13585272266E+03 -0.95636365549E+03  0.15310995294E+04  0.10100000352E+00 0.  1.
       -3    1    3    3    0  502 -0.11879302821E+04 -0.13585272266E+03  0.97695989148E+03  0.15440482366E+04  0.10100000352E+00 0. -1.
</event>
<event>
 5   0  0.2517725E-06  0.3189718E+04  0.7818609E-02  0.8191538E-01
       -1   -1    0    0    0  501  0.00000000000E+00  0.00000000000E+00  0.12366861006E+04  0.12366861006E+04  0.50400001928E-02 0.  1.
        1   -1    0    0  501    0  0.00000000000E+00  0.00000000000E+00 -0.20567671564E+04  0.20567671564E+04  0.50400001928E-02 0. -1.
    10030    2    1    2    0    0  0.00000000000E+00  0.00000000000E+00 -0.82008105583E+03  0.32934532570E+04  0.31897180781E+04 0.  0.
        3    1    3    3  502    0  0.48554783570E+03  0.83389160223E+03  0.90107647346E+03  0.13202540385E+04  0.10100000352E+00 0.  1.
       -3    1    3    3    0  502 -0.48554783570E+03 -0.83389160223E+03 -0.17211575293E+04  0.19731992185E+04  0.10100000352E+00 0. -1.
</event>
<event>
 5   0  0.7071012E-06  0.3020107E+04  0.7818609E-02  0.8238012E-01
        2   -1    0    0  501    0  0.00000000000E+00  0.00000000000E+00  0.29579242552E+04  0.29579242552E+04  0.25500000920E-02 0. -1.
       -2   -1    0    0    0  501  0.00000000000E+00  0.00000000000E+00 -0.77089919427E+03  0.77089919427E+03  0.25500000920E-02 0.  1.
    10030    2    1    2    0    0  0.00000000000E+00  0.00000000000E+00  0.21870250609E+04  0.37288234495E+04  0.30201069021E+04 0.  0.
        1    1    3    3  502    0 -0.31387940152E+03 -0.27594509165E+01 -0.73017470546E+03  0.79478487264E+03  0.50400001928E-02 0.  1.
       -1    1    3    3    0  502  0.31387940152E+03  0.27594509165E+01  0.29171997664E+04  0.29340385768E+04  0.50400001928E-02 0. -1.
</event>
<event>
 5   0  0.7079223E-06  0.3097795E+04  0.7818609E-02  0.8216343E-01
        2   -1    0    0  501    0  0.00000000000E+00  0.00000000000E+00  0.20857130956E+04  0.20857130956E+04  0.25500000920E-02 0. -1.
       -2   -1    0    0    0  501  0.00000000000E+00  0.00000000000E+00 -0.11502460745E+04  0.11502460745E+04  0.25500000920E-02 0.  1.
    10030    2    1    2    0    0  0.00000000000E+00  0.00000000000E+00  0.93546702113E+03  0.32359591701E+04  0.30977948936E+04 0.  0.
        5    1    3    3  502    0 -0.72076355486E+02  0.80070778188E+03 -0.91522224913E+03  0.12181879199E+04  0.46999998093E+01 0.  1.
       -5    1    3    3    0  502  0.72076355486E+02 -0.80070778188E+03  0.18506892703E+04  0.20177712502E+04  0.46999998093E+01 0. -1.
</event>
<event>
 5   0  0.7414808E-06  0.2909681E+04  0.7818609E-02  0.8270003E-01
        2   -1    0    0  501    0  0.00000000000E+00  0.00000000000E+00  0.14373784437E+04  0.14373784437E+04  0.25500000920E-02 0. -1.
       -2   -1    0    0    0  501  0.00000000000E+00  0.00000000000E+00 -0.14725149080E+04  0.14725149080E+04  0.25500000920E-02 0.  1.
    10030    2    1    2    0    0  0.00000000000E+00  0.00000000000E+00 -0.35136464317E+02  0.29098933517E+04  0.29096812106E+04 0.  0.
        2    1    3    3  502    0 -0.11428209284E+04 -0.89984794151E+03  0.10633017913E+02  0.14546061506E+04  0.25500000920E-02 0. -1.
       -2    1    3    3    0  502  0.11428209284E+04  0.89984794151E+03 -0.45769482230E+02  0.14552872011E+04  0.25500000920E-02 0.  1.
</event>
<event>
 5   0  0.2624011E-06  0.3168196E+04  0.7818609E-02  0.8197267E-01
        1   -1    0    0  501    0  0.00000000000E+00  0.00000000000E+00  0.23446831248E+04  0.23446831248E+04  0.50400001928E-02 0.  1.
       -1   -1    0    0    0  501  0.00000000000E+00  0.00000000000E+00 -0.10702369792E+04  0.10702369792E+04  0.50400001928E-02 0. -1.
    10030    2    1    2    0    0  0.00000000000E+00  0.00000000000E+00  0.12744461456E+04  0.34149201040E+04  0.31681960701E+04 0.  0.
        1    1    3    3  502    0 -0.49518724254E+03  0.14371134873E+04  0.15655717572E+03  0.15280758259E+04  0.50400001928E-02 0. -1.
       -1    1    3    3    0  502  0.49518724254E+03 -0.14371134873E+04  0.11178889699E+04  0.18868442780E+04  0.50400001928E-02 0.  1.
</event>
<event>
 5   0  0.7414808E-06  0.3150969E+04  0.7818609E-02  0.8201887E-01
       -2   -1    0    0    0  501  0.00000000000E+00  0.00000000000E+00  0.10183822428E+04  0.10183822429E+04  0.25500000920E-02 0. -1.
        2   -1    0    0  501    0  0.00000000000E+00  0.00000000000E+00 -0.24373482545E+04  0.24373482545E+04  0.25500000920E-02 0.  1.
    10030    2    1    2    0    0  0.00000000000E+00  0.00000000000E+00 -0.14189660116E+04  0.34557304973E+04  0.31509694902E+04 0.  0.
        2    1    3    3  502    0 -0.49252822049E+03 -0.14949568736E+04 -0.78444667001E+03  0.17586462635E+04  0.25500000920E-02 0. -1.
       -2    1    3    3    0  502  0.49252822049E+03  0.14949568736E+04 -0.63451934163E+03  0.16970842339E+04  0.25500000920E-02 0.  1.
</event>
<event>
 5   0  0.2624011E-06  0.3116605E+04  0.7818609E-02  0.8211195E-01
       -1   -1    0    0    0  501  0.00000000000E+00  0.00000000000E+00  0.23079891741E+04  0.23079891741E+04  0.50400001928E-02 0.  1.
        1   -1    0    0  501    0  0.00000000000E+00  0.00000000000E+00 -0.10521310747E+04  0.10521310747E+04  0.50400001928E-02 0. -1.
    10030    2    1    2    0    0  0.00000000000E+00  0.00000000000E+00  0.12558580994E+04  0.33601202488E+04  0.31166052879E+04 0.  0.
        1    1    3    3  502    0  0.13361496550E+04 -0.37541882463E+03  0.13918633141E+04  0.19655835469E+04  0.50400001928E-02 0.  1.
       -1    1    3    3    0  502 -0.13361496550E+04  0.37541882463E+03 -0.13600521471E+03  0.13945367019E+04  0.50400001928E-02 0. -1.
</event>
<event>
 5   0  0.2674441E-06  0.3090296E+04  0.7818609E-02  0.8218406E-01
        1   -1    0    0  501    0  0.00000000000E+00  0.00000000000E+00  0.17997047958E+04  0.17997047958E+04  0.50400001928E-02 0.  1.
       -1   -1    0    0    0  501  0.00000000000E+00  0.00000000000E+00 -0.13265964191E+04  0.13265964191E+04  0.50400001928E-02 0. -1.
    10030    2    1    2    0    0  0.00000000000E+00  0.00000000000E+00  0.47310837671E+03  0.31263012149E+04  0.30902957383E+04 0.  0.
        5    1    3    3  502    0 -0.13999049007E+04  0.65188490734E+03  0.28981917517E+03  0.15712112867E+04  0.46999998093E+01 0. -1.
       -5    1    3    3    0  502  0.13999049007E+04 -0.65188490734E+03  0.18328920154E+03  0.15550899282E+04  0.46999998093E+01 0.  1.
</event>
<event>
 5   0  0.7363513E-06  0.3082626E+04  0.7818609E-02  0.8220522E-01
        2   -1    0    0  501    0  0.00000000000E+00  0.00000000000E+00  0.18023102564E+04  0.18023102564E+04  0.25500000920E-02 0. -1.
       -2   -1    0    0    0  501  0.00000000000E+00  0.00000000000E+00 -0.13181111966E+04  0.13181111966E+04  0.25500000920E-02 0.  1.
    10030    2    1    2    0    0  0.00000000000E+00  0.00000000000E+00  0.48419905980E+03  0.31204214530E+04  0.30826257176E+04 0.  0.
        4    1    3    3  502    0 -0.74481717233E+02  0.85310635067E+03  0.15393369375E+04  0.17615044115E+04  0.12699999809E+01 0. -1.
       -4    1    3    3    0  502  0.74481717233E+02 -0.85310635067E+03 -0.10551378777E+04  0.13589170415E+04  0.12699999809E+01 0.  1.
</event>
<event>
 5   0  0.2624011E-06  0.3086309E+04  0.7818609E-02  0.8219505E-01
       -1   -1    0    0    0  501  0.00000000000E+00  0.00000000000E+00  0.79930441212E+03  0.79930441213E+03  0.50400001928E-02 0. -1.
        1   -1    0    0  501    0  0.00000000000E+00  0.00000000000E+00 -0.29792473455E+04  0.29792473455E+04  0.50400001928E-02 0.  1.
    10030    2    1    2    0    0  0.00000000000E+00  0.00000000000E+00 -0.21799429334E+04  0.37785517576E+04  0.30863088297E+04 0.  0.
        1    1    3    3  502    0  0.98628881094E+02 -0.15392763946E+04 -0.10322076757E+04  0.18559504737E+04  0.50400001928E-02 0. -1.
       -1    1    3    3    0  502 -0.98628881094E+02  0.15392763946E+04 -0.11477352576E+04  0.19226012839E+04  0.50400001928E-02 0.  1.
</event>
<event>
 5   0  0.2393250E-06  0.2968444E+04  0.7818609E-02  0.8252800E-01
       -3   -1    0    0    0  501  0.00000000000E+00  0.00000000000E+00  0.12854100447E+04  0.12854100487E+04  0.10100000352E+00 0.  1.
        3   -1    0    0  501    0  0.00000000000E+00  0.00000000000E+00 -0.17137843019E+04  0.17137843049E+04  0.10100000352E+00 0. -1.
    10030    2    1    2    0    0  0.00000000000E+00  0.00000000000E+00 -0.42837425716E+03  0.29991943536E+04  0.29684444186E+04 0.  0.
        2    1    3    3  502    0  0.10261023998E+04  0.13644369885E+03 -0.12888844931E+04  0.16530959604E+04  0.25500000920E-02 0. -1.
       -2    1    3    3    0  502 -0.10261023998E+04 -0.13644369885E+03  0.86051023593E+03  0.13460983931E+04  0.25500000920E-02 0.  1.
</event>
<event>
 5   0  0.2624011E-06  0.1906247E+04  0.7818609E-02  0.8651753E-01
        1   -1    0    0  501    0  0.00000000000E+00  0.00000000000E+00  0.79176881026E+03  0.79176881028E+03  0.50400001928E-02 0.  1.
       -1   -1    0    0    0  501  0.00000000000E+00  0.00000000000E+00 -0.11473601193E+04  0.11473601194E+04  0.50400001928E-02 0. -1.
    10030    2    1    2    0    0  0.00000000000E+00  0.00000000000E+00 -0.35559130908E+03  0.19391289296E+04  0.19062465283E+04 0.  0.
        1    1    3    3  502    0  0.76354872531E+03 -0.50450591073E+03 -0.44868048827E+03  0.10192384659E+04  0.50400001928E-02 0. -1.
       -1    1    3    3    0  502 -0.76354872531E+03  0.50450591073E+03  0.93089179185E+02  0.91989046369E+03  0.50400001928E-02 0.  1.
</event>
<event>
 5   0  0.2598987E-06  0.2499532E+04  0.7818609E-02  0.8403152E-01
       -1   -1    0    0    0  501  0.00000000000E+00  0.00000000000E+00  0.93229096847E+03  0.93229096848E+03  0.50400001928E-02 0.  1.
        1   -1    0    0  501    0  0.00000000000E+00  0.00000000000E+00 -0.16753518575E+04  0.16753518576E+04  0.50400001928E-02 0. -1.
    10030    2    1    2    0    0  0.00000000000E+00  0.00000000000E+00 -0.74306088908E+03  0.26076428260E+04  0.24995322809E+04 0.  0.
        2    1    3    3  502    0 -0.22341581224E+03 -0.10758707867E+04 -0.99268433392E+03  0.14808223261E+04  0.25500000920E-02 0. -1.
       -2    1    3    3    0  502  0.22341581224E+03  0.10758707867E+04  0.24962344484E+03  0.11268204999E+04  0.25500000920E-02 0.  1.
</event>
<event>
 5   0  0.2612331E-06  0.3140119E+04  0.7818609E-02  0.8204813E-01
        1   -1    0    0  501    0  0.00000000000E+00  0.00000000000E+00  0.22183658936E+04  0.22183658936E+04  0.50400001928E-02 0. -1.
       -1   -1    0    0    0  501  0.00000000000E+00  0.00000000000E+00 -0.11112172260E+04  0.11112172260E+04  0.50400001928E-02 0.  1.
    10030    2    1    2    0    0  0.00000000000E+00  0.00000000000E+00  0.11071486676E+04  0.33295831197E+04  0.31401187205E+04 0.  0.
        4    1    3    3  502    0  0.19946919175E+03  0.32538913114E+03  0.21684287429E+04  0.22017608569E+04  0.12699999809E+01 0. -1.
       -4    1    3    3    0  502 -0.19946919175E+03 -0.32538913114E+03 -0.10612800753E+04  0.11278222627E+04  0.12699999809E+01 0.  1.
</event>
<event>
 5   0  0.2674441E-06  0.3057568E+04  0.7818609E-02  0.8227480E-01
       -1   -1    0    0    0  501  0.00000000000E+00  0.00000000000E+00  0.11311196001E+04  0.11311196001E+04  0.50400001928E-02 0. -1.
        1   -1    0    0  501    0  0.00000000000E+00  0.00000000000E+00 -0.20662543761E+04  0.20662543761E+04  0.50400001928E-02 0.  1.
    10030    2    1    2    0    0  0.00000000000E+00  0.00000000000E+00 -0.93513477600E+03  0.31973739763E+04  0.30575681996E+04 0.  0.
        5    1    3    3  502    0  0.61096722056E+03 -0.13333949502E+04 -0.91848652771E+03  0.17305671410E+04  0.46999998093E+01 0.  1.
       -5    1    3    3    0  502 -0.61096722056E+03  0.13333949502E+04 -0.16648248294E+02  0.14668068353E+04  0.46999998093E+01 0. -1.
</event>
<event>
 5   0  0.7071012E-06  0.3066630E+04  0.7818609E-02  0.8224956E-01
        2   -1    0    0  501    0  0.00000000000E+00  0.00000000000E+00  0.25241271480E+04  0.25241271480E+04  0.25500000920E-02 0.  1.
       -2   -1    0    0    0  501  0.00000000000E+00  0.00000000000E+00 -0.93143278064E+03  0.93143278065E+03  0.25500000920E-02 0. -1.
    10030    2    1    2    0    0  0.00000000000E+00  0.00000000000E+00  0.15926943674E+04  0.34555599287E+04  0.30666299211E+04 0.  0.
        1    1    3    3  502    0  0.15812151474E+03 -0.55713291513E+02 -0.92107409854E+03  0.93620717756E+03  0.50400001928E-02 0. -1.
       -1    1    3    3    0  502 -0.15812151474E+03  0.55713291513E+02  0.25137684659E+04  0.25193527511E+04  0.50400001928E-02 0.  1.
</event>
<event>
 5   0  0.2598987E-06  0.3075440E+04  0.7818609E-02  0.8222511E-01
        1   -1    0    0  501    0  0.00000000000E+00  0.00000000000E+00  0.15479316732E+04  0.15479316732E+04  0.50400001928E-02 0.  1.
       -1   -1    0    0    0  501  0.00000000000E+00  0.00000000000E+00 -0.15275754132E+04  0.15275754132E+04  0.50400001928E-02 0. -1.
    10030    2    1    2    0    0  0.00000000000E+00  0.00000000000E+00  0.20356259951E+02  0.30755070864E+04  0.30754397183E+04 0.  0.
        2    1    3    3  502    0  0.34675744758E+03  0.49918074303E+03  0.14227104776E+04  0.15471028553E+04  0.25500000920E-02 0.  1.
       -2    1    3    3    0  502 -0.34675744758E+03 -0.49918074303E+03 -0.14023542177E+04  0.15284042311E+04  0.25500000920E-02 0. -1.
</event>
<event>
 5   0  0.7094341E-06  0.3078272E+04  0.7818609E-02  0.8221726E-01
        2   -1    0    0  501    0  0.00000000000E+00  0.00000000000E+00  0.18402496774E+04  0.18402496774E+04  0.25500000920E-02 0. -1.
       -2   -1    0    0    0  501  0.00000000000E+00  0.00000000000E+00 -0.12872924107E+04  0.12872924107E+04  0.25500000920E-02 0.  1.
    10030    2    1    2    0    0  0.00000000000E+00  0.00000000000E+00  0.55295726668E+03  0.31275420881E+04  0.30782718811E+04 0.  0.
        3    1    3    3  502    0 -0.10592964517E+03  0.63883108974E+02 -0.12822336429E+04  0.12881868135E+04  0.10100000352E+00 0.  1.
       -3    1    3    3    0  502  0.10592964517E+03 -0.63883108974E+02  0.18351909096E+04  0.18393552746E+04  0.10100000352E+00 0. -1.
</event>
<event>
 5   0  0.2612331E-06  0.3358768E+04  0.7818609E-02  0.8148101E-01
        1   -1    0    0  501    0  0.00000000000E+00  0.00000000000E+00  0.30826166964E+04  0.30826166964E+04  0.50400001928E-02 0. -1.
       -1   -1    0    0    0  501  0.00000000000E+00  0.00000000000E+00 -0.91491433284E+03  0.91491433286E+03  0.50400001928E-02 0.  1.
    10030    2    1    2    0    0  0.00000000000E+00  0.00000000000E+00  0.21677023636E+04  0.39975310293E+04  0.33587677492E+04 0.  0.
        4    1    3    3  502    0  0.14713741736E+02  0.14975037692E+04  0.19883820938E+04  0.24892567157E+04  0.12699999809E+01 0. -1.
       -4    1    3    3    0  502 -0.14713741736E+02 -0.14975037692E+04  0.17932026972E+03  0.15082743135E+04  0.12699999809E+01 0.  1.
</event>
<event>
 5   0  0.7071012E-06  0.2986510E+04  0.7818609E-02  0.8247594E-01
        2   -1    0    0  501    0  0.00000000000E+00  0.00000000000E+00  0.16016037227E+04  0.16016037227E+04  0.25500000920E-02 0.  1.
       -2   -1    0    0    0  501  0.00000000000E+00  0.00000000000E+00 -0.13922357453E+04  0.13922357453E+04  0.25500000920E-02 0. -1.
    10030    2    1    2    0    0  0.00000000000E+00  0.00000000000E+00  0.20936797740E+03  0.29938394680E+04  0.29865096367E+04 0.  0.
        1    1    3    3  502    0 -0.33492105500E+03  0.48475505847E+03  0.14801486164E+04  0.15931100108E+04  0.50400001928E-02 0.  1.
       -1    1    3    3    0  502  0.33492105500E+03 -0.48475505847E+03 -0.12707806390E+04  0.14007294572E+04  0.50400001928E-02 0. -1.
</event>
<event>
 5   0  0.2517725E-06  0.3068761E+04  0.7818609E-02  0.8224364E-01
        1   -1    0    0  501    0  0.00000000000E+00  0.00000000000E+00  0.24121373229E+04  0.24121373229E+04  0.50400001928E-02 0. -1.
       -1   -1    0    0    0  501  0.00000000000E+00  0.00000000000E+00 -0.97603230153E+03  0.97603230155E+03  0.50400001928E-02 0.  1.
    10030    2    1    2    0    0  0.00000000000E+00  0.00000000000E+00  0.14361050214E+04  0.33881696245E+04  0.30687612764E+04 0.  0.
        3    1    3    3  502    0 -0.84330519065E+03 -0.45270902116E+03  0.20421315808E+04  0.22553071866E+04  0.10100000352E+00 0. -1.
       -3    1    3    3    0  502  0.84330519065E+03  0.45270902116E+03 -0.60602655936E+03  0.11328624379E+04  0.10100000352E+00 0.  1.
</event>
<event>
 5   0  0.7363513E-06  0.2900158E+04  0.7818609E-02  0.8272831E-01
        2   -1    0    0  501    0  0.00000000000E+00  0.00000000000E+00  0.16567632648E+04  0.16567632648E+04  0.25500000920E-02 0.  1.
       -2   -1    0    0    0  501  0.00000000000E+00  0.00000000000E+00 -0.12691787390E+04  0.12691787390E+04  0.25500000920E-02 0. -1.
    10030    2    1    2    0    0  0.00000000000E+00  0.00000000000E+00  0.38758452577E+03  0.29259420038E+04  0.29001577276E+04 0.  0.
        4    1    3    3  502    0  0.66582269729E+03  0.10621025179E+04  0.92920744110E+03  0.15603876775E+04  0.12699999809E+01 0.  1.
       -4    1    3    3    0  502 -0.66582269729E+03 -0.10621025179E+04 -0.54162291533E+03  0.13655543263E+04  0.12699999809E+01 0. -1.
</event>
<event>
 5   0  0.2393250E-06  0.3002313E+04  0.7818609E-02  0.8243071E-01
       -3   -1    0    0    0  501  0.00000000000E+00  0.00000000000E+00  0.18794953415E+04  0.18794953442E+04  0.10100000352E+00 0. -1.
        3   -1    0    0  501    0  0.00000000000E+00  0.00000000000E+00 -0.11989762583E+04  0.11989762625E+04  0.10100000352E+00 0.  1.
    10030    2    1    2    0    0  0.00000000000E+00  0.00000000000E+00  0.68051908319E+03  0.30784716067E+04  0.30023126437E+04 0.  0.
        5    1    3    3  502    0  0.39384862979E+03 -0.95917384218E+03  0.14532983591E+04  0.17852813261E+04  0.46999998093E+01 0. -1.
       -5    1    3    3    0  502 -0.39384862979E+03  0.95917384218E+03 -0.77277927587E+03  0.12931902806E+04  0.46999998093E+01 0.  1.
</event>
<event>
 5   0  0.7363513E-06  0.3159846E+04  0.7818609E-02  0.8199503E-01
        2   -1    0    0  501    0  0.00000000000E+00  0.00000000000E+00  0.14676852500E+04  0.14676852500E+04  0.25500000920E-02 0.  1.
       -2   -1    0    0    0  501  0.00000000000E+00  0.00000000000E+00 -0.17007437146E+04  0.17007437146E+04  0.25500000920E-02 0. -1.
    10030    2    1    2    0    0  0.00000000000E+00  0.00000000000E+00 -0.23305846460E+03  0.31684289647E+04  0.31598458596E+04 0.  0.
        4    1    3    3  502    0  0.11205696186E+04  0.99970338380E+03 -0.60885346783E+03  0.16204281174E+04  0.12699999809E+01 0. -1.
       -4    1    3    3    0  502 -0.11205696186E+04 -0.99970338380E+03  0.37579500324E+03  0.15480008472E+04  0.12699999809E+01 0.  1.
</event>
<event>
 5   0  0.7079223E-06  0.3035314E+04  0.7818609E-02  0.8233718E-01
       -2   -1    0    0    0  501  0.00000000000E+00  0.00000000000E+00  0.18361918479E+04  0.18361918479E+04  0.25500000920E-02 0.  1.
        2   -1    0    0  501    0  0.00000000000E+00  0.00000000000E+00 -0.12543800197E+04  0.12543800197E+04  0.25500000920E-02 0. -1.
    10030    2    1    2    0    0  0.00000000000E+00  0.00000000000E+00  0.58181182819E+03  0.30905718675E+04  0.30353137342E+04 0.  0.
        5    1    3    3  502    0 -0.56577568958E+03  0.85139295248E+03 -0.85124980708E+03  0.13302708050E+04  0.46999998093E+01 0. -1.
       -5    1    3    3    0  502  0.56577568958E+03 -0.85139295248E+03  0.14330616353E+04  0.17603010626E+04  0.46999998093E+01 0.  1.
</event>
<event>
 5   0  0.7414808E-06  0.3106894E+04  0.7818609E-02  0.8213848E-01
        2   -1    0    0  501    0  0.00000000000E+00  0.00000000000E+00  0.12616129077E+04  0.12616129077E+04  0.25500000920E-02 0. -1.
       -2   -1    0    0    0  501  0.00000000000E+00  0.00000000000E+00 -0.19127875474E+04  0.19127875474E+04  0.25500000920E-02 0.  1.
    10030    2    1    2    0    0  0.00000000000E+00  0.00000000000E+00 -0.65117463977E+03  0.31744004551E+04  0.31068939212E+04 0.  0.
        2    1    3    3  502    0 -0.59581551082E+03 -0.53837120110E+03 -0.16842772507E+04  0.18659125194E+04  0.25500000920E-02 0.  1.
       -2    1    3    3    0  502  0.59581551082E+03  0.53837120110E+03  0.10331026109E+04  0.13084879357E+04  0.25500000920E-02 0. -1.
</event>
<event>
 5   0  0.7094341E-06  0.2219685E+04  0.7818609E-02  0.8510279E-01
       -2   -1    0    0    0  501  0.00000000000E+00  0.00000000000E+00  0.94063979100E+03  0.94063979100E+03  0.25500000920E-02 0.  1.
        2   -1    0    0  501    0  0.00000000000E+00  0.00000000000E+00 -0.13094818603E+04  0.13094818603E+04  0.25500000920E-02 0. -1.
    10030    2    1    2    0    0  0.00000000000E+00  0.00000000000E+00 -0.36884206925E+03  0.22501216513E+04  0.22196853321E+04 0.  0.
        3    1    3    3  502    0 -0.57426267767E+03 -0.92021230786E+03 -0.42255149537E+03  0.11640953960E+04  0.10100000352E+00 0.  1.
       -3    1    3    3    0  502  0.57426267767E+03  0.92021230786E+03  0.53709426114E+02  0.10860262553E+04  0.10100000352E+00 0. -1.
</event>
<event>
 5   0  0.7094341E-06  0.3140205E+04  0.7818609E-02  0.8204790E-01
       -2   -1    0    0    0  501  0.00000000000E+00  0.00000000000E+00  0.11109892192E+04  0.11109892192E+04  0.25500000920E-02 0.  1.
        2   -1    0    0  501    0  0.00000000000E+00  0.00000000000E+00 -0.22189427064E+04  0.22189427064E+04  0.25500000920E-02 0. -1.
    10030    2    1    2    0    0  0.00000000000E+00  0.00000000000E+00 -0.11079534873E+04  0.33299319256E+04  0.31402047225E+04 0.  0.
        3    1    3    3  502    0 -0.68384812889E+03  0.13462544235E+04 -0.10102922855E+04  0.18167938101E+04  0.10100000352E+00 0. -1.
       -3    1    3    3    0  502  0.68384812889E+03 -0.13462544235E+04 -0.97661201780E+02  0.15131381155E+04  0.10100000352E+00 0.  1.
</event>
<event>
 5   0  0.7414808E-06  0.3096228E+04  0.7818609E-02  0.8216774E-01
       -2   -1    0    0    0  501  0.00000000000E+00  0.00000000000E+00  0.19509357548E+04  0.19509357548E+04  0.25500000920E-02 0. -1.
        2   -1    0    0  501    0  0.00000000000E+00  0.00000000000E+00 -0.12284654277E+04  0.12284654277E+04  0.25500000920E-02 0.  1.
    10030    2    1    2    0    0  0.00000000000E+00  0.00000000000E+00  0.72247032709E+03  0.31794011825E+04  0.30962281094E+04 0.  0.
        2    1    3    3  502    0 -0.10738140438E+04  0.10474836946E+04  0.75408019172E+03  0.16789686199E+04  0.25500000920E-02 0.  1.
       -2    1    3    3    0  502  0.10738140438E+04 -0.10474836946E+04 -0.31609864629E+02  0.15004325625E+04  0.25500000920E-02 0. -1.
</event>
<event>
 5   0  0.2393250E-06  0.3121424E+04  0.7818609E-02  0.8209883E-01
       -3   -1    0    0    0  501  0.00000000000E+00  0.00000000000E+00  0.10304880995E+04  0.10304881045E+04  0.10100000352E+00 0.  1.
        3   -1    0    0  501    0  0.00000000000E+00  0.00000000000E+00 -0.23637549496E+04  0.23637549518E+04  0.10100000352E+00 0. -1.
    10030    2    1    2    0    0  0.00000000000E+00  0.00000000000E+00 -0.13332668501E+04  0.33942430562E+04  0.31214236225E+04 0.  0.
        1    1    3    3  502    0  0.36652834301E+03 -0.15025649551E+04 -0.89414980272E+03  0.17864905094E+04  0.50400001928E-02 0. -1.
       -1    1    3    3    0  502 -0.36652834301E+03  0.15025649551E+04 -0.43911704737E+03  0.16077525468E+04  0.50400001928E-02 0.  1.
</event>
<event>
 5   0  0.7079223E-06  0.2513005E+04  0.7818609E-02  0.8398367E-01
       -2   -1    0    0    0  501  0.00000000000E+00  0.00000000000E+00  0.64176416085E+03  0.64176416086E+03  0.25500000920E-02 0. -1.
        2   -1    0    0  501    0  0.00000000000E+00  0.00000000000E+00 -0.24600921383E+04  0.24600921383E+04  0.25500000920E-02 0.  1.
    10030    2    1    2    0    0  0.00000000000E+00  0.00000000000E+00 -0.18183279774E+04  0.31018562991E+04  0.25130053456E+04 0.  0.
        5    1    3    3  502    0  0.33917917499E+03 -0.17868422998E+03 -0.23861296483E+04  0.24167348542E+04  0.46999998093E+01 0.  1.
       -5    1    3    3    0  502 -0.33917917499E+03  0.17868422998E+03  0.56780167093E+03  0.68512144493E+03  0.46999998093E+01 0. -1.
</event>
<event>
 5   0  0.7094341E-06  0.2190543E+04  0.7818609E-02  0.8522375E-01
        2   -1    0    0  501    0  0.00000000000E+00  0.00000000000E+00  0.25943823689E+04  0.25943823689E+04  0.25500000920E-02 0.  1.
       -2   -1    0    0    0  501  0.00000000000E+00  0.00000000000E+00 -0.46239130998E+03  0.46239130999E+03  0.25500000920E-02 0. -1.
    10030    2    1    2    0    0  0.00000000000E+00  0.00000000000E+00  0.21319910589E+04  0.30567736789E+04  0.21905431857E+04 0.  0.
        3    1    3    3  502    0 -0.11794127508E+03  0.53141661604E+03  0.23922563314E+04  0.24534066376E+04  0.10100000352E+00 0.  1.
       -3    1    3    3    0  502  0.11794127508E+03 -0.53141661604E+03 -0.26026527252E+03  0.60336704124E+03  0.10100000352E+00 0. -1.
</event>
<event>
 5   0  0.2612331E-06  0.3132140E+04  0.7818609E-02  0.8206972E-01
       -1   -1    0    0    0  501  0.00000000000E+00  0.00000000000E+00  0.14732320767E+04  0.14732320767E+04  0.50400001928E-02 0.  1.
        1   -1    0    0  501    0  0.00000000000E+00  0.00000000000E+00 -0.16647581408E+04  0.16647581408E+04  0.50400001928E-02 0. -1.
    10030    2    1    2    0    0  0.00000000000E+00  0.00000000000E+00 -0.19152606410E+03  0.31379902175E+04  0.31321399030E+04 0.  0.
        4    1    3    3  502    0  0.55235075973E+03  0.69293674345E+03  0.11978965672E+04  0.14900370770E+04  0.12699999809E+01 0.  1.
       -4    1    3    3    0  502 -0.55235075973E+03 -0.69293674345E+03 -0.13894226313E+04  0.16479531405E+04  0.12699999809E+01 0. -1.
</event>
<event>
 5   0  0.7071012E-06  0.1986828E+04  0.7818609E-02  0.8612804E-01
       -2   -1    0    0    0  501  0.00000000000E+00  0.00000000000E+00  0.67797127219E+03  0.67797127219E+03  0.25500000920E-02 0. -1.
        2   -1    0    0  501    0  0.00000000000E+00  0.00000000000E+00 -0.14556248536E+04  0.14556248536E+04  0.25500000920E-02 0.  1.
    10030    2    1    2    0    0  0.00000000000E+00  0.00000000000E+00 -0.77765358146E+03  0.21335961258E+04  0.19868284615E+04 0.  0.
        1    1    3    3  502    0  0.76828721718E+03 -0.60653628857E+02  0.28431751634E+03  0.82145027902E+03  0.50400001928E-02 0. -1.
       -1    1    3    3    0  502 -0.76828721718E+03  0.60653628857E+02 -0.10619710978E+04  0.13121458468E+04  0.50400001928E-02 0.  1.
</event>
<event>
 5   0  0.7414808E-06  0.3108311E+04  0.7818609E-02  0.8213461E-01
        2   -1    0    0  501    0  0.00000000000E+00  0.00000000000E+00  0.23395585288E+04  0.23395585288E+04  0.25500000920E-02 0. -1.
       -2   -1    0    0    0  501  0.00000000000E+00  0.00000000000E+00 -0.10324167221E+04  0.10324167221E+04  0.25500000920E-02 0.  1.
    10030    2    1    2    0    0  0.00000000000E+00  0.00000000000E+00  0.13071418067E+04  0.33719752509E+04  0.31083110188E+04 0.  0.
        2    1    3    3  502    0  0.72747539985E+03 -0.11426007853E+04  0.14802067975E+04  0.20064319513E+04  0.25500000920E-02 0. -1.
       -2    1    3    3    0  502 -0.72747539985E+03  0.11426007853E+04 -0.17306499080E+03  0.13655432995E+04  0.25500000920E-02 0.  1.
</event>
<event>
 5   0  0.2598987E-06  0.3038352E+04  0.7818609E-02  0.8232863E-01
       -1   -1    0    0    0  501  0.00000000000E+00  0.00000000000E+00  0.10219337291E+04  0.10219337291E+04  0.50400001928E-02 0. -1.
        1   -1    0    0  501    0  0.00000000000E+00  0.00000000000E+00 -0.22583611017E+04  0.22583611017E+04  0.50400001928E-02 0.  1.
    10030    2    1    2    0    0  0.00000000000E+00  0.00000000000E+00 -0.12364273726E+04  0.32802948309E+04  0.30383517785E+04 0.  0.
        2    1    3    3  502    0 -0.12753149903E+04 -0.60179396656E+03 -0.12282867062E+04  0.18700996057E+04  0.25500000920E-02 0. -1.
       -2    1    3    3    0  502  0.12753149903E+04  0.60179396656E+03 -0.81406663710E+01  0.14101952252E+04  0.25500000920E-02 0.  1.
</event>
<event>
 5   0  0.7079223E-06  0.3118113E+04  0.7818609E-02  0.8210785E-01
        2   -1    0    0  501    0  0.00000000000E+00  0.00000000000E+00  0.18862813045E+04  0.18862813045E+04  0.25500000920E-02 0.  1.
       -2   -1    0    0    0  501  0.00000000000E+00  0.00000000000E+00 -0.12885972558E+04  0.12885972558E+04  0.25500000920E-02 0. -1.
    10030    2    1    2    0    0  0.00000000000E+00  0.00000000000E+00  0.59768404872E+03  0.31748785602E+04  0.31181128347E+04 0.  0.
        5    1    3    3  502    0  0.45736209712E+03  0.14867208770E+04  0.40619276299E+03  0.16076485016E+04  0.46999998093E+01 0.  1.
       -5    1    3    3    0  502 -0.45736209712E+03 -0.14867208770E+04  0.19149128573E+03  0.15672300586E+04  0.46999998093E+01 0. -1.
</event>
<event>
 5   0  0.2517725E-06  0.2078311E+04  0.7818609E-02  0.8570858E-01
        1   -1    0    0  501    0  0.00000000000E+00  0.00000000000E+00  0.18289846899E+04  0.18289846899E+04  0.50400001928E-02 0. -1.
       -1   -1    0    0    0  501  0.00000000000E+00  0.00000000000E+00 -0.59040628445E+03  0.59040628447E+03  0.50400001928E-02 0.  1.
    10030    2    1    2    0    0  0.00000000000E+00  0.00000000000E+00  0.12385784055E+04  0.24193909744E+04  0.20783109056E+04 0.  0.
        3    1    3    3  502    0  0.89200867907E+03  0.43896109253E+03  0.26719959473E+03  0.10294474042E+04  0.10100000352E+00 0. -1.
       -3    1    3    3    0  502 -0.89200867907E+03 -0.43896109253E+03  0.97137881073E+03  0.13899435702E+04  0.10100000352E+00 0.  1.
</event>
<event>
 5   0  0.2517725E-06  0.2933401E+04  0.7818609E-02  0.8263009E-01
       -1   -1    0    0    0  501  0.00000000000E+00  0.00000000000E+00  0.21531237938E+04  0.21531237938E+04  0.50400001928E-02 0.  1.
        1   -1    0    0  501    0  0.00000000000E+00  0.00000000000E+00 -0.99911135052E+03  0.99911135053E+03  0.50400001928E-02 0. -1.
    10030    2    1    2    0    0  0.00000000000E+00  0.00000000000E+00  0.11540124433E+04  0.31522351444E+04  0.29334010442E+04 0.  0.
        3    1    3    3  502    0 -0.47183804640E+03  0.14168983555E+03  0.20615520792E+04  0.21195999946E+04  0.10100000352E+00 0.  1.
       -3    1    3    3    0  502  0.47183804640E+03 -0.14168983555E+03 -0.90753963593E+03  0.10326351498E+04  0.10100000352E+00 0. -1.
</event>
<event>
 5   0  0.2612331E-06  0.3055545E+04  0.7818609E-02  0.8228045E-01
        1   -1    0    0  501    0  0.00000000000E+00  0.00000000000E+00  0.24594180223E+04  0.24594180223E+04  0.50400001928E-02 0.  1.
       -1   -1    0    0    0  501  0.00000000000E+00  0.00000000000E+00 -0.94904103544E+03  0.94904103545E+03  0.50400001928E-02 0. -1.
    10030    2    1    2    0    0  0.00000000000E+00  0.00000000000E+00  0.15103769868E+04  0.34084590577E+04  0.30555448787E+04 0.  0.
        4    1    3    3  502    0 -0.33889237390E+03  0.27744570701E+01 -0.90658067426E+03  0.96785632743E+03  0.12699999809E+01 0. -1.
       -4    1    3    3    0  502  0.33889237390E+03 -0.27744570701E+01  0.24169576611E+04  0.24406027303E+04  0.12699999809E+01 0.  1.
</event>
<event>
 5   0  0.7363513E-06  0.3106516E+04  0.7818609E-02  0.8213952E-01
       -2   -1    0    0    0  501  0.00000000000E+00  0.00000000000E+00  0.10085530031E+04  0.10085530031E+04  0.25500000920E-02 0. -1.
        2   -1    0    0  501    0  0.00000000000E+00  0.00000000000E+00 -0.23921498948E+04  0.23921498948E+04  0.25500000920E-02 0.  1.
    10030    2    1    2    0    0  0.00000000000E+00  0.00000000000E+00 -0.13835968917E+04  0.34007028979E+04  0.31065157075E+04 0.  0.
        4    1    3    3  502    0  0.10604948634E+04  0.11339083962E+04 -0.74326962115E+03  0.17212928132E+04  0.12699999809E+01 0.  1.
       -4    1    3    3    0  502 -0.10604948634E+04 -0.11339083962E+04 -0.64032727059E+03  0.16794100847E+04  0.12699999809E+01 0. -1.
</event>
<event>
 5   0  0.7414808E-06  0.3249736E+04  0.7818609E-02  0.8175804E-01
        2   -1    0    0  501    0  0.00000000000E+00  0.00000000000E+00  0.19253552314E+04  0.19253552314E+04  0.25500000920E-02 0. -1.
       -2   -1    0    0    0  501  0.00000000000E+00  0.00000000000E+00 -0.13712770331E+04  0.13712770331E+04  0.25500000920E-02 0.  1.
    10030    2    1    2    0    0  0.00000000000E+00  0.00000000000E+00  0.55407819830E+03  0.32966322645E+04  0.32497356258E+04 0.  0.
        2    1    3    3  502    0 -0.92884796254E+03  0.65573027835E+03  0.14545896391E+04  0.18462317714E+04  0.25500000920E-02 0. -1.
       -2    1    3    3    0  502  0.92884796254E+03 -0.65573027835E+03 -0.90051144082E+03  0.14504004931E+04  0.25500000920E-02 0.  1.
</event>
<event>
 5   0  0.7363513E-06  0.3080921E+04  0.7818609E-02  0.8220993E-01
        2   -1    0    0  501    0  0.00000000000E+00  0.00000000000E+00  0.14872965724E+04  0.14872965724E+04  0.25500000920E-02 0.  1.
       -2   -1    0    0    0  501  0.00000000000E+00  0.00000000000E+00 -0.15955250551E+04  0.15955250551E+04  0.25500000920E-02 0. -1.
    10030    2    1    2    0    0  0.00000000000E+00  0.00000000000E+00 -0.10822848269E+03  0.30828216274E+04  0.30809212554E+04 0.  0.
        4    1    3    3  502    0 -0.92034434785E+03  0.12145894673E+04  0.17131573440E+03  0.15334966535E+04  0.12699999809E+01 0. -1.
       -4    1    3    3    0  502  0.92034434785E+03 -0.12145894673E+04 -0.27954421708E+03  0.15493249739E+04  0.12699999809E+01 0.  1.
</event>
<event>
 5   0  0.7071012E-06  0.3107434E+04  0.7818609E-02  0.8213701E-01
        2   -1    0    0  501    0  0.00000000000E+00  0.00000000000E+00  0.17689403692E+04  0.17689403692E+04  0.25500000920E-02 0. -1.
       -2   -1    0    0    0  501  0.00000000000E+00  0.00000000000E+00 -0.13646798546E+04  0.13646798546E+04  0.25500000920E-02 0.  1.
    10030    2    1    2    0    0  0.00000000000E+00  0.00000000000E+00  0.40426051458E+03  0.31336202237E+04  0.31074344954E+04 0.  0.
        1    1    3    3  502    0 -0.35711518228E+02 -0.10394028066E+04  0.13661552544E+04  0.17169780680E+04  0.50400001928E-02 0. -1.
       -1    1    3    3    0  502  0.35711518228E+02  0.10394028066E+04 -0.96189473983E+03  0.14166421557E+04  0.50400001928E-02 0.  1.
</event>
<event>
 5   0  0.7094341E-06  0.3087171E+04  0.7818609E-02  0.8219268E-01
       -2   -1    0    0    0  501  0.00000000000E+00  0.00000000000E+00  0.91271996985E+03  0.91271996985E+03  0.25500000920E-02 0.  1.
        2   -1    0    0  501    0  0.00000000000E+00  0.00000000000E+00 -0.26105000068E+04  0.26105000068E+04  0.25500000920E-02 0. -1.
    10030    2    1    2    0    0  0.00000000000E+00  0.00000000000E+00 -0.16977800370E+04  0.35232199767E+04  0.30871705411E+04 0.  0.
        3    1    3    3  502    0 -0.12179595963E+04  0.88027388472E+03 -0.12513272646E+04  0.19555376815E+04  0.10100000352E+00 0.  1.
       -3    1    3    3    0  502  0.12179595963E+04 -0.88027388472E+03 -0.44645277236E+03  0.15676822952E+04  0.10100000352E+00 0. -1.
</event>
<event>
 5   0  0.2624011E-06  0.3382216E+04  0.7818609E-02  0.8142285E-01
       -1   -1    0    0    0  501  0.00000000000E+00  0.00000000000E+00  0.22076197357E+04  0.22076197357E+04  0.50400001928E-02 0.  1.
        1   -1    0    0  501    0  0.00000000000E+00  0.00000000000E+00 -0.12954434770E+04  0.12954434770E+04  0.50400001928E-02 0. -1.
    10030    2    1    2    0    0  0.00000000000E+00  0.00000000000E+00  0.91217625876E+03  0.35030632127E+04  0.33822161884E+04 0.  0.
        1    1    3    3  502    0 -0.20424977154E+03 -0.11675569907E+04 -0.79321850536E+03  0.14262197913E+04  0.50400001928E-02 0. -1.
       -1    1    3    3    0  502  0.20424977154E+03  0.11675569907E+04  0.17053947641E+04  0.20768434215E+04  0.50400001928E-02 0.  1.
</event>
<event>
 5   0  0.7414808E-06  0.2701401E+04  0.7818609E-02  0.8334551E-01
        2   -1    0    0  501    0  0.00000000000E+00  0.00000000000E+00  0.91104602903E+03  0.91104602904E+03  0.25500000920E-02 0.  1.
       -2   -1    0    0    0  501  0.00000000000E+00  0.00000000000E+00 -0.20025239939E+04  0.20025239939E+04  0.25500000920E-02 0. -1.
    10030    2    1    2    0    0  0.00000000000E+00  0.00000000000E+00 -0.10914779649E+04  0.29135700229E+04  0.27014007720E+04 0.  0.
        2    1    3    3  502    0  0.64923835253E+03 -0.25881008534E+03 -0.17923276108E+04  0.19237804873E+04  0.25500000920E-02 0. -1.
       -2    1    3    3    0  502 -0.64923835253E+03  0.25881008534E+03  0.70084964596E+03  0.98978953567E+03  0.25500000920E-02 0.  1.
</event>
<event>
 5   0  0.2598987E-06  0.3265652E+04  0.7818609E-02  0.8171691E-01
        1   -1    0    0  501    0  0.00000000000E+00  0.00000000000E+00  0.18092173632E+04  0.18092173632E+04  0.50400001928E-02 0. -1.
       -1   -1    0    0    0  501  0.00000000000E+00  0.00000000000E+00 -0.14736321584E+04  0.14736321584E+04  0.50400001928E-02 0.  1.
    10030    2    1    2    0    0  0.00000000000E+00  0.00000000000E+00  0.33558520474E+03  0.32828495216E+04  0.32656520868E+04 0.  0.
        2    1    3    3  502    0  0.15474115560E+04 -0.52062751879E+03  0.14347116506E+03  0.16389385322E+04  0.25500000920E-02 0. -1.
       -2    1    3    3    0  502 -0.15474115560E+04  0.52062751879E+03  0.19211403967E+03  0.16439109895E+04  0.25500000920E-02 0.  1.
</event>
<event>
 5   0  0.7363513E-06  0.2765273E+04  0.7818609E-02  0.8314131E-01
       -2   -1    0    0    0  501  0.00000000000E+00  0.00000000000E+00  0.10672065186E+04  0.10672065186E+04  0.25500000920E-02 0.  1.
        2   -1    0    0  501    0  0.00000000000E+00  0.00000000000E+00 -0.17912969410E+04  0.17912969410E+04  0.25500000920E-02 0. -1.
    10030    2    1    2    0    0  0.00000000000E+00  0.00000000000E+00 -0.72409042233E+03  0.28585034596E+04  0.27652730587E+04 0.  0.
        4    1    3    3  502    0  0.11111258874E+04 -0.10877035043E+03 -0.12051727651E+04  0.16428252291E+04  0.12699999809E+01 0. -1.
       -4    1    3    3    0  502 -0.11111258874E+04  0.10877035043E+03  0.48108234280E+03  0.12156782305E+04  0.12699999809E+01 0.  1.
</event>
<event>
 5   0  0.7363513E-06  0.2548408E+04  0.7818609E-02  0.8385940E-01
        2   -1    0    0  501    0  0.00000000000E+00  0.00000000000E+00  0.18408476111E+04  0.18408476111E+04  0.25500000920E-02 0. -1.
       -2   -1    0    0    0  501  0.00000000000E+00  0.00000000000E+00 -0.88198243668E+03  0.88198243668E+03  0.25500000920E-02 0.  1.
    10030    2    1    2    0    0  0.00000000000E+00  0.00000000000E+00  0.95886517445E+03  0.27228300478E+04  0.25484075511E+04 0.  0.
        4    1    3    3  502    0  0.59083960873E+03  0.51521028090E+03  0.15527057496E+04  0.17393762775E+04  0.12699999809E+01 0. -1.
       -4    1    3    3    0  502 -0.59083960873E+03 -0.51521028090E+03 -0.59384057517E+03  0.98345377035E+03  0.12699999809E+01 0.  1.
</event>
<event>
 5   0  0.2624011E-06  0.2991778E+04  0.7818609E-02  0.8246083E-01
       -1   -1    0    0    0  501  0.00000000000E+00  0.00000000000E+00  0.11434605435E+04  0.11434605435E+04  0.50400001928E-02 0. -1.
        1   -1    0    0  501    0  0.00000000000E+00  0.00000000000E+00 -0.19569397634E+04  0.19569397634E+04  0.50400001928E-02 0.  1.
    10030    2    1    2    0    0  0.00000000000E+00  0.00000000000E+00 -0.81347921992E+03  0.31004003069E+04  0.29917776691E+04 0.  0.
        1    1    3    3  502    0 -0.27497937939E+03  0.49852610402E+03  0.10267923977E+04  0.11740717881E+04  0.50400001928E-02 0. -1.
       -1    1    3    3    0  502  0.27497937939E+03 -0.49852610402E+03 -0.18402716177E+04  0.19263285188E+04  0.50400001928E-02 0.  1.
</event>
<event>
 5   0  0.2517725E-06  0.3634676E+04  0.7818609E-02  0.8082595E-01
        1   -1    0    0  501    0  0.00000000000E+00  0.00000000000E+00  0.12184660340E+04  0.12184660340E+04  0.50400001928E-02 0. -1.
       -1   -1    0    0    0  501  0.00000000000E+00  0.00000000000E+00 -0.27105538602E+04  0.27105538602E+04  0.50400001928E-02 0.  1.
    10030    2    1    2    0    0  0.00000000000E+00  0.00000000000E+00 -0.14920878263E+04  0.39290198942E+04  0.36346762232E+04 0.  0.
        3    1    3    3  502    0  0.13371995734E+04  0.53268941471E+03 -0.19453286697E+04  0.24199513126E+04  0.10100000352E+00 0.  1.
       -3    1    3    3    0  502 -0.13371995734E+04 -0.53268941471E+03  0.45324084344E+03  0.15090685816E+04  0.10100000352E+00 0. -1.
</event>
<event>
 5   0  0.7094341E-06  0.2588070E+04  0.7818609E-02  0.8372265E-01
       -2   -1    0    0    0  501  0.00000000000E+00  0.00000000000E+00  0.15313932108E+04  0.15313932108E+04  0.25500000920E-02 0. -1.
        2   -1    0    0  501    0  0.00000000000E+00  0.00000000000E+00 -0.10934659480E+04  0.10934659480E+04  0.25500000920E-02 0.  1.
    10030    2    1    2    0    0  0.00000000000E+00  0.00000000000E+00  0.43792726285E+03  0.26248591589E+04  0.25880698051E+04 0.  0.
        3    1    3    3  502    0 -0.12880694088E+04 -0.97111388474E+02  0.29734673697E+03  0.13255068902E+04  0.10100000352E+00 0. -1.
       -3    1    3    3    0  502  0.12880694088E+04  0.97111388474E+02  0.14058052588E+03  0.12993522687E+04  0.10100000352E+00 0.  1.
</event>
<event>
 5   0  0.2674441E-06  0.3045929E+04  0.7818609E-02  0.8230736E-01
       -1   -1    0    0    0  501  0.00000000000E+00  0.00000000000E+00  0.20869546309E+04  0.20869546309E+04  0.50400001928E-02 0.  1.
        1   -1    0    0  501    0  0.00000000000E+00  0.00000000000E+00 -0.11113903638E+04  0.11113903638E+04  0.50400001928E-02 0. -1.
    10030    2    1    2    0    0  0.00000000000E+00  0.00000000000E+00  0.97556426707E+03  0.31983449947E+04  0.30459292615E+04 0.  0.
        5    1    3    3  502    0  0.14421152800E+04 -0.47978684416E+03  0.59016649601E+03  0.16304019381E+04  0.46999998093E+01 0. -1.
       -5    1    3    3    0  502 -0.14421152800E+04  0.47978684416E+03  0.38539777106E+03  0.15679430566E+04  0.46999998093E+01 0.  1.
</event>
<event>
 5   0  0.2612331E-06  0.3242802E+04  0.7818609E-02  0.8177604E-01
        1   -1    0    0  501    0  0.00000000000E+00  0.00000000000E+00  0.21496516298E+04  0.21496516298E+04  0.50400001928E-02 0. -1.
       -1   -1    0    0    0  501  0.00000000000E+00  0.00000000000E+00 -0.12229613262E+04  0.12229613262E+04  0.50400001928E-02 0.  1.
    10030    2    1    2    0    0  0.00000000000E+00  0.00000000000E+00  0.92669030361E+03  0.33726129560E+04  0.32428017566E+04 0.  0.
        4    1    3    3  502    0 -0.65365077950E+03  0.14246652157E+04  0.89468693992E+03  0.18048259339E+04  0.12699999809E+01 0.  1.
       -4    1    3    3    0  502  0.65365077950E+03 -0.14246652157E+04  0.32003363682E+02  0.15677870221E+04  0.12699999809E+01 0. -1.
</event>
<event>
 5   0  0.7363513E-06  0.3102058E+04  0.7818609E-02  0.8215173E-01
       -2   -1    0    0    0  501  0.00000000000E+00  0.00000000000E+00  0.21566424471E+04  0.21566424471E+04  0.25500000920E-02 0. -1.
        2   -1    0    0  501    0  0.00000000000E+00  0.00000000000E+00 -0.11154795299E+04  0.11154795299E+04  0.25500000920E-02 0.  1.
    10030    2    1    2    0    0  0.00000000000E+00  0.00000000000E+00  0.10411629172E+04  0.32721219771E+04  0.31020577062E+04 0.  0.
        4    1    3    3  502    0 -0.63524225830E+03  0.99883992155E+03 -0.53659911208E+03  0.12996746268E+04  0.12699999809E+01 0.  1.
       -4    1    3    3    0  502  0.63524225830E+03 -0.99883992155E+03  0.15777620293E+04  0.19724473502E+04  0.12699999809E+01 0. -1.
</event>
<event>
 5   0  0.7071012E-06  0.2013439E+04  0.7818609E-02  0.8600363E-01
       -2   -1    0    0    0  501  0.00000000000E+00  0.00000000000E+00  0.65465987545E+03  0.65465987546E+03  0.25500000920E-02 0.  1.
        2   -1    0    0  501    0  0.00000000000E+00  0.00000000000E+00 -0.15481084955E+04  0.15481084955E+04  0.25500000920E-02 0. -1.
    10030    2    1    2    0    0  0.00000000000E+00  0.00000000000E+00 -0.89344862001E+03  0.22027683709E+04  0.20134393607E+04 0.  0.
        1    1    3    3  502    0  0.92301000042E+03  0.60803542773E+02 -0.12075204259E+02  0.92508936988E+03  0.50400001928E-02 0.  1.
       -1    1    3    3    0  502 -0.92301000042E+03 -0.60803542773E+02 -0.88137341576E+03  0.12776790010E+04  0.50400001928E-02 0. -1.
</event>
<event>
 5   0  0.2598987E-06  0.2969449E+04  0.7818609E-02  0.8252509E-01
        1   -1    0    0  501    0  0.00000000000E+00  0.00000000000E+00  0.15212567542E+04  0.15212567542E+04  0.50400001928E-02 0. -1.
       -1   -1    0    0    0  501  0.00000000000E+00  0.00000000000E+00 -0.14490699569E+04  0.14490699569E+04  0.50400001928E-02 0.  1.
    10030    2    1    2    0    0  0.00000000000E+00  0.00000000000E+00  0.72186797352E+02  0.29703267111E+04  0.29694494164E+04 0.  0.
        2    1    3    3  502    0 -0.12047428691E+04  0.84739047637E+03  0.22304821261E+03  0.14897068521E+04  0.25500000920E-02 0. -1.
       -2    1    3    3    0  502  0.12047428691E+04 -0.84739047637E+03 -0.15086141525E+03  0.14806198590E+04  0.25500000920E-02 0.  1.
</event>
<event>
 5   0  0.7414808E-06  0.3097065E+04  0.7818609E-02  0.8216544E-01
        2   -1    0    0  501    0  0.00000000000E+00  0.00000000000E+00  0.14880301072E+04  0.14880301072E+04  0.25500000920E-02 0. -1.
       -2   -1    0    0    0  501  0.00000000000E+00  0.00000000000E+00 -0.16114948312E+04  0.16114948312E+04  0.25500000920E-02 0.  1.
    10030    2    1    2    0    0  0.00000000000E+00  0.00000000000E+00 -0.12346472397E+03  0.30995249384E+04  0.30970649502E+04 0.  0.
        2    1    3    3  502    0 -0.46129622798E+03 -0.82244577767E+02  0.14153784676E+04  0.14909240716E+04  0.25500000920E-02 0. -1.
       -2    1    3    3    0  502  0.46129622798E+03  0.82244577767E+02 -0.15388431916E+04  0.16086008669E+04  0.25500000920E-02 0.  1.
</event>
<event>
 5   0  0.7071012E-06  0.3050761E+04  0.7818609E-02  0.8229382E-01
        2   -1    0    0  501    0  0.00000000000E+00  0.00000000000E+00  0.22276665017E+04  0.22276665017E+04  0.25500000920E-02 0.  1.
       -2   -1    0    0    0  501  0.00000000000E+00  0.00000000000E+00 -0.10444946563E+04  0.10444946563E+04  0.25500000920E-02 0. -1.
    10030    2    1    2    0    0  0.00000000000E+00  0.00000000000E+00  0.11831718455E+04  0.32721611580E+04  0.30507610572E+04 0.  0.
        1    1    3    3  502    0  0.29354085835E+03  0.18565285106E+03 -0.10015185608E+04  0.10600342656E+04  0.50400001928E-02 0. -1.
       -1    1    3    3    0  502 -0.29354085835E+03 -0.18565285106E+03  0.21846904063E+04  0.22121268924E+04  0.50400001928E-02 0.  1.
</event>
<event>
 5   0  0.7094341E-06  0.3063161E+04  0.7818609E-02  0.8225921E-01
        2   -1    0    0  501    0  0.00000000000E+00  0.00000000000E+00  0.24188717690E+04  0.24188717690E+04  0.25500000920E-02 0. -1.
       -2   -1    0    0    0  501  0.00000000000E+00  0.00000000000E+00 -0.96976599389E+03  0.96976599389E+03  0.25500000920E-02 0.  1.
    10030    2    1    2    0    0  0.00000000000E+00  0.00000000000E+00  0.14491057751E+04  0.33886377629E+04  0.30631614944E+04 0.  0.
        3    1    3    3  502    0 -0.30742001123E+03 -0.75594445027E+03  0.21583295923E+04  0.23074543797E+04  0.10100000352E+00 0. -1.
       -3    1    3    3    0  502  0.30742001123E+03  0.75594445027E+03 -0.70922381714E+03  0.10811833832E+04  0.10100000352E+00 0.  1.
</event>
<event>
 5   0  0.7414808E-06  0.3084300E+04  0.7818609E-02  0.8220060E-01
        2   -1    0    0  501    0  0.00000000000E+00  0.00000000000E+00  0.21122254059E+04  0.21122254059E+04  0.25500000920E-02 0. -1.
       -2   -1    0    0    0  501  0.00000000000E+00  0.00000000000E+00 -0.11259341499E+04  0.11259341499E+04  0.25500000920E-02 0.  1.
    10030    2    1    2    0    0  0.00000000000E+00  0.00000000000E+00  0.98629125606E+03  0.32381595558E+04  0.30843000611E+04 0.  0.
        2    1    3    3  502    0  0.88306020783E+03  0.12629426589E+04  0.55442892593E+03  0.16377456836E+04  0.25500000920E-02 0.  1.
       -2    1    3    3    0  502 -0.88306020783E+03 -0.12629426589E+04  0.43186233013E+03  0.16004138722E+04  0.25500000920E-02 0. -1.
</event>
<event>
 5   0  0.2674441E-06  0.2790824E+04  0.7818609E-02  0.8306123E-01
       -1   -1    0    0    0  501  0.00000000000E+00  0.00000000000E+00  0.89187298236E+03  0.89187298238E+03  0.50400001928E-02 0. -1.
        1   -1    0    0  501    0  0.00000000000E+00  0.00000000000E+00 -0.21832426204E+04  0.21832426205E+04  0.50400001928E-02 0.  1.
    10030    2    1    2    0    0  0.00000000000E+00  0.00000000000E+00 -0.12913696381E+04  0.30751156028E+04  0.27908243278E+04 0.  0.
        5    1    3    3  502    0  0.22824241412E+02 -0.12494779302E+04 -0.13297628334E+04  0.18248307667E+04  0.46999998093E+01 0.  1.
       -5    1    3    3    0  502 -0.22824241412E+02  0.12494779302E+04  0.38393195355E+02  0.12502848361E+04  0.46999998093E+01 0. -1.
</event>
<event>
 5   0  0.7363513E-06  0.2992629E+04  0.7818609E-02  0.8245839E-01
       -2   -1    0    0    0  501  0.00000000000E+00  0.00000000000E+00  0.24437515090E+04  0.24437515090E+04  0.25500000920E-02 0.  1.
        2   -1    0    0  501    0  0.00000000000E+00  0.00000000000E+00 -0.91619671478E+03  0.91619671478E+03  0.25500000920E-02 0. -1.
    10030    2    1    2    0    0  0.00000000000E+00  0.00000000000E+00  0.15275547943E+04  0.33599482238E+04  0.29926290143E+04 0.  0.
        4    1    3    3  502    0  0.90505195412E+02 -0.94248520323E+03 -0.53709463352E+03  0.10885503236E+04  0.12699999809E+01 0. -1.
       -4    1    3    3    0  502 -0.90505195412E+02  0.94248520323E+03  0.20646494278E+04  0.22713979003E+04  0.12699999809E+01 0.  1.
</event>
<event>
 5   0  0.2517725E-06  0.2655970E+04  0.7818609E-02  0.8349434E-01
        1   -1    0    0  501    0  0.00000000000E+00  0.00000000000E+00  0.20883197180E+04  0.20883197181E+04  0.50400001928E-02 0. -1.
       -1   -1    0    0    0  501  0.00000000000E+00  0.00000000000E+00 -0.84448010173E+03  0.84448010175E+03  0.50400001928E-02 0.  1.
    10030    2    1    2    0    0  0.00000000000E+00  0.00000000000E+00  0.12438396163E+04  0.29327998198E+04  0.26559702167E+04 0.  0.
        3    1    3    3  502    0 -0.36808548812E+03  0.16696017146E+03 -0.77491125753E+03  0.87398517874E+03  0.10100000352E+00 0.  1.
       -3    1    3    3    0  502  0.36808548812E+03 -0.16696017146E+03  0.20187508738E+04  0.20588146411E+04  0.10100000352E+00 0. -1.
</event>
<event>
 5   0  0.2624011E-06  0.3063423E+04  0.7818609E-02  0.8225848E-01
       -1   -1    0    0    0  501  0.00000000000E+00  0.00000000000E+00  0.10962060596E+04  0.10962060596E+04  0.50400001928E-02 0. -1.
        1   -1    0    0  501    0  0.00000000000E+00  0.00000000000E+00 -0.21402365355E+04  0.21402365355E+04  0.50400001928E-02 0.  1.
    10030    2    1    2    0    0  0.00000000000E+00  0.00000000000E+00 -0.10440304759E+04  0.32364425951E+04  0.30634230914E+04 0.  0.
        1    1    3    3  502    0  0.71684863318E+03  0.13362602230E+04 -0.75026587010E+03  0.16918517140E+04  0.50400001928E-02 0.  1.
       -1    1    3    3    0  502 -0.71684863318E+03 -0.13362602230E+04 -0.29376460582E+03  0.15445908811E+04  0.50400001928E-02 0. -1.
</event>
<event>
 5   0  0.7094341E-06  0.3061475E+04  0.7818609E-02  0.8226391E-01
        2   -1    0    0  501    0  0.00000000000E+00  0.00000000000E+00  0.18585443812E+04  0.18585443812E+04  0.25500000920E-02 0.  1.
       -2   -1    0    0    0  501  0.00000000000E+00  0.00000000000E+00 -0.12607482972E+04  0.12607482972E+04  0.25500000920E-02 0. -1.
    10030    2    1    2    0    0  0.00000000000E+00  0.00000000000E+00  0.59779608391E+03  0.31192926784E+04  0.30614745884E+04 0.  0.
        3    1    3    3  502    0 -0.79116040565E+03  0.94273357859E+03 -0.62849800523E+03  0.13819157501E+04  0.10100000352E+00 0. -1.
       -3    1    3    3    0  502  0.79116040565E+03 -0.94273357859E+03  0.12262940891E+04  0.17373769283E+04  0.10100000352E+00 0.  1.
</event>
<event>
 5   0  0.2393250E-06  0.3112215E+04  0.7818609E-02  0.8212394E-01
        3   -1    0    0  501    0  0.00000000000E+00  0.00000000000E+00  0.22028752237E+04  0.22028752260E+04  0.10100000352E+00 0.  1.
       -3   -1    0    0    0  501  0.00000000000E+00  0.00000000000E+00 -0.10992316370E+04  0.10992316417E+04  0.10100000352E+00 0. -1.
    10030    2    1    2    0    0  0.00000000000E+00  0.00000000000E+00  0.11036435867E+04  0.33021068677E+04  0.31122147418E+04 0.  0.
        2    1    3    3  502    0 -0.22344385535E+03 -0.11731195459E+04  0.16103584082E+04  0.20048418462E+04  0.25500000920E-02 0.  1.
       -2    1    3    3    0  502  0.22344385535E+03  0.11731195459E+04 -0.50671482152E+03  0.12972650215E+04  0.25500000920E-02 0. -1.
</event>
<event>
 5   0  0.2517725E-06  0.3096591E+04  0.7818609E-02  0.8216674E-01
        1   -1    0    0  501    0  0.00000000000E+00  0.00000000000E+00  0.14770966153E+04  0.14770966153E+04  0.50400001928E-02 0. -1.
       -1   -1    0    0    0  501  0.00000000000E+00  0.00000000000E+00 -0.16229265172E+04  0.16229265172E+04  0.50400001928E-02 0.  1.
    10030    2    1    2    0    0  0.00000000000E+00  0.00000000000E+00 -0.14582990190E+03  0.31000231324E+04  0.30965912002E+04 0.  0.
        3    1    3    3  502    0 -0.61229416534E+02 -0.44310780084E+03  0.14109982911E+04  0.14802059831E+04  0.10100000352E+00 0. -1.
       -3    1    3    3    0  502  0.61229416534E+02  0.44310780084E+03 -0.15568281930E+04  0.16198171494E+04  0.10100000352E+00 0.  1.
</event>
<event>
 5   0  0.2612331E-06  0.3097001E+04  0.7818609E-02  0.8216561E-01
        1   -1    0    0  501    0  0.00000000000E+00  0.00000000000E+00  0.26660193264E+04  0.26660193264E+04  0.50400001928E-02 0. -1.
       -1   -1    0    0    0  501  0.00000000000E+00  0.00000000000E+00 -0.89941379447E+03  0.89941379449E+03  0.50400001928E-02 0.  1.
    10030    2    1    2    0    0  0.00000000000E+00  0.00000000000E+00  0.17666055320E+04  0.35654331209E+04  0.30970014908E+04 0.  0.
        4    1    3    3  502    0  0.53348677855E+03 -0.12798873469E+04  0.16768605588E+04  0.21759096282E+04  0.12699999809E+01 0. -1.
       -4    1    3    3    0  502 -0.53348677855E+03  0.12798873469E+04  0.89744973145E+02  0.13895234927E+04  0.12699999809E+01 0.  1.
</event>
<event>
 5   0  0.2674441E-06  0.3097765E+04  0.7818609E-02  0.8216352E-01
       -1   -1    0    0    0  501  0.00000000000E+00  0.00000000000E+00  0.20814360881E+04  0.20814360881E+04  0.50400001928E-02 0.  1.
        1   -1    0    0  501    0  0.00000000000E+00  0.00000000000E+00 -0.11525871410E+04  0.11525871410E+04  0.50400001928E-02 0. -1.
    10030    2    1    2    0    0  0.00000000000E+00  0.00000000000E+00  0.92884894717E+03  0.32340232291E+04  0.30977646586E+04 0.  0.
        5    1    3    3  502    0  0.13150692824E+04 -0.87242129162E+02  0.13138442893E+04  0.18609748287E+04  0.46999998093E+01 0.  1.
       -5    1    3    3    0  502 -0.13150692824E+04  0.87242129162E+02 -0.38499534211E+03  0.13730484004E+04  0.46999998093E+01 0. -1.
</event>
<event>
 5   0  0.2612331E-06  0.3104383E+04  0.7818609E-02  0.8214536E-01
        1   -1    0    0  501    0  0.00000000000E+00  0.00000000000E+00  0.23667423528E+04  0.23667423528E+04  0.50400001928E-02 0.  1.
       -1   -1    0    0    0  501  0.00000000000E+00  0.00000000000E+00 -0.10179809804E+04  0.10179809804E+04  0.50400001928E-02 0. -1.
    10030    2    1    2    0    0  0.00000000000E+00  0.00000000000E+00  0.13487613724E+04  0.33847233332E+04  0.31043831597E+04 0.  0.
        4    1    3    3  502    0 -0.12333993394E+04  0.40965889216E+02 -0.35209636544E+03  0.12833259905E+04  0.12699999809E+01 0. -1.
       -4    1    3    3    0  502  0.12333993394E+04 -0.40965889216E+02  0.17008577378E+04  0.21013973427E+04  0.12699999809E+01 0.  1.
</event>
<event>
 5   0  0.7094341E-06  0.2685499E+04  0.7818609E-02  0.8339725E-01
        2   -1    0    0  501    0  0.00000000000E+00  0.00000000000E+00  0.10966881074E+04  0.10966881074E+04  0.25500000920E-02 0. -1.
       -2   -1    0    0    0  501  0.00000000000E+00  0.00000000000E+00 -0.16440197282E+04  0.16440197282E+04  0.25500000920E-02 0.  1.
    10030    2    1    2    0    0  0.00000000000E+00  0.00000000000E+00 -0.54733162078E+03  0.27407078356E+04  0.26854994949E+04 0.  0.
        3    1    3    3  502    0 -0.67018478889E+03 -0.10003224757E+04 -0.88017624887E+03  0.14914767668E+04  0.10100000352E+00 0. -1.
       -3    1    3    3    0  502  0.67018478889E+03  0.10003224757E+04  0.33284462808E+03  0.12492310688E+04  0.10100000352E+00 0.  1.
</event>
<event>
 5   0  0.2612331E-06  0.2288844E+04  0.7818609E-02  0.8482333E-01
       -1   -1    0    0    0  501  0.00000000000E+00  0.00000000000E+00  0.79761156519E+03  0.79761156521E+03  0.50400001928E-02 0.  1.
        1   -1    0    0  501    0  0.00000000000E+00  0.00000000000E+00 -0.16420296265E+04  0.16420296265E+04  0.50400001928E-02 0. -1.
    10030    2    1    2    0    0  0.00000000000E+00  0.00000000000E+00 -0.84441806128E+03  0.24396411917E+04  0.22888440930E+04 0.  0.
        4    1    3    3  502    0  0.14765181669E+03 -0.35417801982E+03  0.72699782867E+03  0.82205266528E+03  0.12699999809E+01 0.  1.
       -4    1    3    3    0  502 -0.14765181669E+03  0.35417801982E+03 -0.15714158899E+04  0.16175885264E+04  0.12699999809E+01 0. -1.
</event>
<event>
 5   0  0.7094341E-06  0.3102666E+04  0.7818609E-02  0.8215007E-01
        2   -1    0    0  501    0  0.00000000000E+00  0.00000000000E+00  0.18137037476E+04  0.18137037476E+04  0.25500000920E-02 0.  1.
       -2   -1    0    0    0  501  0.00000000000E+00  0.00000000000E+00 -0.13269168377E+04  0.13269168377E+04  0.25500000920E-02 0. -1.
    10030    2    1    2    0    0  0.00000000000E+00  0.00000000000E+00  0.48678690991E+03  0.31406205853E+04  0.31026659771E+04 0.  0.
        3    1    3    3  502    0  0.12524082509E+04 -0.41395443200E+03  0.10699293984E+04  0.16984209214E+04  0.10100000352E+00 0.  1.
       -3    1    3    3    0  502 -0.12524082509E+04  0.41395443200E+03 -0.58314248846E+03  0.14421996639E+04  0.10100000352E+00 0. -1.
</event>
<event>
 5   0  0.7363513E-06  0.3159930E+04  0.7818609E-02  0.8199480E-01
       -2   -1    0    0    0  501  0.00000000000E+00  0.00000000000E+00  0.11944396758E+04  0.11944396758E+04  0.25500000920E-02 0. -1.
        2   -1    0    0  501    0  0.00000000000E+00  0.00000000000E+00 -0.20899256389E+04  0.20899256389E+04  0.25500000920E-02 0.  1.
    10030    2    1    2    0    0  0.00000000000E+00  0.00000000000E+00 -0.89548596302E+03  0.32843653147E+04  0.31599304439E+04 0.  0.
        4    1    3    3  502    0  0.64190048228E+03 -0.29693288974E+02 -0.19479707381E+04  0.20512214726E+04  0.12699999809E+01 0.  1.
       -4    1    3    3    0  502 -0.64190048228E+03  0.29693288974E+02  0.10524847751E+04  0.12331438420E+04  0.12699999809E+01 0. -1.
</event>
<event>
 5   0  0.2612331E-06  0.2012782E+04  0.7818609E-02  0.8600668E-01
       -1   -1    0    0    0  501  0.00000000000E+00  0.00000000000E+00  0.84671316901E+03  0.84671316903E+03  0.50400001928E-02 0.  1.
        1   -1    0    0  501    0  0.00000000000E+00  0.00000000000E+00 -0.11961823460E+04  0.11961823460E+04  0.50400001928E-02 0. -1.
    10030    2    1    2    0    0  0.00000000000E+00  0.00000000000E+00 -0.34946917694E+03  0.20428955150E+04  0.20127824968E+04 0.  0.
        4    1    3    3  502    0  0.78742879799E+03 -0.18912605900E+02  0.46107172736E+03  0.91268315928E+03  0.12699999809E+01 0.  1.
       -4    1    3    3    0  502 -0.78742879799E+03  0.18912605900E+02 -0.81054090430E+03  0.11302123557E+04  0.12699999809E+01 0. -1.
</event>
<event>
 5   0  0.2624011E-06  0.3112457E+04  0.7818609E-02  0.8212327E-01
       -1   -1    0    0    0  501  0.00000000000E+00  0.00000000000E+00  0.15618606257E+04  0.15618606257E+04  0.50400001928E-02 0. -1.
        1   -1    0    0  501    0  0.00000000000E+00  0.00000000000E+00 -0.15506167631E+04  0.15506167631E+04  0.50400001928E-02 0.  1.
    10030    2    1    2    0    0  0.00000000000E+00  0.00000000000E+00  0.11243862661E+02  0.31124773888E+04  0.31124570794E+04 0.  0.
        1    1    3    3  502    0 -0.11718416700E+04 -0.87379187161E+03  0.53959370420E+03  0.15581676740E+04  0.50400001928E-02 0. -1.
       -1    1    3    3    0  502  0.11718416700E+04  0.87379187161E+03 -0.52834984154E+03  0.15543097148E+04  0.50400001928E-02 0.  1.
</event>
<event>
 5   0  0.7414808E-06  0.3123298E+04  0.7818609E-02  0.8209373E-01
        2   -1    0    0  501    0  0.00000000000E+00  0.00000000000E+00  0.18388260584E+04  0.18388260584E+04  0.25500000920E-02 0.  1.
       -2   -1    0    0    0  501  0.00000000000E+00  0.00000000000E+00 -0.13262526733E+04  0.13262526733E+04  0.25500000920E-02 0. -1.
    10030    2    1    2    0    0  0.00000000000E+00  0.00000000000E+00  0.51257338501E+03  0.31650787317E+04  0.31232982411E+04 0.  0.
        2    1    3    3  502    0 -0.52635063028E+03  0.82556921185E+03 -0.97659735624E+03  0.13828781240E+04  0.25500000920E-02 0. -1.
       -2    1    3    3    0  502  0.52635063028E+03 -0.82556921185E+03  0.14891707413E+04  0.17822006077E+04  0.25500000920E-02 0.  1.
</event>
<event>
 5   0  0.7094341E-06  0.3070269E+04  0.7818609E-02  0.8223945E-01
       -2   -1    0    0    0  501  0.00000000000E+00  0.00000000000E+00  0.14817373842E+04  0.14817373842E+04  0.25500000920E-02 0. -1.
        2   -1    0    0  501    0  0.00000000000E+00  0.00000000000E+00 -0.15904554178E+04  0.15904554178E+04  0.25500000920E-02 0.  1.
    10030    2    1    2    0    0  0.00000000000E+00  0.00000000000E+00 -0.10871803357E+03  0.30721928020E+04  0.30702685553E+04 0.  0.
        3    1    3    3  502    0 -0.13469777075E+03  0.28927660237E+03 -0.15569035342E+04  0.15892680917E+04  0.10100000352E+00 0.  1.
       -3    1    3    3    0  502  0.13469777075E+03 -0.28927660237E+03  0.14481855006E+04  0.14829247104E+04  0.10100000352E+00 0. -1.
</event>
<event>
 5   0  0.2612331E-06  0.3187363E+04  0.7818609E-02  0.8192163E-01
        1   -1    0    0  501    0  0.00000000000E+00  0.00000000000E+00  0.21715932387E+04  0.21715932387E+04  0.50400001928E-02 0.  1.
       -1   -1    0    0    0  501  0.00000000000E+00  0.00000000000E+00 -0.11695656161E+04  0.11695656161E+04  0.50400001928E-02 0. -1.
    10030    2    1    2    0    0  0.00000000000E+00  0.00000000000E+00  0.10020276226E+04  0.33411588548E+04  0.31873630381E+04 0.  0.
        4    1    3    3  502    0 -0.80420580515E+03 -0.12817563384E+04  0.10253208758E+04  0.18278213258E+04  0.12699999809E+01 0. -1.
       -4    1    3    3    0  502  0.80420580515E+03  0.12817563384E+04 -0.23293253158E+02  0.15133375289E+04  0.12699999809E+01 0.  1.
</event>
<event>
 5   0  0.2598987E-06  0.3080737E+04  0.7818609E-02  0.8221044E-01
        1   -1    0    0  501    0  0.00000000000E+00  0.00000000000E+00  0.67475824607E+03  0.67475824609E+03  0.50400001928E-02 0. -1.
       -1   -1    0    0    0  501  0.00000000000E+00  0.00000000000E+00 -0.35164219900E+04  0.35164219900E+04  0.50400001928E-02 0.  1.
    10030    2    1    2    0    0  0.00000000000E+00  0.00000000000E+00 -0.28416637439E+04  0.41911802360E+04  0.30807367524E+04 0.  0.
        2    1    3    3  502    0 -0.38294262640E+03 -0.36735026683E+03 -0.33881457786E+04  0.34294493860E+04  0.25500000920E-02 0.  1.
       -2    1    3    3    0  502  0.38294262640E+03  0.36735026683E+03  0.54648203475E+03  0.76173085008E+03  0.25500000920E-02 0. -1.
</event>
<event>
 5   0  0.2624011E-06  0.2829464E+04  0.7818609E-02  0.8294179E-01
       -1   -1    0    0    0  501  0.00000000000E+00  0.00000000000E+00  0.11000304877E+04  0.11000304877E+04  0.50400001928E-02 0.  1.
        1   -1    0    0  501    0  0.00000000000E+00  0.00000000000E+00 -0.18194652104E+04  0.18194652104E+04  0.50400001928E-02 0. -1.
    10030    2    1    2    0    0  0.00000000000E+00  0.00000000000E+00 -0.71943472273E+03  0.29194956981E+04  0.28294644036E+04 0.  0.
        1    1    3    3  502    0  0.12842518796E+04 -0.34345615140E+03  0.13962576497E+03  0.13366975620E+04  0.50400001928E-02 0. -1.
       -1    1    3    3    0  502 -0.12842518796E+04  0.34345615140E+03 -0.85906048771E+03  0.15827981361E+04  0.50400001928E-02 0.  1.
</event>
<event>
 5   0  0.7414808E-06  0.3143280E+04  0.7818609E-02  0.8203960E-01
       -2   -1    0    0    0  501  0.00000000000E+00  0.00000000000E+00  0.12958476472E+04  0.12958476472E+04  0.25500000920E-02 0. -1.
        2   -1    0    0  501    0  0.00000000000E+00  0.00000000000E+00 -0.19061282525E+04  0.19061282525E+04  0.25500000920E-02 0.  1.
    10030    2    1    2    0    0  0.00000000000E+00  0.00000000000E+00 -0.61028060526E+03  0.32019758997E+04  0.31432796956E+04 0.  0.
        2    1    3    3  502    0  0.13712090026E+04 -0.63266398157E+03  0.13839110914E+03  0.15164530792E+04  0.25500000920E-02 0.  1.
       -2    1    3    3    0  502 -0.13712090026E+04  0.63266398157E+03 -0.74867171440E+03  0.16855228205E+04  0.25500000920E-02 0. -1.
</event>
<event>
 5   0  0.2674441E-06  0.3100107E+04  0.7818609E-02  0.8215709E-01
       -1   -1    0    0    0  501  0.00000000000E+00  0.00000000000E+00  0.13851811427E+04  0.13851811428E+04  0.50400001928E-02 0. -1.
        1   -1    0    0  501    0  0.00000000000E+00  0.00000000000E+00 -0.17345495627E+04  0.17345495627E+04  0.50400001928E-02 0.  1.
    10030    2    1    2    0    0  0.00000000000E+00  0.00000000000E+00 -0.34936841992E+03  0.31197307054E+04  0.31001066726E+04 0.  0.
        5    1    3    3  502    0  0.58736522018E+02  0.45943188565E+03  0.13139075225E+04  0.13931628420E+04  0.46999998093E+01 0. -1.
       -5    1    3    3    0  502 -0.58736522018E+02 -0.45943188565E+03 -0.16632759424E+04  0.17265678635E+04  0.46999998093E+01 0.  1.
</event>
<event>
 5   0  0.2517725E-06  0.3218935E+04  0.7818609E-02  0.8183834E-01
        1   -1    0    0  501    0  0.00000000000E+00  0.00000000000E+00  0.27238311899E+04  0.27238311899E+04  0.50400001928E-02 0. -1.
       -1   -1    0    0    0  501  0.00000000000E+00  0.00000000000E+00 -0.95100838963E+03  0.95100838964E+03  0.50400001928E-02 0.  1.
    10030    2    1    2    0    0  0.00000000000E+00  0.00000000000E+00  0.17728228003E+04  0.36748395796E+04  0.32189354225E+04 0.  0.
        3    1    3    3  502    0  0.10251175345E+04  0.12130118175E+04  0.58844179487E+03  0.16936727503E+04  0.10100000352E+00 0. -1.
       -3    1    3    3    0  502 -0.10251175345E+04 -0.12130118175E+04  0.11843810054E+04  0.19811668292E+04  0.10100000352E+00 0.  1.
</event>
<event>
 5   0  0.7094341E-06  0.3090717E+04  0.7818609E-02  0.8218290E-01
       -2   -1    0    0    0  501  0.00000000000E+00  0.00000000000E+00  0.16780848568E+04  0.16780848568E+04  0.25500000920E-02 0. -1.
        2   -1    0    0  501    0  0.00000000000E+00  0.00000000000E+00 -0.14231299671E+04  0.14231299671E+04  0.25500000920E-02 0.  1.
    10030    2    1    2    0    0  0.00000000000E+00  0.00000000000E+00  0.25495488968E+03  0.31012148239E+04  0.30907169700E+04 0.  0.
        3    1    3    3  502    0  0.42704656434E+03 -0.14358952834E+04  0.50819842748E+03  0.15819069773E+04  0.10100000352E+00 0. -1.
       -3    1    3    3    0  502 -0.42704656434E+03  0.14358952834E+04 -0.25324353780E+03  0.15193078466E+04  0.10100000352E+00 0.  1.
</event>
<event>
 5   0  0.7094341E-06  0.3071538E+04  0.7818609E-02  0.8223593E-01
       -2   -1    0    0    0  501  0.00000000000E+00  0.00000000000E+00  0.13386315409E+04  0.13386315409E+04  0.25500000920E-02 0. -1.
        2   -1    0    0  501    0  0.00000000000E+00  0.00000000000E+00 -0.17619388604E+04  0.17619388604E+04  0.25500000920E-02 0.  1.
    10030    2    1    2    0    0  0.00000000000E+00  0.00000000000E+00 -0.42330731946E+03  0.31005704013E+04  0.30715383323E+04 0.  0.
        3    1    3    3  502    0  0.12826341693E+04 -0.59112551618E+03  0.39737903075E+03  0.14671366305E+04  0.10100000352E+00 0.  1.
       -3    1    3    3    0  502 -0.12826341693E+04  0.59112551618E+03 -0.82068635021E+03  0.16334337709E+04  0.10100000352E+00 0. -1.
</event>
<event>
 5   0  0.2624011E-06  0.3067874E+04  0.7818609E-02  0.8224610E-01
       -1   -1    0    0    0  501  0.00000000000E+00  0.00000000000E+00  0.98067649850E+03  0.98067649851E+03  0.50400001928E-02 0.  1.
        1   -1    0    0  501    0  0.00000000000E+00  0.00000000000E+00 -0.23993254220E+04  0.23993254220E+04  0.50400001928E-02 0. -1.
    10030    2    1    2    0    0  0.00000000000E+00  0.00000000000E+00 -0.14186489235E+04  0.33800019205E+04  0.30678735656E+04 0.  0.
        1    1    3    3  502    0  0.24936036307E+03  0.68639372050E+03  0.77686041840E+03  0.10662218530E+04  0.50400001928E-02 0.  1.
       -1    1    3    3    0  502 -0.24936036307E+03 -0.68639372050E+03 -0.21955093419E+04  0.23137800674E+04  0.50400001928E-02 0. -1.
</event>
<event>
 5   0  0.7071012E-06  0.3123923E+04  0.7818609E-02  0.8209203E-01
       -2   -1    0    0    0  501  0.00000000000E+00  0.00000000000E+00  0.14114852288E+04  0.14114852288E+04  0.25500000920E-02 0.  1.
        2   -1    0    0  501    0  0.00000000000E+00  0.00000000000E+00 -0.17284793343E+04  0.17284793343E+04  0.25500000920E-02 0. -1.
    10030    2    1    2    0    0  0.00000000000E+00  0.00000000000E+00 -0.31699410543E+03  0.31399645631E+04  0.31239225654E+04 0.  0.
        1    1    3    3  502    0 -0.15208644891E+04  0.28180329756E+03 -0.37705596913E+03  0.15920468262E+04  0.50400001928E-02 0. -1.
       -1    1    3    3    0  502  0.15208644891E+04 -0.28180329756E+03  0.60061863699E+02  0.15479177369E+04  0.50400001928E-02 0.  1.
</event>
<event>
 5   0  0.2598987E-06  0.2990468E+04  0.7818609E-02  0.8246458E-01
       -1   -1    0    0    0  501  0.00000000000E+00  0.00000000000E+00  0.12863058347E+04  0.12863058347E+04  0.50400001928E-02 0. -1.
        1   -1    0    0  501    0  0.00000000000E+00  0.00000000000E+00 -0.17380974077E+04  0.17380974077E+04  0.50400001928E-02 0.  1.
    10030    2    1    2    0    0  0.00000000000E+00  0.00000000000E+00 -0.45179157298E+03  0.30244032425E+04  0.29904680817E+04 0.  0.
        2    1    3    3  502    0 -0.52529169388E+02  0.23280040848E+03 -0.17187113921E+04  0.17352014849E+04  0.25500000920E-02 0.  1.
       -2    1    3    3    0  502  0.52529169388E+02 -0.23280040848E+03  0.12669198191E+04  0.12892017576E+04  0.25500000920E-02 0. -1.
</event>
<event>
 5   0  0.2624011E-06  0.3020032E+04  0.7818609E-02  0.8238034E-01
        1   -1    0    0  501    0  0.00000000000E+00  0.00000000000E+00  0.10324718161E+04  0.10324718161E+04  0.50400001928E-02 0.  1.
       -1   -1    0    0    0  501  0.00000000000E+00  0.00000000000E+00 -0.22084356648E+04  0.22084356648E+04  0.50400001928E-02 0. -1.
    10030    2    1    2    0    0  0.00000000000E+00  0.00000000000E+00 -0.11759638488E+04  0.32409074809E+04  0.30200315108E+04 0.  0.
        1    1    3    3  502    0  0.79246985875E+03 -0.47522252612E+03  0.69364317554E+03  0.11554158478E+04  0.50400001928E-02 0.  1.
       -1    1    3    3    0  502 -0.79246985875E+03  0.47522252612E+03 -0.18696070243E+04  0.20854916331E+04  0.50400001928E-02 0. -1.
</event>
<event>
 5   0  0.7079223E-06  0.3219433E+04  0.7818609E-02  0.8183704E-01
       -2   -1    0    0    0  501  0.00000000000E+00  0.00000000000E+00  0.22840083123E+04  0.22840083123E+04  0.25500000920E-02 0. -1.
        2   -1    0    0  501    0  0.00000000000E+00  0.00000000000E+00 -0.11344913383E+04  0.11344913384E+04  0.25500000920E-02 0.  1.
    10030    2    1    2    0    0  0.00000000000E+00  0.00000000000E+00  0.11495169740E+04  0.34184996507E+04  0.32194332713E+04 0.  0.
        5    1    3    3  502    0  0.13131641591E+04  0.75818091702E+03  0.10472553686E+01  0.15163316255E+04  0.46999998093E+01 0.  1.
       -5    1    3    3    0  502 -0.13131641591E+04 -0.75818091702E+03  0.11484697186E+04  0.19021680252E+04  0.46999998093E+01 0. -1.
</event>
<event>
 5   0  0.7071012E-06  0.3139986E+04  0.7818609E-02  0.8204849E-01
        2   -1    0    0  501    0  0.00000000000E+00  0.00000000000E+00  0.26242185626E+04  0.26242185626E+04  0.25500000920E-02 0.  1.
       -2   -1    0    0    0  501  0.00000000000E+00  0.00000000000E+00 -0.93928101741E+03  0.93928101742E+03  0.25500000920E-02 0. -1.
    10030    2    1    2    0    0  0.00000000000E+00  0.00000000000E+00  0.16849375452E+04  0.35634995800E+04  0.31399864212E+04 0.  0.
        1    1    3    3  502    0  0.71723291000E+03 -0.11258179735E+04  0.17803675363E+04  0.22252185782E+04  0.50400001928E-02 0.  1.
       -1    1    3    3    0  502 -0.71723291000E+03  0.11258179735E+04 -0.95429991107E+02  0.13382810018E+04  0.50400001928E-02 0. -1.
</event>
<event>
 5   0  0.2598987E-06  0.3101317E+04  0.7818609E-02  0.8215377E-01
       -1   -1    0    0    0  501  0.00000000000E+00  0.00000000000E+00  0.25209401744E+04  0.25209401744E+04  0.50400001928E-02 0.  1.
        1   -1    0    0  501    0  0.00000000000E+00  0.00000000000E+00 -0.95382718329E+03  0.95382718331E+03  0.50400001928E-02 0. -1.
    10030    2    1    2    0    0  0.00000000000E+00  0.00000000000E+00  0.15671129911E+04  0.34747673577E+04  0.31013166661E+04 0.  0.
        2    1    3    3  502    0  0.10381305550E+04  0.68411291982E+03 -0.25475966877E+03  0.12691052065E+04  0.25500000920E-02 0. -1.
       -2    1    3    3    0  502 -0.10381305550E+04 -0.68411291982E+03  0.18218726599E+04  0.22056621512E+04  0.25500000920E-02 0.  1.
</event>
<event>
 5   0  0.2598987E-06  0.3012705E+04  0.7818609E-02  0.8240112E-01
        1   -1    0    0  501    0  0.00000000000E+00  0.00000000000E+00  0.13646380893E+04  0.13646380893E+04  0.50400001928E-02 0.  1.
       -1   -1    0    0    0  501  0.00000000000E+00  0.00000000000E+00 -0.16627833277E+04  0.16627833277E+04  0.50400001928E-02 0. -1.
    10030    2    1    2    0    0  0.00000000000E+00  0.00000000000E+00 -0.29814523843E+03  0.30274214170E+04  0.30127047404E+04 0.  0.
        2    1    3    3  502    0  0.65798808022E+03 -0.10236819715E+04 -0.10412295165E+04  0.16015717276E+04  0.25500000920E-02 0. -1.
       -2    1    3    3    0  502 -0.65798808022E+03  0.10236819715E+04  0.74308427807E+03  0.14258496894E+04  0.25500000920E-02 0.  1.
</event>
<event>
 5   0  0.7414808E-06  0.3069600E+04  0.7818609E-02  0.8224131E-01
       -2   -1    0    0    0  501  0.00000000000E+00  0.00000000000E+00  0.10630220118E+04  0.10630220118E+04  0.25500000920E-02 0. -1.
        2   -1    0    0  501    0  0.00000000000E+00  0.00000000000E+00 -0.22159563711E+04  0.22159563711E+04  0.25500000920E-02 0.  1.
    10030    2    1    2    0    0  0.00000000000E+00  0.00000000000E+00 -0.11529343593E+04  0.32789783829E+04  0.30695995828E+04 0.  0.
        2    1    3    3  502    0  0.12128131802E+04 -0.93645866484E+03 -0.48249040439E+03  0.16064456515E+04  0.25500000920E-02 0.  1.
       -2    1    3    3    0  502 -0.12128131802E+04  0.93645866484E+03 -0.67044395488E+03  0.16725327314E+04  0.25500000920E-02 0. -1.
</event>
<event>
 5   0  0.2517725E-06  0.3142066E+04  0.7818609E-02  0.8204287E-01
       -1   -1    0    0    0  501  0.00000000000E+00  0.00000000000E+00  0.87307731346E+03  0.87307731347E+03  0.50400001928E-02 0.  1.
        1   -1    0    0  501    0  0.00000000000E+00  0.00000000000E+00 -0.28269490935E+04  0.28269490935E+04  0.50400001928E-02 0. -1.
    10030    2    1    2    0    0  0.00000000000E+00  0.00000000000E+00 -0.19538717800E+04  0.37000264069E+04  0.31420662755E+04 0.  0.
        3    1    3    3  502    0 -0.13441831922E+04  0.45403362640E+03 -0.17714037916E+04  0.22695476182E+04  0.10100000352E+00 0. -1.
       -3    1    3    3    0  502  0.13441831922E+04 -0.45403362640E+03 -0.18246798844E+03  0.14304787888E+04  0.10100000352E+00 0.  1.
</event>
<event>
 5   0  0.7079223E-06  0.3206547E+04  0.7818609E-02  0.8187090E-01
        2   -1    0    0  501    0  0.00000000000E+00  0.00000000000E+00  0.19052087770E+04  0.19052087770E+04  0.25500000920E-02 0.  1.
       -2   -1    0    0    0  501  0.00000000000E+00  0.00000000000E+00 -0.13491885336E+04  0.13491885336E+04  0.25500000920E-02 0. -1.
    10030    2    1    2    0    0  0.00000000000E+00  0.00000000000E+00  0.55602024341E+03  0.32543973105E+04  0.32065469502E+04 0.  0.
        5    1    3    3  502    0 -0.70449742303E+03 -0.13216133313E+04 -0.30279293568E+03  0.15279672995E+04  0.46999998093E+01 0.  1.
       -5    1    3    3    0  502  0.70449742303E+03  0.13216133313E+04  0.85881317909E+03  0.17264300110E+04  0.46999998093E+01 0. -1.
</event>
<event>
 5   0  0.2517725E-06  0.3033030E+04  0.7818609E-02  0.8234361E-01
       -1   -1    0    0    0  501  0.00000000000E+00  0.00000000000E+00  0.12154592040E+04  0.12154592040E+04  0.50400001928E-02 0.  1.
        1   -1    0    0  501    0  0.00000000000E+00  0.00000000000E+00 -0.18921394767E+04  0.18921394767E+04  0.50400001928E-02 0. -1.
    10030    2    1    2    0    0  0.00000000000E+00  0.00000000000E+00 -0.67668027269E+03  0.31075986807E+04  0.30330303936E+04 0.  0.
        3    1    3    3  502    0  0.10777795573E+03 -0.11309799298E+04 -0.13675700373E+04  0.17779143699E+04  0.10100000352E+00 0. -1.
       -3    1    3    3    0  502 -0.10777795573E+03  0.11309799298E+04  0.69088976465E+03  0.13296843108E+04  0.10100000352E+00 0.  1.
</event>
<event>
 5   0  0.7414808E-06  0.3065428E+04  0.7818609E-02  0.8225290E-01
       -2   -1    0    0    0  501  0.00000000000E+00  0.00000000000E+00  0.27660294498E+04  0.27660294498E+04  0.25500000920E-02 0.  1.
        2   -1    0    0  501    0  0.00000000000E+00  0.00000000000E+00 -0.84930843978E+03  0.84930843979E+03  0.25500000920E-02 0. -1.
    10030    2    1    2    0    0  0.00000000000E+00  0.00000000000E+00  0.19167210100E+04  0.36153378896E+04  0.30654279678E+04 0.  0.
        2    1    3    3  502    0 -0.11900534145E+04 -0.39048663903E+03 -0.83586620734E+02  0.12552663732E+04  0.25500000920E-02 0. -1.
       -2    1    3    3    0  502  0.11900534145E+04  0.39048663903E+03  0.20003076307E+04  0.23600715163E+04  0.25500000920E-02 0.  1.
</event>
<event>
 5   0  0.7414808E-06  0.3024369E+04  0.7818609E-02  0.8236806E-01
        2   -1    0    0  501    0  0.00000000000E+00  0.00000000000E+00  0.13862391834E+04  0.13862391834E+04  0.25500000920E-02 0. -1.
       -2   -1    0    0    0  501  0.00000000000E+00  0.00000000000E+00 -0.16495721700E+04  0.16495721700E+04  0.25500000920E-02 0.  1.
    10030    2    1    2    0    0  0.00000000000E+00  0.00000000000E+00 -0.26333298662E+03  0.30358113534E+04  0.30243687460E+04 0.  0.
        2    1    3    3  502    0  0.94314539635E+03  0.25053672852E+03 -0.12912035499E+04  0.16184864838E+04  0.25500000920E-02 0.  1.
       -2    1    3    3    0  502 -0.94314539635E+03 -0.25053672852E+03  0.10278705633E+04  0.14173248696E+04  0.25500000920E-02 0. -1.
</event>
<event>
 5   0  0.2624011E-06  0.3138082E+04  0.7818609E-02  0.8205364E-01
        1   -1    0    0  501    0  0.00000000000E+00  0.00000000000E+00  0.17371894025E+04  0.17371894025E+04  0.50400001928E-02 0. -1.
       -1   -1    0    0    0  501  0.00000000000E+00  0.00000000000E+00 -0.14171685146E+04  0.14171685147E+04  0.50400001928E-02 0.  1.
    10030    2    1    2    0    0  0.00000000000E+00  0.00000000000E+00  0.32002088789E+03  0.31543579172E+04  0.31380822967E+04 0.  0.
        1    1    3    3  502    0  0.66325341023E+03 -0.12342692072E+04  0.86976361995E+03  0.16491859558E+04  0.50400001928E-02 0. -1.
       -1    1    3    3    0  502 -0.66325341023E+03  0.12342692072E+04 -0.54974273207E+03  0.15051719614E+04  0.50400001928E-02 0.  1.
</event>
<event>
 5   0  0.7094341E-06  0.2756857E+04  0.7818609E-02  0.8316789E-01
       -2   -1    0    0    0  501  0.00000000000E+00  0.00000000000E+00  0.14304569208E+04  0.14304569208E+04  0.25500000920E-02 0.  1.
        2   -1    0    0  501    0  0.00000000000E+00  0.00000000000E+00 -0.13282928105E+04  0.13282928105E+04  0.25500000920E-02 0. -1.
    10030    2    1    2    0    0  0.00000000000E+00  0.00000000000E+00  0.10216411031E+03  0.27587497313E+04  0.27568573729E+04 0.  0.
        3    1    3    3  502    0 -0.10876766717E+04 -0.83962822404E+03 -0.58763675161E+02  0.13753069754E+04  0.10100000352E+00 0. -1.
       -3    1    3    3    0  502  0.10876766717E+04  0.83962822404E+03  0.16092778548E+03  0.13834427560E+04  0.10100000352E+00 0.  1.
</event>
<event>
 5   0  0.7414808E-06  0.3063096E+04  0.7818609E-02  0.8225939E-01
        2   -1    0    0  501    0  0.00000000000E+00  0.00000000000E+00  0.31191898029E+04  0.31191898029E+04  0.25500000920E-02 0. -1.
       -2   -1    0    0    0  501  0.00000000000E+00  0.00000000000E+00 -0.75200272331E+03  0.75200272331E+03  0.25500000920E-02 0.  1.
    10030    2    1    2    0    0  0.00000000000E+00  0.00000000000E+00  0.23671870796E+04  0.38711925262E+04  0.30630959673E+04 0.  0.
        2    1    3    3  502    0  0.51729020516E+03 -0.13563359457E+04  0.18006713203E+04  0.23129318100E+04  0.25500000920E-02 0. -1.
       -2    1    3    3    0  502 -0.51729020516E+03  0.13563359457E+04  0.56651575924E+03  0.15582607161E+04  0.25500000920E-02 0.  1.
</event>
<event>
 5   0  0.2517725E-06  0.3095028E+04  0.7818609E-02  0.8217104E-01
       -1   -1    0    0    0  501  0.00000000000E+00  0.00000000000E+00  0.15524319286E+04  0.15524319286E+04  0.50400001928E-02 0.  1.
        1   -1    0    0  501    0  0.00000000000E+00  0.00000000000E+00 -0.15426117174E+04  0.15426117174E+04  0.50400001928E-02 0. -1.
    10030    2    1    2    0    0  0.00000000000E+00  0.00000000000E+00  0.98202111822E+01  0.30950436460E+04  0.30950280667E+04 0.  0.
        3    1    3    3  502    0 -0.13251257698E+04  0.77433628970E+03  0.20301379815E+03  0.15481503828E+04  0.10100000352E+00 0.  1.
       -3    1    3    3    0  502  0.13251257698E+04 -0.77433628970E+03 -0.19319358697E+03  0.15468932632E+04  0.10100000352E+00 0. -1.
</event>
<event>
 5   0  0.2517725E-06  0.3093239E+04  0.7818609E-02  0.8217596E-01
        1   -1    0    0  501    0  0.00000000000E+00  0.00000000000E+00  0.24844061134E+04  0.24844061134E+04  0.50400001928E-02 0. -1.
       -1   -1    0    0    0  501  0.00000000000E+00  0.00000000000E+00 -0.96281849147E+03  0.96281849149E+03  0.50400001928E-02 0.  1.
    10030    2    1    2    0    0  0.00000000000E+00  0.00000000000E+00  0.15215876219E+04  0.34472246049E+04  0.30932391736E+04 0.  0.
        3    1    3    3  502    0  0.24805630886E+03  0.13688760735E+04  0.15139089224E+04  0.20560335290E+04  0.10100000352E+00 0. -1.
       -3    1    3    3    0  502 -0.24805630886E+03 -0.13688760735E+04  0.76786994834E+01  0.13911910758E+04  0.10100000352E+00 0.  1.
</event>
<event>
 5   0  0.2612331E-06  0.3271963E+04  0.7818609E-02  0.8170066E-01
        1   -1    0    0  501    0  0.00000000000E+00  0.00000000000E+00  0.18666340455E+04  0.18666340456E+04  0.50400001928E-02 0.  1.
       -1   -1    0    0    0  501  0.00000000000E+00  0.00000000000E+00 -0.14338293626E+04  0.14338293626E+04  0.50400001928E-02 0. -1.
    10030    2    1    2    0    0  0.00000000000E+00  0.00000000000E+00  0.43280468296E+03  0.33004634082E+04  0.32719625326E+04 0.  0.
        4    1    3    3  502    0 -0.56078668726E+03  0.14116421886E+04 -0.39652340474E+03  0.15698559809E+04  0.12699999809E+01 0.  1.
       -4    1    3    3    0  502  0.56078668726E+03 -0.14116421886E+04  0.82932808770E+03  0.17306074273E+04  0.12699999809E+01 0. -1.
</event>
<event>
 5   0  0.7094341E-06  0.3121339E+04  0.7818609E-02  0.8209906E-01
       -2   -1    0    0    0  501  0.00000000000E+00  0.00000000000E+00  0.12194304502E+04  0.12194304502E+04  0.25500000920E-02 0. -1.
        2   -1    0    0  501    0  0.00000000000E+00  0.00000000000E+00 -0.19973987173E+04  0.19973987173E+04  0.25500000920E-02 0.  1.
    10030    2    1    2    0    0  0.00000000000E+00  0.00000000000E+00 -0.77796826712E+03  0.32168291675E+04  0.31213386981E+04 0.  0.
        3    1    3    3  502    0 -0.63703477542E+03  0.14213509035E+04 -0.49015617919E+03  0.16328823553E+04  0.10100000352E+00 0. -1.
       -3    1    3    3    0  502  0.63703477542E+03 -0.14213509035E+04 -0.28781208793E+03  0.15839468123E+04  0.10100000352E+00 0.  1.
</event>
<event>
 5   0  0.7414808E-06  0.3056344E+04  0.7818609E-02  0.8227822E-01
       -2   -1    0    0    0  501  0.00000000000E+00  0.00000000000E+00  0.16179856382E+04  0.16179856382E+04  0.25500000920E-02 0.  1.
        2   -1    0    0  501    0  0.00000000000E+00  0.00000000000E+00 -0.14433438933E+04  0.14433438933E+04  0.25500000920E-02 0. -1.
    10030    2    1    2    0    0  0.00000000000E+00  0.00000000000E+00  0.17464174490E+03  0.30613295315E+04  0.30563440188E+04 0.  0.
        2    1    3    3  502    0  0.15141385628E+04  0.20325484050E+03  0.50090728746E+02  0.15285408724E+04  0.25500000920E-02 0. -1.
       -2    1    3    3    0  502 -0.15141385628E+04 -0.20325484050E+03  0.12455101615E+03  0.15327886590E+04  0.25500000920E-02 0.  1.
</event>
<event>
 5   0  0.7363513E-06  0.3226943E+04  0.7818609E-02  0.8181738E-01
        2   -1    0    0  501    0  0.00000000000E+00  0.00000000000E+00  0.12672896394E+04  0.12672896394E+04  0.25500000920E-02 0.  1.
       -2   -1    0    0    0  501  0.00000000000E+00  0.00000000000E+00 -0.20542189339E+04  0.20542189339E+04  0.25500000920E-02 0. -1.
    10030    2    1    2    0    0  0.00000000000E+00  0.00000000000E+00 -0.78692929457E+03  0.33215085733E+04  0.32269430562E+04 0.  0.
        4    1    3    3  502    0 -0.15199654679E+04 -0.34636565897E+03  0.34687335932E+02  0.15593168432E+04  0.12699999809E+01 0.  1.
       -4    1    3    3    0  502  0.15199654679E+04  0.34636565897E+03 -0.82161663050E+03  0.17621917301E+04  0.12699999809E+01 0. -1.
</event>
<event>
 5   0  0.2598987E-06  0.2011745E+04  0.7818609E-02  0.8601149E-01
       -1   -1    0    0    0  501  0.00000000000E+00  0.00000000000E+00  0.12822251523E+04  0.12822251524E+04  0.50400001928E-02 0. -1.
        1   -1    0    0  501    0  0.00000000000E+00  0.00000000000E+00 -0.78908094004E+03  0.78908094006E+03  0.50400001928E-02 0.  1.
    10030    2    1    2    0    0  0.00000000000E+00  0.00000000000E+00  0.49314421231E+03  0.20713060924E+04  0.20117449427E+04 0.  0.
        2    1    3    3  502    0  0.73926171139E+03  0.67780344213E+03  0.16779511779E+03  0.10168975296E+04  0.25500000920E-02 0. -1.
       -2    1    3    3    0  502 -0.73926171139E+03 -0.67780344213E+03  0.32534909452E+03  0.10544085628E+04  0.25500000920E-02 0.  1.
</event>
<event>
 5   0  0.2393250E-06  0.3208741E+04  0.7818609E-02  0.8186513E-01
        3   -1    0    0  501    0  0.00000000000E+00  0.00000000000E+00  0.91374397349E+03  0.91374397908E+03  0.10100000352E+00 0.  1.
       -3   -1    0    0    0  501  0.00000000000E+00  0.00000000000E+00 -0.28169864285E+04  0.28169864303E+04  0.10100000352E+00 0. -1.
    10030    2    1    2    0    0  0.00000000000E+00  0.00000000000E+00 -0.19032424550E+04  0.37307304094E+04  0.32087408036E+04 0.  0.
        4    1    3    3  502    0  0.14806689260E+04 -0.49744728579E+03 -0.13774985517E+04  0.20826277016E+04  0.12699999809E+01 0. -1.
       -4    1    3    3    0  502 -0.14806689260E+04  0.49744728579E+03 -0.52574390332E+03  0.16481027078E+04  0.12699999809E+01 0.  1.
</event>
<event>
 5   0  0.7071012E-06  0.3162093E+04  0.7818609E-02  0.8198901E-01
        2   -1    0    0  501    0  0.00000000000E+00  0.00000000000E+00  0.13945479833E+04  0.13945479833E+04  0.25500000920E-02 0.  1.
       -2   -1    0    0    0  501  0.00000000000E+00  0.00000000000E+00 -0.17924860195E+04  0.17924860195E+04  0.25500000920E-02 0. -1.
    10030    2    1    2    0    0  0.00000000000E+00  0.00000000000E+00 -0.39793803614E+03  0.31870340028E+04  0.31620928282E+04 0.  0.
        1    1    3    3  502    0 -0.10187597159E+04 -0.96910717821E+03  0.52969094176E+03  0.15025353824E+04  0.50400001928E-02 0.  1.
       -1    1    3    3    0  502  0.10187597159E+04  0.96910717821E+03 -0.92762897790E+03  0.16844986204E+04  0.50400001928E-02 0. -1.
</event>
<event>
 5   0  0.7414808E-06  0.2504073E+04  0.7818609E-02  0.8401536E-01
       -2   -1    0    0    0  501  0.00000000000E+00  0.00000000000E+00  0.90627687798E+03  0.90627687798E+03  0.25500000920E-02 0.  1.
        2   -1    0    0  501    0  0.00000000000E+00  0.00000000000E+00 -0.17297086059E+04  0.17297086059E+04  0.25500000920E-02 0. -1.
    10030    2    1    2    0    0  0.00000000000E+00  0.00000000000E+00 -0.82343172793E+03  0.26359854839E+04  0.25040726149E+04 0.  0.
        2    1    3    3  502    0  0.27635062445E+03  0.57623643707E+03 -0.15450838443E+04  0.16720353420E+04  0.25500000920E-02 0. -1.
       -2    1    3    3    0  502 -0.27635062445E+03 -0.57623643707E+03  0.72165211635E+03  0.96395014190E+03  0.25500000920E-02 0.  1.
</event>
<event>
 5   0  0.2624011E-06  0.3189239E+04  0.7818609E-02  0.8191665E-01
        1   -1    0    0  501    0  0.00000000000E+00  0.00000000000E+00  0.24937258751E+04  0.24937258751E+04  0.50400001928E-02 0.  1.
       -1   -1    0    0    0  501  0.00000000000E+00  0.00000000000E+00 -0.10196833388E+04  0.10196833388E+04  0.50400001928E-02 0. -1.
    10030    2    1    2    0    0  0.00000000000E+00  0.00000000000E+00  0.14740425362E+04  0.35134092139E+04  0.31892386090E+04 0.  0.
        1    1    3    3  502    0 -0.12606590650E+04 -0.61334850859E+03  0.15740925780E+04  0.21078958977E+04  0.50400001928E-02 0.  1.
       -1    1    3    3    0  502  0.12606590650E+04  0.61334850859E+03 -0.10005004175E+03  0.14055133162E+04  0.50400001928E-02 0. -1.
</event>
<event>
 5   0  0.2517725E-06  0.3103608E+04  0.7818609E-02  0.8214749E-01
       -1   -1    0    0    0  501  0.00000000000E+00  0.00000000000E+00  0.14131085507E+04  0.14131085507E+04  0.50400001928E-02 0.  1.
        1   -1    0    0  501    0  0.00000000000E+00  0.00000000000E+00 -0.17041118954E+04  0.17041118954E+04  0.50400001928E-02 0. -1.
    10030    2    1    2    0    0  0.00000000000E+00  0.00000000000E+00 -0.29100334467E+03  0.31172204461E+04  0.31036076368E+04 0.  0.
        3    1    3    3  502    0  0.11819898518E+04 -0.38812343792E+03  0.78612006944E+03  0.14716401009E+04  0.10100000352E+00 0.  1.
       -3    1    3    3    0  502 -0.11819898518E+04  0.38812343792E+03 -0.10771234141E+04  0.16455803452E+04  0.10100000352E+00 0. -1.
</event>
<event>
 5   0  0.2612331E-06  0.3061469E+04  0.7818609E-02  0.8226393E-01
        1   -1    0    0  501    0  0.00000000000E+00  0.00000000000E+00  0.15815817866E+04  0.15815817866E+04  0.50400001928E-02 0.  1.
       -1   -1    0    0    0  501  0.00000000000E+00  0.00000000000E+00 -0.14815216384E+04  0.14815216384E+04  0.50400001928E-02 0. -1.
    10030    2    1    2    0    0  0.00000000000E+00  0.00000000000E+00  0.10006014822E+03  0.30631034250E+04  0.30614686932E+04 0.  0.
        4    1    3    3  502    0  0.43206463972E+03 -0.57919511403E+03 -0.13001345197E+04  0.14874468781E+04  0.12699999809E+01 0. -1.
       -4    1    3    3    0  502 -0.43206463972E+03  0.57919511403E+03  0.14001946679E+04  0.15756565469E+04  0.12699999809E+01 0.  1.
</event>
<event>
 5   0  0.2624011E-06  0.3091884E+04  0.7818609E-02  0.8217969E-01
        1   -1    0    0  501    0  0.00000000000E+00  0.00000000000E+00  0.17273605971E+04  0.17273605971E+04  0.50400001928E-02 0. -1.
       -1   -1    0    0    0  501  0.00000000000E+00  0.00000000000E+00 -0.13835767977E+04  0.13835767977E+04  0.50400001928E-02 0.  1.
    10030    2    1    2    0    0  0.00000000000E+00  0.00000000000E+00  0.34378379946E+03  0.31109373948E+04  0.30918835964E+04 0.  0.
        1    1    3    3  502    0 -0.64280181128E+03  0.55301550384E+03  0.14724968707E+04  0.16991960894E+04  0.50400001928E-02 0. -1.
       -1    1    3    3    0  502  0.64280181128E+03 -0.55301550384E+03 -0.11287130712E+04  0.14117413054E+04  0.50400001928E-02 0.  1.
</event>
<event>
 5   0  0.7094341E-06  0.3014619E+04  0.7818609E-02  0.8239569E-01
        2   -1    0    0  501    0  0.00000000000E+00  0.00000000000E+00  0.30831144118E+04  0.30831144118E+04  0.25500000920E-02 0. -1.
       -2   -1    0    0    0  501  0.00000000000E+00  0.00000000000E+00 -0.73691130291E+03  0.73691130292E+03  0.25500000920E-02 0.  1.
    10030    2    1    2    0    0  0.00000000000E+00  0.00000000000E+00  0.23462031089E+04  0.38200257148E+04  0.30146189532E+04 0.  0.
        3    1    3    3  502    0 -0.12927186802E+04 -0.18418564364E+03  0.21272168201E+04  0.24960162955E+04  0.10100000352E+00 0. -1.
       -3    1    3    3    0  502  0.12927186802E+04  0.18418564364E+03  0.21898628882E+03  0.13240094193E+04  0.10100000352E+00 0.  1.
</event>
<event>
 5   0  0.2598987E-06  0.3133058E+04  0.7818609E-02  0.8206724E-01
       -1   -1    0    0    0  501  0.00000000000E+00  0.00000000000E+00  0.12052185785E+04  0.12052185785E+04  0.50400001928E-02 0. -1.
        1   -1    0    0  501    0  0.00000000000E+00  0.00000000000E+00 -0.20361557272E+04  0.20361557272E+04  0.50400001928E-02 0.  1.
    10030    2    1    2    0    0  0.00000000000E+00  0.00000000000E+00 -0.83093714873E+03  0.32413743058E+04  0.31330577468E+04 0.  0.
        2    1    3    3  502    0 -0.38268232610E+03 -0.15032244038E+04 -0.18908078143E+03  0.15626518847E+04  0.25500000920E-02 0. -1.
       -2    1    3    3    0  502  0.38268232610E+03  0.15032244038E+04 -0.64185636730E+03  0.16787224211E+04  0.25500000920E-02 0.  1.
</event>
<event>
 5   0  0.7071012E-06  0.2901442E+04  0.7818609E-02  0.8272449E-01
       -2   -1    0    0    0  501  0.00000000000E+00  0.00000000000E+00  0.19433744283E+04  0.19433744283E+04  0.25500000920E-02 0. -1.
        2   -1    0    0  501    0  0.00000000000E+00  0.00000000000E+00 -0.10829573583E+04  0.10829573583E+04  0.25500000920E-02 0.  1.
    10030    2    1    2    0    0  0.00000000000E+00  0.00000000000E+00  0.86041706995E+03  0.30263317866E+04  0.29014421498E+04 0.  0.
        1    1    3    3  502    0  0.10188385972E+04  0.38196717540E+03  0.14310203156E+04  0.17977069154E+04  0.50400001928E-02 0. -1.
       -1    1    3    3    0  502 -0.10188385972E+04 -0.38196717540E+03 -0.57060324562E+03  0.12286248712E+04  0.50400001928E-02 0.  1.
</event>
<event>
 5   0  0.2598987E-06  0.3011834E+04  0.7818609E-02  0.8240360E-01
       -1   -1    0    0    0  501  0.00000000000E+00  0.00000000000E+00  0.27531395794E+04  0.27531395794E+04  0.50400001928E-02 0. -1.
        1   -1    0    0  501    0  0.00000000000E+00  0.00000000000E+00 -0.82370894118E+03  0.82370894120E+03  0.50400001928E-02 0.  1.
    10030    2    1    2    0    0  0.00000000000E+00  0.00000000000E+00  0.19294306382E+04  0.35768485206E+04  0.30118337855E+04 0.  0.
        2    1    3    3  502    0 -0.11681079133E+04 -0.45307005845E+03  0.19569372095E+04  0.23236505368E+04  0.25500000920E-02 0. -1.
       -2    1    3    3    0  502  0.11681079133E+04  0.45307005845E+03 -0.27506571349E+02  0.12531979838E+04  0.25500000920E-02 0.  1.
</event>
<event>
 5   0  0.2517725E-06  0.3161764E+04  0.7818609E-02  0.8198989E-01
       -1   -1    0    0    0  501  0.00000000000E+00  0.00000000000E+00  0.17505124366E+04  0.17505124366E+04  0.50400001928E-02 0. -1.
        1   -1    0    0  501    0  0.00000000000E+00  0.00000000000E+00 -0.14276889782E+04  0.14276889782E+04  0.50400001928E-02 0.  1.
    10030    2    1    2    0    0  0.00000000000E+00  0.00000000000E+00  0.32282345835E+03  0.31782014148E+04  0.31617636293E+04 0.  0.
        3    1    3    3  502    0 -0.53247746087E+03 -0.29004732986E+03 -0.13061537845E+04  0.14400338256E+04  0.10100000352E+00 0.  1.
       -3    1    3    3    0  502  0.53247746087E+03  0.29004732986E+03  0.16289772429E+04  0.17381675891E+04  0.10100000352E+00 0. -1.
</event>
<event>
 5   0  0.7071012E-06  0.2105635E+04  0.7818609E-02  0.8558765E-01
        2   -1    0    0  501    0  0.00000000000E+00  0.00000000000E+00  0.17965073723E+04  0.17965073723E+04  0.25500000920E-02 0.  1.
       -2   -1    0    0    0  501  0.00000000000E+00  0.00000000000E+00 -0.61698839003E+03  0.61698839004E+03  0.25500000920E-02 0. -1.
    10030    2    1    2    0    0  0.00000000000E+00  0.00000000000E+00  0.11795189823E+04  0.24134957623E+04  0.21056345279E+04 0.  0.
        1    1    3    3  502    0 -0.98494474447E+03 -0.31052460402E+03  0.35518547279E+03  0.10921073205E+04  0.50400001928E-02 0. -1.
       -1    1    3    3    0  502  0.98494474447E+03  0.31052460402E+03  0.82433350947E+03  0.13213884418E+04  0.50400001928E-02 0.  1.
</event>
<event>
 5   0  0.2612331E-06  0.3052640E+04  0.7818609E-02  0.8228857E-01
       -1   -1    0    0    0  501  0.00000000000E+00  0.00000000000E+00  0.10660420280E+04  0.10660420280E+04  0.50400001928E-02 0. -1.
        1   -1    0    0  501    0  0.00000000000E+00  0.00000000000E+00 -0.21853297718E+04  0.21853297718E+04  0.50400001928E-02 0.  1.
    10030    2    1    2    0    0  0.00000000000E+00  0.00000000000E+00 -0.11192877438E+04  0.32513717999E+04  0.30526404190E+04 0.  0.
        4    1    3    3  502    0  0.39526691579E+03  0.68333990577E+03 -0.19510033380E+04  0.21046626807E+04  0.12699999809E+01 0.  1.
       -4    1    3    3    0  502 -0.39526691579E+03 -0.68333990577E+03  0.83171559422E+03  0.11467091192E+04  0.12699999809E+01 0. -1.
</event>
<event>
 5   0  0.7414808E-06  0.3237812E+04  0.7818609E-02  0.8178902E-01
        2   -1    0    0  501    0  0.00000000000E+00  0.00000000000E+00  0.20295664150E+04  0.20295664150E+04  0.25500000920E-02 0. -1.
       -2   -1    0    0    0  501  0.00000000000E+00  0.00000000000E+00 -0.12913379765E+04  0.12913379765E+04  0.25500000920E-02 0.  1.
    10030    2    1    2    0    0  0.00000000000E+00  0.00000000000E+00  0.73822843851E+03  0.33209043914E+04  0.32378117224E+04 0.  0.
        2    1    3    3  502    0 -0.10368124535E+04 -0.79562609149E+03 -0.61083989201E+03  0.14426109368E+04  0.25500000920E-02 0.  1.
       -2    1    3    3    0  502  0.10368124535E+04  0.79562609149E+03  0.13490683305E+04  0.18782934546E+04  0.25500000920E-02 0. -1.
</event>
<event>
 5   0  0.2517725E-06  0.2737327E+04  0.7818609E-02  0.8322994E-01
       -1   -1    0    0    0  501  0.00000000000E+00  0.00000000000E+00  0.11654034424E+04  0.11654034425E+04  0.50400001928E-02 0. -1.
        1   -1    0    0  501    0  0.00000000000E+00  0.00000000000E+00 -0.16073739857E+04  0.16073739857E+04  0.50400001928E-02 0.  1.
    10030    2    1    2    0    0  0.00000000000E+00  0.00000000000E+00 -0.44197054321E+03  0.27727774281E+04  0.27373265616E+04 0.  0.
        3    1    3    3  502    0  0.13542128918E+04 -0.10225185170E+03 -0.39316061272E+03  0.14138328314E+04  0.10100000352E+00 0. -1.
       -3    1    3    3    0  502 -0.13542128918E+04  0.10225185170E+03 -0.48809930491E+02  0.13589445967E+04  0.10100000352E+00 0.  1.
</event>
<event>
 5   0  0.7094341E-06  0.3107303E+04  0.7818609E-02  0.8213737E-01
       -2   -1    0    0    0  501  0.00000000000E+00  0.00000000000E+00  0.11719828530E+04  0.11719828530E+04  0.25500000920E-02 0. -1.
        2   -1    0    0  501    0  0.00000000000E+00  0.00000000000E+00 -0.20596140196E+04  0.20596140196E+04  0.25500000920E-02 0.  1.
    10030    2    1    2    0    0  0.00000000000E+00  0.00000000000E+00 -0.88763116661E+03  0.32315968727E+04  0.31073025697E+04 0.  0.
        3    1    3    3  502    0 -0.13074877974E+04  0.74772852544E+03 -0.47508419783E+02  0.15069437110E+04  0.10100000352E+00 0. -1.
       -3    1    3    3    0  502  0.13074877974E+04 -0.74772852544E+03 -0.84012274683E+03  0.17246531617E+04  0.10100000352E+00 0.  1.
</event>
<event>
 5   0  0.2598987E-06  0.3043253E+04  0.7818609E-02  0.8231487E-01
        1   -1    0    0  501    0  0.00000000000E+00  0.00000000000E+00  0.20544783914E+04  0.20544783915E+04  0.50400001928E-02 0.  1.
       -1   -1    0    0    0  501  0.00000000000E+00  0.00000000000E+00 -0.11269755951E+04  0.11269755951E+04  0.50400001928E-02 0. -1.
    10030    2    1    2    0    0  0.00000000000E+00  0.00000000000E+00  0.92750279639E+03  0.31814539865E+04  0.30432528700E+04 0.  0.
        2    1    3    3  502    0  0.66164974951E+03 -0.45334796721E+03  0.18155476194E+04  0.19848218884E+04  0.25500000920E-02 0.  1.
       -2    1    3    3    0  502 -0.66164974951E+03  0.45334796721E+03 -0.88804482304E+03  0.11966320981E+04  0.25500000920E-02 0. -1.
</event>
<event>
 5   0  0.7414808E-06  0.2519285E+04  0.7818609E-02  0.8396147E-01
       -2   -1    0    0    0  501  0.00000000000E+00  0.00000000000E+00  0.81947556227E+03  0.81947556227E+03  0.25500000920E-02 0. -1.
        2   -1    0    0  501    0  0.00000000000E+00  0.00000000000E+00 -0.19362381532E+04  0.19362381532E+04  0.25500000920E-02 0.  1.
    10030    2    1    2    0    0  0.00000000000E+00  0.00000000000E+00 -0.11167625909E+04  0.27557137155E+04  0.25192854934E+04 0.  0.
        2    1    3    3  502    0 -0.34225864484E+03  0.93016905310E+03 -0.14087337383E+04  0.17224651499E+04  0.25500000920E-02 0.  1.
       -2    1    3    3    0  502  0.34225864484E+03 -0.93016905310E+03  0.29197114735E+03  0.10332485655E+04  0.25500000920E-02 0. -1.
</event>
<event>
 5   0  0.7071012E-06  0.2783322E+04  0.7818609E-02  0.8308465E-01
        2   -1    0    0  501    0  0.00000000000E+00  0.00000000000E+00  0.17633376748E+04  0.17633376748E+04  0.25500000920E-02 0.  1.
       -2   -1    0    0    0  501  0.00000000000E+00  0.00000000000E+00 -0.10983262819E+04  0.10983262819E+04  0.25500000920E-02 0. -1.
    10030    2    1    2    0    0  0.00000000000E+00  0.00000000000E+00  0.66501139286E+03  0.28616639567E+04  0.27833218371E+04 0.  0.
        1    1    3    3  502    0  0.13633410265E+04  0.78610603172E+02  0.60808309689E+03  0.14948723806E+04  0.50400001928E-02 0. -1.
       -1    1    3    3    0  502 -0.13633410265E+04 -0.78610603172E+02  0.56928295965E+02  0.13667915761E+04  0.50400001928E-02 0.  1.
</event>
<event>
 5   0  0.2517725E-06  0.2339520E+04  0.7818609E-02  0.8462500E-01
        1   -1    0    0  501    0  0.00000000000E+00  0.00000000000E+00  0.14105119883E+04  0.14105119883E+04  0.50400001928E-02 0. -1.
       -1   -1    0    0    0  501  0.00000000000E+00  0.00000000000E+00 -0.97010076356E+03  0.97010076357E+03  0.50400001928E-02 0.  1.
    10030    2    1    2    0    0  0.00000000000E+00  0.00000000000E+00  0.44041122471E+03  0.23806127518E+04  0.23395202558E+04 0.  0.
        3    1    3    3  502    0 -0.65795863317E+03  0.41003787866E+03  0.11115468786E+04  0.13552037110E+04  0.10100000352E+00 0. -1.
       -3    1    3    3    0  502  0.65795863317E+03 -0.41003787866E+03 -0.67113565387E+03  0.10254090408E+04  0.10100000352E+00 0.  1.
</event>
<event>
 5   0  0.2612331E-06  0.2342375E+04  0.7818609E-02  0.8461398E-01
       -1   -1    0    0    0  501  0.00000000000E+00  0.00000000000E+00  0.14550265795E+04  0.14550265795E+04  0.50400001928E-02 0. -1.
        1   -1    0    0  501    0  0.00000000000E+00  0.00000000000E+00 -0.94271844200E+03  0.94271844201E+03  0.50400001928E-02 0.  1.
    10030    2    1    2    0    0  0.00000000000E+00  0.00000000000E+00  0.51230813747E+03  0.23977450215E+04  0.23423751963E+04 0.  0.
        4    1    3    3  502    0 -0.73577778613E+03  0.35495260639E+03 -0.60292092422E+03  0.10153204209E+04  0.12699999809E+01 0.  1.
       -4    1    3    3    0  502  0.73577778613E+03 -0.35495260639E+03  0.11152290617E+04  0.13824246006E+04  0.12699999809E+01 0. -1.
</event>
<event>
 5   0  0.7414808E-06  0.3050152E+04  0.7818609E-02  0.8229553E-01
       -2   -1    0    0    0  501  0.00000000000E+00  0.00000000000E+00  0.13335769621E+04  0.13335769621E+04  0.25500000920E-02 0.  1.
        2   -1    0    0  501    0  0.00000000000E+00  0.00000000000E+00 -0.17440738758E+04  0.17440738758E+04  0.25500000920E-02 0. -1.
    10030    2    1    2    0    0  0.00000000000E+00  0.00000000000E+00 -0.41049691364E+03  0.30776508379E+04  0.30501519575E+04 0.  0.
        2    1    3    3  502    0  0.24486708390E+03 -0.14378245643E+04  0.24436663634E+03  0.14788557805E+04  0.25500000920E-02 0.  1.
       -2    1    3    3    0  502 -0.24486708390E+03  0.14378245643E+04 -0.65486354998E+03  0.15987950574E+04  0.25500000920E-02 0. -1.
</event>
<event>
 5   0  0.7363513E-06  0.3090156E+04  0.7818609E-02  0.8218445E-01
       -2   -1    0    0    0  501  0.00000000000E+00  0.00000000000E+00  0.16957025334E+04  0.16957025334E+04  0.25500000920E-02 0. -1.
        2   -1    0    0  501    0  0.00000000000E+00  0.00000000000E+00 -0.14078332015E+04  0.14078332015E+04  0.25500000920E-02 0.  1.
    10030    2    1    2    0    0  0.00000000000E+00  0.00000000000E+00  0.28786933190E+03  0.31035357349E+04  0.30901561944E+04 0.  0.
        4    1    3    3  502    0 -0.25327506342E+02 -0.69890351905E+03 -0.12397667829E+04  0.14234222495E+04  0.12699999809E+01 0.  1.
       -4    1    3    3    0  502  0.25327506342E+02  0.69890351905E+03  0.15276361148E+04  0.16801134854E+04  0.12699999809E+01 0. -1.
</event>
<event>
 5   0  0.7094341E-06  0.3027887E+04  0.7818609E-02  0.8235812E-01
        2   -1    0    0  501    0  0.00000000000E+00  0.00000000000E+00  0.30611323810E+04  0.30611323810E+04  0.25500000920E-02 0. -1.
       -2   -1    0    0    0  501  0.00000000000E+00  0.00000000000E+00 -0.74875074452E+03  0.74875074453E+03  0.25500000920E-02 0.  1.
    10030    2    1    2    0    0  0.00000000000E+00  0.00000000000E+00  0.23123816365E+04  0.38098831256E+04  0.30278871507E+04 0.  0.
        3    1    3    3  502    0 -0.64852571729E+03  0.13503889063E+04  0.14315448063E+04  0.20720657198E+04  0.10100000352E+00 0. -1.
       -3    1    3    3    0  502  0.64852571729E+03 -0.13503889063E+04  0.88083683016E+03  0.17378174058E+04  0.10100000352E+00 0.  1.
</event>
<event>
 5   0  0.7079223E-06  0.3065464E+04  0.7818609E-02  0.8225281E-01
       -2   -1    0    0    0  501  0.00000000000E+00  0.00000000000E+00  0.11276527321E+04  0.11276527321E+04  0.25500000920E-02 0.  1.
        2   -1    0    0  501    0  0.00000000000E+00  0.00000000000E+00 -0.20833245936E+04  0.20833245936E+04  0.25500000920E-02 0. -1.
    10030    2    1    2    0    0  0.00000000000E+00  0.00000000000E+00 -0.95567186156E+03  0.32109773257E+04  0.30654635342E+04 0.  0.
        5    1    3    3  502    0 -0.83477247183E+03  0.11976745219E+04 -0.96687625037E+03  0.17510400091E+04  0.46999998093E+01 0. -1.
       -5    1    3    3    0  502  0.83477247183E+03 -0.11976745219E+04  0.11204388815E+02  0.14599373166E+04  0.46999998093E+01 0.  1.
</event>
<event>
 5   0  0.2612331E-06  0.1930317E+04  0.7818609E-02  0.8639911E-01
       -1   -1    0    0    0  501  0.00000000000E+00  0.00000000000E+00  0.56366263328E+03  0.56366263330E+03  0.50400001928E-02 0.  1.
        1   -1    0    0  501    0  0.00000000000E+00  0.00000000000E+00 -0.16526392516E+04  0.16526392516E+04  0.50400001928E-02 0. -1.
    10030    2    1    2    0    0  0.00000000000E+00  0.00000000000E+00 -0.10889766183E+04  0.22163018849E+04  0.19303170646E+04 0.  0.
        4    1    3    3  502    0 -0.44767001011E+02 -0.46932121511E+03 -0.15114380140E+04  0.15832602346E+04  0.12699999809E+01 0. -1.
       -4    1    3    3    0  502  0.44767001011E+02  0.46932121511E+03  0.42246139567E+03  0.63304165034E+03  0.12699999809E+01 0.  1.
</event>
<event>
 5   0  0.2517725E-06  0.1905967E+04  0.7818609E-02  0.8651892E-01
        1   -1    0    0  501    0  0.00000000000E+00  0.00000000000E+00  0.13626569524E+04  0.13626569524E+04  0.50400001928E-02 0. -1.
       -1   -1    0    0    0  501  0.00000000000E+00  0.00000000000E+00 -0.66647586085E+03  0.66647586087E+03  0.50400001928E-02 0.  1.
    10030    2    1    2    0    0  0.00000000000E+00  0.00000000000E+00  0.69618109151E+03  0.20291328133E+04  0.19059674346E+04 0.  0.
        3    1    3    3  502    0 -0.89601122536E+03  0.11101425517E+03  0.23393949119E+02  0.90316530484E+03  0.10100000352E+00 0.  1.
       -3    1    3    3    0  502  0.89601122536E+03 -0.11101425517E+03  0.67278714239E+03  0.11259675084E+04  0.10100000352E+00 0. -1.
</event>
<event>
 5   0  0.2624011E-06  0.3057442E+04  0.7818609E-02  0.8227515E-01
        1   -1    0    0  501    0  0.00000000000E+00  0.00000000000E+00  0.21527232765E+04  0.21527232765E+04  0.50400001928E-02 0.  1.
       -1   -1    0    0    0  501  0.00000000000E+00  0.00000000000E+00 -0.10855963944E+04  0.10855963945E+04  0.50400001928E-02 0. -1.
    10030    2    1    2    0    0  0.00000000000E+00  0.00000000000E+00  0.10671268820E+04  0.32383196709E+04  0.30574424784E+04 0.  0.
        1    1    3    3  502    0 -0.56713365802E+03 -0.13996732421E+04  0.78479391117E+03  0.17019480761E+04  0.50400001928E-02 0.  1.
       -1    1    3    3    0  502  0.56713365802E+03  0.13996732421E+04  0.28233297085E+03  0.15363715948E+04  0.50400001928E-02 0. -1.
</event>
<event>
 5   0  0.7363513E-06  0.3128914E+04  0.7818609E-02  0.8207847E-01
        2   -1    0    0  501    0  0.00000000000E+00  0.00000000000E+00  0.19628113596E+04  0.19628113596E+04  0.25500000920E-02 0.  1.
       -2   -1    0    0    0  501  0.00000000000E+00  0.00000000000E+00 -0.12469488276E+04  0.12469488276E+04  0.25500000920E-02 0. -1.
    10030    2    1    2    0    0  0.00000000000E+00  0.00000000000E+00  0.71586253200E+03  0.32097601873E+04  0.31289137564E+04 0.  0.
        4    1    3    3  502    0 -0.92352547379E+03 -0.38694344984E+03  0.15910297535E+04  0.18798940990E+04  0.12699999809E+01 0.  1.
       -4    1    3    3    0  502  0.92352547379E+03  0.38694344984E+03 -0.87516722152E+03  0.13298660882E+04  0.12699999809E+01 0. -1.
</event>
<event>
 5   0  0.7363513E-06  0.3162469E+04  0.7818609E-02  0.8198800E-01
        2   -1    0    0  501    0  0.00000000000E+00  0.00000000000E+00  0.25627791931E+04  0.25627791931E+04  0.25500000920E-02 0.  1.
       -2   -1    0    0    0  501  0.00000000000E+00  0.00000000000E+00 -0.97562137345E+03  0.97562137346E+03  0.25500000920E-02 0. -1.
    10030    2    1    2    0    0  0.00000000000E+00  0.00000000000E+00  0.15871578196E+04  0.35384005665E+04  0.31624687548E+04 0.  0.
        4    1    3    3  502    0  0.66456320741E+03 -0.80951687088E+02  0.23963826305E+04  0.24881416272E+04  0.12699999809E+01 0.  1.
       -4    1    3    3    0  502 -0.66456320741E+03  0.80951687088E+02 -0.80922481086E+03  0.10502589394E+04  0.12699999809E+01 0. -1.
</event>
<event>
 5   0  0.2674441E-06  0.3081188E+04  0.7818609E-02  0.8220920E-01
       -1   -1    0    0    0  501  0.00000000000E+00  0.00000000000E+00  0.14805768659E+04  0.14805768659E+04  0.50400001928E-02 0. -1.
        1   -1    0    0  501    0  0.00000000000E+00  0.00000000000E+00 -0.16030441463E+04  0.16030441463E+04  0.50400001928E-02 0.  1.
    10030    2    1    2    0    0  0.00000000000E+00  0.00000000000E+00 -0.12246728036E+03  0.30836210122E+04  0.30811881332E+04 0.  0.
        5    1    3    3  502    0  0.61907575481E+03 -0.30743507304E+03  0.13166747791E+04  0.14870863049E+04  0.46999998093E+01 0. -1.
       -5    1    3    3    0  502 -0.61907575481E+03  0.30743507304E+03 -0.14391420594E+04  0.15965347073E+04  0.46999998093E+01 0.  1.
</event>
<event>
 5   0  0.7414808E-06  0.3104988E+04  0.7818609E-02  0.8214370E-01
       -2   -1    0    0    0  501  0.00000000000E+00  0.00000000000E+00  0.14393674905E+04  0.14393674905E+04  0.25500000920E-02 0. -1.
        2   -1    0    0  501    0  0.00000000000E+00  0.00000000000E+00 -0.16745117012E+04  0.16745117012E+04  0.25500000920E-02 0.  1.
    10030    2    1    2    0    0  0.00000000000E+00  0.00000000000E+00 -0.23514421074E+03  0.31138791917E+04  0.31049880549E+04 0.  0.
        2    1    3    3  502    0  0.13387293926E+03 -0.88941938619E+03  0.11514560199E+04  0.14611090904E+04  0.25500000920E-02 0. -1.
       -2    1    3    3    0  502 -0.13387293926E+03  0.88941938619E+03 -0.13866002306E+04  0.16527701013E+04  0.25500000920E-02 0.  1.
</event>
<event>
 5   0  0.2598987E-06  0.2961871E+04  0.7818609E-02  0.8254703E-01
        1   -1    0    0  501    0  0.00000000000E+00  0.00000000000E+00  0.17327109530E+04  0.17327109530E+04  0.50400001928E-02 0.  1.
       -1   -1    0    0    0  501  0.00000000000E+00  0.00000000000E+00 -0.12657451027E+04  0.12657451027E+04  0.50400001928E-02 0. -1.
    10030    2    1    2    0    0  0.00000000000E+00  0.00000000000E+00  0.46696585035E+03  0.29984560557E+04  0.29618713025E+04 0.  0.
        2    1    3    3  502    0  0.64169061623E+03  0.44573755939E+03  0.15070850267E+04  0.16975730019E+04  0.25500000920E-02 0.  1.
       -2    1    3    3    0  502 -0.64169061623E+03 -0.44573755939E+03 -0.10401191764E+04  0.13008830539E+04  0.25500000920E-02 0. -1.
</event>
<event>
 5   0  0.2517725E-06  0.3079212E+04  0.7818609E-02  0.8221466E-01
        1   -1    0    0  501    0  0.00000000000E+00  0.00000000000E+00  0.18754322159E+04  0.18754322159E+04  0.50400001928E-02 0.  1.
       -1   -1    0    0    0  501  0.00000000000E+00  0.00000000000E+00 -0.12639145662E+04  0.12639145662E+04  0.50400001928E-02 0. -1.
    10030    2    1    2    0    0  0.00000000000E+00  0.00000000000E+00  0.61151764976E+03  0.31393467821E+04  0.30792116495E+04 0.  0.
        3    1    3    3  502    0  0.81561775516E+02 -0.66602439140E+03 -0.11069959844E+04  0.12944809511E+04  0.10100000352E+00 0. -1.
       -3    1    3    3    0  502 -0.81561775516E+02  0.66602439140E+03  0.17185136342E+04  0.18448658309E+04  0.10100000352E+00 0.  1.
</event>
<event>
 5   0  0.7079223E-06  0.3051697E+04  0.7818609E-02  0.8229121E-01
       -2   -1    0    0    0  501  0.00000000000E+00  0.00000000000E+00  0.10635494952E+04  0.10635494952E+04  0.25500000920E-02 0. -1.
        2   -1    0    0  501    0  0.00000000000E+00  0.00000000000E+00 -0.21890970447E+04  0.21890970447E+04  0.25500000920E-02 0.  1.
    10030    2    1    2    0    0  0.00000000000E+00  0.00000000000E+00 -0.11255475495E+04  0.32526465400E+04  0.30516966146E+04 0.  0.
        5    1    3    3  502    0 -0.70845032451E+03  0.10289713936E+04 -0.14965368185E+04  0.19494431334E+04  0.46999998093E+01 0.  1.
       -5    1    3    3    0  502  0.70845032451E+03 -0.10289713936E+04  0.37098926904E+03  0.13032034066E+04  0.46999998093E+01 0. -1.
</event>
<event>
 5   0  0.7071012E-06  0.3150022E+04  0.7818609E-02  0.8202142E-01
        2   -1    0    0  501    0  0.00000000000E+00  0.00000000000E+00  0.22062893230E+04  0.22062893230E+04  0.25500000920E-02 0. -1.
       -2   -1    0    0    0  501  0.00000000000E+00  0.00000000000E+00 -0.11243580977E+04  0.11243580977E+04  0.25500000920E-02 0.  1.
    10030    2    1    2    0    0  0.00000000000E+00  0.00000000000E+00  0.10819312253E+04  0.33306474206E+04  0.31500217562E+04 0.  0.
        1    1    3    3  502    0 -0.85724988629E+03  0.12052353911E+04  0.11134838845E+04  0.18513011847E+04  0.50400001928E-02 0. -1.
       -1    1    3    3    0  502  0.85724988629E+03 -0.12052353911E+04 -0.31552659213E+02  0.14793462359E+04  0.50400001928E-02 0.  1.
</event>
<event>
 5   0  0.2612331E-06  0.3065588E+04  0.7818609E-02  0.8225246E-01
        1   -1    0    0  501    0  0.00000000000E+00  0.00000000000E+00  0.12127117659E+04  0.12127117659E+04  0.50400001928E-02 0.  1.
       -1   -1    0    0    0  501  0.00000000000E+00  0.00000000000E+00 -0.19373591026E+04  0.19373591026E+04  0.50400001928E-02 0. -1.
    10030    2    1    2    0    0  0.00000000000E+00  0.00000000000E+00 -0.72464733664E+03  0.31500708685E+04  0.30655884776E+04 0.  0.
        4    1    3    3  502    0 -0.77536563102E+03 -0.16078742106E+02  0.99623360210E+03  0.12625107487E+04  0.12699999809E+01 0.  1.
       -4    1    3    3    0  502  0.77536563102E+03  0.16078742106E+02 -0.17208809387E+04  0.18875601198E+04  0.12699999809E+01 0. -1.
</event>
<event>
 5   0  0.2612331E-06  0.2196885E+04  0.7818609E-02  0.8519726E-01
        1   -1    0    0  501    0  0.00000000000E+00  0.00000000000E+00  0.13940629687E+04  0.13940629687E+04  0.50400001928E-02 0. -1.
       -1   -1    0    0    0  501  0.00000000000E+00  0.00000000000E+00 -0.86551007894E+03  0.86551007895E+03  0.50400001928E-02 0.  1.
    10030    2    1    2    0    0  0.00000000000E+00  0.00000000000E+00  0.52855288975E+03  0.22595730476E+04  0.21968846580E+04 0.  0.
        4    1    3    3  502    0 -0.11475686106E+03 -0.89953195704E+03  0.90184135336E+03  0.12789238908E+04  0.12699999809E+01 0. -1.
       -4    1    3    3    0  502  0.11475686106E+03  0.89953195704E+03 -0.37328846361E+03  0.98064915686E+03  0.12699999809E+01 0.  1.
</event>
<event>
 5   0  0.2517725E-06  0.3068297E+04  0.7818609E-02  0.8224493E-01
        1   -1    0    0  501    0  0.00000000000E+00  0.00000000000E+00  0.23420035478E+04  0.23420035478E+04  0.50400001928E-02 0.  1.
       -1   -1    0    0    0  501  0.00000000000E+00  0.00000000000E+00 -0.10049563652E+04  0.10049563652E+04  0.50400001928E-02 0. -1.
    10030    2    1    2    0    0  0.00000000000E+00  0.00000000000E+00  0.13370471826E+04  0.33469599130E+04  0.30682968388E+04 0.  0.
        3    1    3    3  502    0  0.11938542541E+04 -0.64565207241E+03 -0.11158957890E+03  0.13618394997E+04  0.10100000352E+00 0.  1.
       -3    1    3    3    0  502 -0.11938542541E+04  0.64565207241E+03  0.14486367615E+04  0.19851204133E+04  0.10100000352E+00 0. -1.
</event>
<event>
 5   0  0.7363513E-06  0.3200165E+04  0.7818609E-02  0.8188774E-01
       -2   -1    0    0    0  501  0.00000000000E+00  0.00000000000E+00  0.20080015977E+04  0.20080015977E+04  0.25500000920E-02 0. -1.
        2   -1    0    0  501    0  0.00000000000E+00  0.00000000000E+00 -0.12750306146E+04  0.12750306146E+04  0.25500000920E-02 0.  1.
    10030    2    1    2    0    0  0.00000000000E+00  0.00000000000E+00  0.73297098305E+03  0.32830322123E+04  0.32001646903E+04 0.  0.
        4    1    3    3  502    0 -0.44975854883E+03 -0.15580066079E+03 -0.12007195541E+04  0.12916213294E+04  0.12699999809E+01 0.  1.
       -4    1    3    3    0  502  0.44975854883E+03  0.15580066079E+03  0.19336905371E+04  0.19914108829E+04  0.12699999809E+01 0. -1.
</event>
<event>
 5   0  0.2674441E-06  0.3097285E+04  0.7818609E-02  0.8216483E-01
       -1   -1    0    0    0  501  0.00000000000E+00  0.00000000000E+00  0.12526126774E+04  0.12526126774E+04  0.50400001928E-02 0. -1.
        1   -1    0    0  501    0  0.00000000000E+00  0.00000000000E+00 -0.19146336331E+04  0.19146336331E+04  0.50400001928E-02 0.  1.
    10030    2    1    2    0    0  0.00000000000E+00  0.00000000000E+00 -0.66202095568E+03  0.31672463105E+04  0.30972854963E+04 0.  0.
        5    1    3    3  502    0  0.50275955487E+03  0.42499154489E+03  0.11023961939E+04  0.12840110753E+04  0.46999998093E+01 0. -1.
       -5    1    3    3    0  502 -0.50275955487E+03 -0.42499154489E+03 -0.17644171496E+04  0.18832352351E+04  0.46999998093E+01 0.  1.
</event>
<event>
 5   0  0.7094341E-06  0.3047280E+04  0.7818609E-02  0.8230357E-01
        2   -1    0    0  501    0  0.00000000000E+00  0.00000000000E+00  0.20062633855E+04  0.20062633855E+04  0.25500000920E-02 0. -1.
       -2   -1    0    0    0  501  0.00000000000E+00  0.00000000000E+00 -0.11571154358E+04  0.11571154358E+04  0.25500000920E-02 0.  1.
    10030    2    1    2    0    0  0.00000000000E+00  0.00000000000E+00  0.84914794962E+03  0.31633788213E+04  0.30472796601E+04 0.  0.
        3    1    3    3  502    0 -0.15112620562E+03  0.90414560127E+03 -0.83882309734E+03  0.12425548669E+04  0.10100000352E+00 0.  1.
       -3    1    3    3    0  502  0.15112620562E+03 -0.90414560127E+03  0.16879710470E+04  0.19208239544E+04  0.10100000352E+00 0. -1.
</event>
<event>
 5   0  0.7094341E-06  0.2965913E+04  0.7818609E-02  0.8253532E-01
       -2   -1    0    0    0  501  0.00000000000E+00  0.00000000000E+00  0.11125940176E+04  0.11125940176E+04  0.25500000920E-02 0.  1.
        2   -1    0    0  501    0  0.00000000000E+00  0.00000000000E+00 -0.19766060604E+04  0.19766060604E+04  0.25500000920E-02 0. -1.
    10030    2    1    2    0    0  0.00000000000E+00  0.00000000000E+00 -0.86401204278E+03  0.30892000781E+04  0.29659130655E+04 0.  0.
        3    1    3    3  502    0 -0.94560181665E+03 -0.71277104604E+03  0.49782587584E+03  0.12845372601E+04  0.10100000352E+00 0.  1.
       -3    1    3    3    0  502  0.94560181665E+03  0.71277104604E+03 -0.13618379186E+04  0.18046628180E+04  0.10100000352E+00 0. -1.
</event>
<event>
 5   0  0.2393250E-06  0.3199312E+04  0.7818609E-02  0.8188999E-01
       -3   -1    0    0    0  501  0.00000000000E+00  0.00000000000E+00  0.16993262537E+04  0.16993262567E+04  0.10100000352E+00 0. -1.
        3   -1    0    0  501    0  0.00000000000E+00  0.00000000000E+00 -0.15058316910E+04  0.15058316944E+04  0.10100000352E+00 0.  1.
    10030    2    1    2    0    0  0.00000000000E+00  0.00000000000E+00  0.19349456271E+03  0.32051579511E+04  0.31993120113E+04 0.  0.
        2    1    3    3  502    0 -0.11664501416E+02  0.13744291064E+04 -0.72310489420E+03  0.15530847102E+04  0.25500000920E-02 0.  1.
       -2    1    3    3    0  502  0.11664501416E+02 -0.13744291064E+04  0.91659945690E+03  0.16520732409E+04  0.25500000920E-02 0. -1.
</event>
<event>
 5   0  0.2674441E-06  0.3077026E+04  0.7818609E-02  0.8222071E-01
       -1   -1    0    0    0  501  0.00000000000E+00  0.00000000000E+00  0.12623200327E+04  0.12623200327E+04  0.50400001928E-02 0.  1.
        1   -1    0    0  501    0  0.00000000000E+00  0.00000000000E+00 -0.18751365307E+04  0.18751365307E+04  0.50400001928E-02 0. -1.
    10030    2    1    2    0    0  0.00000000000E+00  0.00000000000E+00 -0.61281649804E+03  0.31374565634E+04  0.30770261011E+04 0.  0.
        5    1    3    3  502    0 -0.36120605717E+03 -0.67904437698E+03 -0.16650289426E+04  0.18340977486E+04  0.46999998093E+01 0. -1.
       -5    1    3    3    0  502  0.36120605717E+03  0.67904437698E+03  0.10522124446E+04  0.13033588148E+04  0.46999998093E+01 0.  1.
</event>
<event>
 5   0  0.7094341E-06  0.3081291E+04  0.7818609E-02  0.8220891E-01
        2   -1    0    0  501    0  0.00000000000E+00  0.00000000000E+00  0.14105650272E+04  0.14105650272E+04  0.25500000920E-02 0.  1.
       -2   -1    0    0    0  501  0.00000000000E+00  0.00000000000E+00 -0.16827220123E+04  0.16827220123E+04  0.25500000920E-02 0. -1.
    10030    2    1    2    0    0  0.00000000000E+00  0.00000000000E+00 -0.27215698506E+03  0.30932870395E+04  0.30812911716E+04 0.  0.
        3    1    3    3  502    0  0.10990300764E+04 -0.10697533250E+04  0.10605120143E+02  0.15337378407E+04  0.10100000352E+00 0. -1.
       -3    1    3    3    0  502 -0.10990300764E+04  0.10697533250E+04 -0.28276210520E+03  0.15595491988E+04  0.10100000352E+00 0.  1.
</event>
<event>
 5   0  0.2393250E-06  0.3142211E+04  0.7818609E-02  0.8204248E-01
        3   -1    0    0  501    0  0.00000000000E+00  0.00000000000E+00  0.13150607727E+04  0.13150607766E+04  0.10100000352E+00 0. -1.
       -3   -1    0    0    0  501  0.00000000000E+00  0.00000000000E+00 -0.18770027165E+04  0.18770027192E+04  0.10100000352E+00 0.  1.
    10030    2    1    2    0    0  0.00000000000E+00  0.00000000000E+00 -0.56194194372E+03  0.31920634958E+04  0.31422111026E+04 0.  0.
        1    1    3    3  502    0  0.74059971974E+03  0.13493116429E+04 -0.60099726725E+03  0.16523702884E+04  0.50400001928E-02 0. -1.
       -1    1    3    3    0  502 -0.74059971974E+03 -0.13493116429E+04  0.39055323533E+02  0.15396932074E+04  0.50400001928E-02 0.  1.
</event>
<event>
 5   0  0.7414808E-06  0.3079162E+04  0.7818609E-02  0.8221480E-01
        2   -1    0    0  501    0  0.00000000000E+00  0.00000000000E+00  0.17580554345E+04  0.17580554345E+04  0.25500000920E-02 0.  1.
       -2   -1    0    0    0  501  0.00000000000E+00  0.00000000000E+00 -0.13482564508E+04  0.13482564508E+04  0.25500000920E-02 0. -1.
    10030    2    1    2    0    0  0.00000000000E+00  0.00000000000E+00  0.40979898377E+03  0.31063118853E+04  0.30791619512E+04 0.  0.
        2    1    3    3  502    0  0.24616866499E+03 -0.14516555312E+04 -0.24896380418E+03  0.14932802044E+04  0.25500000920E-02 0. -1.
       -2    1    3    3    0  502 -0.24616866499E+03  0.14516555312E+04  0.65876278795E+03  0.16130316809E+04  0.25500000920E-02 0.  1.
</event>
<event>
 5   0  0.7071012E-06  0.2491232E+04  0.7818609E-02  0.8406116E-01
       -2   -1    0    0    0  501  0.00000000000E+00  0.00000000000E+00  0.16228175511E+04  0.16228175511E+04  0.25500000920E-02 0.  1.
        2   -1    0    0  501    0  0.00000000000E+00  0.00000000000E+00 -0.95608941858E+03  0.95608941858E+03  0.25500000920E-02 0. -1.
    10030    2    1    2    0    0  0.00000000000E+00  0.00000000000E+00  0.66672813255E+03  0.25789069697E+04  0.24912315741E+04 0.  0.
        1    1    3    3  502    0  0.46500144173E+03 -0.80231726704E+03  0.11942688963E+04  0.15120243167E+04  0.50400001928E-02 0.  1.
       -1    1    3    3    0  502 -0.46500144173E+03  0.80231726704E+03 -0.52754076372E+03  0.10668826530E+04  0.50400001928E-02 0. -1.
</event>
<event>
 5   0  0.2624011E-06  0.2856043E+04  0.7818609E-02  0.8286077E-01
       -1   -1    0    0    0  501  0.00000000000E+00  0.00000000000E+00  0.14536015655E+04  0.14536015655E+04  0.50400001928E-02 0.  1.
        1   -1    0    0  501    0  0.00000000000E+00  0.00000000000E+00 -0.14028919674E+04  0.14028919674E+04  0.50400001928E-02 0. -1.
    10030    2    1    2    0    0  0.00000000000E+00  0.00000000000E+00  0.50709598185E+02  0.28564935329E+04  0.28560433891E+04 0.  0.
        1    1    3    3  502    0  0.42751157101E+03 -0.96728923855E+03 -0.93439602005E+03  0.14112088919E+04  0.50400001928E-02 0. -1.
       -1    1    3    3    0  502 -0.42751157101E+03  0.96728923855E+03  0.98510561823E+03  0.14452846410E+04  0.50400001928E-02 0.  1.
</event>
<event>
 5   0  0.7363513E-06  0.3182907E+04  0.7818609E-02  0.8193346E-01
       -2   -1    0    0    0  501  0.00000000000E+00  0.00000000000E+00  0.17695259644E+04  0.17695259644E+04  0.25500000920E-02 0.  1.
        2   -1    0    0  501    0  0.00000000000E+00  0.00000000000E+00 -0.14313013004E+04  0.14313013004E+04  0.25500000920E-02 0. -1.
    10030    2    1    2    0    0  0.00000000000E+00  0.00000000000E+00  0.33822466404E+03  0.32008272648E+04  0.31829073590E+04 0.  0.
        4    1    3    3  502    0 -0.12816860430E+04  0.10370058659E+03 -0.77385032928E+03  0.15007727574E+04  0.12699999809E+01 0. -1.
       -4    1    3    3    0  502  0.12816860430E+04 -0.10370058659E+03  0.11120749933E+04  0.17000545074E+04  0.12699999809E+01 0.  1.
</event>
<event>
 5   0  0.7363513E-06  0.3125516E+04  0.7818609E-02  0.8208770E-01
        2   -1    0    0  501    0  0.00000000000E+00  0.00000000000E+00  0.22376785784E+04  0.22376785784E+04  0.25500000920E-02 0.  1.
       -2   -1    0    0    0  501  0.00000000000E+00  0.00000000000E+00 -0.10914045360E+04  0.10914045360E+04  0.25500000920E-02 0. -1.
    10030    2    1    2    0    0  0.00000000000E+00  0.00000000000E+00  0.11462740423E+04  0.33290831144E+04  0.31255159898E+04 0.  0.
        4    1    3    3  502    0  0.67633432053E+03  0.82966938634E+03 -0.63963091403E+03  0.12469597920E+04  0.12699999809E+01 0. -1.
       -4    1    3    3    0  502 -0.67633432053E+03 -0.82966938634E+03  0.17859049564E+04  0.20821233224E+04  0.12699999809E+01 0.  1.
</event>
<event>
 5   0  0.7094341E-06  0.3107703E+04  0.7818609E-02  0.8213627E-01
       -2   -1    0    0    0  501  0.00000000000E+00  0.00000000000E+00  0.18048658739E+04  0.18048658739E+04  0.25500000920E-02 0.  1.
        2   -1    0    0  501    0  0.00000000000E+00  0.00000000000E+00 -0.13377469161E+04  0.13377469161E+04  0.25500000920E-02 0. -1.
    10030    2    1    2    0    0  0.00000000000E+00  0.00000000000E+00  0.46711895779E+03  0.31426127900E+04  0.31077025320E+04 0.  0.
        3    1    3    3  502    0  0.28616795848E+03  0.13962914764E+04  0.85932571341E+03  0.16643204858E+04  0.10100000352E+00 0. -1.
       -3    1    3    3    0  502 -0.28616795848E+03 -0.13962914764E+04 -0.39220675562E+03  0.14782923042E+04  0.10100000352E+00 0.  1.
</event>
<event>
 5   0  0.2612331E-06  0.2776555E+04  0.7818609E-02  0.8310584E-01
       -1   -1    0    0    0  501  0.00000000000E+00  0.00000000000E+00  0.77993487418E+03  0.77993487420E+03  0.50400001928E-02 0.  1.
        1   -1    0    0  501    0  0.00000000000E+00  0.00000000000E+00 -0.24711224818E+04  0.24711224818E+04  0.50400001928E-02 0. -1.
    10030    2    1    2    0    0  0.00000000000E+00  0.00000000000E+00 -0.16911876077E+04  0.32510573560E+04  0.27765551332E+04 0.  0.
        4    1    3    3  502    0  0.83526639644E+03  0.77669759476E+03 -0.17722926389E+04  0.21075938692E+04  0.12699999809E+01 0. -1.
       -4    1    3    3    0  502 -0.83526639644E+03 -0.77669759476E+03  0.81105031234E+02  0.11434634868E+04  0.12699999809E+01 0.  1.
</event>
<event>
 5   0  0.2598987E-06  0.2542619E+04  0.7818609E-02  0.8387958E-01
        1   -1    0    0  501    0  0.00000000000E+00  0.00000000000E+00  0.10920756997E+04  0.10920756998E+04  0.50400001928E-02 0. -1.
       -1   -1    0    0    0  501  0.00000000000E+00  0.00000000000E+00 -0.14799600695E+04  0.14799600695E+04  0.50400001928E-02 0.  1.
    10030    2    1    2    0    0  0.00000000000E+00  0.00000000000E+00 -0.38788436979E+03  0.25720357693E+04  0.25426194592E+04 0.  0.
        2    1    3    3  502    0 -0.12557151105E+04 -0.19850831569E+03 -0.19552182241E+03  0.12862561071E+04  0.25500000920E-02 0. -1.
       -2    1    3    3    0  502  0.12557151105E+04  0.19850831569E+03 -0.19236254738E+03  0.12857796622E+04  0.25500000920E-02 0.  1.
</event>
<event>
 5   0  0.7094341E-06  0.3102913E+04  0.7818609E-02  0.8214939E-01
        2   -1    0    0  501    0  0.00000000000E+00  0.00000000000E+00  0.74624664844E+03  0.74624664844E+03  0.25500000920E-02 0.  1.
       -2   -1    0    0    0  501  0.00000000000E+00  0.00000000000E+00 -0.32254973324E+04  0.32254973324E+04  0.25500000920E-02 0. -1.
    10030    2    1    2    0    0  0.00000000000E+00  0.00000000000E+00 -0.24792506840E+04  0.39717439809E+04  0.31029125504E+04 0.  0.
        3    1    3    3  502    0 -0.80427704722E+03 -0.13227986167E+04 -0.13699020390E+04  0.20671935942E+04  0.10100000352E+00 0.  1.
       -3    1    3    3    0  502  0.80427704722E+03  0.13227986167E+04 -0.11093486449E+04  0.19045503867E+04  0.10100000352E+00 0. -1.
</event>
<event>
 5   0  0.7071012E-06  0.3034076E+04  0.7818609E-02  0.8234067E-01
       -2   -1    0    0    0  501  0.00000000000E+00  0.00000000000E+00  0.10677457180E+04  0.10677457181E+04  0.25500000920E-02 0.  1.
        2   -1    0    0  501    0  0.00000000000E+00  0.00000000000E+00 -0.21553854178E+04  0.21553854178E+04  0.25500000920E-02 0. -1.
    10030    2    1    2    0    0  0.00000000000E+00  0.00000000000E+00 -0.10876396998E+04  0.32231311358E+04  0.30340755103E+04 0.  0.
        1    1    3    3  502    0 -0.27629799066E+03 -0.11473533869E+04 -0.15564439873E+04  0.19532737288E+04  0.50400001928E-02 0. -1.
       -1    1    3    3    0  502  0.27629799066E+03  0.11473533869E+04  0.46880428757E+03  0.12698574070E+04  0.50400001928E-02 0.  1.
</event>
<event>
 5   0  0.7363513E-06  0.2731485E+04  0.7818609E-02  0.8324861E-01
       -2   -1    0    0    0  501  0.00000000000E+00  0.00000000000E+00  0.74587570361E+03  0.74587570361E+03  0.25500000920E-02 0.  1.
        2   -1    0    0  501    0  0.00000000000E+00  0.00000000000E+00 -0.25007548715E+04  0.25007548715E+04  0.25500000920E-02 0. -1.
    10030    2    1    2    0    0  0.00000000000E+00  0.00000000000E+00 -0.17548791679E+04  0.32466305751E+04  0.27314847972E+04 0.  0.
        4    1    3    3  502    0  0.62490282720E+03 -0.10121951710E+04 -0.79921152893E+02  0.11922380682E+04  0.12699999809E+01 0.  1.
       -4    1    3    3    0  502 -0.62490282720E+03  0.10121951710E+04 -0.16749580150E+04  0.20543925069E+04  0.12699999809E+01 0. -1.
</event>
<event>
 5   0  0.2517725E-06  0.3039782E+04  0.7818609E-02  0.8232461E-01
       -1   -1    0    0    0  501  0.00000000000E+00  0.00000000000E+00  0.26369196318E+04  0.26369196318E+04  0.50400001928E-02 0. -1.
        1   -1    0    0  501    0  0.00000000000E+00  0.00000000000E+00 -0.87604837258E+03  0.87604837260E+03  0.50400001928E-02 0.  1.
    10030    2    1    2    0    0  0.00000000000E+00  0.00000000000E+00  0.17608712592E+04  0.35129680044E+04  0.30397823291E+04 0.  0.
        3    1    3    3  502    0 -0.69962681590E+03  0.10046540587E+03 -0.67456565627E+03  0.97704135743E+03  0.10100000352E+00 0.  1.
       -3    1    3    3    0  502  0.69962681590E+03 -0.10046540587E+03  0.24354369155E+04  0.25359266470E+04  0.10100000352E+00 0. -1.
</event>
<event>
 5   0  0.2624011E-06  0.3130813E+04  0.7818609E-02  0.8207332E-01
        1   -1    0    0  501    0  0.00000000000E+00  0.00000000000E+00  0.15251210249E+04  0.15251210249E+04  0.50400001928E-02 0. -1.
       -1   -1    0    0    0  501  0.00000000000E+00  0.00000000000E+00 -0.16067563668E+04  0.16067563668E+04  0.50400001928E-02 0.  1.
    10030    2    1    2    0    0  0.00000000000E+00  0.00000000000E+00 -0.81635341886E+02  0.31318773917E+04  0.31308132598E+04 0.  0.
        1    1    3    3  502    0 -0.96232928028E+03 -0.10558167000E+04  0.59945563221E+03  0.15492493675E+04  0.50400001928E-02 0. -1.
       -1    1    3    3    0  502  0.96232928028E+03  0.10558167000E+04 -0.68109097409E+03  0.15826280241E+04  0.50400001928E-02 0.  1.
</event>
<event>
 5   0  0.2598987E-06  0.3113600E+04  0.7818609E-02  0.8212015E-01
       -1   -1    0    0    0  501  0.00000000000E+00  0.00000000000E+00  0.22589858361E+04  0.22589858361E+04  0.50400001928E-02 0.  1.
        1   -1    0    0  501    0  0.00000000000E+00  0.00000000000E+00 -0.10728824765E+04  0.10728824765E+04  0.50400001928E-02 0. -1.
    10030    2    1    2    0    0  0.00000000000E+00  0.00000000000E+00  0.11861033596E+04  0.33318683126E+04  0.31136000502E+04 0.  0.
        2    1    3    3  502    0  0.85877103051E+03  0.12825190401E+04  0.37562466406E+03  0.15885328638E+04  0.25500000920E-02 0.  1.
       -2    1    3    3    0  502 -0.85877103051E+03 -0.12825190401E+04  0.81047869555E+03  0.17433354488E+04  0.25500000920E-02 0. -1.
</event>
<event>
 5   0  0.7071012E-06  0.2999282E+04  0.7818609E-02  0.8243936E-01
       -2   -1    0    0    0  501  0.00000000000E+00  0.00000000000E+00  0.17026883210E+04  0.17026883210E+04  0.25500000920E-02 0.  1.
        2   -1    0    0  501    0  0.00000000000E+00  0.00000000000E+00 -0.13208073398E+04  0.13208073398E+04  0.25500000920E-02 0. -1.
    10030    2    1    2    0    0  0.00000000000E+00  0.00000000000E+00  0.38188098119E+03  0.30234956608E+04  0.29992820686E+04 0.  0.
        1    1    3    3  502    0  0.27333790194E+03  0.14704956406E+04  0.81193804897E+02  0.14978863347E+04  0.50400001928E-02 0. -1.
       -1    1    3    3    0  502 -0.27333790194E+03 -0.14704956406E+04  0.30068717629E+03  0.15256093260E+04  0.50400001928E-02 0.  1.
</event>
<event>
 5   0  0.7363513E-06  0.3100197E+04  0.7818609E-02  0.8215684E-01
       -2   -1    0    0    0  501  0.00000000000E+00  0.00000000000E+00  0.11358863754E+04  0.11358863754E+04  0.25500000920E-02 0. -1.
        2   -1    0    0  501    0  0.00000000000E+00  0.00000000000E+00 -0.21153576773E+04  0.21153576773E+04  0.25500000920E-02 0.  1.
    10030    2    1    2    0    0  0.00000000000E+00  0.00000000000E+00 -0.97947130191E+03  0.32512440527E+04  0.31001973903E+04 0.  0.
        4    1    3    3  502    0 -0.51226103271E+03 -0.11803763152E+04  0.41672920401E+03  0.13525400007E+04  0.12699999809E+01 0. -1.
       -4    1    3    3    0  502  0.51226103271E+03  0.11803763152E+04 -0.13962005059E+04  0.18987040519E+04  0.12699999809E+01 0.  1.
</event>
<event>
 5   0  0.2674441E-06  0.3080368E+04  0.7818609E-02  0.8221146E-01
        1   -1    0    0  501    0  0.00000000000E+00  0.00000000000E+00  0.16577906788E+04  0.16577906788E+04  0.50400001928E-02 0.  1.
       -1   -1    0    0    0  501  0.00000000000E+00  0.00000000000E+00 -0.14309210112E+04  0.14309210112E+04  0.50400001928E-02 0. -1.
    10030    2    1    2    0    0  0.00000000000E+00  0.00000000000E+00  0.22686966761E+03  0.30887116900E+04  0.30803684938E+04 0.  0.
        5    1    3    3  502    0 -0.56974754816E+03 -0.92295747192E+03  0.12098692638E+04  0.16248903007E+04  0.46999998093E+01 0.  1.
       -5    1    3    3    0  502  0.56974754816E+03  0.92295747192E+03 -0.98299959623E+03  0.14638213893E+04  0.46999998093E+01 0. -1.
</event>
<event>
 5   0  0.7071012E-06  0.3022116E+04  0.7818609E-02  0.8237444E-01
        2   -1    0    0  501    0  0.00000000000E+00  0.00000000000E+00  0.14535054966E+04  0.14535054966E+04  0.25500000920E-02 0.  1.
       -2   -1    0    0    0  501  0.00000000000E+00  0.00000000000E+00 -0.15708891128E+04  0.15708891128E+04  0.25500000920E-02 0. -1.
    10030    2    1    2    0    0  0.00000000000E+00  0.00000000000E+00 -0.11738361612E+03  0.30243946094E+04  0.30221157886E+04 0.  0.
        1    1    3    3  502    0  0.16347149518E+03  0.13873685496E+04  0.51774733430E+03  0.14898243938E+04  0.50400001928E-02 0. -1.
       -1    1    3    3    0  502 -0.16347149518E+03 -0.13873685496E+04 -0.63513095042E+03  0.15345702156E+04  0.50400001928E-02 0.  1.
</event>
<event>
 5   0  0.2517725E-06  0.3196368E+04  0.7818609E-02  0.8189777E-01
        1   -1    0    0  501    0  0.00000000000E+00  0.00000000000E+00  0.23410805544E+04  0.23410805544E+04  0.50400001928E-02 0. -1.
       -1   -1    0    0    0  501  0.00000000000E+00  0.00000000000E+00 -0.10910315855E+04  0.10910315855E+04  0.50400001928E-02 0.  1.
    10030    2    1    2    0    0  0.00000000000E+00  0.00000000000E+00  0.12500489689E+04  0.34321121400E+04  0.31963684576E+04 0.  0.
        3    1    3    3  502    0  0.15802628621E+04  0.75506385947E+02  0.38191734692E+03  0.16275112281E+04  0.10100000352E+00 0.  1.
       -3    1    3    3    0  502 -0.15802628621E+04 -0.75506385947E+02  0.86813162195E+03  0.18046009118E+04  0.10100000352E+00 0. -1.
</event>
<event>
 5   0  0.2674441E-06  0.3118142E+04  0.7818609E-02  0.8210777E-01
        1   -1    0    0  501    0  0.00000000000E+00  0.00000000000E+00  0.22878546998E+04  0.22878546998E+04  0.50400001928E-02 0. -1.
       -1   -1    0    0    0  501  0.00000000000E+00  0.00000000000E+00 -0.10624371223E+04  0.10624371223E+04  0.50400001928E-02 0.  1.
    10030    2    1    2    0    0  0.00000000000E+00  0.00000000000E+00  0.12254175775E+04  0.33502918221E+04  0.31181416026E+04 0.  0.
        5    1    3    3  502    0  0.14386207869E+04 -0.23081804951E+03  0.16632268361E+02  0.14571223225E+04  0.46999998093E+01 0.  1.
       -5    1    3    3    0  502 -0.14386207869E+04  0.23081804951E+03  0.12087853091E+04  0.18931694996E+04  0.46999998093E+01 0. -1.
</event>
<event>
 5   0  0.2674441E-06  0.3054067E+04  0.7818609E-02  0.8228458E-01
        1   -1    0    0  501    0  0.00000000000E+00  0.00000000000E+00  0.12516106961E+04  0.12516106961E+04  0.50400001928E-02 0. -1.
       -1   -1    0    0    0  501  0.00000000000E+00  0.00000000000E+00 -0.18630644338E+04  0.18630644338E+04  0.50400001928E-02 0.  1.
    10030    2    1    2    0    0  0.00000000000E+00  0.00000000000E+00 -0.61145373771E+03  0.31146751300E+04  0.30540670411E+04 0.  0.
        5    1    3    3  502    0 -0.52037327565E+03  0.10277880529E+04  0.71649808844E+03  0.13566606902E+04  0.46999998093E+01 0. -1.
       -5    1    3    3    0  502  0.52037327565E+03 -0.10277880529E+04 -0.13279518262E+04  0.17580144397E+04  0.46999998093E+01 0.  1.
</event>
<event>
 5   0  0.7079223E-06  0.2775178E+04  0.7818609E-02  0.8311016E-01
        2   -1    0    0  501    0  0.00000000000E+00  0.00000000000E+00  0.13947112564E+04  0.13947112564E+04  0.25500000920E-02 0.  1.
       -2   -1    0    0    0  501  0.00000000000E+00  0.00000000000E+00 -0.13805032023E+04  0.13805032023E+04  0.25500000920E-02 0. -1.
    10030    2    1    2    0    0  0.00000000000E+00  0.00000000000E+00  0.14208054116E+02  0.27752144586E+04  0.27751780885E+04 0.  0.
        5    1    3    3  502    0 -0.75542020695E+03 -0.84397252394E+03  0.80863306232E+03  0.13917107565E+04  0.46999998093E+01 0.  1.
       -5    1    3    3    0  502  0.75542020695E+03  0.84397252394E+03 -0.79442500820E+03  0.13835037022E+04  0.46999998093E+01 0. -1.
</event>
<event>
 5   0  0.7079223E-06  0.2529686E+04  0.7818609E-02  0.8392486E-01
       -2   -1    0    0    0  501  0.00000000000E+00  0.00000000000E+00  0.69738038319E+03  0.69738038319E+03  0.25500000920E-02 0. -1.
        2   -1    0    0  501    0  0.00000000000E+00  0.00000000000E+00 -0.22940525611E+04  0.22940525611E+04  0.25500000920E-02 0.  1.
    10030    2    1    2    0    0  0.00000000000E+00  0.00000000000E+00 -0.15966721779E+04  0.29914329443E+04  0.25296855568E+04 0.  0.
        5    1    3    3  502    0  0.72123149504E+03 -0.11914323608E+03  0.42227201274E+03  0.84421900173E+03  0.46999998093E+01 0. -1.
       -5    1    3    3    0  502 -0.72123149504E+03  0.11914323608E+03 -0.20189441906E+04  0.21472139425E+04  0.46999998093E+01 0.  1.
</event>
<event>
 5   0  0.7363513E-06  0.1996968E+04  0.7818609E-02  0.8608040E-01
        2   -1    0    0  501    0  0.00000000000E+00  0.00000000000E+00  0.13523803591E+04  0.13523803591E+04  0.25500000920E-02 0. -1.
       -2   -1    0    0    0  501  0.00000000000E+00  0.00000000000E+00 -0.73719666704E+03  0.73719666704E+03  0.25500000920E-02 0.  1.
    10030    2    1    2    0    0  0.00000000000E+00  0.00000000000E+00  0.61518369201E+03  0.20895770261E+04  0.19969679950E+04 0.  0.
        4    1    3    3  502    0  0.84728762097E+02  0.24120723649E+03  0.13175516005E+04  0.13421265689E+04  0.12699999809E+01 0. -1.
       -4    1    3    3    0  502 -0.84728762097E+02 -0.24120723649E+03 -0.70236790853E+03  0.74745045715E+03  0.12699999809E+01 0.  1.
</event>
<event>
 5   0  0.2624011E-06  0.2964570E+04  0.7818609E-02  0.8253921E-01
       -1   -1    0    0    0  501  0.00000000000E+00  0.00000000000E+00  0.89933202496E+03  0.89933202498E+03  0.50400001928E-02 0. -1.
        1   -1    0    0  501    0  0.00000000000E+00  0.00000000000E+00 -0.24431123109E+04  0.24431123109E+04  0.50400001928E-02 0.  1.
    10030    2    1    2    0    0  0.00000000000E+00  0.00000000000E+00 -0.15437802860E+04  0.33424443359E+04  0.29645702163E+04 0.  0.
        1    1    3    3  502    0 -0.11257255175E+04  0.81064692721E+03 -0.18305329299E+03  0.13992551195E+04  0.50400001928E-02 0. -1.
       -1    1    3    3    0  502  0.11257255175E+04 -0.81064692721E+03 -0.13607269930E+04  0.19431892164E+04  0.50400001928E-02 0.  1.
</event>
<event>
 5   0  0.7079223E-06  0.3022390E+04  0.7818609E-02  0.8237366E-01
        2   -1    0    0  501    0  0.00000000000E+00  0.00000000000E+00  0.24361732414E+04  0.24361732414E+04  0.25500000920E-02 0. -1.
       -2   -1    0    0    0  501  0.00000000000E+00  0.00000000000E+00 -0.93741689309E+03  0.93741689309E+03  0.25500000920E-02 0.  1.
    10030    2    1    2    0    0  0.00000000000E+00  0.00000000000E+00  0.14987563483E+04  0.33735901345E+04  0.30223897505E+04 0.  0.
        5    1    3    3  502    0  0.13107873858E+04 -0.73233640697E+03  0.55861683567E+03  0.16020471412E+04  0.46999998093E+01 0. -1.
       -5    1    3    3    0  502 -0.13107873858E+04  0.73233640697E+03  0.94013951261E+03  0.17715429932E+04  0.46999998093E+01 0.  1.
</event>
<event>
 5   0  0.2674441E-06  0.3075158E+04  0.7818609E-02  0.8222589E-01
        1   -1    0    0  501    0  0.00000000000E+00  0.00000000000E+00  0.24136201401E+04  0.24136201401E+04  0.50400001928E-02 0. -1.
       -1   -1    0    0    0  501  0.00000000000E+00  0.00000000000E+00 -0.97950330386E+03  0.97950330387E+03  0.50400001928E-02 0.  1.
    10030    2    1    2    0    0  0.00000000000E+00  0.00000000000E+00  0.14341168362E+04  0.33931234440E+04  0.30751578181E+04 0.  0.
        5    1    3    3  502    0 -0.10692118444E+04 -0.78896027081E+03  0.15706454962E+04  0.20573336244E+04  0.46999998093E+01 0. -1.
       -5    1    3    3    0  502  0.10692118444E+04  0.78896027081E+03 -0.13652865999E+03  0.13357898196E+04  0.46999998093E+01 0.  1.
</event>
<event>
 5   0  0.7094341E-06  0.3113659E+04  0.7818609E-02  0.8211999E-01
       -2   -1    0    0    0  501  0.00000000000E+00  0.00000000000E+00  0.11382563013E+04  0.11382563013E+04  0.25500000920E-02 0.  1.
        2   -1    0    0  501    0  0.00000000000E+00  0.00000000000E+00 -0.21293254972E+04  0.21293254972E+04  0.25500000920E-02 0. -1.
    10030    2    1    2    0    0  0.00000000000E+00  0.00000000000E+00 -0.99106919590E+03  0.32675817984E+04  0.31136590466E+04 0.  0.
        3    1    3    3  502    0 -0.87811893207E+03  0.16464827295E+03 -0.18335190609E+04  0.20396063516E+04  0.10100000352E+00 0. -1.
       -3    1    3    3    0  502  0.87811893207E+03 -0.16464827295E+03  0.84244986502E+03  0.12279754468E+04  0.10100000352E+00 0.  1.
</event>
<event>
 5   0  0.7079223E-06  0.3495836E+04  0.7818609E-02  0.8114777E-01
        2   -1    0    0  501    0  0.00000000000E+00  0.00000000000E+00  0.21677428998E+04  0.21677428998E+04  0.25500000920E-02 0.  1.
       -2   -1    0    0    0  501  0.00000000000E+00  0.00000000000E+00 -0.14094002877E+04  0.14094002877E+04  0.25500000920E-02 0. -1.
    10030    2    1    2    0    0  0.00000000000E+00  0.00000000000E+00  0.75834261209E+03  0.35771431875E+04  0.34958360755E+04 0.  0.
        5    1    3    3  502    0  0.35177508576E+03  0.13451530989E+04  0.14630587161E+04  0.20183521663E+04  0.46999998093E+01 0.  1.
       -5    1    3    3    0  502 -0.35177508576E+03 -0.13451530989E+04 -0.70471610404E+03  0.15587910212E+04  0.46999998093E+01 0. -1.
</event>
<event>
 5   0  0.2612331E-06  0.3055788E+04  0.7818609E-02  0.8227977E-01
       -1   -1    0    0    0  501  0.00000000000E+00  0.00000000000E+00  0.11491993838E+04  0.11491993839E+04  0.50400001928E-02 0. -1.
        1   -1    0    0  501    0  0.00000000000E+00  0.00000000000E+00 -0.20313789714E+04  0.20313789714E+04  0.50400001928E-02 0.  1.
    10030    2    1    2    0    0  0.00000000000E+00  0.00000000000E+00 -0.88217958754E+03  0.31805783552E+04  0.30557875988E+04 0.  0.
        4    1    3    3  502    0 -0.21948908843E+03 -0.13497639159E+03  0.11264210901E+04  0.11555172744E+04  0.12699999809E+01 0. -1.
       -4    1    3    3    0  502  0.21948908843E+03  0.13497639159E+03 -0.20086006776E+04  0.20250610809E+04  0.12699999809E+01 0.  1.
</event>
<event>
 5   0  0.7094341E-06  0.3105378E+04  0.7818609E-02  0.8214264E-01
       -2   -1    0    0    0  501  0.00000000000E+00  0.00000000000E+00  0.78795778126E+03  0.78795778126E+03  0.25500000920E-02 0.  1.
        2   -1    0    0  501    0  0.00000000000E+00  0.00000000000E+00 -0.30596095211E+04  0.30596095211E+04  0.25500000920E-02 0. -1.
    10030    2    1    2    0    0  0.00000000000E+00  0.00000000000E+00 -0.22716517399E+04  0.38475673024E+04  0.31053779994E+04 0.  0.
        3    1    3    3  502    0  0.48084938931E+03  0.51826034560E+03 -0.28486227742E+04  0.29350403134E+04  0.10100000352E+00 0. -1.
       -3    1    3    3    0  502 -0.48084938931E+03 -0.51826034560E+03  0.57697103436E+03  0.91252698903E+03  0.10100000352E+00 0.  1.
</event>
<event>
 5   0  0.7414808E-06  0.3026054E+04  0.7818609E-02  0.8236330E-01
       -2   -1    0    0    0  501  0.00000000000E+00  0.00000000000E+00  0.14380160985E+04  0.14380160985E+04  0.25500000920E-02 0. -1.
        2   -1    0    0  501    0  0.00000000000E+00  0.00000000000E+00 -0.15919504452E+04  0.15919504452E+04  0.25500000920E-02 0.  1.
    10030    2    1    2    0    0  0.00000000000E+00  0.00000000000E+00 -0.15393434675E+03  0.30299665437E+04  0.30260537789E+04 0.  0.
        2    1    3    3  502    0 -0.12017494512E+04 -0.85710570738E+03  0.25575517849E+03  0.14980796536E+04  0.25500000920E-02 0.  1.
       -2    1    3    3    0  502  0.12017494512E+04  0.85710570738E+03 -0.40968952523E+03  0.15318868901E+04  0.25500000920E-02 0. -1.
</event>
<event>
 5   0  0.7363513E-06  0.3307530E+04  0.7818609E-02  0.8160982E-01
        2   -1    0    0  501    0  0.00000000000E+00  0.00000000000E+00  0.25727354114E+04  0.25727354114E+04  0.25500000920E-02 0. -1.
       -2   -1    0    0    0  501  0.00000000000E+00  0.00000000000E+00 -0.10630473266E+04  0.10630473266E+04  0.25500000920E-02 0.  1.
    10030    2    1    2    0    0  0.00000000000E+00  0.00000000000E+00  0.15096880848E+04  0.36357827380E+04  0.33075304994E+04 0.  0.
        4    1    3    3  502    0 -0.10209194037E+04  0.76725892268E+03  0.19098220784E+04  0.22974735401E+04  0.12699999809E+01 0. -1.
       -4    1    3    3    0  502  0.10209194037E+04 -0.76725892268E+03 -0.40013399366E+03  0.13383091979E+04  0.12699999809E+01 0.  1.
</event>
<event>
 5   0  0.7094341E-06  0.2393386E+04  0.7818609E-02  0.8441984E-01
       -2   -1    0    0    0  501  0.00000000000E+00  0.00000000000E+00  0.87705451906E+03  0.87705451906E+03  0.25500000920E-02 0. -1.
        2   -1    0    0  501    0  0.00000000000E+00  0.00000000000E+00 -0.16328228153E+04  0.16328228153E+04  0.25500000920E-02 0.  1.
    10030    2    1    2    0    0  0.00000000000E+00  0.00000000000E+00 -0.75576829620E+03  0.25098773343E+04  0.23933864117E+04 0.  0.
        3    1    3    3  502    0  0.36492356956E+03  0.11193453187E+04 -0.15303883129E+03  0.11872337799E+04  0.10100000352E+00 0.  1.
       -3    1    3    3    0  502 -0.36492356956E+03 -0.11193453187E+04 -0.60272946492E+03  0.13226435544E+04  0.10100000352E+00 0. -1.
</event>
<event>
 5   0  0.7071012E-06  0.3104225E+04  0.7818609E-02  0.8214579E-01
       -2   -1    0    0    0  501  0.00000000000E+00  0.00000000000E+00  0.19609386233E+04  0.19609386233E+04  0.25500000920E-02 0.  1.
        2   -1    0    0  501    0  0.00000000000E+00  0.00000000000E+00 -0.12285207256E+04  0.12285207256E+04  0.25500000920E-02 0. -1.
    10030    2    1    2    0    0  0.00000000000E+00  0.00000000000E+00  0.73241789778E+03  0.31894593489E+04  0.31042253400E+04 0.  0.
        1    1    3    3  502    0  0.77235456545E+03  0.12612590475E+04  0.85003970543E+03  0.17058351211E+04  0.50400001928E-02 0.  1.
       -1    1    3    3    0  502 -0.77235456545E+03 -0.12612590475E+04 -0.11762180764E+03  0.14836242278E+04  0.50400001928E-02 0. -1.
</event>
<event>
 5   0  0.7071012E-06  0.3130149E+04  0.7818609E-02  0.8207512E-01
        2   -1    0    0  501    0  0.00000000000E+00  0.00000000000E+00  0.19454005311E+04  0.19454005311E+04  0.25500000920E-02 0. -1.
       -2   -1    0    0    0  501  0.00000000000E+00  0.00000000000E+00 -0.12591022935E+04  0.12591022935E+04  0.25500000920E-02 0.  1.
    10030    2    1    2    0    0  0.00000000000E+00  0.00000000000E+00  0.68629823759E+03  0.32045028246E+04  0.31301490510E+04 0.  0.
        1    1    3    3  502    0 -0.11101816872E+03  0.10262048651E+04 -0.86124731562E+03  0.13443096361E+04  0.50400001928E-02 0.  1.
       -1    1    3    3    0  502  0.11101816872E+03 -0.10262048651E+04  0.15475455532E+04  0.18601931884E+04  0.50400001928E-02 0. -1.
</event>
<event>
 5   0  0.2624011E-06  0.2841264E+04  0.7818609E-02  0.8290571E-01
        1   -1    0    0  501    0  0.00000000000E+00  0.00000000000E+00  0.18241485261E+04  0.18241485262E+04  0.50400001928E-02 0. -1.
       -1   -1    0    0    0  501  0.00000000000E+00  0.00000000000E+00 -0.11063768364E+04  0.11063768364E+04  0.50400001928E-02 0.  1.
    10030    2    1    2    0    0  0.00000000000E+00  0.00000000000E+00  0.71777168975E+03  0.29305253626E+04  0.28412642788E+04 0.  0.
        1    1    3    3  502    0 -0.10360290548E+04  0.94569769507E+03  0.59065706908E+03  0.15220302580E+04  0.50400001928E-02 0.  1.
       -1    1    3    3    0  502  0.10360290548E+04 -0.94569769507E+03  0.12711462066E+03  0.14084951046E+04  0.50400001928E-02 0. -1.
</event>
<event>
 5   0  0.2598987E-06  0.3064454E+04  0.7818609E-02  0.8225562E-01
       -1   -1    0    0    0  501  0.00000000000E+00  0.00000000000E+00  0.93832056450E+03  0.93832056451E+03  0.50400001928E-02 0.  1.
        1   -1    0    0  501    0  0.00000000000E+00  0.00000000000E+00 -0.25020435883E+04  0.25020435883E+04  0.50400001928E-02 0. -1.
    10030    2    1    2    0    0  0.00000000000E+00  0.00000000000E+00 -0.15637230238E+04  0.34403641528E+04  0.30644535906E+04 0.  0.
        2    1    3    3  502    0  0.12283275475E+04  0.86594563072E+03 -0.44680847137E+03  0.15678929203E+04  0.25500000920E-02 0. -1.
       -2    1    3    3    0  502 -0.12283275475E+04 -0.86594563072E+03 -0.11169145524E+04  0.18724712326E+04  0.25500000920E-02 0.  1.
</event>
<event>
 5   0  0.7071012E-06  0.2365350E+04  0.7818609E-02  0.8452591E-01
        2   -1    0    0  501    0  0.00000000000E+00  0.00000000000E+00  0.89568484727E+03  0.89568484728E+03  0.25500000920E-02 0. -1.
       -2   -1    0    0    0  501  0.00000000000E+00  0.00000000000E+00 -0.15616203918E+04  0.15616203918E+04  0.25500000920E-02 0.  1.
    10030    2    1    2    0    0  0.00000000000E+00  0.00000000000E+00 -0.66593554454E+03  0.24573052391E+04  0.23653496335E+04 0.  0.
        1    1    3    3  502    0  0.69152859260E+03 -0.74226096354E+03  0.29857713454E+03  0.10575024528E+04  0.50400001928E-02 0. -1.
       -1    1    3    3    0  502 -0.69152859260E+03  0.74226096354E+03 -0.96451267909E+03  0.13998027863E+04  0.50400001928E-02 0.  1.
</event>
<event>
 5   0  0.2517725E-06  0.3194625E+04  0.7818609E-02  0.8190238E-01
        1   -1    0    0  501    0  0.00000000000E+00  0.00000000000E+00  0.86010121215E+03  0.86010121216E+03  0.50400001928E-02 0. -1.
       -1   -1    0    0    0  501  0.00000000000E+00  0.00000000000E+00 -0.29664032020E+04  0.29664032020E+04  0.50400001928E-02 0.  1.
    10030    2    1    2    0    0  0.00000000000E+00  0.00000000000E+00 -0.21063019898E+04  0.38265044141E+04  0.31946248542E+04 0.  0.
        3    1    3    3  502    0  0.74978098730E+03 -0.90198325856E+03 -0.23518949188E+04  0.26281466943E+04  0.10100000352E+00 0.  1.
       -3    1    3    3    0  502 -0.74978098730E+03  0.90198325856E+03  0.24559292899E+03  0.11983577198E+04  0.10100000352E+00 0. -1.
</event>
<event>
 5   0  0.7079223E-06  0.3157135E+04  0.7818609E-02  0.8200230E-01
        2   -1    0    0  501    0  0.00000000000E+00  0.00000000000E+00  0.16920356952E+04  0.16920356952E+04  0.25500000920E-02 0.  1.
       -2   -1    0    0    0  501  0.00000000000E+00  0.00000000000E+00 -0.14727089498E+04  0.14727089498E+04  0.25500000920E-02 0. -1.
    10030    2    1    2    0    0  0.00000000000E+00  0.00000000000E+00  0.21932674540E+03  0.31647446450E+04  0.31571354812E+04 0.  0.
        5    1    3    3  502    0  0.26504104387E+03  0.68693510500E+03  0.15093551306E+04  0.16793753582E+04  0.46999998093E+01 0.  1.
       -5    1    3    3    0  502 -0.26504104387E+03 -0.68693510500E+03 -0.12900283852E+04  0.14853692868E+04  0.46999998093E+01 0. -1.
</event>
<event>
 5   0  0.2517725E-06  0.3186324E+04  0.7818609E-02  0.8192438E-01
        1   -1    0    0  501    0  0.00000000000E+00  0.00000000000E+00  0.16023720953E+04  0.16023720953E+04  0.50400001928E-02 0. -1.
       -1   -1    0    0    0  501  0.00000000000E+00  0.00000000000E+00 -0.15840048892E+04  0.15840048892E+04  0.50400001928E-02 0.  1.
    10030    2    1    2    0    0  0.00000000000E+00  0.00000000000E+00  0.18367206145E+02  0.31863769845E+04  0.31863240471E+04 0.  0.
        3    1    3    3  502    0  0.16794945244E+03  0.89618604020E+03 -0.12972870242E+04  0.15856576145E+04  0.10100000352E+00 0.  1.
       -3    1    3    3    0  502 -0.16794945244E+03 -0.89618604020E+03  0.13156542303E+04  0.16007193699E+04  0.10100000352E+00 0. -1.
</event>
<event>
 5   0  0.7414808E-06  0.3092626E+04  0.7818609E-02  0.8217765E-01
        2   -1    0    0  501    0  0.00000000000E+00  0.00000000000E+00  0.11246294564E+04  0.11246294564E+04  0.25500000920E-02 0.  1.
       -2   -1    0    0    0  501  0.00000000000E+00  0.00000000000E+00 -0.21261082534E+04  0.21261082534E+04  0.25500000920E-02 0. -1.
    10030    2    1    2    0    0  0.00000000000E+00  0.00000000000E+00 -0.10014787970E+04  0.32507377098E+04  0.30926260487E+04 0.  0.
        2    1    3    3  502    0 -0.14161984277E+04 -0.58811467849E+03 -0.70987665407E+03  0.16897993152E+04  0.25500000920E-02 0.  1.
       -2    1    3    3    0  502  0.14161984277E+04  0.58811467849E+03 -0.29160214290E+03  0.15609383945E+04  0.25500000920E-02 0. -1.
</event>
<event>
 5   0  0.2612331E-06  0.2322583E+04  0.7818609E-02  0.8469070E-01
       -1   -1    0    0    0  501  0.00000000000E+00  0.00000000000E+00  0.64926820730E+03  0.64926820732E+03  0.50400001928E-02 0. -1.
        1   -1    0    0  501    0  0.00000000000E+00  0.00000000000E+00 -0.20771040706E+04  0.20771040706E+04  0.50400001928E-02 0.  1.
    10030    2    1    2    0    0  0.00000000000E+00  0.00000000000E+00 -0.14278358633E+04  0.27263722779E+04  0.23225827316E+04 0.  0.
        4    1    3    3  502    0  0.31271959585E+03  0.41872832103E+03 -0.19312608313E+04  0.20007241099E+04  0.12699999809E+01 0.  1.
       -4    1    3    3    0  502 -0.31271959585E+03 -0.41872832103E+03  0.50342496801E+03  0.72564816803E+03  0.12699999809E+01 0. -1.
</event>
<event>
 5   0  0.2674441E-06  0.3064859E+04  0.7818609E-02  0.8225449E-01
        1   -1    0    0  501    0  0.00000000000E+00  0.00000000000E+00  0.13457461408E+04  0.13457461409E+04  0.50400001928E-02 0.  1.
       -1   -1    0    0    0  501  0.00000000000E+00  0.00000000000E+00 -0.17450096974E+04  0.17450096974E+04  0.50400001928E-02 0. -1.
    10030    2    1    2    0    0  0.00000000000E+00  0.00000000000E+00 -0.39926355660E+03  0.30907558383E+04  0.30648589306E+04 0.  0.
        5    1    3    3  502    0 -0.66337836574E+03  0.12535692500E+04 -0.78488997756E+03  0.16209815198E+04  0.46999998093E+01 0.  1.
       -5    1    3    3    0  502  0.66337836574E+03 -0.12535692500E+04  0.38562642096E+03  0.14697743185E+04  0.46999998093E+01 0. -1.
</event>
<event>
 5   0  0.2624011E-06  0.3068525E+04  0.7818609E-02  0.8224429E-01
        1   -1    0    0  501    0  0.00000000000E+00  0.00000000000E+00  0.16966322914E+04  0.16966322914E+04  0.50400001928E-02 0. -1.
       -1   -1    0    0    0  501  0.00000000000E+00  0.00000000000E+00 -0.13874314359E+04  0.13874314359E+04  0.50400001928E-02 0.  1.
    10030    2    1    2    0    0  0.00000000000E+00  0.00000000000E+00  0.30920085548E+03  0.30840637273E+04  0.30685247115E+04 0.  0.
        1    1    3    3  502    0  0.15533896071E+03 -0.14443566700E+04 -0.34152322406E+03  0.14922916925E+04  0.50400001928E-02 0.  1.
       -1    1    3    3    0  502 -0.15533896071E+03  0.14443566700E+04  0.65072407954E+03  0.15917720348E+04  0.50400001928E-02 0. -1.
</event>
<event>
 5   0  0.2598987E-06  0.3070792E+04  0.7818609E-02  0.8223800E-01
        1   -1    0    0  501    0  0.00000000000E+00  0.00000000000E+00  0.12954403960E+04  0.12954403960E+04  0.50400001928E-02 0.  1.
       -1   -1    0    0    0  501  0.00000000000E+00  0.00000000000E+00 -0.18197985013E+04  0.18197985013E+04  0.50400001928E-02 0. -1.
    10030    2    1    2    0    0  0.00000000000E+00  0.00000000000E+00 -0.52435810534E+03  0.31152388973E+04  0.30707917488E+04 0.  0.
        2    1    3    3  502    0  0.14460611913E+04 -0.96345850030E+02  0.25217535599E+03  0.14710431339E+04  0.25500000920E-02 0.  1.
       -2    1    3    3    0  502 -0.14460611913E+04  0.96345850030E+02 -0.77653346132E+03  0.16441957634E+04  0.25500000920E-02 0. -1.
</event>
<event>
 5   0  0.7094341E-06  0.3001214E+04  0.7818609E-02  0.8243384E-01
        2   -1    0    0  501    0  0.00000000000E+00  0.00000000000E+00  0.16153714086E+04  0.16153714086E+04  0.25500000920E-02 0. -1.
       -2   -1    0    0    0  501  0.00000000000E+00  0.00000000000E+00 -0.13939958884E+04  0.13939958884E+04  0.25500000920E-02 0.  1.
    10030    2    1    2    0    0  0.00000000000E+00  0.00000000000E+00  0.22137552020E+03  0.30093672971E+04  0.30012138224E+04 0.  0.
        3    1    3    3  502    0 -0.12375082386E+04 -0.11259347132E+03 -0.73285698174E+03  0.14426306860E+04  0.10100000352E+00 0.  1.
       -3    1    3    3    0  502  0.12375082386E+04  0.11259347132E+03  0.95423250194E+03  0.15667366110E+04  0.10100000352E+00 0. -1.
</event>
<event>
 5   0  0.7071012E-06  0.3101160E+04  0.7818609E-02  0.8215420E-01
        2   -1    0    0  501    0  0.00000000000E+00  0.00000000000E+00  0.15535565263E+04  0.15535565263E+04  0.25500000920E-02 0.  1.
       -2   -1    0    0    0  501  0.00000000000E+00  0.00000000000E+00 -0.15476089501E+04  0.15476089501E+04  0.25500000920E-02 0. -1.
    10030    2    1    2    0    0  0.00000000000E+00  0.00000000000E+00  0.59475761811E+01  0.31011654764E+04  0.31011597731E+04 0.  0.
        1    1    3    3  502    0 -0.10364835498E+04  0.52174095404E+03 -0.10255154453E+04  0.15486102481E+04  0.50400001928E-02 0. -1.
       -1    1    3    3    0  502  0.10364835498E+04 -0.52174095404E+03  0.10314630215E+04  0.15525552283E+04  0.50400001928E-02 0.  1.
</event>
<event>
 5   0  0.2598987E-06  0.3202790E+04  0.7818609E-02  0.8188081E-01
        1   -1    0    0  501    0  0.00000000000E+00  0.00000000000E+00  0.20642919653E+04  0.20642919653E+04  0.50400001928E-02 0. -1.
       -1   -1    0    0    0  501  0.00000000000E+00  0.00000000000E+00 -0.12422981221E+04  0.12422981221E+04  0.50400001928E-02 0.  1.
    10030    2    1    2    0    0  0.00000000000E+00  0.00000000000E+00  0.82199384322E+03  0.33065900873E+04  0.32027900536E+04 0.  0.
        2    1    3    3  502    0 -0.11742698832E+04 -0.97071807540E+03  0.92019838365E+03  0.17798787615E+04  0.25500000920E-02 0. -1.
       -2    1    3    3    0  502  0.11742698832E+04  0.97071807540E+03 -0.98204540429E+02  0.15267113258E+04  0.25500000920E-02 0.  1.
</event>
<event>
 5   0  0.2612331E-06  0.2995516E+04  0.7818609E-02  0.8245012E-01
       -1   -1    0    0    0  501  0.00000000000E+00  0.00000000000E+00  0.79820969967E+03  0.79820969969E+03  0.50400001928E-02 0. -1.
        1   -1    0    0  501    0  0.00000000000E+00  0.00000000000E+00 -0.28103881040E+04  0.28103881040E+04  0.50400001928E-02 0.  1.
    10030    2    1    2    0    0  0.00000000000E+00  0.00000000000E+00 -0.20121784043E+04  0.36085978037E+04  0.29955160120E+04 0.  0.
        4    1    3    3  502    0 -0.39973373719E+03  0.14212971983E+04 -0.70275081527E+03  0.16351553773E+04  0.12699999809E+01 0. -1.
       -4    1    3    3    0  502  0.39973373719E+03 -0.14212971983E+04 -0.13094275890E+04  0.19734424264E+04  0.12699999809E+01 0.  1.
</event>
<event>
 5   0  0.2517725E-06  0.3106001E+04  0.7818609E-02  0.8214093E-01
        1   -1    0    0  501    0  0.00000000000E+00  0.00000000000E+00  0.21756346426E+04  0.21756346426E+04  0.50400001928E-02 0.  1.
       -1   -1    0    0    0  501  0.00000000000E+00  0.00000000000E+00 -0.11085551889E+04  0.11085551889E+04  0.50400001928E-02 0. -1.
    10030    2    1    2    0    0  0.00000000000E+00  0.00000000000E+00  0.10670794537E+04  0.32841898316E+04  0.31060013344E+04 0.  0.
        3    1    3    3  502    0 -0.62478405006E+03  0.19041058794E+02 -0.96967078845E+03  0.11536806834E+04  0.10100000352E+00 0. -1.
       -3    1    3    3    0  502  0.62478405006E+03 -0.19041058794E+02  0.20367502422E+04  0.21305091481E+04  0.10100000352E+00 0.  1.
</event>
<event>
 5   0  0.2612331E-06  0.3091597E+04  0.7818609E-02  0.8218048E-01
        1   -1    0    0  501    0  0.00000000000E+00  0.00000000000E+00  0.22451774768E+04  0.22451774768E+04  0.50400001928E-02 0.  1.
       -1   -1    0    0    0  501  0.00000000000E+00  0.00000000000E+00 -0.10642779457E+04  0.10642779457E+04  0.50400001928E-02 0. -1.
    10030    2    1    2    0    0  0.00000000000E+00  0.00000000000E+00  0.11808995311E+04  0.33094554225E+04  0.30915969160E+04 0.  0.
        4    1    3    3  502    0 -0.41110106717E+03 -0.91232395307E+03  0.18516737165E+04  0.21047651290E+04  0.12699999809E+01 0.  1.
       -4    1    3    3    0  502  0.41110106717E+03  0.91232395307E+03 -0.67077418540E+03  0.12046902936E+04  0.12699999809E+01 0. -1.
</event>
<event>
 5   0  0.7414808E-06  0.3142874E+04  0.7818609E-02  0.8204069E-01
        2   -1    0    0  501    0  0.00000000000E+00  0.00000000000E+00  0.14551025850E+04  0.14551025850E+04  0.25500000920E-02 0. -1.
       -2   -1    0    0    0  501  0.00000000000E+00  0.00000000000E+00 -0.16970718644E+04  0.16970718644E+04  0.25500000920E-02 0.  1.
    10030    2    1    2    0    0  0.00000000000E+00  0.00000000000E+00 -0.24196927938E+03  0.31521744493E+04  0.31428736257E+04 0.  0.
        2    1    3    3  502    0 -0.62168956262E+03  0.12555761456E+03  0.13210292050E+04  0.14653944136E+04  0.25500000920E-02 0. -1.
       -2    1    3    3    0  502  0.62168956262E+03 -0.12555761456E+03 -0.15629984844E+04  0.16867800358E+04  0.25500000920E-02 0.  1.
</event>
<event>
 5   0  0.7071012E-06  0.3105771E+04  0.7818609E-02  0.8214156E-01
        2   -1    0    0  501    0  0.00000000000E+00  0.00000000000E+00  0.16992532389E+04  0.16992532389E+04  0.25500000920E-02 0.  1.
       -2   -1    0    0    0  501  0.00000000000E+00  0.00000000000E+00 -0.14191254891E+04  0.14191254891E+04  0.25500000920E-02 0. -1.
    10030    2    1    2    0    0  0.00000000000E+00  0.00000000000E+00  0.28012774980E+03  0.31183787280E+04  0.31057711338E+04 0.  0.
        1    1    3    3  502    0 -0.11832457965E+04 -0.79877973485E+03 -0.47342702628E+03  0.15040787310E+04  0.50400001928E-02 0. -1.
       -1    1    3    3    0  502  0.11832457965E+04  0.79877973485E+03  0.75355477608E+03  0.16142999970E+04  0.50400001928E-02 0.  1.
</event>
<event>
 5   0  0.2624011E-06  0.2613441E+04  0.7818609E-02  0.8363650E-01
        1   -1    0    0  501    0  0.00000000000E+00  0.00000000000E+00  0.17129592291E+04  0.17129592291E+04  0.50400001928E-02 0. -1.
       -1   -1    0    0    0  501  0.00000000000E+00  0.00000000000E+00 -0.99682399760E+03  0.99682399762E+03  0.50400001928E-02 0.  1.
    10030    2    1    2    0    0  0.00000000000E+00  0.00000000000E+00  0.71613523153E+03  0.27097832268E+04  0.26134413072E+04 0.  0.
        1    1    3    3  502    0  0.11201070726E+04 -0.66555572914E+03  0.46131024167E+03  0.13821763353E+04  0.50400001928E-02 0. -1.
       -1    1    3    3    0  502 -0.11201070726E+04  0.66555572914E+03  0.25482498986E+03  0.13276068915E+04  0.50400001928E-02 0.  1.
</event>
<event>
 5   0  0.7414808E-06  0.3073125E+04  0.7818609E-02  0.8223152E-01
        2   -1    0    0  501    0  0.00000000000E+00  0.00000000000E+00  0.22001312027E+04  0.22001312027E+04  0.25500000920E-02 0.  1.
       -2   -1    0    0    0  501  0.00000000000E+00  0.00000000000E+00 -0.10731290843E+04  0.10731290843E+04  0.25500000920E-02 0. -1.
    10030    2    1    2    0    0  0.00000000000E+00  0.00000000000E+00  0.11270021184E+04  0.32732602870E+04  0.30731253036E+04 0.  0.
        2    1    3    3  502    0 -0.28661350378E+03  0.12050579054E+04 -0.40494990792E+03  0.13031869719E+04  0.25500000920E-02 0. -1.
       -2    1    3    3    0  502  0.28661350378E+03 -0.12050579054E+04  0.15319520263E+04  0.19700733151E+04  0.25500000920E-02 0.  1.
</event>
<event>
 5   0  0.2517725E-06  0.3073747E+04  0.7818609E-02  0.8222980E-01
        1   -1    0    0  501    0  0.00000000000E+00  0.00000000000E+00  0.13582384447E+04  0.13582384447E+04  0.50400001928E-02 0. -1.
       -1   -1    0    0    0  501  0.00000000000E+00  0.00000000000E+00 -0.17390022034E+04  0.17390022034E+04  0.50400001928E-02 0.  1.
    10030    2    1    2    0    0  0.00000000000E+00  0.00000000000E+00 -0.38076375868E+03  0.30972406480E+04  0.30737466701E+04 0.  0.
        3    1    3    3  502    0  0.60113050926E+03 -0.10915087947E+04  0.71606622866E+03  0.14371848148E+04  0.10100000352E+00 0.  1.
       -3    1    3    3    0  502 -0.60113050926E+03  0.10915087947E+04 -0.10968299873E+04  0.16600558332E+04  0.10100000352E+00 0. -1.
</event>
<event>
 5   0  0.7071012E-06  0.2133259E+04  0.7818609E-02  0.8546732E-01
        2   -1    0    0  501    0  0.00000000000E+00  0.00000000000E+00  0.96070324655E+03  0.96070324655E+03  0.25500000920E-02 0.  1.
       -2   -1    0    0    0  501  0.00000000000E+00  0.00000000000E+00 -0.11842349337E+04  0.11842349337E+04  0.25500000920E-02 0. -1.
    10030    2    1    2    0    0  0.00000000000E+00  0.00000000000E+00 -0.22353168716E+03  0.21449381803E+04  0.21332588643E+04 0.  0.
        1    1    3    3  502    0 -0.21001620761E+02  0.16301073258E+03  0.94789437601E+03  0.96203810481E+03  0.50400001928E-02 0.  1.
       -1    1    3    3    0  502  0.21001620761E+02 -0.16301073258E+03 -0.11714260632E+04  0.11829000755E+04  0.50400001928E-02 0. -1.
</event>
<event>
 5   0  0.2517725E-06  0.3074370E+04  0.7818609E-02  0.8222807E-01
        1   -1    0    0  501    0  0.00000000000E+00  0.00000000000E+00  0.15866164712E+04  0.15866164713E+04  0.50400001928E-02 0. -1.
       -1   -1    0    0    0  501  0.00000000000E+00  0.00000000000E+00 -0.14892939177E+04  0.14892939177E+04  0.50400001928E-02 0.  1.
    10030    2    1    2    0    0  0.00000000000E+00  0.00000000000E+00  0.97322553533E+02  0.30759103890E+04  0.30743703488E+04 0.  0.
        3    1    3    3  502    0  0.10118716202E+04  0.54291001546E+03  0.10710845228E+04  0.15703049149E+04  0.10100000352E+00 0.  1.
       -3    1    3    3    0  502 -0.10118716202E+04 -0.54291001546E+03 -0.97376196923E+03  0.15056054741E+04  0.10100000352E+00 0. -1.
</event>
<event>
 5   0  0.7079223E-06  0.2065276E+04  0.7818609E-02  0.8576696E-01
       -2   -1    0    0    0  501  0.00000000000E+00  0.00000000000E+00  0.11071035442E+04  0.11071035442E+04  0.25500000920E-02 0. -1.
        2   -1    0    0  501    0  0.00000000000E+00  0.00000000000E+00 -0.96318113102E+03  0.96318113103E+03  0.25500000920E-02 0.  1.
    10030    2    1    2    0    0  0.00000000000E+00  0.00000000000E+00  0.14392241316E+03  0.20702846752E+04  0.20652760047E+04 0.  0.
        5    1    3    3  502    0 -0.50932479602E+03  0.46830231229E+03 -0.69644876348E+03  0.98172387854E+03  0.46999998093E+01 0.  1.
       -5    1    3    3    0  502  0.50932479602E+03 -0.46830231229E+03  0.84037117664E+03  0.10885607967E+04  0.46999998093E+01 0. -1.
</event>
<event>
 5   0  0.7071012E-06  0.3194092E+04  0.7818609E-02  0.8190379E-01
        2   -1    0    0  501    0  0.00000000000E+00  0.00000000000E+00  0.16866307067E+04  0.16866307067E+04  0.25500000920E-02 0. -1.
       -2   -1    0    0    0  501  0.00000000000E+00  0.00000000000E+00 -0.15122196184E+04  0.15122196184E+04  0.25500000920E-02 0.  1.
    10030    2    1    2    0    0  0.00000000000E+00  0.00000000000E+00  0.17441108837E+03  0.31988503251E+04  0.31940920736E+04 0.  0.
        1    1    3    3  502    0  0.76705824395E+02  0.29625909746E+03 -0.14825805480E+04  0.15138356310E+04  0.50400001928E-02 0.  1.
       -1    1    3    3    0  502 -0.76705824395E+02 -0.29625909746E+03  0.16569916364E+04  0.16850146941E+04  0.50400001928E-02 0. -1.
</event>
<event>
 5   0  0.2598987E-06  0.2931496E+04  0.7818609E-02  0.8263568E-01
       -1   -1    0    0    0  501  0.00000000000E+00  0.00000000000E+00  0.88367630464E+03  0.88367630465E+03  0.50400001928E-02 0.  1.
        1   -1    0    0  501    0  0.00000000000E+00  0.00000000000E+00 -0.24312266784E+04  0.24312266784E+04  0.50400001928E-02 0. -1.
    10030    2    1    2    0    0  0.00000000000E+00  0.00000000000E+00 -0.15475503738E+04  0.33149029831E+04  0.29314961415E+04 0.  0.
        2    1    3    3  502    0  0.21241152987E+02 -0.11520409428E+04  0.25067695197E+03  0.11791897450E+04  0.25500000920E-02 0. -1.
       -2    1    3    3    0  502 -0.21241152987E+02  0.11520409428E+04 -0.17982273257E+04  0.21357132381E+04  0.25500000920E-02 0.  1.
</event>
<event>
 5   0  0.7414808E-06  0.3089740E+04  0.7818609E-02  0.8218559E-01
       -2   -1    0    0    0  501  0.00000000000E+00  0.00000000000E+00  0.11763443138E+04  0.11763443138E+04  0.25500000920E-02 0.  1.
        2   -1    0    0  501    0  0.00000000000E+00  0.00000000000E+00 -0.20288474604E+04  0.20288474604E+04  0.25500000920E-02 0. -1.
    10030    2    1    2    0    0  0.00000000000E+00  0.00000000000E+00 -0.85250314661E+03  0.32051917741E+04  0.30897399072E+04 0.  0.
        2    1    3    3  502    0 -0.11900902924E+04  0.98382734485E+03 -0.37551572363E+03  0.15891013836E+04  0.25500000920E-02 0.  1.
       -2    1    3    3    0  502  0.11900902924E+04 -0.98382734485E+03 -0.47698742298E+03  0.16160903905E+04  0.25500000920E-02 0. -1.
</event>
<event>
 5   0  0.7071012E-06  0.3089854E+04  0.7818609E-02  0.8218528E-01
       -2   -1    0    0    0  501  0.00000000000E+00  0.00000000000E+00  0.15007542581E+04  0.15007542581E+04  0.25500000920E-02 0.  1.
        2   -1    0    0  501    0  0.00000000000E+00  0.00000000000E+00 -0.15904001630E+04  0.15904001630E+04  0.25500000920E-02 0. -1.
    10030    2    1    2    0    0  0.00000000000E+00  0.00000000000E+00 -0.89645904920E+02  0.30911544211E+04  0.30898542469E+04 0.  0.
        1    1    3    3  502    0 -0.96570708190E+01  0.41244349277E+03 -0.15342734388E+04  0.15887724440E+04  0.50400001928E-02 0. -1.
       -1    1    3    3    0  502  0.96570708190E+01 -0.41244349277E+03  0.14446275339E+04  0.15023819772E+04  0.50400001928E-02 0.  1.
</event>
<event>
 5   0  0.2598987E-06  0.2868191E+04  0.7818609E-02  0.8282405E-01
       -1   -1    0    0    0  501  0.00000000000E+00  0.00000000000E+00  0.18859656514E+04  0.18859656514E+04  0.50400001928E-02 0. -1.
        1   -1    0    0  501    0  0.00000000000E+00  0.00000000000E+00 -0.10904913692E+04  0.10904913692E+04  0.50400001928E-02 0.  1.
    10030    2    1    2    0    0  0.00000000000E+00  0.00000000000E+00  0.79547428221E+03  0.29764570207E+04  0.28681905554E+04 0.  0.
        2    1    3    3  502    0  0.41350261383E+03 -0.51068464000E+03 -0.92507363517E+03  0.11347001558E+04  0.25500000920E-02 0.  1.
       -2    1    3    3    0  502 -0.41350261383E+03  0.51068464000E+03  0.17205479174E+04  0.18417568648E+04  0.25500000920E-02 0. -1.
</event>
<event>
 5   0  0.2612331E-06  0.3019329E+04  0.7818609E-02  0.8238233E-01
       -1   -1    0    0    0  501  0.00000000000E+00  0.00000000000E+00  0.14838292497E+04  0.14838292497E+04  0.50400001928E-02 0.  1.
        1   -1    0    0  501    0  0.00000000000E+00  0.00000000000E+00 -0.15359500116E+04  0.15359500116E+04  0.50400001928E-02 0. -1.
    10030    2    1    2    0    0  0.00000000000E+00  0.00000000000E+00 -0.52120761907E+02  0.30197792614E+04  0.30193294311E+04 0.  0.
        4    1    3    3  502    0  0.91299725058E+03  0.24272984651E+03 -0.12037773994E+04  0.15302167815E+04  0.12699999809E+01 0. -1.
       -4    1    3    3    0  502 -0.91299725058E+03 -0.24272984651E+03  0.11516566375E+04  0.14895624799E+04  0.12699999809E+01 0.  1.
</event>
<event>
 5   0  0.7079223E-06  0.3053343E+04  0.7818609E-02  0.8228661E-01
       -2   -1    0    0    0  501  0.00000000000E+00  0.00000000000E+00  0.10826984965E+04  0.10826984965E+04  0.25500000920E-02 0.  1.
        2   -1    0    0  501    0  0.00000000000E+00  0.00000000000E+00 -0.21527000854E+04  0.21527000854E+04  0.25500000920E-02 0. -1.
    10030    2    1    2    0    0  0.00000000000E+00  0.00000000000E+00 -0.10700015889E+04  0.32353985820E+04  0.30533425265E+04 0.  0.
        5    1    3    3  502    0 -0.45614963353E+03 -0.94904084751E+03 -0.17063310040E+04  0.20050782038E+04  0.46999998093E+01 0. -1.
       -5    1    3    3    0  502  0.45614963353E+03  0.94904084751E+03  0.63632941503E+03  0.12303203781E+04  0.46999998093E+01 0.  1.
</event>
<event>
 5   0  0.2517725E-06  0.2905803E+04  0.7818609E-02  0.8271153E-01
        1   -1    0    0  501    0  0.00000000000E+00  0.00000000000E+00  0.22949401975E+04  0.22949401975E+04  0.50400001928E-02 0.  1.
       -1   -1    0    0    0  501  0.00000000000E+00  0.00000000000E+00 -0.91981576043E+03  0.91981576045E+03  0.50400001928E-02 0. -1.
    10030    2    1    2    0    0  0.00000000000E+00  0.00000000000E+00  0.13751244370E+04  0.32147559579E+04  0.29058025830E+04 0.  0.
        3    1    3    3  502    0 -0.27817624631E+02  0.14467504894E+04  0.54305529680E+03  0.15455645779E+04  0.10100000352E+00 0.  1.
       -3    1    3    3    0  502  0.27817624631E+02 -0.14467504894E+04  0.83206914022E+03  0.16691913800E+04  0.10100000352E+00 0. -1.
</event>
<event>
 5   0  0.2517725E-06  0.3207622E+04  0.7818609E-02  0.8186807E-01
        1   -1    0    0  501    0  0.00000000000E+00  0.00000000000E+00  0.23761838535E+04  0.23761838535E+04  0.50400001928E-02 0. -1.
       -1   -1    0    0    0  501  0.00000000000E+00  0.00000000000E+00 -0.10824959996E+04  0.10824959997E+04  0.50400001928E-02 0.  1.
    10030    2    1    2    0    0  0.00000000000E+00  0.00000000000E+00  0.12936878539E+04  0.34586798532E+04  0.32076218704E+04 0.  0.
        3    1    3    3  502    0  0.30970286380E+03  0.13715971407E+04  0.14785907067E+04  0.20404472716E+04  0.10100000352E+00 0. -1.
       -3    1    3    3    0  502 -0.30970286380E+03 -0.13715971407E+04 -0.18490285279E+03  0.14182325816E+04  0.10100000352E+00 0.  1.
</event>
<event>
 5   0  0.7094341E-06  0.3095831E+04  0.7818609E-02  0.8216883E-01
        2   -1    0    0  501    0  0.00000000000E+00  0.00000000000E+00  0.67903682482E+03  0.67903682482E+03  0.25500000920E-02 0. -1.
       -2   -1    0    0    0  501  0.00000000000E+00  0.00000000000E+00 -0.35285900449E+04  0.35285900449E+04  0.25500000920E-02 0.  1.
    10030    2    1    2    0    0  0.00000000000E+00  0.00000000000E+00 -0.28495532201E+04  0.42076268697E+04  0.30958311195E+04 0.  0.
        3    1    3    3  502    0 -0.57902702198E+03  0.10865297210E+04 -0.26999123658E+04  0.29673803127E+04  0.10100000352E+00 0.  1.
       -3    1    3    3    0  502  0.57902702198E+03 -0.10865297210E+04 -0.14964085431E+03  0.12402465571E+04  0.10100000352E+00 0. -1.
</event>
<event>
 5   0  0.7079223E-06  0.3095413E+04  0.7818609E-02  0.8216998E-01
       -2   -1    0    0    0  501  0.00000000000E+00  0.00000000000E+00  0.20491372666E+04  0.20491372666E+04  0.25500000920E-02 0.  1.
        2   -1    0    0  501    0  0.00000000000E+00  0.00000000000E+00 -0.11689777249E+04  0.11689777249E+04  0.25500000920E-02 0. -1.
    10030    2    1    2    0    0  0.00000000000E+00  0.00000000000E+00  0.88015954172E+03  0.32181149915E+04  0.30954132648E+04 0.  0.
        5    1    3    3  502    0 -0.16761276964E+03  0.11897647574E+04 -0.57416311203E+03  0.13316604626E+04  0.46999998093E+01 0. -1.
       -5    1    3    3    0  502  0.16761276964E+03 -0.11897647574E+04  0.14543226537E+04  0.18864545289E+04  0.46999998093E+01 0.  1.
</event>
<event>
 5   0  0.2674441E-06  0.3156851E+04  0.7818609E-02  0.8200307E-01
        1   -1    0    0  501    0  0.00000000000E+00  0.00000000000E+00  0.24289628893E+04  0.24289628893E+04  0.50400001928E-02 0.  1.
       -1   -1    0    0    0  501  0.00000000000E+00  0.00000000000E+00 -0.10257161092E+04  0.10257161092E+04  0.50400001928E-02 0. -1.
    10030    2    1    2    0    0  0.00000000000E+00  0.00000000000E+00  0.14032467801E+04  0.34546789985E+04  0.31568505598E+04 0.  0.
        5    1    3    3  502    0  0.53142983591E+03  0.13675222658E+04  0.13386680641E+04  0.19860989637E+04  0.46999998093E+01 0.  1.
       -5    1    3    3    0  502 -0.53142983591E+03 -0.13675222658E+04  0.64578716052E+02  0.14685800348E+04  0.46999998093E+01 0. -1.
</event>
<event>
 5   0  0.2598987E-06  0.3142645E+04  0.7818609E-02  0.8204131E-01
       -1   -1    0    0    0  501  0.00000000000E+00  0.00000000000E+00  0.14246866585E+04  0.14246866585E+04  0.50400001928E-02 0. -1.
        1   -1    0    0  501    0  0.00000000000E+00  0.00000000000E+00 -0.17330507745E+04  0.17330507745E+04  0.50400001928E-02 0.  1.
    10030    2    1    2    0    0  0.00000000000E+00  0.00000000000E+00 -0.30836411599E+03  0.31577374330E+04  0.31426449477E+04 0.  0.
        2    1    3    3  502    0 -0.11639946629E+04  0.27981810346E+03  0.86848405253E+03  0.14790017903E+04  0.25500000920E-02 0. -1.
       -2    1    3    3    0  502  0.11639946629E+04 -0.27981810346E+03 -0.11768481685E+04  0.16787356427E+04  0.25500000920E-02 0.  1.
</event>
<event>
 5   0  0.7363513E-06  0.2227160E+04  0.7818609E-02  0.8507208E-01
       -2   -1    0    0    0  501  0.00000000000E+00  0.00000000000E+00  0.10357902124E+04  0.10357902124E+04  0.25500000920E-02 0. -1.
        2   -1    0    0  501    0  0.00000000000E+00  0.00000000000E+00 -0.11972118346E+04  0.11972118346E+04  0.25500000920E-02 0.  1.
    10030    2    1    2    0    0  0.00000000000E+00  0.00000000000E+00 -0.16142162219E+03  0.22330020470E+04  0.22271598959E+04 0.  0.
        4    1    3    3  502    0 -0.16787604478E+03 -0.10138667244E+04 -0.51073047134E+03  0.11475867411E+04  0.12699999809E+01 0.  1.
       -4    1    3    3    0  502  0.16787604478E+03  0.10138667244E+04  0.34930884915E+03  0.10854153059E+04  0.12699999809E+01 0. -1.
</event>
<event>
 5   0  0.7079223E-06  0.2423023E+04  0.7818609E-02  0.8430934E-01
       -2   -1    0    0    0  501  0.00000000000E+00  0.00000000000E+00  0.14269233753E+04  0.14269233753E+04  0.25500000920E-02 0.  1.
        2   -1    0    0  501    0  0.00000000000E+00  0.00000000000E+00 -0.10286185080E+04  0.10286185080E+04  0.25500000920E-02 0. -1.
    10030    2    1    2    0    0  0.00000000000E+00  0.00000000000E+00  0.39830486725E+03  0.24555418833E+04  0.24230227348E+04 0.  0.
        5    1    3    3  502    0 -0.60794577905E+03 -0.82674845206E+03  0.85170943406E+03  0.13336199321E+04  0.46999998093E+01 0.  1.
       -5    1    3    3    0  502  0.60794577905E+03  0.82674845206E+03 -0.45340456681E+03  0.11219219511E+04  0.46999998093E+01 0. -1.
</event>
<event>
 5   0  0.2624011E-06  0.3093651E+04  0.7818609E-02  0.8217483E-01
        1   -1    0    0  501    0  0.00000000000E+00  0.00000000000E+00  0.22146246249E+04  0.22146246249E+04  0.50400001928E-02 0.  1.
       -1   -1    0    0    0  501  0.00000000000E+00  0.00000000000E+00 -0.10803947768E+04  0.10803947768E+04  0.50400001928E-02 0. -1.
    10030    2    1    2    0    0  0.00000000000E+00  0.00000000000E+00  0.11342298481E+04  0.32950194018E+04  0.30936508384E+04 0.  0.
        1    1    3    3  502    0  0.91999166987E+03 -0.87185959237E+03 -0.37724603372E+03  0.13224365359E+04  0.50400001928E-02 0. -1.
       -1    1    3    3    0  502 -0.91999166987E+03  0.87185959237E+03  0.15114758818E+04  0.19725828659E+04  0.50400001928E-02 0.  1.
</event>
<event>
 5   0  0.7414808E-06  0.3073620E+04  0.7818609E-02  0.8223015E-01
        2   -1    0    0  501    0  0.00000000000E+00  0.00000000000E+00  0.24414657973E+04  0.24414657973E+04  0.25500000920E-02 0.  1.
       -2   -1    0    0    0  501  0.00000000000E+00  0.00000000000E+00 -0.96736370968E+03  0.96736370968E+03  0.25500000920E-02 0. -1.
    10030    2    1    2    0    0  0.00000000000E+00  0.00000000000E+00  0.14741020876E+04  0.34088295070E+04  0.30736202828E+04 0.  0.
        2    1    3    3  502    0 -0.92802191048E+03 -0.90010990779E+03  0.16585477532E+04  0.21029035075E+04  0.25500000920E-02 0.  1.
       -2    1    3    3    0  502  0.92802191048E+03  0.90010990779E+03 -0.18444566557E+03  0.13059259994E+04  0.25500000920E-02 0. -1.
</event>
<event>
 5   0  0.2598987E-06  0.3133311E+04  0.7818609E-02  0.8206655E-01
        1   -1    0    0  501    0  0.00000000000E+00  0.00000000000E+00  0.12263483309E+04  0.12263483309E+04  0.50400001928E-02 0.  1.
       -1   -1    0    0    0  501  0.00000000000E+00  0.00000000000E+00 -0.20013970907E+04  0.20013970907E+04  0.50400001928E-02 0. -1.
    10030    2    1    2    0    0  0.00000000000E+00  0.00000000000E+00 -0.77504875986E+03  0.32277454216E+04  0.31333113357E+04 0.  0.
        2    1    3    3  502    0  0.87379874857E+03 -0.57643220006E+03 -0.15882489308E+04  0.19021916308E+04  0.25500000920E-02 0. -1.
       -2    1    3    3    0  502 -0.87379874857E+03  0.57643220006E+03  0.81320017091E+03  0.13255537908E+04  0.25500000920E-02 0.  1.
</event>
<event>
 5   0  0.7071012E-06  0.3026955E+04  0.7818609E-02  0.8236075E-01
       -2   -1    0    0    0  501  0.00000000000E+00  0.00000000000E+00  0.17990569989E+04  0.17990569989E+04  0.25500000920E-02 0. -1.
        2   -1    0    0  501    0  0.00000000000E+00  0.00000000000E+00 -0.12732303209E+04  0.12732303209E+04  0.25500000920E-02 0.  1.
    10030    2    1    2    0    0  0.00000000000E+00  0.00000000000E+00  0.52582667808E+03  0.30722873198E+04  0.30269548527E+04 0.  0.
        1    1    3    3  502    0 -0.14149083687E+04  0.51001892271E+03  0.43434798707E+03  0.15654849624E+04  0.50400001928E-02 0. -1.
       -1    1    3    3    0  502  0.14149083687E+04 -0.51001892271E+03  0.91478691011E+02  0.15068023574E+04  0.50400001928E-02 0.  1.
</event>
<event>
 5   0  0.2517725E-06  0.2589022E+04  0.7818609E-02  0.8371940E-01
        1   -1    0    0  501    0  0.00000000000E+00  0.00000000000E+00  0.17339453681E+04  0.17339453681E+04  0.50400001928E-02 0. -1.
       -1   -1    0    0    0  501  0.00000000000E+00  0.00000000000E+00 -0.96644253560E+03  0.96644253561E+03  0.50400001928E-02 0.  1.
    10030    2    1    2    0    0  0.00000000000E+00  0.00000000000E+00  0.76750283246E+03  0.27003879037E+04  0.25890218679E+04 0.  0.
        3    1    3    3  502    0  0.50501756513E+03 -0.36988419540E+03  0.15655848897E+04  0.16860940413E+04  0.10100000352E+00 0. -1.
       -3    1    3    3    0  502 -0.50501756513E+03  0.36988419540E+03 -0.79808205720E+03  0.10142938624E+04  0.10100000352E+00 0.  1.
</event>
<event>
 5   0  0.2517725E-06  0.2617604E+04  0.7818609E-02  0.8362246E-01
        1   -1    0    0  501    0  0.00000000000E+00  0.00000000000E+00  0.14542454699E+04  0.14542454699E+04  0.50400001928E-02 0. -1.
       -1   -1    0    0    0  501  0.00000000000E+00  0.00000000000E+00 -0.11779044021E+04  0.11779044021E+04  0.50400001928E-02 0.  1.
    10030    2    1    2    0    0  0.00000000000E+00  0.00000000000E+00  0.27634106783E+03  0.26321498720E+04  0.26176035916E+04 0.  0.
        3    1    3    3  502    0 -0.99291128168E+03 -0.67336266970E+03 -0.38787331251E+03  0.12608472608E+04  0.10100000352E+00 0.  1.
       -3    1    3    3    0  502  0.99291128168E+03  0.67336266970E+03  0.66421438034E+03  0.13713026112E+04  0.10100000352E+00 0. -1.
</event>
<event>
 5   0  0.7363513E-06  0.3074055E+04  0.7818609E-02  0.8222894E-01
       -2   -1    0    0    0  501  0.00000000000E+00  0.00000000000E+00  0.16275026211E+04  0.16275026211E+04  0.25500000920E-02 0. -1.
        2   -1    0    0  501    0  0.00000000000E+00  0.00000000000E+00 -0.14515824213E+04  0.14515824213E+04  0.25500000920E-02 0.  1.
    10030    2    1    2    0    0  0.00000000000E+00  0.00000000000E+00  0.17592019985E+03  0.30790850425E+04  0.30740554292E+04 0.  0.
        4    1    3    3  502    0 -0.14093789876E+04  0.61180498301E+03  0.45486538380E+02  0.15371158401E+04  0.12699999809E+01 0. -1.
       -4    1    3    3    0  502  0.14093789876E+04 -0.61180498301E+03  0.13043366147E+03  0.15419692023E+04  0.12699999809E+01 0.  1.
</event>
<event>
 5   0  0.7071012E-06  0.2991357E+04  0.7818609E-02  0.8246203E-01
        2   -1    0    0  501    0  0.00000000000E+00  0.00000000000E+00  0.93310976667E+03  0.93310976667E+03  0.25500000920E-02 0.  1.
       -2   -1    0    0    0  501  0.00000000000E+00  0.00000000000E+00 -0.23974173950E+04  0.23974173950E+04  0.25500000920E-02 0. -1.
    10030    2    1    2    0    0  0.00000000000E+00  0.00000000000E+00 -0.14643076284E+04  0.33305271617E+04  0.29913566060E+04 0.  0.
        1    1    3    3  502    0  0.74347851235E+02  0.35814291753E+03  0.88254391297E+03  0.95534167223E+03  0.50400001928E-02 0.  1.
       -1    1    3    3    0  502 -0.74347851235E+02 -0.35814291753E+03 -0.23468515413E+04  0.23751854895E+04  0.50400001928E-02 0. -1.
</event>
<event>
 5   0  0.7079223E-06  0.2624335E+04  0.7818609E-02  0.8359982E-01
        2   -1    0    0  501    0  0.00000000000E+00  0.00000000000E+00  0.12730315776E+04  0.12730315776E+04  0.25500000920E-02 0. -1.
       -2   -1    0    0    0  501  0.00000000000E+00  0.00000000000E+00 -0.13525061085E+04  0.13525061085E+04  0.25500000920E-02 0.  1.
    10030    2    1    2    0    0  0.00000000000E+00  0.00000000000E+00 -0.79474530863E+02  0.26255376861E+04  0.26243345709E+04 0.  0.
        5    1    3    3  502    0  0.95746444212E+03  0.45600468712E+03  0.73332809264E+03  0.12893683004E+04  0.46999998093E+01 0. -1.
       -5    1    3    3    0  502 -0.95746444212E+03 -0.45600468712E+03 -0.81280262351E+03  0.13361693857E+04  0.46999998093E+01 0.  1.
</event>
<event>
 5   0  0.2612331E-06  0.3074864E+04  0.7818609E-02  0.8222670E-01
        1   -1    0    0  501    0  0.00000000000E+00  0.00000000000E+00  0.26132178590E+04  0.26132178590E+04  0.50400001928E-02 0.  1.
       -1   -1    0    0    0  501  0.00000000000E+00  0.00000000000E+00 -0.90451579583E+03  0.90451579585E+03  0.50400001928E-02 0. -1.
    10030    2    1    2    0    0  0.00000000000E+00  0.00000000000E+00  0.17087020631E+04  0.35177336548E+04  0.30748637898E+04 0.  0.
        4    1    3    3  502    0 -0.18251646386E+03 -0.58047236690E+03  0.24695948524E+04  0.25434544966E+04  0.12699999809E+01 0.  1.
       -4    1    3    3    0  502  0.18251646386E+03  0.58047236690E+03 -0.76089278932E+03  0.97427915818E+03  0.12699999809E+01 0. -1.
</event>
<event>
 5   0  0.2674441E-06  0.2283744E+04  0.7818609E-02  0.8484358E-01
        1   -1    0    0  501    0  0.00000000000E+00  0.00000000000E+00  0.10692654984E+04  0.10692654985E+04  0.50400001928E-02 0.  1.
       -1   -1    0    0    0  501  0.00000000000E+00  0.00000000000E+00 -0.12194088985E+04  0.12194088985E+04  0.50400001928E-02 0. -1.
    10030    2    1    2    0    0  0.00000000000E+00  0.00000000000E+00 -0.15014340003E+03  0.22886743970E+04  0.22837441745E+04 0.  0.
        5    1    3    3  502    0 -0.11289126031E+04  0.15356021611E+03  0.14171713624E+01  0.11393193160E+04  0.46999998093E+01 0. -1.
       -5    1    3    3    0  502  0.11289126031E+04 -0.15356021611E+03 -0.15156057140E+03  0.11493550810E+04  0.46999998093E+01 0.  1.
</event>
<event>
 5   0  0.7414808E-06  0.3102758E+04  0.7818609E-02  0.8214981E-01
       -2   -1    0    0    0  501  0.00000000000E+00  0.00000000000E+00  0.23367474483E+04  0.23367474483E+04  0.25500000920E-02 0. -1.
        2   -1    0    0  501    0  0.00000000000E+00  0.00000000000E+00 -0.10299686756E+04  0.10299686756E+04  0.25500000920E-02 0.  1.
    10030    2    1    2    0    0  0.00000000000E+00  0.00000000000E+00  0.13067787727E+04  0.33667161239E+04  0.31027579180E+04 0.  0.
        2    1    3    3  502    0  0.14784058641E+04 -0.47006120329E+03  0.64077076472E+03  0.16784601893E+04  0.25500000920E-02 0. -1.
       -2    1    3    3    0  502 -0.14784058641E+04  0.47006120329E+03  0.66600800801E+03  0.16882559346E+04  0.25500000920E-02 0.  1.
</event>
<event>
 5   0  0.2612331E-06  0.3083968E+04  0.7818609E-02  0.8220152E-01
        1   -1    0    0  501    0  0.00000000000E+00  0.00000000000E+00  0.23570929898E+04  0.23570929898E+04  0.50400001928E-02 0. -1.
       -1   -1    0    0    0  501  0.00000000000E+00  0.00000000000E+00 -0.10087484553E+04  0.10087484553E+04  0.50400001928E-02 0.  1.
    10030    2    1    2    0    0  0.00000000000E+00  0.00000000000E+00  0.13483445345E+04  0.33658414451E+04  0.30839675176E+04 0.  0.
        4    1    3    3  502    0  0.11829729145E+04 -0.79864613101E+03  0.37359681424E+02  0.14278157856E+04  0.12699999809E+01 0.  1.
       -4    1    3    3    0  502 -0.11829729145E+04  0.79864613101E+03  0.13109848530E+04  0.19380256595E+04  0.12699999809E+01 0. -1.
</event>
<event>
 5   0  0.7079223E-06  0.2789945E+04  0.7818609E-02  0.8306397E-01
        2   -1    0    0  501    0  0.00000000000E+00  0.00000000000E+00  0.16518701640E+04  0.16518701640E+04  0.25500000920E-02 0.  1.
       -2   -1    0    0    0  501  0.00000000000E+00  0.00000000000E+00 -0.11780274452E+04  0.11780274452E+04  0.25500000920E-02 0. -1.
    10030    2    1    2    0    0  0.00000000000E+00  0.00000000000E+00  0.47384271877E+03  0.28298976092E+04  0.27899450812E+04 0.  0.
        5    1    3    3  502    0  0.26505125384E+02 -0.11814830718E+04  0.98869722200E+03  0.15408273938E+04  0.46999998093E+01 0. -1.
       -5    1    3    3    0  502 -0.26505125384E+02  0.11814830718E+04 -0.51485450323E+03  0.12890702154E+04  0.46999998093E+01 0.  1.
</event>
<event>
 5   0  0.2674441E-06  0.3075014E+04  0.7818609E-02  0.8222629E-01
        1   -1    0    0  501    0  0.00000000000E+00  0.00000000000E+00  0.74729998699E+03  0.74729998701E+03  0.50400001928E-02 0. -1.
       -1   -1    0    0    0  501  0.00000000000E+00  0.00000000000E+00 -0.31632915270E+04  0.31632915270E+04  0.50400001928E-02 0.  1.
    10030    2    1    2    0    0  0.00000000000E+00  0.00000000000E+00 -0.24159915400E+04  0.39105915140E+04  0.30750139623E+04 0.  0.
        5    1    3    3  502    0 -0.50488677654E+03  0.88006356702E+03 -0.26770975963E+04  0.28629174227E+04  0.46999998093E+01 0.  1.
       -5    1    3    3    0  502  0.50488677654E+03 -0.88006356702E+03  0.26110605624E+03  0.10476740914E+04  0.46999998093E+01 0. -1.
</event>
<event>
 5   0  0.2624011E-06  0.3149916E+04  0.7818609E-02  0.8202171E-01
       -1   -1    0    0    0  501  0.00000000000E+00  0.00000000000E+00  0.11080483687E+04  0.11080483687E+04  0.50400001928E-02 0.  1.
        1   -1    0    0  501    0  0.00000000000E+00  0.00000000000E+00 -0.22386134820E+04  0.22386134820E+04  0.50400001928E-02 0. -1.
    10030    2    1    2    0    0  0.00000000000E+00  0.00000000000E+00 -0.11305651133E+04  0.33466618506E+04  0.31499155651E+04 0.  0.
        1    1    3    3  502    0  0.11804783685E+04  0.10087356420E+04 -0.28535842205E+03  0.15787673049E+04  0.50400001928E-02 0.  1.
       -1    1    3    3    0  502 -0.11804783685E+04 -0.10087356420E+04 -0.84520669124E+03  0.17678945457E+04  0.50400001928E-02 0. -1.
</event>
<event>
 5   0  0.7414808E-06  0.3062539E+04  0.7818609E-02  0.8226094E-01
        2   -1    0    0  501    0  0.00000000000E+00  0.00000000000E+00  0.17122028512E+04  0.17122028512E+04  0.25500000920E-02 0.  1.
       -2   -1    0    0    0  501  0.00000000000E+00  0.00000000000E+00 -0.13694562711E+04  0.13694562711E+04  0.25500000920E-02 0. -1.
    10030    2    1    2    0    0  0.00000000000E+00  0.00000000000E+00  0.34274658010E+03  0.30816591223E+04  0.30625394247E+04 0.  0.
        2    1    3    3  502    0 -0.35433968807E+03  0.11380523119E+04  0.11386588386E+04  0.16484124574E+04  0.25500000920E-02 0.  1.
       -2    1    3    3    0  502  0.35433968807E+03 -0.11380523119E+04 -0.79591225847E+03  0.14332466649E+04  0.25500000920E-02 0. -1.
</event>
<event>
 5   0  0.2674441E-06  0.3056787E+04  0.7818609E-02  0.8227698E-01
       -1   -1    0    0    0  501  0.00000000000E+00  0.00000000000E+00  0.11469767999E+04  0.11469767999E+04  0.50400001928E-02 0. -1.
        1   -1    0    0  501    0  0.00000000000E+00  0.00000000000E+00 -0.20366468878E+04  0.20366468878E+04  0.50400001928E-02 0.  1.
    10030    2    1    2    0    0  0.00000000000E+00  0.00000000000E+00 -0.88967008785E+03  0.31836236877E+04  0.30567870256E+04 0.  0.
        5    1    3    3  502    0 -0.48777716063E+03 -0.12015177656E+04 -0.12873466945E+04  0.18272534311E+04  0.46999998093E+01 0.  1.
       -5    1    3    3    0  502  0.48777716063E+03  0.12015177656E+04  0.39767660666E+03  0.13563702566E+04  0.46999998093E+01 0. -1.
</event>
<event>
 5   0  0.7071012E-06  0.3101072E+04  0.7818609E-02  0.8215444E-01
       -2   -1    0    0    0  501  0.00000000000E+00  0.00000000000E+00  0.12183847724E+04  0.12183847724E+04  0.25500000920E-02 0.  1.
        2   -1    0    0  501    0  0.00000000000E+00  0.00000000000E+00 -0.19732370607E+04  0.19732370607E+04  0.25500000920E-02 0. -1.
    10030    2    1    2    0    0  0.00000000000E+00  0.00000000000E+00 -0.75485228831E+03  0.31916218331E+04  0.31010720644E+04 0.  0.
        1    1    3    3  502    0 -0.13845817079E+04  0.67834212708E+03 -0.20847609412E+03  0.15558524445E+04  0.50400001928E-02 0.  1.
       -1    1    3    3    0  502  0.13845817079E+04 -0.67834212708E+03 -0.54637619419E+03  0.16357693886E+04  0.50400001928E-02 0. -1.
</event>
<event>
 5   0  0.2624011E-06  0.2877950E+04  0.7818609E-02  0.8279468E-01
        1   -1    0    0  501    0  0.00000000000E+00  0.00000000000E+00  0.28607069554E+04  0.28607069554E+04  0.50400001928E-02 0. -1.
       -1   -1    0    0    0  501  0.00000000000E+00  0.00000000000E+00 -0.72382448030E+03  0.72382448032E+03  0.50400001928E-02 0.  1.
    10030    2    1    2    0    0  0.00000000000E+00  0.00000000000E+00  0.21368824751E+04  0.35845314357E+04  0.28779504689E+04 0.  0.
        1    1    3    3  502    0 -0.29655512379E+03 -0.39919386925E+03 -0.61339607917E+03  0.78965526444E+03  0.50400001928E-02 0.  1.
       -1    1    3    3    0  502  0.29655512379E+03  0.39919386925E+03  0.27502785543E+04  0.27948761713E+04  0.50400001928E-02 0. -1.
</event>
<event>
 5   0  0.2598987E-06  0.3133404E+04  0.7818609E-02  0.8206630E-01
        1   -1    0    0  501    0  0.00000000000E+00  0.00000000000E+00  0.10536640171E+04  0.10536640171E+04  0.50400001928E-02 0.  1.
       -1   -1    0    0    0  501  0.00000000000E+00  0.00000000000E+00 -0.23295425674E+04  0.23295425674E+04  0.50400001928E-02 0. -1.
    10030    2    1    2    0    0  0.00000000000E+00  0.00000000000E+00 -0.12758785503E+04  0.33832065845E+04  0.31334040145E+04 0.  0.
        2    1    3    3  502    0  0.35607283285E+03 -0.13053826977E+04  0.21479766938E+03  0.13700182074E+04  0.25500000920E-02 0.  1.
       -2    1    3    3    0  502 -0.35607283285E+03  0.13053826977E+04 -0.14906762197E+04  0.20131883771E+04  0.25500000920E-02 0. -1.
</event>
<event>
 5   0  0.7363513E-06  0.3004912E+04  0.7818609E-02  0.8242330E-01
       -2   -1    0    0    0  501  0.00000000000E+00  0.00000000000E+00  0.13561742304E+04  0.13561742304E+04  0.25500000920E-02 0.  1.
        2   -1    0    0  501    0  0.00000000000E+00  0.00000000000E+00 -0.16645162013E+04  0.16645162013E+04  0.25500000920E-02 0. -1.
    10030    2    1    2    0    0  0.00000000000E+00  0.00000000000E+00 -0.30834197098E+03  0.30206904317E+04  0.30049119643E+04 0.  0.
        4    1    3    3  502    0  0.48200577994E+03 -0.13247989602E+04 -0.67646679563E+03  0.15636594244E+04  0.12699999809E+01 0. -1.
       -4    1    3    3    0  502 -0.48200577994E+03  0.13247989602E+04  0.36812482465E+03  0.14570310073E+04  0.12699999809E+01 0.  1.
</event>
<event>
 5   0  0.7414808E-06  0.3093366E+04  0.7818609E-02  0.8217561E-01
        2   -1    0    0  501    0  0.00000000000E+00  0.00000000000E+00  0.17649769707E+04  0.17649769707E+04  0.25500000920E-02 0.  1.
       -2   -1    0    0    0  501  0.00000000000E+00  0.00000000000E+00 -0.13553880226E+04  0.13553880226E+04  0.25500000920E-02 0. -1.
    10030    2    1    2    0    0  0.00000000000E+00  0.00000000000E+00  0.40958894815E+03  0.31203649933E+04  0.30933662223E+04 0.  0.
        2    1    3    3  502    0 -0.18330975846E+03  0.35004193786E+03 -0.13036153772E+04  0.13621838633E+04  0.25500000920E-02 0. -1.
       -2    1    3    3    0  502  0.18330975846E+03 -0.35004193786E+03  0.17132043253E+04  0.17581811300E+04  0.25500000920E-02 0.  1.
</event>
<event>
 5   0  0.7363513E-06  0.3109309E+04  0.7818609E-02  0.8213188E-01
       -2   -1    0    0    0  501  0.00000000000E+00  0.00000000000E+00  0.99701152474E+03  0.99701152474E+03  0.25500000920E-02 0.  1.
        2   -1    0    0  501    0  0.00000000000E+00  0.00000000000E+00 -0.24241946903E+04  0.24241946903E+04  0.25500000920E-02 0. -1.
    10030    2    1    2    0    0  0.00000000000E+00  0.00000000000E+00 -0.14271831655E+04  0.34212062150E+04  0.31093086334E+04 0.  0.
        4    1    3    3  502    0 -0.95587006085E+03  0.68591260933E+03 -0.18317937457E+04  0.21770699623E+04  0.12699999809E+01 0. -1.
       -4    1    3    3    0  502  0.95587006085E+03 -0.68591260933E+03  0.40461058019E+03  0.12441362527E+04  0.12699999809E+01 0.  1.
</event>
<event>
 5   0  0.2598987E-06  0.3097255E+04  0.7818609E-02  0.8216492E-01
       -1   -1    0    0    0  501  0.00000000000E+00  0.00000000000E+00  0.13301030279E+04  0.13301030279E+04  0.50400001928E-02 0.  1.
        1   -1    0    0  501    0  0.00000000000E+00  0.00000000000E+00 -0.18030535464E+04  0.18030535465E+04  0.50400001928E-02 0. -1.
    10030    2    1    2    0    0  0.00000000000E+00  0.00000000000E+00 -0.47295051855E+03  0.31331565744E+04  0.30972549018E+04 0.  0.
        2    1    3    3  502    0  0.25467081001E+03  0.13871156242E+04  0.41070613718E+03  0.14688861452E+04  0.25500000920E-02 0.  1.
       -2    1    3    3    0  502 -0.25467081001E+03 -0.13871156242E+04 -0.88365665573E+03  0.16642704292E+04  0.25500000920E-02 0. -1.
</event>
<event>
 5   0  0.7071012E-06  0.3038306E+04  0.7818609E-02  0.8232876E-01
        2   -1    0    0  501    0  0.00000000000E+00  0.00000000000E+00  0.16827326491E+04  0.16827326491E+04  0.25500000920E-02 0. -1.
       -2   -1    0    0    0  501  0.00000000000E+00  0.00000000000E+00 -0.13714753651E+04  0.13714753651E+04  0.25500000920E-02 0.  1.
    10030    2    1    2    0    0  0.00000000000E+00  0.00000000000E+00  0.31125728395E+03  0.30542080142E+04  0.30383063534E+04 0.  0.
        1    1    3    3  502    0  0.33405591518E+03  0.74491231630E+03 -0.11322239317E+04  0.13958577094E+04  0.50400001928E-02 0.  1.
       -1    1    3    3    0  502 -0.33405591518E+03 -0.74491231630E+03  0.14434812156E+04  0.16583503048E+04  0.50400001928E-02 0. -1.
</event>
<event>
 5   0  0.2612331E-06  0.3133795E+04  0.7818609E-02  0.8206524E-01
       -1   -1    0    0    0  501  0.00000000000E+00  0.00000000000E+00  0.14976675933E+04  0.14976675933E+04  0.50400001928E-02 0. -1.
        1   -1    0    0  501    0  0.00000000000E+00  0.00000000000E+00 -0.16393275563E+04  0.16393275563E+04  0.50400001928E-02 0.  1.
    10030    2    1    2    0    0  0.00000000000E+00  0.00000000000E+00 -0.14165996293E+03  0.31369951496E+04  0.31337949875E+04 0.  0.
        4    1    3    3  502    0 -0.14143137865E+04 -0.16132224098E+03 -0.72637106957E+03  0.15981004023E+04  0.12699999809E+01 0.  1.
       -4    1    3    3    0  502  0.14143137865E+04  0.16132224098E+03  0.58471110663E+03  0.15388947473E+04  0.12699999809E+01 0. -1.
</event>
<event>
 5   0  0.2598987E-06  0.2858786E+04  0.7818609E-02  0.8285247E-01
       -1   -1    0    0    0  501  0.00000000000E+00  0.00000000000E+00  0.12883394699E+04  0.12883394699E+04  0.50400001928E-02 0.  1.
        1   -1    0    0  501    0  0.00000000000E+00  0.00000000000E+00 -0.15858895416E+04  0.15858895416E+04  0.50400001928E-02 0. -1.
    10030    2    1    2    0    0  0.00000000000E+00  0.00000000000E+00 -0.29755007174E+03  0.28742290115E+04  0.28587858202E+04 0.  0.
        2    1    3    3  502    0  0.93481343410E+03 -0.10685800103E+04 -0.31527366546E+03  0.14543510165E+04  0.25500000920E-02 0.  1.
       -2    1    3    3    0  502 -0.93481343410E+03  0.10685800103E+04  0.17723593727E+02  0.14198779950E+04  0.25500000920E-02 0. -1.
</event>
<event>
 5   0  0.2624011E-06  0.3062870E+04  0.7818609E-02  0.8226002E-01
        1   -1    0    0  501    0  0.00000000000E+00  0.00000000000E+00  0.21004328924E+04  0.21004328924E+04  0.50400001928E-02 0. -1.
       -1   -1    0    0    0  501  0.00000000000E+00  0.00000000000E+00 -0.11165760024E+04  0.11165760024E+04  0.50400001928E-02 0.  1.
    10030    2    1    2    0    0  0.00000000000E+00  0.00000000000E+00  0.98385688999E+03  0.32170088947E+04  0.30628698714E+04 0.  0.
        1    1    3    3  502    0 -0.10151850512E+04 -0.25220781502E+03  0.16667363569E+04  0.19677956077E+04  0.50400001928E-02 0. -1.
       -1    1    3    3    0  502  0.10151850512E+04  0.25220781502E+03 -0.68287946693E+03  0.12492132870E+04  0.50400001928E-02 0.  1.
</event>
<event>
 5   0  0.7071012E-06  0.2532942E+04  0.7818609E-02  0.8391343E-01
        2   -1    0    0  501    0  0.00000000000E+00  0.00000000000E+00  0.23293502057E+04  0.23293502057E+04  0.25500000920E-02 0.  1.
       -2   -1    0    0    0  501  0.00000000000E+00  0.00000000000E+00 -0.68858185115E+03  0.68858185115E+03  0.25500000920E-02 0. -1.
    10030    2    1    2    0    0  0.00000000000E+00  0.00000000000E+00  0.16407683545E+04  0.30179320568E+04  0.25329415916E+04 0.  0.
        1    1    3    3  502    0 -0.93283510480E+03  0.62852149088E+02 -0.19748306328E+03  0.95557903164E+03  0.50400001928E-02 0. -1.
       -1    1    3    3    0  502  0.93283510480E+03 -0.62852149088E+02  0.18382514178E+04  0.20623530252E+04  0.50400001928E-02 0.  1.
</event>
<event>
 5   0  0.2517725E-06  0.3001607E+04  0.7818609E-02  0.8243272E-01
        1   -1    0    0  501    0  0.00000000000E+00  0.00000000000E+00  0.10111897293E+04  0.10111897293E+04  0.50400001928E-02 0.  1.
       -1   -1    0    0    0  501  0.00000000000E+00  0.00000000000E+00 -0.22274855078E+04  0.22274855078E+04  0.50400001928E-02 0. -1.
    10030    2    1    2    0    0  0.00000000000E+00  0.00000000000E+00 -0.12162957786E+04  0.32386752371E+04  0.30016065483E+04 0.  0.
        3    1    3    3  502    0  0.64042805099E+03  0.51690849766E+03  0.74599123808E+03  0.11107859474E+04  0.10100000352E+00 0.  1.
       -3    1    3    3    0  502 -0.64042805099E+03 -0.51690849766E+03 -0.19622870166E+04  0.21278892897E+04  0.10100000352E+00 0. -1.
</event>
<event>
 5   0  0.2674441E-06  0.1999853E+04  0.7818609E-02  0.8606689E-01
        1   -1    0    0  501    0  0.00000000000E+00  0.00000000000E+00  0.12286370551E+04  0.12286370551E+04  0.50400001928E-02 0.  1.
       -1   -1    0    0    0  501  0.00000000000E+00  0.00000000000E+00 -0.81379059392E+03  0.81379059394E+03  0.50400001928E-02 0. -1.
    10030    2    1    2    0    0  0.00000000000E+00  0.00000000000E+00  0.41484646117E+03  0.20424276490E+04  0.19998532734E+04 0.  0.
        5    1    3    3  502    0 -0.51180941887E+03 -0.52418992045E+02 -0.66822962234E+03  0.84335612296E+03  0.46999998093E+01 0. -1.
       -5    1    3    3    0  502  0.51180941887E+03  0.52418992045E+02  0.10830760835E+04  0.11990715261E+04  0.46999998093E+01 0.  1.
</event>
<event>
 5   0  0.2517725E-06  0.2351595E+04  0.7818609E-02  0.8457851E-01
       -1   -1    0    0    0  501  0.00000000000E+00  0.00000000000E+00  0.61337062920E+03  0.61337062922E+03  0.50400001928E-02 0.  1.
        1   -1    0    0  501    0  0.00000000000E+00  0.00000000000E+00 -0.22539385436E+04  0.22539385436E+04  0.50400001928E-02 0. -1.
    10030    2    1    2    0    0  0.00000000000E+00  0.00000000000E+00 -0.16405679144E+04  0.28673091728E+04  0.23515949504E+04 0.  0.
        3    1    3    3  502    0  0.24288200260E+03  0.32987690386E+03 -0.21641147852E+04  0.22025447220E+04  0.10100000352E+00 0. -1.
       -3    1    3    3    0  502 -0.24288200260E+03 -0.32987690386E+03  0.52354687080E+03  0.66476445078E+03  0.10100000352E+00 0.  1.
</event>
<event>
 5   0  0.7414808E-06  0.2925368E+04  0.7818609E-02  0.8265370E-01
        2   -1    0    0  501    0  0.00000000000E+00  0.00000000000E+00  0.22804429059E+04  0.22804429059E+04  0.25500000920E-02 0.  1.
       -2   -1    0    0    0  501  0.00000000000E+00  0.00000000000E+00 -0.93817030682E+03  0.93817030683E+03  0.25500000920E-02 0. -1.
    10030    2    1    2    0    0  0.00000000000E+00  0.00000000000E+00  0.13422725991E+04  0.32186132127E+04  0.29253675466E+04 0.  0.
        2    1    3    3  502    0 -0.31338987600E+03  0.94661111985E+03  0.18485282308E+04  0.21003196058E+04  0.25500000920E-02 0.  1.
       -2    1    3    3    0  502  0.31338987600E+03 -0.94661111985E+03 -0.50625563171E+03  0.11182936069E+04  0.25500000920E-02 0. -1.
</event>
<event>
 5   0  0.7414808E-06  0.3097986E+04  0.7818609E-02  0.8216291E-01
       -2   -1    0    0    0  501  0.00000000000E+00  0.00000000000E+00  0.14682201425E+04  0.14682201425E+04  0.25500000920E-02 0. -1.
        2   -1    0    0  501    0  0.00000000000E+00  0.00000000000E+00 -0.16342097673E+04  0.16342097673E+04  0.25500000920E-02 0.  1.
    10030    2    1    2    0    0  0.00000000000E+00  0.00000000000E+00 -0.16598962483E+03  0.31024299098E+04  0.30979862475E+04 0.  0.
        2    1    3    3  502    0  0.67771278825E+03 -0.39554076921E+02 -0.14772995329E+04  0.16258145830E+04  0.25500000920E-02 0.  1.
       -2    1    3    3    0  502 -0.67771278825E+03  0.39554076921E+02  0.13113099080E+04  0.14766153268E+04  0.25500000920E-02 0. -1.
</event>
<event>
 5   0  0.7363513E-06  0.3132225E+04  0.7818609E-02  0.8206949E-01
        2   -1    0    0  501    0  0.00000000000E+00  0.00000000000E+00  0.30068354457E+04  0.30068354457E+04  0.25500000920E-02 0.  1.
       -2   -1    0    0    0  501  0.00000000000E+00  0.00000000000E+00 -0.81571074956E+03  0.81571074956E+03  0.25500000920E-02 0. -1.
    10030    2    1    2    0    0  0.00000000000E+00  0.00000000000E+00  0.21911246962E+04  0.38225461953E+04  0.31322247654E+04 0.  0.
        4    1    3    3  502    0 -0.36643973555E+03  0.49291103486E+03  0.28537197007E+04  0.29190678497E+04  0.12699999809E+01 0.  1.
       -4    1    3    3    0  502  0.36643973555E+03 -0.49291103486E+03 -0.66259500451E+03  0.90347834561E+03  0.12699999809E+01 0. -1.
</event>
<event>
 5   0  0.2393250E-06  0.3090474E+04  0.7818609E-02  0.8218357E-01
        3   -1    0    0  501    0  0.00000000000E+00  0.00000000000E+00  0.19693751003E+04  0.19693751029E+04  0.10100000352E+00 0. -1.
       -3   -1    0    0    0  501  0.00000000000E+00  0.00000000000E+00 -0.12124440108E+04  0.12124440150E+04  0.10100000352E+00 0.  1.
    10030    2    1    2    0    0  0.00000000000E+00  0.00000000000E+00  0.75693108951E+03  0.31818191178E+04  0.30904737864E+04 0.  0.
        2    1    3    3  502    0 -0.15409702345E+04  0.66069652706E+02  0.28187030066E+03  0.15679302692E+04  0.25500000920E-02 0. -1.
       -2    1    3    3    0  502  0.15409702345E+04 -0.66069652706E+02  0.47506078885E+03  0.16138888486E+04  0.25500000920E-02 0.  1.
</event>
<event>
 5   0  0.2517725E-06  0.3077784E+04  0.7818609E-02  0.8221861E-01
        1   -1    0    0  501    0  0.00000000000E+00  0.00000000000E+00  0.21199164738E+04  0.21199164738E+04  0.50400001928E-02 0.  1.
       -1   -1    0    0    0  501  0.00000000000E+00  0.00000000000E+00 -0.11171142342E+04  0.11171142342E+04  0.50400001928E-02 0. -1.
    10030    2    1    2    0    0  0.00000000000E+00  0.00000000000E+00  0.10028022396E+04  0.32370307080E+04  0.30777841823E+04 0.  0.
        3    1    3    3  502    0 -0.14334737382E+03 -0.13700383514E+04  0.12229253284E+04  0.18420368951E+04  0.10100000352E+00 0.  1.
       -3    1    3    3    0  502  0.14334737382E+03  0.13700383514E+04 -0.22012308873E+03  0.13949938130E+04  0.10100000352E+00 0. -1.
</event>
<event>
 5   0  0.2612331E-06  0.3127699E+04  0.7818609E-02  0.8208177E-01
        1   -1    0    0  501    0  0.00000000000E+00  0.00000000000E+00  0.28779152614E+04  0.28779152614E+04  0.50400001928E-02 0.  1.
       -1   -1    0    0    0  501  0.00000000000E+00  0.00000000000E+00 -0.84979075459E+03  0.84979075461E+03  0.50400001928E-02 0. -1.
    10030    2    1    2    0    0  0.00000000000E+00  0.00000000000E+00  0.20281245068E+04  0.37277060160E+04  0.31276993344E+04 0.  0.
        4    1    3    3  502    0 -0.91577790674E+03 -0.12590778444E+04  0.11896225351E+04  0.19593696899E+04  0.12699999809E+01 0. -1.
       -4    1    3    3    0  502  0.91577790674E+03  0.12590778444E+04  0.83850197173E+03  0.17683363261E+04  0.12699999809E+01 0.  1.
</event>
<event>
 5   0  0.7079223E-06  0.3133066E+04  0.7818609E-02  0.8206721E-01
        2   -1    0    0  501    0  0.00000000000E+00  0.00000000000E+00  0.28261058431E+04  0.28261058431E+04  0.25500000920E-02 0. -1.
       -2   -1    0    0    0  501  0.00000000000E+00  0.00000000000E+00 -0.86834177594E+03  0.86834177594E+03  0.25500000920E-02 0.  1.
    10030    2    1    2    0    0  0.00000000000E+00  0.00000000000E+00  0.19577640672E+04  0.36944476191E+04  0.31330660809E+04 0.  0.
        5    1    3    3  502    0 -0.45055084540E+03 -0.42556808636E+02  0.27473355991E+04  0.27843638646E+04  0.46999998093E+01 0. -1.
       -5    1    3    3    0  502  0.45055084540E+03  0.42556808636E+02 -0.78957153190E+03  0.91008375451E+03  0.46999998093E+01 0.  1.
</event>
<event>
 5   0  0.2517725E-06  0.3124267E+04  0.7818609E-02  0.8209109E-01
       -1   -1    0    0    0  501  0.00000000000E+00  0.00000000000E+00  0.11711326877E+04  0.11711326877E+04  0.50400001928E-02 0.  1.
        1   -1    0    0  501    0  0.00000000000E+00  0.00000000000E+00 -0.20836757699E+04  0.20836757699E+04  0.50400001928E-02 0. -1.
    10030    2    1    2    0    0  0.00000000000E+00  0.00000000000E+00 -0.91254308223E+03  0.32548084576E+04  0.31242668290E+04 0.  0.
        3    1    3    3  502    0 -0.83159160778E+03  0.39118794349E+03  0.85971465164E+03  0.12584442386E+04  0.10100000352E+00 0.  1.
       -3    1    3    3    0  502  0.83159160778E+03 -0.39118794349E+03 -0.17722577339E+04  0.19963642190E+04  0.10100000352E+00 0. -1.
</event>
<event>
 5   0  0.2598987E-06  0.3099121E+04  0.7818609E-02  0.8215979E-01
       -1   -1    0    0    0  501  0.00000000000E+00  0.00000000000E+00  0.14395663191E+04  0.14395663191E+04  0.50400001928E-02 0. -1.
        1   -1    0    0  501    0  0.00000000000E+00  0.00000000000E+00 -0.16679593996E+04  0.16679593996E+04  0.50400001928E-02 0.  1.
    10030    2    1    2    0    0  0.00000000000E+00  0.00000000000E+00 -0.22839308054E+03  0.31075257187E+04  0.30991212775E+04 0.  0.
        2    1    3    3  502    0 -0.11442283343E+04  0.47290491335E+03  0.82012468231E+03  0.14850932741E+04  0.25500000920E-02 0. -1.
       -2    1    3    3    0  502  0.11442283343E+04 -0.47290491335E+03 -0.10485177629E+04  0.16224324446E+04  0.25500000920E-02 0.  1.
</event>
<event>
 5   0  0.7094341E-06  0.3079443E+04  0.7818609E-02  0.8221402E-01
       -2   -1    0    0    0  501  0.00000000000E+00  0.00000000000E+00  0.10925143388E+04  0.10925143388E+04  0.25500000920E-02 0. -1.
        2   -1    0    0  501    0  0.00000000000E+00  0.00000000000E+00 -0.21699876106E+04  0.21699876107E+04  0.25500000920E-02 0.  1.
    10030    2    1    2    0    0  0.00000000000E+00  0.00000000000E+00 -0.10774732718E+04  0.32625019495E+04  0.30794431832E+04 0.  0.
        3    1    3    3  502    0  0.33185366290E+03  0.39714050925E+03  0.99760355543E+03  0.11238595560E+04  0.10100000352E+00 0. -1.
       -3    1    3    3    0  502 -0.33185366290E+03 -0.39714050925E+03 -0.20750768273E+04  0.21386423934E+04  0.10100000352E+00 0.  1.
</event>
<event>
 5   0  0.2517725E-06  0.2999353E+04  0.7818609E-02  0.8243916E-01
       -1   -1    0    0    0  501  0.00000000000E+00  0.00000000000E+00  0.10528696480E+04  0.10528696480E+04  0.50400001928E-02 0. -1.
        1   -1    0    0  501    0  0.00000000000E+00  0.00000000000E+00 -0.21360954081E+04  0.21360954081E+04  0.50400001928E-02 0.  1.
    10030    2    1    2    0    0  0.00000000000E+00  0.00000000000E+00 -0.10832257601E+04  0.31889650561E+04  0.29993532772E+04 0.  0.
        3    1    3    3  502    0 -0.89611903495E+03  0.63165996225E+03  0.54630672219E+03  0.12249386424E+04  0.10100000352E+00 0. -1.
       -3    1    3    3    0  502  0.89611903495E+03 -0.63165996225E+03 -0.16295324823E+04  0.19640264137E+04  0.10100000352E+00 0.  1.
</event>
<event>
 5   0  0.2517725E-06  0.3100337E+04  0.7818609E-02  0.8215646E-01
       -1   -1    0    0    0  501  0.00000000000E+00  0.00000000000E+00  0.12173962330E+04  0.12173962330E+04  0.50400001928E-02 0.  1.
        1   -1    0    0  501    0  0.00000000000E+00  0.00000000000E+00 -0.19739027623E+04  0.19739027623E+04  0.50400001928E-02 0. -1.
    10030    2    1    2    0    0  0.00000000000E+00  0.00000000000E+00 -0.75650652925E+03  0.31912989953E+04  0.31003366186E+04 0.  0.
        3    1    3    3  502    0  0.65645589243E+03 -0.13863963803E+04 -0.60840334897E+03  0.16502072316E+04  0.10100000352E+00 0. -1.
       -3    1    3    3    0  502 -0.65645589243E+03  0.13863963803E+04 -0.14810318028E+03  0.15410917637E+04  0.10100000352E+00 0.  1.
</event>
<event>
 5   0  0.2517725E-06  0.2378896E+04  0.7818609E-02  0.8447447E-01
        1   -1    0    0  501    0  0.00000000000E+00  0.00000000000E+00  0.13375571000E+04  0.13375571000E+04  0.50400001928E-02 0. -1.
       -1   -1    0    0    0  501  0.00000000000E+00  0.00000000000E+00 -0.10577394906E+04  0.10577394906E+04  0.50400001928E-02 0.  1.
    10030    2    1    2    0    0  0.00000000000E+00  0.00000000000E+00  0.27981760936E+03  0.23952965906E+04  0.23788963539E+04 0.  0.
        3    1    3    3  502    0 -0.41340394665E+03  0.68847235129E+03 -0.74357400154E+03  0.10944401800E+04  0.10100000352E+00 0.  1.
       -3    1    3    3    0  502  0.41340394665E+03 -0.68847235129E+03  0.10233916109E+04  0.13008564106E+04  0.10100000352E+00 0. -1.
</event>
<event>
 5   0  0.2393250E-06  0.2951114E+04  0.7818609E-02  0.8257830E-01
       -4   -1    0    0    0  501  0.00000000000E+00  0.00000000000E+00  0.10800656394E+04  0.10800663861E+04  0.12699999809E+01 0.  1.
        4   -1    0    0  501    0  0.00000000000E+00  0.00000000000E+00 -0.20158647743E+04  0.20158651744E+04  0.12699999809E+01 0. -1.
    10030    2    1    2    0    0  0.00000000000E+00  0.00000000000E+00 -0.93579913487E+03  0.30959315605E+04  0.29511137230E+04 0.  0.
        4    1    3    3  502    0 -0.26552708572E+03  0.91775361390E+03 -0.16475766004E+04  0.19045436713E+04  0.12699999809E+01 0. -1.
       -4    1    3    3    0  502  0.26552708572E+03 -0.91775361390E+03  0.71177746550E+03  0.11913878891E+04  0.12699999809E+01 0.  1.
</event>
<event>
 5   0  0.2612331E-06  0.3147683E+04  0.7818609E-02  0.8202772E-01
       -1   -1    0    0    0  501  0.00000000000E+00  0.00000000000E+00  0.13419485069E+04  0.13419485069E+04  0.50400001928E-02 0. -1.
        1   -1    0    0  501    0  0.00000000000E+00  0.00000000000E+00 -0.18458059561E+04  0.18458059561E+04  0.50400001928E-02 0.  1.
    10030    2    1    2    0    0  0.00000000000E+00  0.00000000000E+00 -0.50385744915E+03  0.31877544630E+04  0.31476826694E+04 0.  0.
        4    1    3    3  502    0 -0.64757043028E+03  0.39908142467E+03 -0.16472794322E+04  0.18144267928E+04  0.12699999809E+01 0.  1.
       -4    1    3    3    0  502  0.64757043028E+03 -0.39908142467E+03  0.11434219830E+04  0.13733276703E+04  0.12699999809E+01 0. -1.
</event>
<event>
 5   0  0.2612331E-06  0.2716858E+04  0.7818609E-02  0.8329556E-01
        1   -1    0    0  501    0  0.00000000000E+00  0.00000000000E+00  0.11969412905E+04  0.11969412905E+04  0.50400001928E-02 0.  1.
       -1   -1    0    0    0  501  0.00000000000E+00  0.00000000000E+00 -0.15417036817E+04  0.15417036817E+04  0.50400001928E-02 0. -1.
    10030    2    1    2    0    0  0.00000000000E+00  0.00000000000E+00 -0.34476239120E+03  0.27386449722E+04  0.27168575924E+04 0.  0.
        4    1    3    3  502    0 -0.55297940244E+03  0.60755430884E+02 -0.14216135534E+04  0.15265857821E+04  0.12699999809E+01 0. -1.
       -4    1    3    3    0  502  0.55297940244E+03 -0.60755430884E+02  0.10768511622E+04  0.12120591901E+04  0.12699999809E+01 0.  1.
</event>
<event>
 5   0  0.7094341E-06  0.3099775E+04  0.7818609E-02  0.8215800E-01
       -2   -1    0    0    0  501  0.00000000000E+00  0.00000000000E+00  0.11236344896E+04  0.11236344896E+04  0.25500000920E-02 0. -1.
        2   -1    0    0  501    0  0.00000000000E+00  0.00000000000E+00 -0.21378402725E+04  0.21378402725E+04  0.25500000920E-02 0.  1.
    10030    2    1    2    0    0  0.00000000000E+00  0.00000000000E+00 -0.10142057829E+04  0.32614747621E+04  0.30997748714E+04 0.  0.
        3    1    3    3  502    0  0.14658647053E+04 -0.29304997556E+03 -0.76468524838E+02  0.14968249958E+04  0.10100000352E+00 0. -1.
       -3    1    3    3    0  502 -0.14658647053E+04  0.29304997556E+03 -0.93773725808E+03  0.17646497663E+04  0.10100000352E+00 0.  1.
</event>
<event>
 5   0  0.7363513E-06  0.3032548E+04  0.7818609E-02  0.8234497E-01
        2   -1    0    0  501    0  0.00000000000E+00  0.00000000000E+00  0.19327091481E+04  0.19327091481E+04  0.25500000920E-02 0.  1.
       -2   -1    0    0    0  501  0.00000000000E+00  0.00000000000E+00 -0.11895666856E+04  0.11895666856E+04  0.25500000920E-02 0. -1.
    10030    2    1    2    0    0  0.00000000000E+00  0.00000000000E+00  0.74314246254E+03  0.31222758337E+04  0.30325477181E+04 0.  0.
        4    1    3    3  502    0 -0.32649590548E+03  0.12829979622E+04 -0.38948990997E+03  0.13799954167E+04  0.12699999809E+01 0. -1.
       -4    1    3    3    0  502  0.32649590548E+03 -0.12829979622E+04  0.11326323725E+04  0.17422804170E+04  0.12699999809E+01 0.  1.
</event>
<event>
 5   0  0.7363513E-06  0.2870884E+04  0.7818609E-02  0.8281593E-01
        2   -1    0    0  501    0  0.00000000000E+00  0.00000000000E+00  0.21008490098E+04  0.21008490098E+04  0.25500000920E-02 0. -1.
       -2   -1    0    0    0  501  0.00000000000E+00  0.00000000000E+00 -0.98079089843E+03  0.98079089843E+03  0.25500000920E-02 0.  1.
    10030    2    1    2    0    0  0.00000000000E+00  0.00000000000E+00  0.11200581114E+04  0.30816399083E+04  0.28708838972E+04 0.  0.
        4    1    3    3  502    0  0.13649223854E+04  0.41607985446E+02  0.10349425602E+04  0.17134328287E+04  0.12699999809E+01 0.  1.
       -4    1    3    3    0  502 -0.13649223854E+04 -0.41607985446E+02  0.85115551205E+02  0.13682070796E+04  0.12699999809E+01 0. -1.
</event>
<event>
 5   0  0.2674441E-06  0.3121851E+04  0.7818609E-02  0.8209767E-01
       -1   -1    0    0    0  501  0.00000000000E+00  0.00000000000E+00  0.87824240345E+03  0.87824240346E+03  0.50400001928E-02 0.  1.
        1   -1    0    0  501    0  0.00000000000E+00  0.00000000000E+00 -0.27742770653E+04  0.27742770653E+04  0.50400001928E-02 0. -1.
    10030    2    1    2    0    0  0.00000000000E+00  0.00000000000E+00 -0.18960346619E+04  0.36525194688E+04  0.31218505779E+04 0.  0.
        5    1    3    3  502    0  0.12354562831E+04  0.82845232353E+03 -0.39455095212E+03  0.15389535482E+04  0.46999998093E+01 0. -1.
       -5    1    3    3    0  502 -0.12354562831E+04 -0.82845232353E+03 -0.15014837097E+04  0.21135659205E+04  0.46999998093E+01 0.  1.
</event>
<event>
 5   0  0.2517725E-06  0.2721161E+04  0.7818609E-02  0.8328171E-01
        1   -1    0    0  501    0  0.00000000000E+00  0.00000000000E+00  0.20236866454E+04  0.20236866454E+04  0.50400001928E-02 0. -1.
       -1   -1    0    0    0  501  0.00000000000E+00  0.00000000000E+00 -0.91475584682E+03  0.91475584683E+03  0.50400001928E-02 0.  1.
    10030    2    1    2    0    0  0.00000000000E+00  0.00000000000E+00  0.11089307986E+04  0.29384424923E+04  0.27211609221E+04 0.  0.
        3    1    3    3  502    0 -0.12932206462E+04 -0.31165065452E+03  0.24593572466E+03  0.13527860736E+04  0.10100000352E+00 0.  1.
       -3    1    3    3    0  502  0.12932206462E+04  0.31165065452E+03  0.86299507394E+03  0.15856564186E+04  0.10100000352E+00 0. -1.
</event>
<event>
 5   0  0.7363513E-06  0.3110903E+04  0.7818609E-02  0.8212752E-01
       -2   -1    0    0    0  501  0.00000000000E+00  0.00000000000E+00  0.10299470481E+04  0.10299470481E+04  0.25500000920E-02 0. -1.
        2   -1    0    0  501    0  0.00000000000E+00  0.00000000000E+00 -0.23490819328E+04  0.23490819328E+04  0.25500000920E-02 0.  1.
    10030    2    1    2    0    0  0.00000000000E+00  0.00000000000E+00 -0.13191348847E+04  0.33790289810E+04  0.31109034074E+04 0.  0.
        4    1    3    3  502    0  0.10872326925E+02  0.49416654707E+03  0.94237151545E+03  0.10641355505E+04  0.12699999809E+01 0. -1.
       -4    1    3    3    0  502 -0.10872326925E+02 -0.49416654707E+03 -0.22615064002E+04  0.23148934305E+04  0.12699999809E+01 0.  1.
</event>
<event>
 5   0  0.7079223E-06  0.2708377E+04  0.7818609E-02  0.8332292E-01
        2   -1    0    0  501    0  0.00000000000E+00  0.00000000000E+00  0.21938590940E+04  0.21938590940E+04  0.25500000920E-02 0. -1.
       -2   -1    0    0    0  501  0.00000000000E+00  0.00000000000E+00 -0.83589067065E+03  0.83589067065E+03  0.25500000920E-02 0.  1.
    10030    2    1    2    0    0  0.00000000000E+00  0.00000000000E+00  0.13579684233E+04  0.30297497646E+04  0.27083768935E+04 0.  0.
        5    1    3    3  502    0 -0.16762094896E+03  0.54198637057E+03  0.20545062726E+04  0.21313995690E+04  0.46999998093E+01 0. -1.
       -5    1    3    3    0  502  0.16762094896E+03 -0.54198637057E+03 -0.69653784933E+03  0.89835019561E+03  0.46999998093E+01 0.  1.
</event>
<event>
 5   0  0.2674441E-06  0.2131261E+04  0.7818609E-02  0.8547596E-01
        1   -1    0    0  501    0  0.00000000000E+00  0.00000000000E+00  0.15451344412E+04  0.15451344412E+04  0.50400001928E-02 0.  1.
       -1   -1    0    0    0  501  0.00000000000E+00  0.00000000000E+00 -0.73493201473E+03  0.73493201475E+03  0.50400001928E-02 0. -1.
    10030    2    1    2    0    0  0.00000000000E+00  0.00000000000E+00  0.81020242646E+03  0.22800664560E+04  0.21312613804E+04 0.  0.
        5    1    3    3  502    0 -0.98505332718E+03 -0.14737201985E+03 -0.15891540304E+00  0.99602745187E+03  0.46999998093E+01 0.  1.
       -5    1    3    3    0  502  0.98505332718E+03  0.14737201985E+03  0.81036134186E+03  0.12840390041E+04  0.46999998093E+01 0. -1.
</event>
<event>
 5   0  0.2517725E-06  0.3118591E+04  0.7818609E-02  0.8210654E-01
       -1   -1    0    0    0  501  0.00000000000E+00  0.00000000000E+00  0.10965371006E+04  0.10965371006E+04  0.50400001928E-02 0. -1.
        1   -1    0    0  501    0  0.00000000000E+00  0.00000000000E+00 -0.22173460603E+04  0.22173460603E+04  0.50400001928E-02 0.  1.
    10030    2    1    2    0    0  0.00000000000E+00  0.00000000000E+00 -0.11208089597E+04  0.33138831610E+04  0.31185908485E+04 0.  0.
        3    1    3    3  502    0 -0.73177458716E+03 -0.58481156162E+03 -0.18850230178E+04  0.21049490247E+04  0.10100000352E+00 0.  1.
       -3    1    3    3    0  502  0.73177458716E+03  0.58481156162E+03  0.76421405806E+03  0.12089341362E+04  0.10100000352E+00 0. -1.
</event>
<event>
 5   0  0.7414808E-06  0.3167797E+04  0.7818609E-02  0.8197374E-01
       -2   -1    0    0    0  501  0.00000000000E+00  0.00000000000E+00  0.16377879266E+04  0.16377879266E+04  0.25500000920E-02 0.  1.
        2   -1    0    0  501    0  0.00000000000E+00  0.00000000000E+00 -0.15317817701E+04  0.15317817701E+04  0.25500000920E-02 0. -1.
    10030    2    1    2    0    0  0.00000000000E+00  0.00000000000E+00  0.10600615653E+03  0.31695696967E+04  0.31677965145E+04 0.  0.
        2    1    3    3  502    0 -0.82332670134E+02 -0.15678261412E+04 -0.15658066439E+03  0.15777753268E+04  0.25500000920E-02 0.  1.
       -2    1    3    3    0  502  0.82332670134E+02  0.15678261412E+04  0.26258682092E+03  0.15917943699E+04  0.25500000920E-02 0. -1.
</event>
<event>
 5   0  0.7079223E-06  0.3179155E+04  0.7818609E-02  0.8194344E-01
        2   -1    0    0  501    0  0.00000000000E+00  0.00000000000E+00  0.26360302807E+04  0.26360302807E+04  0.25500000920E-02 0.  1.
       -2   -1    0    0    0  501  0.00000000000E+00  0.00000000000E+00 -0.95854599822E+03  0.95854599823E+03  0.25500000920E-02 0. -1.
    10030    2    1    2    0    0  0.00000000000E+00  0.00000000000E+00  0.16774842824E+04  0.35945762789E+04  0.31791547787E+04 0.  0.
        5    1    3    3  502    0  0.14459446694E+04  0.61317906861E+03  0.11156747658E+04  0.19265245470E+04  0.46999998093E+01 0. -1.
       -5    1    3    3    0  502 -0.14459446694E+04 -0.61317906861E+03  0.56180951661E+03  0.16680517319E+04  0.46999998093E+01 0.  1.
</event>
<event>
 5   0  0.7071012E-06  0.2989796E+04  0.7818609E-02  0.8246651E-01
       -2   -1    0    0    0  501  0.00000000000E+00  0.00000000000E+00  0.23158441953E+04  0.23158441953E+04  0.25500000920E-02 0.  1.
        2   -1    0    0  501    0  0.00000000000E+00  0.00000000000E+00 -0.96497025425E+03  0.96497025426E+03  0.25500000920E-02 0. -1.
    10030    2    1    2    0    0  0.00000000000E+00  0.00000000000E+00  0.13508739411E+04  0.32808144496E+04  0.29897964894E+04 0.  0.
        1    1    3    3  502    0  0.64320314732E+03 -0.12892582237E+04  0.11127553236E+04  0.18204728689E+04  0.50400001928E-02 0.  1.
       -1    1    3    3    0  502 -0.64320314732E+03  0.12892582237E+04  0.23811861747E+03  0.14603415807E+04  0.50400001928E-02 0. -1.
</event>
<event>
 5   0  0.7363513E-06  0.3104588E+04  0.7818609E-02  0.8214480E-01
       -2   -1    0    0    0  501  0.00000000000E+00  0.00000000000E+00  0.13209445592E+04  0.13209445592E+04  0.25500000920E-02 0. -1.
        2   -1    0    0  501    0  0.00000000000E+00  0.00000000000E+00 -0.18241615690E+04  0.18241615690E+04  0.25500000920E-02 0.  1.
    10030    2    1    2    0    0  0.00000000000E+00  0.00000000000E+00 -0.50321700983E+03  0.31451061283E+04  0.31045877664E+04 0.  0.
        4    1    3    3  502    0 -0.59838196207E+03 -0.95713600684E+03  0.82787073681E+03  0.13998363754E+04  0.12699999809E+01 0. -1.
       -4    1    3    3    0  502  0.59838196207E+03  0.95713600684E+03 -0.13310877466E+04  0.17452697529E+04  0.12699999809E+01 0.  1.
</event>
<event>
 5   0  0.7079223E-06  0.3054725E+04  0.7818609E-02  0.8228274E-01
       -2   -1    0    0    0  501  0.00000000000E+00  0.00000000000E+00  0.24255860252E+04  0.24255860252E+04  0.25500000920E-02 0. -1.
        2   -1    0    0  501    0  0.00000000000E+00  0.00000000000E+00 -0.96176178596E+03  0.96176178596E+03  0.25500000920E-02 0.  1.
    10030    2    1    2    0    0  0.00000000000E+00  0.00000000000E+00  0.14638242393E+04  0.33873478112E+04  0.30547248306E+04 0.  0.
        5    1    3    3  502    0  0.39131691929E+03  0.12717142106E+04  0.15635248375E+04  0.20530508937E+04  0.46999998093E+01 0. -1.
       -5    1    3    3    0  502 -0.39131691929E+03 -0.12717142106E+04 -0.99700598203E+02  0.13342969175E+04  0.46999998093E+01 0.  1.
</event>
<event>
 5   0  0.7094341E-06  0.3070530E+04  0.7818609E-02  0.8223872E-01
        2   -1    0    0  501    0  0.00000000000E+00  0.00000000000E+00  0.20088226507E+04  0.20088226507E+04  0.25500000920E-02 0. -1.
       -2   -1    0    0    0  501  0.00000000000E+00  0.00000000000E+00 -0.11733434136E+04  0.11733434136E+04  0.25500000920E-02 0.  1.
    10030    2    1    2    0    0  0.00000000000E+00  0.00000000000E+00  0.83547923715E+03  0.31821660643E+04  0.30705301342E+04 0.  0.
        3    1    3    3  502    0  0.15677409112E+03  0.68176024107E+03 -0.99857198086E+03  0.12192297376E+04  0.10100000352E+00 0.  1.
       -3    1    3    3    0  502 -0.15677409112E+03 -0.68176024107E+03  0.18340512180E+04  0.19629363266E+04  0.10100000352E+00 0. -1.
</event>
<event>
 5   0  0.2598987E-06  0.3089746E+04  0.7818609E-02  0.8218558E-01
        1   -1    0    0  501    0  0.00000000000E+00  0.00000000000E+00  0.11984282500E+04  0.11984282501E+04  0.50400001928E-02 0.  1.
       -1   -1    0    0    0  501  0.00000000000E+00  0.00000000000E+00 -0.19914687467E+04  0.19914687467E+04  0.50400001928E-02 0. -1.
    10030    2    1    2    0    0  0.00000000000E+00  0.00000000000E+00 -0.79304049661E+03  0.31898969967E+04  0.30897458828E+04 0.  0.
        2    1    3    3  502    0 -0.75041906524E+03  0.61248983880E+03 -0.16390080480E+04  0.19038434698E+04  0.25500000920E-02 0. -1.
       -2    1    3    3    0  502  0.75041906524E+03 -0.61248983880E+03  0.84596755138E+03  0.12860535269E+04  0.25500000920E-02 0.  1.
</event>
<event>
 5   0  0.7079223E-06  0.1918513E+04  0.7818609E-02  0.8645696E-01
        2   -1    0    0  501    0  0.00000000000E+00  0.00000000000E+00  0.25156108825E+04  0.25156108825E+04  0.25500000920E-02 0. -1.
       -2   -1    0    0    0  501  0.00000000000E+00  0.00000000000E+00 -0.36578516309E+03  0.36578516310E+03  0.25500000920E-02 0.  1.
    10030    2    1    2    0    0  0.00000000000E+00  0.00000000000E+00  0.21498257194E+04  0.28813960456E+04  0.19185131086E+04 0.  0.
        5    1    3    3  502    0 -0.71642118803E+03 -0.49657084021E+03  0.47357671068E+03  0.99203775579E+03  0.46999998093E+01 0.  1.
       -5    1    3    3    0  502  0.71642118803E+03  0.49657084021E+03  0.16762490087E+04  0.18893582898E+04  0.46999998093E+01 0. -1.
</event>
<event>
 5   0  0.2674441E-06  0.3131477E+04  0.7818609E-02  0.8207152E-01
       -1   -1    0    0    0  501  0.00000000000E+00  0.00000000000E+00  0.21034607419E+04  0.21034607419E+04  0.50400001928E-02 0.  1.
        1   -1    0    0  501    0  0.00000000000E+00  0.00000000000E+00 -0.11654775796E+04  0.11654775796E+04  0.50400001928E-02 0. -1.
    10030    2    1    2    0    0  0.00000000000E+00  0.00000000000E+00  0.93798316227E+03  0.32689383215E+04  0.31314765426E+04 0.  0.
        5    1    3    3  502    0  0.87849432112E+02 -0.14307827101E+03 -0.11560460576E+04  0.11681838432E+04  0.46999998093E+01 0. -1.
       -5    1    3    3    0  502 -0.87849432112E+02  0.14307827101E+03  0.20940292198E+04  0.21007544782E+04  0.46999998093E+01 0.  1.
</event>
<event>
 5   0  0.2674441E-06  0.3115183E+04  0.7818609E-02  0.8211583E-01
       -1   -1    0    0    0  501  0.00000000000E+00  0.00000000000E+00  0.13112206160E+04  0.13112206160E+04  0.50400001928E-02 0. -1.
        1   -1    0    0  501    0  0.00000000000E+00  0.00000000000E+00 -0.18502539885E+04  0.18502539886E+04  0.50400001928E-02 0.  1.
    10030    2    1    2    0    0  0.00000000000E+00  0.00000000000E+00 -0.53903337253E+03  0.31614746046E+04  0.31151829318E+04 0.  0.
        5    1    3    3  502    0  0.13258206869E+04  0.55964026972E+03 -0.87425009807E+03  0.16838447225E+04  0.46999998093E+01 0.  1.
       -5    1    3    3    0  502 -0.13258206869E+04 -0.55964026972E+03  0.33521672554E+03  0.14776298821E+04  0.46999998093E+01 0. -1.
</event>
<event>
 5   0  0.2674441E-06  0.3110502E+04  0.7818609E-02  0.8212862E-01
        1   -1    0    0  501    0  0.00000000000E+00  0.00000000000E+00  0.20545809524E+04  0.20545809524E+04  0.50400001928E-02 0. -1.
       -1   -1    0    0    0  501  0.00000000000E+00  0.00000000000E+00 -0.11772745678E+04  0.11772745678E+04  0.50400001928E-02 0.  1.
    10030    2    1    2    0    0  0.00000000000E+00  0.00000000000E+00  0.87730638455E+03  0.32318555202E+04  0.31105021478E+04 0.  0.
        5    1    3    3  502    0 -0.13243507079E+04 -0.14093477107E+02 -0.40843351100E+03  0.13859810412E+04  0.46999998093E+01 0.  1.
       -5    1    3    3    0  502  0.13243507079E+04  0.14093477107E+02  0.12857398956E+04  0.18458744791E+04  0.46999998093E+01 0. -1.
</event>
<event>
 5   0  0.2624011E-06  0.3072274E+04  0.7818609E-02  0.8223389E-01
       -1   -1    0    0    0  501  0.00000000000E+00  0.00000000000E+00  0.10395588074E+04  0.10395588074E+04  0.50400001928E-02 0. -1.
        1   -1    0    0  501    0  0.00000000000E+00  0.00000000000E+00 -0.22699212090E+04  0.22699212090E+04  0.50400001928E-02 0.  1.
    10030    2    1    2    0    0  0.00000000000E+00  0.00000000000E+00 -0.12303624016E+04  0.33094800165E+04  0.30722738062E+04 0.  0.
        1    1    3    3  502    0  0.46888331369E+03  0.14193166985E+04 -0.99664866354E+03  0.17965578229E+04  0.50400001928E-02 0.  1.
       -1    1    3    3    0  502 -0.46888331369E+03 -0.14193166985E+04 -0.23371373808E+03  0.15129221936E+04  0.50400001928E-02 0. -1.
</event>
<event>
 5   0  0.7094341E-06  0.3238307E+04  0.7818609E-02  0.8178773E-01
       -2   -1    0    0    0  501  0.00000000000E+00  0.00000000000E+00  0.14724815169E+04  0.14724815169E+04  0.25500000920E-02 0.  1.
        2   -1    0    0  501    0  0.00000000000E+00  0.00000000000E+00 -0.17804357837E+04  0.17804357837E+04  0.25500000920E-02 0. -1.
    10030    2    1    2    0    0  0.00000000000E+00  0.00000000000E+00 -0.30795426679E+03  0.32529173007E+04  0.32383074490E+04 0.  0.
        3    1    3    3  502    0 -0.99621270287E+03 -0.10373938902E+04 -0.90099406171E+03  0.16971788775E+04  0.10100000352E+00 0. -1.
       -3    1    3    3    0  502  0.99621270287E+03  0.10373938902E+04  0.59303979492E+03  0.15557384232E+04  0.10100000352E+00 0.  1.
</event>
<event>
 5   0  0.7079223E-06  0.3123686E+04  0.7818609E-02  0.8209267E-01
        2   -1    0    0  501    0  0.00000000000E+00  0.00000000000E+00  0.27181769379E+04  0.27181769379E+04  0.25500000920E-02 0.  1.
       -2   -1    0    0    0  501  0.00000000000E+00  0.00000000000E+00 -0.89742270743E+03  0.89742270743E+03  0.25500000920E-02 0. -1.
    10030    2    1    2    0    0  0.00000000000E+00  0.00000000000E+00  0.18207542305E+04  0.36155996453E+04  0.31236860962E+04 0.  0.
        5    1    3    3  502    0 -0.54733157223E+03  0.13380652047E+04  0.15945059588E+04  0.21523154240E+04  0.46999998093E+01 0.  1.
       -5    1    3    3    0  502  0.54733157223E+03 -0.13380652047E+04  0.22624827172E+03  0.14632842213E+04  0.46999998093E+01 0. -1.
</event>
<event>
 5   0  0.2612331E-06  0.3127557E+04  0.7818609E-02  0.8208216E-01
        1   -1    0    0  501    0  0.00000000000E+00  0.00000000000E+00  0.94241551246E+03  0.94241551247E+03  0.50400001928E-02 0. -1.
       -1   -1    0    0    0  501  0.00000000000E+00  0.00000000000E+00 -0.25948252960E+04  0.25948252960E+04  0.50400001928E-02 0.  1.
    10030    2    1    2    0    0  0.00000000000E+00  0.00000000000E+00 -0.16524097836E+04  0.35372408085E+04  0.31275572648E+04 0.  0.
        4    1    3    3  502    0  0.74116147158E+03 -0.68786623011E+03 -0.21753226564E+04  0.23988560919E+04  0.12699999809E+01 0.  1.
       -4    1    3    3    0  502 -0.74116147158E+03  0.68786623011E+03  0.52291287281E+03  0.11383847166E+04  0.12699999809E+01 0. -1.
</event>
<event>
 5   0  0.7363513E-06  0.3232198E+04  0.7818609E-02  0.8180365E-01
        2   -1    0    0  501    0  0.00000000000E+00  0.00000000000E+00  0.24622799351E+04  0.24622799351E+04  0.25500000920E-02 0.  1.
       -2   -1    0    0    0  501  0.00000000000E+00  0.00000000000E+00 -0.10607145449E+04  0.10607145449E+04  0.25500000920E-02 0. -1.
    10030    2    1    2    0    0  0.00000000000E+00  0.00000000000E+00  0.14015653902E+04  0.35229944799E+04  0.32321981008E+04 0.  0.
        4    1    3    3  502    0  0.14395645514E+04  0.21700880220E+03  0.14655769491E+04  0.20657580508E+04  0.12699999809E+01 0. -1.
       -4    1    3    3    0  502 -0.14395645514E+04 -0.21700880220E+03 -0.64011558928E+02  0.14572364291E+04  0.12699999809E+01 0.  1.
</event>
<event>
 5   0  0.7414808E-06  0.3058570E+04  0.7818609E-02  0.8227201E-01
        2   -1    0    0  501    0  0.00000000000E+00  0.00000000000E+00  0.21780162749E+04  0.21780162749E+04  0.25500000920E-02 0.  1.
       -2   -1    0    0    0  501  0.00000000000E+00  0.00000000000E+00 -0.10737812774E+04  0.10737812774E+04  0.25500000920E-02 0. -1.
    10030    2    1    2    0    0  0.00000000000E+00  0.00000000000E+00  0.11042349975E+04  0.32517975523E+04  0.30585703182E+04 0.  0.
        2    1    3    3  502    0 -0.95566297094E+03  0.72633385001E+03 -0.45529994950E+03  0.12838031857E+04  0.25500000920E-02 0. -1.
       -2    1    3    3    0  502  0.95566297094E+03 -0.72633385001E+03  0.15595349470E+04  0.19679943665E+04  0.25500000920E-02 0.  1.
</event>
<event>
 5   0  0.2624011E-06  0.3106223E+04  0.7818609E-02  0.8214032E-01
        1   -1    0    0  501    0  0.00000000000E+00  0.00000000000E+00  0.19230115202E+04  0.19230115203E+04  0.50400001928E-02 0. -1.
       -1   -1    0    0    0  501  0.00000000000E+00  0.00000000000E+00 -0.12543637384E+04  0.12543637384E+04  0.50400001928E-02 0.  1.
    10030    2    1    2    0    0  0.00000000000E+00  0.00000000000E+00  0.66864778188E+03  0.31773752586E+04  0.31062233786E+04 0.  0.
        1    1    3    3  502    0  0.13743744620E+04 -0.72106768171E+03  0.27545427354E+03  0.15762990897E+04  0.50400001928E-02 0.  1.
       -1    1    3    3    0  502 -0.13743744620E+04  0.72106768171E+03  0.39319350834E+03  0.16010761689E+04  0.50400001928E-02 0. -1.
</event>
<event>
 5   0  0.7079223E-06  0.2941755E+04  0.7818609E-02  0.8260561E-01
        2   -1    0    0  501    0  0.00000000000E+00  0.00000000000E+00  0.19298908561E+04  0.19298908561E+04  0.25500000920E-02 0. -1.
       -2   -1    0    0    0  501  0.00000000000E+00  0.00000000000E+00 -0.11210380144E+04  0.11210380144E+04  0.25500000920E-02 0.  1.
    10030    2    1    2    0    0  0.00000000000E+00  0.00000000000E+00  0.80885284173E+03  0.30509288705E+04  0.29417552674E+04 0.  0.
        5    1    3    3  502    0  0.53543951884E+03 -0.97847892382E+03  0.13988334775E+04  0.17890985637E+04  0.46999998093E+01 0. -1.
       -5    1    3    3    0  502 -0.53543951884E+03  0.97847892382E+03 -0.58998063578E+03  0.12618303069E+04  0.46999998093E+01 0.  1.
</event>
<event>
 5   0  0.2517725E-06  0.3102471E+04  0.7818609E-02  0.8215060E-01
       -1   -1    0    0    0  501  0.00000000000E+00  0.00000000000E+00  0.23315397242E+04  0.23315397242E+04  0.50400001928E-02 0. -1.
        1   -1    0    0  501    0  0.00000000000E+00  0.00000000000E+00 -0.10320780234E+04  0.10320780234E+04  0.50400001928E-02 0.  1.
    10030    2    1    2    0    0  0.00000000000E+00  0.00000000000E+00  0.12994617008E+04  0.33636177476E+04  0.31024705704E+04 0.  0.
        3    1    3    3  502    0 -0.25301159507E+03  0.75926368306E+03  0.20904322803E+04  0.22383930254E+04  0.10100000352E+00 0. -1.
       -3    1    3    3    0  502  0.25301159507E+03 -0.75926368306E+03 -0.79097057943E+03  0.11252247222E+04  0.10100000352E+00 0.  1.
</event>
<event>
 5   0  0.7363513E-06  0.3110808E+04  0.7818609E-02  0.8212778E-01
        2   -1    0    0  501    0  0.00000000000E+00  0.00000000000E+00  0.18366664850E+04  0.18366664850E+04  0.25500000920E-02 0. -1.
       -2   -1    0    0    0  501  0.00000000000E+00  0.00000000000E+00 -0.13172130218E+04  0.13172130218E+04  0.25500000920E-02 0.  1.
    10030    2    1    2    0    0  0.00000000000E+00  0.00000000000E+00  0.51945346313E+03  0.31538795068E+04  0.31108076191E+04 0.  0.
        4    1    3    3  502    0  0.10697958359E+04 -0.56187680968E+03  0.12526285713E+04  0.17404736798E+04  0.12699999809E+01 0.  1.
       -4    1    3    3    0  502 -0.10697958359E+04  0.56187680968E+03 -0.73317510814E+03  0.14134058270E+04  0.12699999809E+01 0. -1.
</event>
<event>
 5   0  0.2393250E-06  0.3067988E+04  0.7818609E-02  0.8224578E-01
        3   -1    0    0  501    0  0.00000000000E+00  0.00000000000E+00  0.20832022789E+04  0.20832022813E+04  0.10100000352E+00 0. -1.
       -3   -1    0    0    0  501  0.00000000000E+00  0.00000000000E+00 -0.11295774449E+04  0.11295774494E+04  0.10100000352E+00 0.  1.
    10030    2    1    2    0    0  0.00000000000E+00  0.00000000000E+00  0.95362483399E+03  0.32127797307E+04  0.30679884736E+04 0.  0.
        3    1    3    3  502    0  0.20014207927E+03  0.15115605921E+04  0.30075283848E+03  0.15541314473E+04  0.10100000352E+00 0. -1.
       -3    1    3    3    0  502 -0.20014207927E+03 -0.15115605921E+04  0.65287199551E+03  0.16586482834E+04  0.10100000352E+00 0.  1.
</event>
<event>
 5   0  0.7079223E-06  0.3079211E+04  0.7818609E-02  0.8221466E-01
        2   -1    0    0  501    0  0.00000000000E+00  0.00000000000E+00  0.20213044955E+04  0.20213044955E+04  0.25500000920E-02 0.  1.
       -2   -1    0    0    0  501  0.00000000000E+00  0.00000000000E+00 -0.11727009781E+04  0.11727009781E+04  0.25500000920E-02 0. -1.
    10030    2    1    2    0    0  0.00000000000E+00  0.00000000000E+00  0.84860351736E+03  0.31940054736E+04  0.30792114308E+04 0.  0.
        5    1    3    3  502    0  0.84333447693E+03 -0.28123485515E+03  0.17281666857E+04  0.19434217935E+04  0.46999998093E+01 0.  1.
       -5    1    3    3    0  502 -0.84333447693E+03  0.28123485515E+03 -0.87956316838E+03  0.12505836801E+04  0.46999998093E+01 0. -1.
</event>
<event>
 5   0  0.2624011E-06  0.3137293E+04  0.7818609E-02  0.8205577E-01
        1   -1    0    0  501    0  0.00000000000E+00  0.00000000000E+00  0.16934868871E+04  0.16934868871E+04  0.50400001928E-02 0.  1.
       -1   -1    0    0    0  501  0.00000000000E+00  0.00000000000E+00 -0.14530091300E+04  0.14530091300E+04  0.50400001928E-02 0. -1.
    10030    2    1    2    0    0  0.00000000000E+00  0.00000000000E+00  0.24047775708E+03  0.31464960171E+04  0.31372930424E+04 0.  0.
        1    1    3    3  502    0  0.48421524164E+03  0.24933473857E+03 -0.13551370879E+04  0.14604892123E+04  0.50400001928E-02 0. -1.
       -1    1    3    3    0  502 -0.48421524164E+03 -0.24933473857E+03  0.15956148450E+04  0.16860068048E+04  0.50400001928E-02 0.  1.
</event>
<event>
 5   0  0.2624011E-06  0.3079230E+04  0.7818609E-02  0.8221461E-01
        1   -1    0    0  501    0  0.00000000000E+00  0.00000000000E+00  0.17384326861E+04  0.17384326861E+04  0.50400001928E-02 0. -1.
       -1   -1    0    0    0  501  0.00000000000E+00  0.00000000000E+00 -0.13635350735E+04  0.13635350735E+04  0.50400001928E-02 0.  1.
    10030    2    1    2    0    0  0.00000000000E+00  0.00000000000E+00  0.37489761257E+03  0.31019677596E+04  0.30792297352E+04 0.  0.
        1    1    3    3  502    0  0.28339674926E+03  0.36264606617E+03  0.16675113647E+04  0.17298612772E+04  0.50400001928E-02 0. -1.
       -1    1    3    3    0  502 -0.28339674926E+03 -0.36264606617E+03 -0.12926137522E+04  0.13721064824E+04  0.50400001928E-02 0.  1.
</event>
<event>
 5   0  0.2517725E-06  0.3055993E+04  0.7818609E-02  0.8227920E-01
       -1   -1    0    0    0  501  0.00000000000E+00  0.00000000000E+00  0.28063140487E+04  0.28063140487E+04  0.50400001928E-02 0.  1.
        1   -1    0    0  501    0  0.00000000000E+00  0.00000000000E+00 -0.83197138285E+03  0.83197138287E+03  0.50400001928E-02 0. -1.
    10030    2    1    2    0    0  0.00000000000E+00  0.00000000000E+00  0.19743426659E+04  0.36382854316E+04  0.30559927879E+04 0.  0.
        3    1    3    3  502    0  0.98162122063E+03  0.20229257835E+03  0.23603100615E+04  0.25642866659E+04  0.10100000352E+00 0.  1.
       -3    1    3    3    0  502 -0.98162122063E+03 -0.20229257835E+03 -0.38596739565E+03  0.10739987657E+04  0.10100000352E+00 0. -1.
</event>
<event>
 5   0  0.7363513E-06  0.2947988E+04  0.7818609E-02  0.8258741E-01
        2   -1    0    0  501    0  0.00000000000E+00  0.00000000000E+00  0.14560008322E+04  0.14560008322E+04  0.25500000920E-02 0. -1.
       -2   -1    0    0    0  501  0.00000000000E+00  0.00000000000E+00 -0.14922100005E+04  0.14922100005E+04  0.25500000920E-02 0.  1.
    10030    2    1    2    0    0  0.00000000000E+00  0.00000000000E+00 -0.36209168254E+02  0.29482108327E+04  0.29479884685E+04 0.  0.
        4    1    3    3  502    0  0.84150350705E+03 -0.11063238901E+04  0.47241858747E+03  0.14680809367E+04  0.12699999809E+01 0. -1.
       -4    1    3    3    0  502 -0.84150350705E+03  0.11063238901E+04 -0.50862775573E+03  0.14801298960E+04  0.12699999809E+01 0.  1.
</event>
<event>
 5   0  0.7071012E-06  0.3280459E+04  0.7818609E-02  0.8167886E-01
       -2   -1    0    0    0  501  0.00000000000E+00  0.00000000000E+00  0.19728677442E+04  0.19728677442E+04  0.25500000920E-02 0. -1.
        2   -1    0    0  501    0  0.00000000000E+00  0.00000000000E+00 -0.13636760046E+04  0.13636760046E+04  0.25500000920E-02 0.  1.
    10030    2    1    2    0    0  0.00000000000E+00  0.00000000000E+00  0.60919173956E+03  0.33365437488E+04  0.32804587502E+04 0.  0.
        1    1    3    3  502    0  0.31323605370E+03 -0.97761662602E+03  0.16057250631E+04  0.19058342192E+04  0.50400001928E-02 0. -1.
       -1    1    3    3    0  502 -0.31323605370E+03  0.97761662602E+03 -0.99653332358E+03  0.14307095295E+04  0.50400001928E-02 0.  1.
</event>
<event>
 5   0  0.7079223E-06  0.3118452E+04  0.7818609E-02  0.8210692E-01
       -2   -1    0    0    0  501  0.00000000000E+00  0.00000000000E+00  0.12373028163E+04  0.12373028163E+04  0.25500000920E-02 0.  1.
        2   -1    0    0  501    0  0.00000000000E+00  0.00000000000E+00 -0.19649081146E+04  0.19649081146E+04  0.25500000920E-02 0. -1.
    10030    2    1    2    0    0  0.00000000000E+00  0.00000000000E+00 -0.72760529835E+03  0.32022109309E+04  0.31184524007E+04 0.  0.
        5    1    3    3  502    0  0.99310785707E+03  0.12019973024E+04 -0.35335474116E+03  0.15987314953E+04  0.46999998093E+01 0. -1.
       -5    1    3    3    0  502 -0.99310785707E+03 -0.12019973024E+04 -0.37425055720E+03  0.16034794356E+04  0.46999998093E+01 0.  1.
</event>
<event>
 5   0  0.2598987E-06  0.3132373E+04  0.7818609E-02  0.8206909E-01
       -1   -1    0    0    0  501  0.00000000000E+00  0.00000000000E+00  0.12429094482E+04  0.12429094482E+04  0.50400001928E-02 0. -1.
        1   -1    0    0  501    0  0.00000000000E+00  0.00000000000E+00 -0.19735469591E+04  0.19735469591E+04  0.50400001928E-02 0.  1.
    10030    2    1    2    0    0  0.00000000000E+00  0.00000000000E+00 -0.73063751089E+03  0.32164564073E+04  0.31323730059E+04 0.  0.
        2    1    3    3  502    0 -0.27278468971E+03  0.43801141376E+03  0.11531165213E+04  0.12633064542E+04  0.25500000920E-02 0. -1.
       -2    1    3    3    0  502  0.27278468971E+03 -0.43801141376E+03 -0.18837540322E+04  0.19531499531E+04  0.25500000920E-02 0.  1.
</event>
<event>
 5   0  0.2674441E-06  0.2166418E+04  0.7818609E-02  0.8532537E-01
       -1   -1    0    0    0  501  0.00000000000E+00  0.00000000000E+00  0.85985568653E+03  0.85985568654E+03  0.50400001928E-02 0.  1.
        1   -1    0    0  501    0  0.00000000000E+00  0.00000000000E+00 -0.13645796854E+04  0.13645796854E+04  0.50400001928E-02 0. -1.
    10030    2    1    2    0    0  0.00000000000E+00  0.00000000000E+00 -0.50472399887E+03  0.22244353719E+04  0.21664178750E+04 0.  0.
        5    1    3    3  502    0  0.20231102005E+03 -0.32204460261E+03  0.78903682898E+03  0.87592447300E+03  0.46999998093E+01 0.  1.
       -5    1    3    3    0  502 -0.20231102005E+03  0.32204460261E+03 -0.12937608278E+04  0.13485108989E+04  0.46999998093E+01 0. -1.
</event>
<event>
 5   0  0.7363513E-06  0.3113547E+04  0.7818609E-02  0.8212030E-01
        2   -1    0    0  501    0  0.00000000000E+00  0.00000000000E+00  0.23159203153E+04  0.23159203153E+04  0.25500000920E-02 0. -1.
       -2   -1    0    0    0  501  0.00000000000E+00  0.00000000000E+00 -0.10464713716E+04  0.10464713716E+04  0.25500000920E-02 0.  1.
    10030    2    1    2    0    0  0.00000000000E+00  0.00000000000E+00  0.12694489437E+04  0.33623916870E+04  0.31135473717E+04 0.  0.
        4    1    3    3  502    0 -0.62130002014E+02  0.13279588333E+02  0.23145191313E+04  0.23153913075E+04  0.12699999809E+01 0. -1.
       -4    1    3    3    0  502  0.62130002014E+02 -0.13279588333E+02 -0.10450701876E+04  0.10470003795E+04  0.12699999809E+01 0.  1.
</event>
<event>
 5   0  0.2517725E-06  0.3128566E+04  0.7818609E-02  0.8207942E-01
       -1   -1    0    0    0  501  0.00000000000E+00  0.00000000000E+00  0.10370639807E+04  0.10370639807E+04  0.50400001928E-02 0. -1.
        1   -1    0    0  501    0  0.00000000000E+00  0.00000000000E+00 -0.23595275203E+04  0.23595275203E+04  0.50400001928E-02 0.  1.
    10030    2    1    2    0    0  0.00000000000E+00  0.00000000000E+00 -0.13224635396E+04  0.33965915010E+04  0.31285658073E+04 0.  0.
        3    1    3    3  502    0  0.60750996950E+03  0.13544253826E+04 -0.12556091354E+03  0.14897322019E+04  0.10100000352E+00 0. -1.
       -3    1    3    3    0  502 -0.60750996950E+03 -0.13544253826E+04 -0.11969026260E+04  0.19068592991E+04  0.10100000352E+00 0.  1.
</event>
<event>
 5   0  0.7363513E-06  0.2520636E+04  0.7818609E-02  0.8395670E-01
       -2   -1    0    0    0  501  0.00000000000E+00  0.00000000000E+00  0.71917703519E+03  0.71917703519E+03  0.25500000920E-02 0. -1.
        2   -1    0    0  501    0  0.00000000000E+00  0.00000000000E+00 -0.22086384249E+04  0.22086384249E+04  0.25500000920E-02 0.  1.
    10030    2    1    2    0    0  0.00000000000E+00  0.00000000000E+00 -0.14894613897E+04  0.29278154601E+04  0.25206364547E+04 0.  0.
        4    1    3    3  502    0 -0.46866777296E+03 -0.11287255693E+04 -0.38723058801E+03  0.12820374540E+04  0.12699999809E+01 0. -1.
       -4    1    3    3    0  502  0.46866777296E+03  0.11287255693E+04 -0.11022308017E+04  0.16457780061E+04  0.12699999809E+01 0.  1.
</event>
<event>
 5   0  0.2517725E-06  0.2944624E+04  0.7818609E-02  0.8259723E-01
        1   -1    0    0  501    0  0.00000000000E+00  0.00000000000E+00  0.19169783415E+04  0.19169783416E+04  0.50400001928E-02 0.  1.
       -1   -1    0    0    0  501  0.00000000000E+00  0.00000000000E+00 -0.11307912028E+04  0.11307912029E+04  0.50400001928E-02 0. -1.
    10030    2    1    2    0    0  0.00000000000E+00  0.00000000000E+00  0.78618713870E+03  0.30477695444E+04  0.29446237415E+04 0.  0.
        3    1    3    3  502    0  0.61225571880E+03  0.48547080334E+03 -0.89848071937E+03  0.11907168343E+04  0.10100000352E+00 0. -1.
       -3    1    3    3    0  502 -0.61225571880E+03 -0.48547080334E+03  0.16846678581E+04  0.18570527102E+04  0.10100000352E+00 0.  1.
</event>
<event>
 5   0  0.2624011E-06  0.2990458E+04  0.7818609E-02  0.8246461E-01
        1   -1    0    0  501    0  0.00000000000E+00  0.00000000000E+00  0.16209303029E+04  0.16209303029E+04  0.50400001928E-02 0.  1.
       -1   -1    0    0    0  501  0.00000000000E+00  0.00000000000E+00 -0.13792758095E+04  0.13792758095E+04  0.50400001928E-02 0. -1.
    10030    2    1    2    0    0  0.00000000000E+00  0.00000000000E+00  0.24165449337E+03  0.30002061124E+04  0.29904581293E+04 0.  0.
        1    1    3    3  502    0  0.13805135525E+04  0.57309549961E+03  0.82573764037E+02  0.14970218926E+04  0.50400001928E-02 0.  1.
       -1    1    3    3    0  502 -0.13805135525E+04 -0.57309549961E+03  0.15908072934E+03  0.15031842199E+04  0.50400001928E-02 0. -1.
</event>
<event>
 5   0  0.7363513E-06  0.3043042E+04  0.7818609E-02  0.8231546E-01
        2   -1    0    0  501    0  0.00000000000E+00  0.00000000000E+00  0.12817009510E+04  0.12817009510E+04  0.25500000920E-02 0. -1.
       -2   -1    0    0    0  501  0.00000000000E+00  0.00000000000E+00 -0.18062140150E+04  0.18062140150E+04  0.25500000920E-02 0.  1.
    10030    2    1    2    0    0  0.00000000000E+00  0.00000000000E+00 -0.52451306407E+03  0.30879149660E+04  0.30430420442E+04 0.  0.
        4    1    3    3  502    0 -0.12211122890E+04  0.77592499586E+03  0.21569833343E+03  0.14627720962E+04  0.12699999809E+01 0. -1.
       -4    1    3    3    0  502  0.12211122890E+04 -0.77592499586E+03 -0.74021139749E+03  0.16251428698E+04  0.12699999809E+01 0.  1.
</event>
<event>
 5   0  0.7071012E-06  0.3051592E+04  0.7818609E-02  0.8229150E-01
       -2   -1    0    0    0  501  0.00000000000E+00  0.00000000000E+00  0.11737577725E+04  0.11737577725E+04  0.25500000920E-02 0. -1.
        2   -1    0    0  501    0  0.00000000000E+00  0.00000000000E+00 -0.19834194761E+04  0.19834194761E+04  0.25500000920E-02 0.  1.
    10030    2    1    2    0    0  0.00000000000E+00  0.00000000000E+00 -0.80966170366E+03  0.31571772486E+04  0.30515923884E+04 0.  0.
        1    1    3    3  502    0  0.54871510734E+03 -0.59966119022E+03 -0.17407762906E+04  0.19211933547E+04  0.50400001928E-02 0. -1.
       -1    1    3    3    0  502 -0.54871510734E+03  0.59966119022E+03  0.93111458693E+03  0.12359838939E+04  0.50400001928E-02 0.  1.
</event>
<event>
 5   0  0.7363513E-06  0.3072613E+04  0.7818609E-02  0.8223294E-01
        2   -1    0    0  501    0  0.00000000000E+00  0.00000000000E+00  0.21165248787E+04  0.21165248787E+04  0.25500000920E-02 0.  1.
       -2   -1    0    0    0  501  0.00000000000E+00  0.00000000000E+00 -0.11151475219E+04  0.11151475219E+04  0.25500000920E-02 0. -1.
    10030    2    1    2    0    0  0.00000000000E+00  0.00000000000E+00  0.10013773568E+04  0.32316724006E+04  0.30726128773E+04 0.  0.
        4    1    3    3  502    0  0.86533311120E+03 -0.11164513317E+04  0.11360907067E+04  0.18127241037E+04  0.12699999809E+01 0. -1.
       -4    1    3    3    0  502 -0.86533311120E+03  0.11164513317E+04 -0.13471334994E+03  0.14189482968E+04  0.12699999809E+01 0.  1.
</event>
<event>
 5   0  0.7363513E-06  0.2606069E+04  0.7818609E-02  0.8366143E-01
        2   -1    0    0  501    0  0.00000000000E+00  0.00000000000E+00  0.11544949993E+04  0.11544949993E+04  0.25500000920E-02 0. -1.
       -2   -1    0    0    0  501  0.00000000000E+00  0.00000000000E+00 -0.14706853062E+04  0.14706853062E+04  0.25500000920E-02 0.  1.
    10030    2    1    2    0    0  0.00000000000E+00  0.00000000000E+00 -0.31619030692E+03  0.26251803055E+04  0.26060689412E+04 0.  0.
        4    1    3    3  502    0 -0.19972581861E+03 -0.34947510084E+03 -0.14064872976E+04  0.14629529657E+04  0.12699999809E+01 0.  1.
       -4    1    3    3    0  502  0.19972581861E+03  0.34947510084E+03  0.10902969906E+04  0.11622273398E+04  0.12699999809E+01 0. -1.
</event>
<event>
 5   0  0.2624011E-06  0.3056199E+04  0.7818609E-02  0.8227863E-01
       -1   -1    0    0    0  501  0.00000000000E+00  0.00000000000E+00  0.79101432082E+03  0.79101432084E+03  0.50400001928E-02 0. -1.
        1   -1    0    0  501    0  0.00000000000E+00  0.00000000000E+00 -0.29520174131E+04  0.29520174131E+04  0.50400001928E-02 0.  1.
    10030    2    1    2    0    0  0.00000000000E+00  0.00000000000E+00 -0.21610030923E+04  0.37430317339E+04  0.30561989785E+04 0.  0.
        1    1    3    3  502    0  0.46172471597E+03  0.91168927598E+02 -0.28610422345E+04  0.28994937755E+04  0.50400001928E-02 0.  1.
       -1    1    3    3    0  502 -0.46172471597E+03 -0.91168927598E+02  0.70003914220E+03  0.84353795844E+03  0.50400001928E-02 0. -1.
</event>
<event>
 5   0  0.2517725E-06  0.3100964E+04  0.7818609E-02  0.8215473E-01
        1   -1    0    0  501    0  0.00000000000E+00  0.00000000000E+00  0.17441117125E+04  0.17441117125E+04  0.50400001928E-02 0.  1.
       -1   -1    0    0    0  501  0.00000000000E+00  0.00000000000E+00 -0.13783487477E+04  0.13783487478E+04  0.50400001928E-02 0. -1.
    10030    2    1    2    0    0  0.00000000000E+00  0.00000000000E+00  0.36576296476E+03  0.31224604603E+04  0.31009638469E+04 0.  0.
        3    1    3    3  502    0  0.47555464833E+03  0.40473762809E+03 -0.12461215457E+04  0.13938377552E+04  0.10100000352E+00 0. -1.
       -3    1    3    3    0  502 -0.47555464833E+03 -0.40473762809E+03  0.16118845104E+04  0.17286227050E+04  0.10100000352E+00 0.  1.
</event>
<event>
 5   0  0.7414808E-06  0.3087749E+04  0.7818609E-02  0.8219108E-01
        2   -1    0    0  501    0  0.00000000000E+00  0.00000000000E+00  0.23713894644E+04  0.23713894644E+04  0.25500000920E-02 0. -1.
       -2   -1    0    0    0  501  0.00000000000E+00  0.00000000000E+00 -0.10051272453E+04  0.10051272453E+04  0.25500000920E-02 0.  1.
    10030    2    1    2    0    0  0.00000000000E+00  0.00000000000E+00  0.13662622191E+04  0.33765167097E+04  0.30877487980E+04 0.  0.
        2    1    3    3  502    0  0.10026648390E+03 -0.92204655667E+03 -0.66652528943E+03  0.11421379873E+04  0.25500000920E-02 0.  1.
       -2    1    3    3    0  502 -0.10026648390E+03  0.92204655667E+03  0.20327875086E+04  0.22343787225E+04  0.25500000920E-02 0. -1.
</event>
<event>
 5   0  0.2598987E-06  0.3021075E+04  0.7818609E-02  0.8237738E-01
        1   -1    0    0  501    0  0.00000000000E+00  0.00000000000E+00  0.15443661230E+04  0.15443661230E+04  0.50400001928E-02 0. -1.
       -1   -1    0    0    0  501  0.00000000000E+00  0.00000000000E+00 -0.14774494822E+04  0.14774494823E+04  0.50400001928E-02 0.  1.
    10030    2    1    2    0    0  0.00000000000E+00  0.00000000000E+00  0.66916640731E+02  0.30218156052E+04  0.30210745961E+04 0.  0.
        2    1    3    3  502    0  0.11689719948E+04  0.79720757287E+03  0.56244292346E+03  0.15226219101E+04  0.25500000920E-02 0. -1.
       -2    1    3    3    0  502 -0.11689719948E+04 -0.79720757287E+03 -0.49552628273E+03  0.14991936952E+04  0.25500000920E-02 0.  1.
</event>
<event>
 5   0  0.2612331E-06  0.3134945E+04  0.7818609E-02  0.8206213E-01
       -1   -1    0    0    0  501  0.00000000000E+00  0.00000000000E+00  0.13026187746E+04  0.13026187746E+04  0.50400001928E-02 0.  1.
        1   -1    0    0  501    0  0.00000000000E+00  0.00000000000E+00 -0.18861771514E+04  0.18861771514E+04  0.50400001928E-02 0. -1.
    10030    2    1    2    0    0  0.00000000000E+00  0.00000000000E+00 -0.58355837685E+03  0.31887959260E+04  0.31349448287E+04 0.  0.
        4    1    3    3  502    0 -0.14460539904E+04 -0.50498110410E+03  0.46942658202E+02  0.15324109386E+04  0.12699999809E+01 0.  1.
       -4    1    3    3    0  502  0.14460539904E+04  0.50498110410E+03 -0.63050103505E+03  0.16563849875E+04  0.12699999809E+01 0. -1.
</event>
<event>
 5   0  0.2612331E-06  0.3155382E+04  0.7818609E-02  0.8200701E-01
        1   -1    0    0  501    0  0.00000000000E+00  0.00000000000E+00  0.18588258131E+04  0.18588258131E+04  0.50400001928E-02 0. -1.
       -1   -1    0    0    0  501  0.00000000000E+00  0.00000000000E+00 -0.13390760790E+04  0.13390760790E+04  0.50400001928E-02 0.  1.
    10030    2    1    2    0    0  0.00000000000E+00  0.00000000000E+00  0.51974973411E+03  0.31979018921E+04  0.31553821837E+04 0.  0.
        4    1    3    3  502    0 -0.36526187594E+03  0.21143568754E+03  0.18005527585E+04  0.18493547894E+04  0.12699999809E+01 0. -1.
       -4    1    3    3    0  502  0.36526187594E+03 -0.21143568754E+03 -0.12808030244E+04  0.13485471027E+04  0.12699999809E+01 0.  1.
</event>
<event>
 5   0  0.7414808E-06  0.3140034E+04  0.7818609E-02  0.8204836E-01
        2   -1    0    0  501    0  0.00000000000E+00  0.00000000000E+00  0.22272160507E+04  0.22272160507E+04  0.25500000920E-02 0.  1.
       -2   -1    0    0    0  501  0.00000000000E+00  0.00000000000E+00 -0.11067420322E+04  0.11067420322E+04  0.25500000920E-02 0. -1.
    10030    2    1    2    0    0  0.00000000000E+00  0.00000000000E+00  0.11204740185E+04  0.33339580829E+04  0.31400341515E+04 0.  0.
        2    1    3    3  502    0  0.26439367005E+03  0.48523536740E+03 -0.10000771350E+04  0.11425898872E+04  0.25500000920E-02 0. -1.
       -2    1    3    3    0  502 -0.26439367005E+03 -0.48523536740E+03  0.21205511534E+04  0.21913681957E+04  0.25500000920E-02 0.  1.
</event>
<event>
 5   0  0.2624011E-06  0.3156646E+04  0.7818609E-02  0.8200362E-01
       -1   -1    0    0    0  501  0.00000000000E+00  0.00000000000E+00  0.11375133352E+04  0.11375133352E+04  0.50400001928E-02 0. -1.
        1   -1    0    0  501    0  0.00000000000E+00  0.00000000000E+00 -0.21899554863E+04  0.21899554863E+04  0.50400001928E-02 0.  1.
    10030    2    1    2    0    0  0.00000000000E+00  0.00000000000E+00 -0.10524421511E+04  0.33274688215E+04  0.31566460487E+04 0.  0.
        1    1    3    3  502    0  0.63226284240E+03 -0.79540996171E+03 -0.17993332506E+04  0.20664059272E+04  0.50400001928E-02 0.  1.
       -1    1    3    3    0  502 -0.63226284240E+03  0.79540996171E+03  0.74689109947E+03  0.12610628944E+04  0.50400001928E-02 0. -1.
</event>
<event>
 5   0  0.7414808E-06  0.2653851E+04  0.7818609E-02  0.8350136E-01
       -2   -1    0    0    0  501  0.00000000000E+00  0.00000000000E+00  0.10370810665E+04  0.10370810665E+04  0.25500000920E-02 0. -1.
        2   -1    0    0  501    0  0.00000000000E+00  0.00000000000E+00 -0.16977760540E+04  0.16977760540E+04  0.25500000920E-02 0.  1.
    10030    2    1    2    0    0  0.00000000000E+00  0.00000000000E+00 -0.66069498756E+03  0.27348571205E+04  0.26538510891E+04 0.  0.
        2    1    3    3  502    0 -0.77251635436E+03 -0.50600591462E+03  0.65157902365E+03  0.11302118065E+04  0.25500000920E-02 0. -1.
       -2    1    3    3    0  502  0.77251635436E+03  0.50600591462E+03 -0.13122740112E+04  0.16046453140E+04  0.25500000920E-02 0.  1.
</event>
<event>
 5   0  0.7414808E-06  0.2340307E+04  0.7818609E-02  0.8462196E-01
        2   -1    0    0  501    0  0.00000000000E+00  0.00000000000E+00  0.73523796439E+03  0.73523796439E+03  0.25500000920E-02 0. -1.
       -2   -1    0    0    0  501  0.00000000000E+00  0.00000000000E+00 -0.18623352018E+04  0.18623352018E+04  0.25500000920E-02 0.  1.
    10030    2    1    2    0    0  0.00000000000E+00  0.00000000000E+00 -0.11270972374E+04  0.25975731662E+04  0.23403072813E+04 0.  0.
        2    1    3    3  502    0 -0.53960007860E+03 -0.10362241345E+04 -0.49050521104E+03  0.12670927605E+04  0.25500000920E-02 0. -1.
       -2    1    3    3    0  502  0.53960007860E+03  0.10362241345E+04 -0.63659202637E+03  0.13304804056E+04  0.25500000920E-02 0.  1.
</event>
<event>
 5   0  0.7414808E-06  0.3231874E+04  0.7818609E-02  0.8180450E-01
        2   -1    0    0  501    0  0.00000000000E+00  0.00000000000E+00  0.19097739974E+04  0.19097739974E+04  0.25500000920E-02 0.  1.
       -2   -1    0    0    0  501  0.00000000000E+00  0.00000000000E+00 -0.13673096247E+04  0.13673096247E+04  0.25500000920E-02 0. -1.
    10030    2    1    2    0    0  0.00000000000E+00  0.00000000000E+00  0.54246437264E+03  0.32770836221E+04  0.32318739874E+04 0.  0.
        2    1    3    3  502    0  0.11989648945E+04 -0.14836948727E+03  0.13594277330E+04  0.18186737157E+04  0.25500000920E-02 0.  1.
       -2    1    3    3    0  502 -0.11989648945E+04  0.14836948727E+03 -0.81696336033E+03  0.14584099064E+04  0.25500000920E-02 0. -1.
</event>
<event>
 5   0  0.7071012E-06  0.3416152E+04  0.7818609E-02  0.8133953E-01
        2   -1    0    0  501    0  0.00000000000E+00  0.00000000000E+00  0.10116941549E+04  0.10116941549E+04  0.25500000920E-02 0. -1.
       -2   -1    0    0    0  501  0.00000000000E+00  0.00000000000E+00 -0.28838006709E+04  0.28838006709E+04  0.25500000920E-02 0.  1.
    10030    2    1    2    0    0  0.00000000000E+00  0.00000000000E+00 -0.18721065160E+04  0.38954948258E+04  0.34161523870E+04 0.  0.
        1    1    3    3  502    0  0.10450782421E+04 -0.93432343767E+03 -0.20488849765E+04  0.24825548263E+04  0.50400001928E-02 0.  1.
       -1    1    3    3    0  502 -0.10450782421E+04  0.93432343767E+03  0.17677846055E+03  0.14129399996E+04  0.50400001928E-02 0. -1.
</event>
<event>
 5   0  0.2598987E-06  0.3152896E+04  0.7818609E-02  0.8201369E-01
        1   -1    0    0  501    0  0.00000000000E+00  0.00000000000E+00  0.13847584465E+04  0.13847584465E+04  0.50400001928E-02 0. -1.
       -1   -1    0    0    0  501  0.00000000000E+00  0.00000000000E+00 -0.17946722926E+04  0.17946722926E+04  0.50400001928E-02 0.  1.
    10030    2    1    2    0    0  0.00000000000E+00  0.00000000000E+00 -0.40991384606E+03  0.31794307391E+04  0.31528955681E+04 0.  0.
        2    1    3    3  502    0 -0.74079421559E+02 -0.12981352984E+04 -0.11038311401E+04  0.17056043502E+04  0.25500000920E-02 0.  1.
       -2    1    3    3    0  502  0.74079421559E+02  0.12981352984E+04  0.69391729403E+03  0.14738263889E+04  0.25500000920E-02 0. -1.
</event>
<event>
 5   0  0.7363513E-06  0.2814908E+04  0.7818609E-02  0.8298655E-01
        2   -1    0    0  501    0  0.00000000000E+00  0.00000000000E+00  0.25733194562E+04  0.25733194562E+04  0.25500000920E-02 0. -1.
       -2   -1    0    0    0  501  0.00000000000E+00  0.00000000000E+00 -0.76979417928E+03  0.76979417929E+03  0.25500000920E-02 0.  1.
    10030    2    1    2    0    0  0.00000000000E+00  0.00000000000E+00  0.18035252769E+04  0.33431136355E+04  0.28149076992E+04 0.  0.
        4    1    3    3  502    0 -0.95841509921E+03 -0.84227530696E+03  0.16073258063E+04  0.20521903069E+04  0.12699999809E+01 0. -1.
       -4    1    3    3    0  502  0.95841509921E+03  0.84227530696E+03  0.19619947057E+03  0.12909233286E+04  0.12699999809E+01 0.  1.
</event>
<event>
 5   0  0.7079223E-06  0.3220190E+04  0.7818609E-02  0.8183505E-01
        2   -1    0    0  501    0  0.00000000000E+00  0.00000000000E+00  0.18150857669E+04  0.18150857669E+04  0.25500000920E-02 0. -1.
       -2   -1    0    0    0  501  0.00000000000E+00  0.00000000000E+00 -0.14282554544E+04  0.14282554544E+04  0.25500000920E-02 0.  1.
    10030    2    1    2    0    0  0.00000000000E+00  0.00000000000E+00  0.38683031247E+03  0.32433412213E+04  0.32201901477E+04 0.  0.
        5    1    3    3  502    0  0.43650462890E+03  0.23831128567E+02 -0.13673318570E+04  0.14355217556E+04  0.46999998093E+01 0.  1.
       -5    1    3    3    0  502 -0.43650462890E+03 -0.23831128567E+02  0.17541621695E+04  0.18078194657E+04  0.46999998093E+01 0. -1.
</event>
<event>
 5   0  0.2517725E-06  0.3247843E+04  0.7818609E-02  0.8176295E-01
       -1   -1    0    0    0  501  0.00000000000E+00  0.00000000000E+00  0.15403765895E+04  0.15403765895E+04  0.50400001928E-02 0.  1.
        1   -1    0    0  501    0  0.00000000000E+00  0.00000000000E+00 -0.17119980589E+04  0.17119980589E+04  0.50400001928E-02 0. -1.
    10030    2    1    2    0    0  0.00000000000E+00  0.00000000000E+00 -0.17162146938E+03  0.32523746483E+04  0.32478434267E+04 0.  0.
        3    1    3    3  502    0  0.41410959503E+03 -0.10341708115E+04  0.10974153712E+04  0.15637507894E+04  0.10100000352E+00 0. -1.
       -3    1    3    3    0  502 -0.41410959503E+03  0.10341708115E+04 -0.12690368406E+04  0.16886238590E+04  0.10100000352E+00 0.  1.
</event>
<event>
 5   0  0.7079223E-06  0.3085837E+04  0.7818609E-02  0.8219635E-01
       -2   -1    0    0    0  501  0.00000000000E+00  0.00000000000E+00  0.13547362230E+04  0.13547362230E+04  0.25500000920E-02 0. -1.
        2   -1    0    0  501    0  0.00000000000E+00  0.00000000000E+00 -0.17572409791E+04  0.17572409791E+04  0.25500000920E-02 0.  1.
    10030    2    1    2    0    0  0.00000000000E+00  0.00000000000E+00 -0.40250475612E+03  0.31119772022E+04  0.30858373301E+04 0.  0.
        5    1    3    3  502    0  0.10624890705E+04 -0.11174633852E+04 -0.25619761674E+03  0.15630952469E+04  0.46999998093E+01 0.  1.
       -5    1    3    3    0  502 -0.10624890705E+04  0.11174633852E+04 -0.14630713938E+03  0.15488819552E+04  0.46999998093E+01 0. -1.
</event>
<event>
 5   0  0.2674441E-06  0.3232091E+04  0.7818609E-02  0.8180393E-01
       -1   -1    0    0    0  501  0.00000000000E+00  0.00000000000E+00  0.10653369093E+04  0.10653369093E+04  0.50400001928E-02 0.  1.
        1   -1    0    0  501    0  0.00000000000E+00  0.00000000000E+00 -0.24514345599E+04  0.24514345600E+04  0.50400001928E-02 0. -1.
    10030    2    1    2    0    0  0.00000000000E+00  0.00000000000E+00 -0.13860976506E+04  0.35167714693E+04  0.32320914080E+04 0.  0.
        5    1    3    3  502    0  0.85505525849E+03  0.11097997336E+04  0.18338306229E+03  0.14129495324E+04  0.46999998093E+01 0.  1.
       -5    1    3    3    0  502 -0.85505525849E+03 -0.11097997336E+04 -0.15694807129E+04  0.21038219368E+04  0.46999998093E+01 0. -1.
</event>
<event>
 5   0  0.7079223E-06  0.3124715E+04  0.7818609E-02  0.8208988E-01
        2   -1    0    0  501    0  0.00000000000E+00  0.00000000000E+00  0.26824739396E+04  0.26824739396E+04  0.25500000920E-02 0.  1.
       -2   -1    0    0    0  501  0.00000000000E+00  0.00000000000E+00 -0.90996619626E+03  0.90996619626E+03  0.25500000920E-02 0. -1.
    10030    2    1    2    0    0  0.00000000000E+00  0.00000000000E+00  0.17725077434E+04  0.35924401359E+04  0.31247147757E+04 0.  0.
        5    1    3    3  502    0  0.14618304942E+04  0.20823602304E+03  0.14731883154E+04  0.20858131598E+04  0.46999998093E+01 0.  1.
       -5    1    3    3    0  502 -0.14618304942E+04 -0.20823602304E+03  0.29931942793E+03  0.15066269761E+04  0.46999998093E+01 0. -1.
</event>
<event>
 5   0  0.7414808E-06  0.3105895E+04  0.7818609E-02  0.8214122E-01
        2   -1    0    0  501    0  0.00000000000E+00  0.00000000000E+00  0.17057913601E+04  0.17057913601E+04  0.25500000920E-02 0.  1.
       -2   -1    0    0    0  501  0.00000000000E+00  0.00000000000E+00 -0.14137992502E+04  0.14137992502E+04  0.25500000920E-02 0. -1.
    10030    2    1    2    0    0  0.00000000000E+00  0.00000000000E+00  0.29199210990E+03  0.31195906103E+04  0.31058953916E+04 0.  0.
        2    1    3    3  502    0  0.94506160893E+03 -0.96341497921E+03 -0.62572555924E+03  0.14875625507E+04  0.25500000920E-02 0. -1.
       -2    1    3    3    0  502 -0.94506160893E+03  0.96341497921E+03  0.91771766914E+03  0.16320280595E+04  0.25500000920E-02 0.  1.
</event>
<event>
 5   0  0.2624011E-06  0.3167377E+04  0.7818609E-02  0.8197486E-01
        1   -1    0    0  501    0  0.00000000000E+00  0.00000000000E+00  0.15897835376E+04  0.15897835376E+04  0.50400001928E-02 0. -1.
       -1   -1    0    0    0  501  0.00000000000E+00  0.00000000000E+00 -0.15776170051E+04  0.15776170051E+04  0.50400001928E-02 0.  1.
    10030    2    1    2    0    0  0.00000000000E+00  0.00000000000E+00  0.12166532511E+02  0.31674005427E+04  0.31673771758E+04 0.  0.
        1    1    3    3  502    0  0.10786621647E+04 -0.10880396162E+04  0.40699428244E+03  0.15852402398E+04  0.50400001928E-02 0. -1.
       -1    1    3    3    0  502 -0.10786621647E+04  0.10880396162E+04 -0.39482774992E+03  0.15821603029E+04  0.50400001928E-02 0.  1.
</event>
<event>
 5   0  0.2517725E-06  0.2989165E+04  0.7818609E-02  0.8246832E-01
       -1   -1    0    0    0  501  0.00000000000E+00  0.00000000000E+00  0.12819591768E+04  0.12819591768E+04  0.50400001928E-02 0. -1.
        1   -1    0    0  501    0  0.00000000000E+00  0.00000000000E+00 -0.17424712049E+04  0.17424712050E+04  0.50400001928E-02 0.  1.
    10030    2    1    2    0    0  0.00000000000E+00  0.00000000000E+00 -0.46051202812E+03  0.30244303818E+04  0.29891650684E+04 0.  0.
        3    1    3    3  502    0  0.14674715869E+04 -0.49564507369E+01  0.56423109280E+02  0.14685642656E+04  0.10100000352E+00 0. -1.
       -3    1    3    3    0  502 -0.14674715869E+04  0.49564507369E+01 -0.51693513740E+03  0.15558661161E+04  0.10100000352E+00 0.  1.
</event>
<event>
 5   0  0.7363513E-06  0.1916173E+04  0.7818609E-02  0.8646848E-01
        2   -1    0    0  501    0  0.00000000000E+00  0.00000000000E+00  0.22140065005E+04  0.22140065005E+04  0.25500000920E-02 0.  1.
       -2   -1    0    0    0  501  0.00000000000E+00  0.00000000000E+00 -0.41460131064E+03  0.41460131065E+03  0.25500000920E-02 0. -1.
    10030    2    1    2    0    0  0.00000000000E+00  0.00000000000E+00  0.17994051898E+04  0.26286078111E+04  0.19161732666E+04 0.  0.
        4    1    3    3  502    0 -0.41771314225E+02  0.12383415563E+03  0.22017204252E+04  0.22055961064E+04  0.12699999809E+01 0.  1.
       -4    1    3    3    0  502  0.41771314225E+02 -0.12383415563E+03 -0.40231523540E+03  0.42301170472E+03  0.12699999809E+01 0. -1.
</event>
<event>
 5   0  0.7363513E-06  0.3111480E+04  0.7818609E-02  0.8212594E-01
        2   -1    0    0  501    0  0.00000000000E+00  0.00000000000E+00  0.14091633033E+04  0.14091633033E+04  0.25500000920E-02 0. -1.
       -2   -1    0    0    0  501  0.00000000000E+00  0.00000000000E+00 -0.17175629537E+04  0.17175629537E+04  0.25500000920E-02 0.  1.
    10030    2    1    2    0    0  0.00000000000E+00  0.00000000000E+00 -0.30839965033E+03  0.31267262570E+04  0.31114798315E+04 0.  0.
        4    1    3    3  502    0 -0.12750389439E+04 -0.62095052960E+03  0.48848164977E+03  0.14999732677E+04  0.12699999809E+01 0. -1.
       -4    1    3    3    0  502  0.12750389439E+04  0.62095052960E+03 -0.79688130010E+03  0.16267529893E+04  0.12699999809E+01 0.  1.
</event>
<event>
 5   0  0.7071012E-06  0.3109460E+04  0.7818609E-02  0.8213146E-01
       -2   -1    0    0    0  501  0.00000000000E+00  0.00000000000E+00  0.15838114286E+04  0.15838114286E+04  0.25500000920E-02 0.  1.
        2   -1    0    0  501    0  0.00000000000E+00  0.00000000000E+00 -0.15261829598E+04  0.15261829598E+04  0.25500000920E-02 0. -1.
    10030    2    1    2    0    0  0.00000000000E+00  0.00000000000E+00  0.57628468813E+02  0.31099943884E+04  0.31094604122E+04 0.  0.
        1    1    3    3  502    0 -0.47571072522E+03  0.14793699547E+04 -0.19669411149E+02  0.15540987880E+04  0.50400001928E-02 0. -1.
       -1    1    3    3    0  502  0.47571072522E+03 -0.14793699547E+04  0.77297879962E+02  0.15558956004E+04  0.50400001928E-02 0.  1.
</event>
<event>
 5   0  0.7079223E-06  0.2781482E+04  0.7818609E-02  0.8309041E-01
        2   -1    0    0  501    0  0.00000000000E+00  0.00000000000E+00  0.23679471690E+04  0.23679471690E+04  0.25500000920E-02 0.  1.
       -2   -1    0    0    0  501  0.00000000000E+00  0.00000000000E+00 -0.81680902497E+03  0.81680902497E+03  0.25500000920E-02 0. -1.
    10030    2    1    2    0    0  0.00000000000E+00  0.00000000000E+00  0.15511381441E+04  0.31847561940E+04  0.27814820642E+04 0.  0.
        5    1    3    3  502    0 -0.75768044934E+02  0.11387877541E+04 -0.13435949109E+03  0.11491966361E+04  0.46999998093E+01 0. -1.
       -5    1    3    3    0  502  0.75768044934E+02 -0.11387877541E+04  0.16854976352E+04  0.20355595579E+04  0.46999998093E+01 0.  1.
</event>
<event>
 5   0  0.2517725E-06  0.3135585E+04  0.7818609E-02  0.8206039E-01
       -1   -1    0    0    0  501  0.00000000000E+00  0.00000000000E+00  0.26776369772E+04  0.26776369772E+04  0.50400001928E-02 0.  1.
        1   -1    0    0  501    0  0.00000000000E+00  0.00000000000E+00 -0.91796384651E+03  0.91796384652E+03  0.50400001928E-02 0. -1.
    10030    2    1    2    0    0  0.00000000000E+00  0.00000000000E+00  0.17596731307E+04  0.35956008238E+04  0.31355853930E+04 0.  0.
        3    1    3    3  502    0  0.12081765623E+04  0.76736394401E+03  0.16135826534E+04  0.21568929083E+04  0.10100000352E+00 0. -1.
       -3    1    3    3    0  502 -0.12081765623E+04 -0.76736394401E+03  0.14609047737E+03  0.14387079155E+04  0.10100000352E+00 0.  1.
</event>
<event>
 5   0  0.2624011E-06  0.3106476E+04  0.7818609E-02  0.8213963E-01
        1   -1    0    0  501    0  0.00000000000E+00  0.00000000000E+00  0.16137926609E+04  0.16137926609E+04  0.50400001928E-02 0.  1.
       -1   -1    0    0    0  501  0.00000000000E+00  0.00000000000E+00 -0.14949552094E+04  0.14949552094E+04  0.50400001928E-02 0. -1.
    10030    2    1    2    0    0  0.00000000000E+00  0.00000000000E+00  0.11883745152E+03  0.31087478704E+04  0.31064756528E+04 0.  0.
        1    1    3    3  502    0 -0.27141438887E+02 -0.38043437784E+03 -0.14473654249E+04  0.14967744141E+04  0.50400001928E-02 0. -1.
       -1    1    3    3    0  502  0.27141438887E+02  0.38043437784E+03  0.15662028764E+04  0.16119734563E+04  0.50400001928E-02 0.  1.
</event>
<event>
 5   0  0.7414808E-06  0.2992362E+04  0.7818609E-02  0.8245915E-01
       -2   -1    0    0    0  501  0.00000000000E+00  0.00000000000E+00  0.25811097303E+04  0.25811097303E+04  0.25500000920E-02 0.  1.
        2   -1    0    0  501    0  0.00000000000E+00  0.00000000000E+00 -0.86728464755E+03  0.86728464755E+03  0.25500000920E-02 0. -1.
    10030    2    1    2    0    0  0.00000000000E+00  0.00000000000E+00  0.17138250828E+04  0.34483943779E+04  0.29923615041E+04 0.  0.
        2    1    3    3  502    0 -0.11854523221E+04  0.86506972228E+03  0.11927217069E+04  0.18910917224E+04  0.25500000920E-02 0.  1.
       -2    1    3    3    0  502  0.11854523221E+04 -0.86506972228E+03  0.52110337587E+03  0.15573026555E+04  0.25500000920E-02 0. -1.
</event>
<event>
 5   0  0.2674441E-06  0.3103965E+04  0.7818609E-02  0.8214651E-01
        1   -1    0    0  501    0  0.00000000000E+00  0.00000000000E+00  0.13768139338E+04  0.13768139338E+04  0.50400001928E-02 0.  1.
       -1   -1    0    0    0  501  0.00000000000E+00  0.00000000000E+00 -0.17494368968E+04  0.17494368968E+04  0.50400001928E-02 0. -1.
    10030    2    1    2    0    0  0.00000000000E+00  0.00000000000E+00 -0.37262296301E+03  0.31262508306E+04  0.31039646234E+04 0.  0.
        5    1    3    3  502    0  0.27306360258E+03  0.14100193662E+04 -0.77867427953E+03  0.16337301086E+04  0.46999998093E+01 0. -1.
       -5    1    3    3    0  502 -0.27306360258E+03 -0.14100193662E+04  0.40605131652E+03  0.14925207220E+04  0.46999998093E+01 0.  1.
</event>
<event>
 5   0  0.2624011E-06  0.3042409E+04  0.7818609E-02  0.8231723E-01
       -1   -1    0    0    0  501  0.00000000000E+00  0.00000000000E+00  0.20636655841E+04  0.20636655841E+04  0.50400001928E-02 0. -1.
        1   -1    0    0  501    0  0.00000000000E+00  0.00000000000E+00 -0.11213362974E+04  0.11213362974E+04  0.50400001928E-02 0.  1.
    10030    2    1    2    0    0  0.00000000000E+00  0.00000000000E+00  0.94232928668E+03  0.31850018815E+04  0.30424089962E+04 0.  0.
        1    1    3    3  502    0 -0.82682989868E+03  0.10762174520E+04 -0.24818818210E+03  0.13796699095E+04  0.50400001928E-02 0.  1.
       -1    1    3    3    0  502  0.82682989868E+03 -0.10762174520E+04  0.11905174688E+04  0.18053319720E+04  0.50400001928E-02 0. -1.
</event>
<event>
 5   0  0.2598987E-06  0.3646482E+04  0.7818609E-02  0.8079927E-01
        1   -1    0    0  501    0  0.00000000000E+00  0.00000000000E+00  0.10321161773E+04  0.10321161773E+04  0.50400001928E-02 0.  1.
       -1   -1    0    0    0  501  0.00000000000E+00  0.00000000000E+00 -0.32207692983E+04  0.32207692983E+04  0.50400001928E-02 0. -1.
    10030    2    1    2    0    0  0.00000000000E+00  0.00000000000E+00 -0.21886531210E+04  0.42528854757E+04  0.36464821932E+04 0.  0.
        2    1    3    3  502    0 -0.12187452658E+04 -0.10309494150E+04 -0.21217361975E+04  0.26551763051E+04  0.25500000920E-02 0. -1.
       -2    1    3    3    0  502  0.12187452658E+04  0.10309494150E+04 -0.66916923498E+02  0.15977091706E+04  0.25500000920E-02 0.  1.
</event>
<event>
 5   0  0.7414808E-06  0.3054109E+04  0.7818609E-02  0.8228446E-01
        2   -1    0    0  501    0  0.00000000000E+00  0.00000000000E+00  0.24290878763E+04  0.24290878763E+04  0.25500000920E-02 0. -1.
       -2   -1    0    0    0  501  0.00000000000E+00  0.00000000000E+00 -0.95998804276E+03  0.95998804277E+03  0.25500000920E-02 0.  1.
    10030    2    1    2    0    0  0.00000000000E+00  0.00000000000E+00  0.14690998335E+04  0.33890759190E+04  0.30541089149E+04 0.  0.
        2    1    3    3  502    0  0.79428634664E+03 -0.17840973438E+03  0.21682147924E+04  0.23160043652E+04  0.25500000920E-02 0. -1.
       -2    1    3    3    0  502 -0.79428634664E+03  0.17840973438E+03 -0.69911495891E+03  0.10730715538E+04  0.25500000920E-02 0.  1.
</event>
<event>
 5   0  0.7094341E-06  0.3114937E+04  0.7818609E-02  0.8211651E-01
        2   -1    0    0  501    0  0.00000000000E+00  0.00000000000E+00  0.15230289987E+04  0.15230289987E+04  0.25500000920E-02 0. -1.
       -2   -1    0    0    0  501  0.00000000000E+00  0.00000000000E+00 -0.15926865495E+04  0.15926865495E+04  0.25500000920E-02 0.  1.
    10030    2    1    2    0    0  0.00000000000E+00  0.00000000000E+00 -0.69657550787E+02  0.31157155483E+04  0.31149367896E+04 0.  0.
        3    1    3    3  502    0 -0.34290847413E+03  0.12773492560E+04  0.78787332761E+03  0.15394647557E+04  0.10100000352E+00 0. -1.
       -3    1    3    3    0  502  0.34290847413E+03 -0.12773492560E+04 -0.85753087840E+03  0.15762507926E+04  0.10100000352E+00 0.  1.
</event>
<event>
 5   0  0.2674441E-06  0.3077466E+04  0.7818609E-02  0.8221950E-01
        1   -1    0    0  501    0  0.00000000000E+00  0.00000000000E+00  0.18135985559E+04  0.18135985559E+04  0.50400001928E-02 0.  1.
       -1   -1    0    0    0  501  0.00000000000E+00  0.00000000000E+00 -0.13055254685E+04  0.13055254685E+04  0.50400001928E-02 0. -1.
    10030    2    1    2    0    0  0.00000000000E+00  0.00000000000E+00  0.50807308745E+03  0.31191240244E+04  0.30774659084E+04 0.  0.
        5    1    3    3  502    0 -0.70397847788E+03 -0.83304749122E+03 -0.84606999574E+03  0.13803660194E+04  0.46999998093E+01 0. -1.
       -5    1    3    3    0  502  0.70397847788E+03  0.83304749122E+03  0.13541430832E+04  0.17387580049E+04  0.46999998093E+01 0.  1.
</event>
<event>
 5   0  0.2624011E-06  0.3116301E+04  0.7818609E-02  0.8211279E-01
        1   -1    0    0  501    0  0.00000000000E+00  0.00000000000E+00  0.13839441523E+04  0.13839441523E+04  0.50400001928E-02 0. -1.
       -1   -1    0    0    0  501  0.00000000000E+00  0.00000000000E+00 -0.17542850933E+04  0.17542850933E+04  0.50400001928E-02 0.  1.
    10030    2    1    2    0    0  0.00000000000E+00  0.00000000000E+00 -0.37034094099E+03  0.31382292457E+04  0.31163007534E+04 0.  0.
        1    1    3    3  502    0  0.86308994775E+03  0.12183458420E+04 -0.63388612487E+03  0.16220673438E+04  0.50400001928E-02 0.  1.
       -1    1    3    3    0  502 -0.86308994775E+03 -0.12183458420E+04  0.26354518388E+03  0.15161619018E+04  0.50400001928E-02 0. -1.
</event>
<event>
 5   0  0.2517725E-06  0.3160153E+04  0.7818609E-02  0.8199421E-01
        1   -1    0    0  501    0  0.00000000000E+00  0.00000000000E+00  0.11678847150E+04  0.11678847150E+04  0.50400001928E-02 0.  1.
       -1   -1    0    0    0  501  0.00000000000E+00  0.00000000000E+00 -0.21377471897E+04  0.21377471897E+04  0.50400001928E-02 0. -1.
    10030    2    1    2    0    0  0.00000000000E+00  0.00000000000E+00 -0.96986247470E+03  0.33056319047E+04  0.31601533301E+04 0.  0.
        3    1    3    3  502    0 -0.98327945562E+02 -0.15229677434E+04 -0.56767737160E+02  0.15271940671E+04  0.10100000352E+00 0.  1.
       -3    1    3    3    0  502  0.98327945562E+02  0.15229677434E+04 -0.91309473754E+03  0.17784378376E+04  0.10100000352E+00 0. -1.
</event>
<event>
 5   0  0.7079223E-06  0.3115064E+04  0.7818609E-02  0.8211616E-01
        2   -1    0    0  501    0  0.00000000000E+00  0.00000000000E+00  0.15592588795E+04  0.15592588795E+04  0.25500000920E-02 0.  1.
       -2   -1    0    0    0  501  0.00000000000E+00  0.00000000000E+00 -0.15558070120E+04  0.15558070120E+04  0.25500000920E-02 0. -1.
    10030    2    1    2    0    0  0.00000000000E+00  0.00000000000E+00  0.34518675220E+01  0.31150658915E+04  0.31150639789E+04 0.  0.
        5    1    3    3  502    0 -0.70118422337E+02 -0.14654892599E+04 -0.52106348811E+03  0.15569536322E+04  0.46999998093E+01 0.  1.
       -5    1    3    3    0  502  0.70118422337E+02  0.14654892599E+04  0.52451535563E+03  0.15581122593E+04  0.46999998093E+01 0. -1.
</event>
<event>
 5   0  0.2393250E-06  0.3123915E+04  0.7818609E-02  0.8209205E-01
       -3   -1    0    0    0  501  0.00000000000E+00  0.00000000000E+00  0.17248647946E+04  0.17248647976E+04  0.10100000352E+00 0. -1.
        3   -1    0    0  501    0  0.00000000000E+00  0.00000000000E+00 -0.14144365811E+04  0.14144365847E+04  0.10100000352E+00 0.  1.
    10030    2    1    2    0    0  0.00000000000E+00  0.00000000000E+00  0.31042821353E+03  0.31393013823E+04  0.31239154107E+04 0.  0.
        2    1    3    3  502    0 -0.90372425745E+03  0.11385944849E+04  0.72951540836E+03  0.16264401820E+04  0.25500000920E-02 0. -1.
       -2    1    3    3    0  502  0.90372425745E+03 -0.11385944849E+04 -0.41908719483E+03  0.15128612003E+04  0.25500000920E-02 0.  1.
</event>
<event>
 5   0  0.7414808E-06  0.3139765E+04  0.7818609E-02  0.8204909E-01
        2   -1    0    0  501    0  0.00000000000E+00  0.00000000000E+00  0.13942122534E+04  0.13942122534E+04  0.25500000920E-02 0. -1.
       -2   -1    0    0    0  501  0.00000000000E+00  0.00000000000E+00 -0.17676875587E+04  0.17676875587E+04  0.25500000920E-02 0.  1.
    10030    2    1    2    0    0  0.00000000000E+00  0.00000000000E+00 -0.37347530529E+03  0.31618998122E+04  0.31397653763E+04 0.  0.
        2    1    3    3  502    0  0.27362460714E+03 -0.12784110631E+04  0.68848436796E+03  0.14775709786E+04  0.25500000920E-02 0.  1.
       -2    1    3    3    0  502 -0.27362460714E+03  0.12784110631E+04 -0.10619596732E+04  0.16843288335E+04  0.25500000920E-02 0. -1.
</event>
<event>
 5   0  0.7414808E-06  0.3098336E+04  0.7818609E-02  0.8216195E-01
        2   -1    0    0  501    0  0.00000000000E+00  0.00000000000E+00  0.14226130537E+04  0.14226130537E+04  0.25500000920E-02 0. -1.
       -2   -1    0    0    0  501  0.00000000000E+00  0.00000000000E+00 -0.16869810091E+04  0.16869810091E+04  0.25500000920E-02 0.  1.
    10030    2    1    2    0    0  0.00000000000E+00  0.00000000000E+00 -0.26436795534E+03  0.31095940628E+04  0.30983358145E+04 0.  0.
        2    1    3    3  502    0  0.61165238007E+03 -0.10673995083E+04 -0.10771256322E+04  0.16351330135E+04  0.25500000920E-02 0.  1.
       -2    1    3    3    0  502 -0.61165238007E+03  0.10673995083E+04  0.81275767685E+03  0.14744610492E+04  0.25500000920E-02 0. -1.
</event>
<event>
 5   0  0.7079223E-06  0.3096585E+04  0.7818609E-02  0.8216676E-01
       -2   -1    0    0    0  501  0.00000000000E+00  0.00000000000E+00  0.13584894169E+04  0.13584894169E+04  0.25500000920E-02 0. -1.
        2   -1    0    0  501    0  0.00000000000E+00  0.00000000000E+00 -0.17646145338E+04  0.17646145338E+04  0.25500000920E-02 0.  1.
    10030    2    1    2    0    0  0.00000000000E+00  0.00000000000E+00 -0.40612511691E+03  0.31231039507E+04  0.30965853252E+04 0.  0.
        5    1    3    3  502    0  0.83608472509E+02  0.60167663107E+03 -0.16394015507E+04  0.17483319706E+04  0.46999998093E+01 0.  1.
       -5    1    3    3    0  502 -0.83608472509E+02 -0.60167663107E+03  0.12332764338E+04  0.13747719801E+04  0.46999998093E+01 0. -1.
</event>
<event>
 5   0  0.7071012E-06  0.3225602E+04  0.7818609E-02  0.8182088E-01
        2   -1    0    0  501    0  0.00000000000E+00  0.00000000000E+00  0.18432701145E+04  0.18432701145E+04  0.25500000920E-02 0.  1.
       -2   -1    0    0    0  501  0.00000000000E+00  0.00000000000E+00 -0.14111479737E+04  0.14111479737E+04  0.25500000920E-02 0. -1.
    10030    2    1    2    0    0  0.00000000000E+00  0.00000000000E+00  0.43212214081E+03  0.32544180882E+04  0.32256018893E+04 0.  0.
        1    1    3    3  502    0 -0.68513454840E+03  0.11797885533E+03  0.16843276084E+04  0.18221657038E+04  0.50400001928E-02 0.  1.
       -1    1    3    3    0  502  0.68513454840E+03 -0.11797885533E+03 -0.12522054676E+04  0.14322523844E+04  0.50400001928E-02 0. -1.
</event>
<event>
 5   0  0.7414808E-06  0.3273463E+04  0.7818609E-02  0.8169681E-01
       -2   -1    0    0    0  501  0.00000000000E+00  0.00000000000E+00  0.10225588451E+04  0.10225588452E+04  0.25500000920E-02 0. -1.
        2   -1    0    0  501    0  0.00000000000E+00  0.00000000000E+00 -0.26197900456E+04  0.26197900456E+04  0.25500000920E-02 0.  1.
    10030    2    1    2    0    0  0.00000000000E+00  0.00000000000E+00 -0.15972312005E+04  0.36423488908E+04  0.32734626826E+04 0.  0.
        2    1    3    3  502    0  0.13691873934E+04  0.95619608391E+02 -0.17907658556E+04  0.22562490061E+04  0.25500000920E-02 0.  1.
       -2    1    3    3    0  502 -0.13691873934E+04 -0.95619608391E+02  0.19353465513E+03  0.13860998847E+04  0.25500000920E-02 0. -1.
</event>
<event>
 5   0  0.7071012E-06  0.2984367E+04  0.7818609E-02  0.8248209E-01
        2   -1    0    0  501    0  0.00000000000E+00  0.00000000000E+00  0.20316325223E+04  0.20316325223E+04  0.25500000920E-02 0.  1.
       -2   -1    0    0    0  501  0.00000000000E+00  0.00000000000E+00 -0.10959717350E+04  0.10959717350E+04  0.25500000920E-02 0. -1.
    10030    2    1    2    0    0  0.00000000000E+00  0.00000000000E+00  0.93566078729E+03  0.31276042573E+04  0.29843671492E+04 0.  0.
        1    1    3    3  502    0 -0.82518617243E+02  0.45546968667E+03  0.19544891358E+04  0.20085541416E+04  0.50400001928E-02 0.  1.
       -1    1    3    3    0  502  0.82518617243E+02 -0.45546968667E+03 -0.10188283485E+04  0.11190501157E+04  0.50400001928E-02 0. -1.
</event>
<event>
 5   0  0.2612331E-06  0.3033455E+04  0.7818609E-02  0.8234242E-01
        1   -1    0    0  501    0  0.00000000000E+00  0.00000000000E+00  0.19213957987E+04  0.19213957987E+04  0.50400001928E-02 0. -1.
       -1   -1    0    0    0  501  0.00000000000E+00  0.00000000000E+00 -0.11972869919E+04  0.11972869919E+04  0.50400001928E-02 0.  1.
    10030    2    1    2    0    0  0.00000000000E+00  0.00000000000E+00  0.72410880678E+03  0.31186827907E+04  0.30334549254E+04 0.  0.
        4    1    3    3  502    0 -0.51911175733E+03  0.89731314141E+03  0.15003255170E+04  0.18236299406E+04  0.12699999809E+01 0. -1.
       -4    1    3    3    0  502  0.51911175733E+03 -0.89731314141E+03 -0.77621671023E+03  0.12950528501E+04  0.12699999809E+01 0.  1.
</event>
<event>
 5   0  0.2612331E-06  0.2875447E+04  0.7818609E-02  0.8280220E-01
        1   -1    0    0  501    0  0.00000000000E+00  0.00000000000E+00  0.19881092766E+04  0.19881092766E+04  0.50400001928E-02 0. -1.
       -1   -1    0    0    0  501  0.00000000000E+00  0.00000000000E+00 -0.10397059240E+04  0.10397059240E+04  0.50400001928E-02 0.  1.
    10030    2    1    2    0    0  0.00000000000E+00  0.00000000000E+00  0.94840335253E+03  0.30278152006E+04  0.28754470904E+04 0.  0.
        4    1    3    3  502    0  0.75826765304E+03  0.95585561797E+03 -0.32663642549E+03  0.12630608708E+04  0.12699999809E+01 0.  1.
       -4    1    3    3    0  502 -0.75826765304E+03 -0.95585561797E+03  0.12750397780E+04  0.17647543298E+04  0.12699999809E+01 0. -1.
</event>
<event>
 5   0  0.2612331E-06  0.3098181E+04  0.7818609E-02  0.8216237E-01
       -1   -1    0    0    0  501  0.00000000000E+00  0.00000000000E+00  0.21490396527E+04  0.21490396527E+04  0.50400001928E-02 0. -1.
        1   -1    0    0  501    0  0.00000000000E+00  0.00000000000E+00 -0.11166297942E+04  0.11166297942E+04  0.50400001928E-02 0.  1.
    10030    2    1    2    0    0  0.00000000000E+00  0.00000000000E+00  0.10324098585E+04  0.32656694469E+04  0.30981812117E+04 0.  0.
        4    1    3    3  502    0 -0.69347773492E+03  0.95860526755E+03  0.15701832399E+04  0.19660397879E+04  0.12699999809E+01 0. -1.
       -4    1    3    3    0  502  0.69347773492E+03 -0.95860526755E+03 -0.53777338144E+03  0.12996296590E+04  0.12699999809E+01 0.  1.
</event>
<event>
 5   0  0.7363513E-06  0.3113591E+04  0.7818609E-02  0.8212018E-01
        2   -1    0    0  501    0  0.00000000000E+00  0.00000000000E+00  0.24687159866E+04  0.24687159866E+04  0.25500000920E-02 0. -1.
       -2   -1    0    0    0  501  0.00000000000E+00  0.00000000000E+00 -0.98172961346E+03  0.98172961346E+03  0.25500000920E-02 0.  1.
    10030    2    1    2    0    0  0.00000000000E+00  0.00000000000E+00  0.14869863731E+04  0.34504456001E+04  0.31135905905E+04 0.  0.
        4    1    3    3  502    0  0.18502132853E+03  0.58931967282E+01 -0.96948909014E+03  0.98700472673E+03  0.12699999809E+01 0.  1.
       -4    1    3    3    0  502 -0.18502132853E+03 -0.58931967282E+01  0.24564754633E+04  0.24634408733E+04  0.12699999809E+01 0. -1.
</event>
<event>
 5   0  0.2674441E-06  0.3097611E+04  0.7818609E-02  0.8216394E-01
       -1   -1    0    0    0  501  0.00000000000E+00  0.00000000000E+00  0.24499016636E+04  0.24499016636E+04  0.50400001928E-02 0. -1.
        1   -1    0    0  501    0  0.00000000000E+00  0.00000000000E+00 -0.97914043023E+03  0.97914043024E+03  0.50400001928E-02 0.  1.
    10030    2    1    2    0    0  0.00000000000E+00  0.00000000000E+00  0.14707612333E+04  0.34290420938E+04  0.30976105429E+04 0.  0.
        5    1    3    3  502    0  0.11876919385E+04 -0.23079948740E+02 -0.36474765902E+03  0.12426615668E+04  0.46999998093E+01 0.  1.
       -5    1    3    3    0  502 -0.11876919385E+04  0.23079948740E+02  0.18355088924E+04  0.21863805270E+04  0.46999998093E+01 0. -1.
</event>
<event>
 5   0  0.2598987E-06  0.3111523E+04  0.7818609E-02  0.8212583E-01
       -1   -1    0    0    0  501  0.00000000000E+00  0.00000000000E+00  0.32269900100E+04  0.32269900100E+04  0.50400001928E-02 0.  1.
        1   -1    0    0  501    0  0.00000000000E+00  0.00000000000E+00 -0.75004709227E+03  0.75004709229E+03  0.50400001928E-02 0. -1.
    10030    2    1    2    0    0  0.00000000000E+00  0.00000000000E+00  0.24769429177E+04  0.39770371023E+04  0.31115234042E+04 0.  0.
        2    1    3    3  502    0 -0.10072512874E+04 -0.21391044653E+03  0.27290987196E+04  0.29168977796E+04  0.25500000920E-02 0.  1.
       -2    1    3    3    0  502  0.10072512874E+04  0.21391044653E+03 -0.25215580194E+03  0.10601393227E+04  0.25500000920E-02 0. -1.
</event>
<event>
 5   0  0.2612331E-06  0.3076095E+04  0.7818609E-02  0.8222329E-01
        1   -1    0    0  501    0  0.00000000000E+00  0.00000000000E+00  0.13835855451E+04  0.13835855451E+04  0.50400001928E-02 0.  1.
       -1   -1    0    0    0  501  0.00000000000E+00  0.00000000000E+00 -0.17097529357E+04  0.17097529357E+04  0.50400001928E-02 0. -1.
    10030    2    1    2    0    0  0.00000000000E+00  0.00000000000E+00 -0.32616739068E+03  0.30933384808E+04  0.30760945678E+04 0.  0.
        4    1    3    3  502    0  0.79535220870E+03 -0.14556398048E+03 -0.14787811253E+04  0.16853988364E+04  0.12699999809E+01 0. -1.
       -4    1    3    3    0  502 -0.79535220870E+03  0.14556398048E+03  0.11526137346E+04  0.14079396444E+04  0.12699999809E+01 0.  1.
</event>
<event>
 5   0  0.2612331E-06  0.2719662E+04  0.7818609E-02  0.8328654E-01
       -1   -1    0    0    0  501  0.00000000000E+00  0.00000000000E+00  0.78899337714E+03  0.78899337715E+03  0.50400001928E-02 0. -1.
        1   -1    0    0  501    0  0.00000000000E+00  0.00000000000E+00 -0.23436695314E+04  0.23436695314E+04  0.50400001928E-02 0.  1.
    10030    2    1    2    0    0  0.00000000000E+00  0.00000000000E+00 -0.15546761542E+04  0.31326629085E+04  0.27196615514E+04 0.  0.
        4    1    3    3  502    0 -0.12531923889E+04  0.51562998529E+03 -0.90751674524E+03  0.16309364491E+04  0.12699999809E+01 0.  1.
       -4    1    3    3    0  502  0.12531923889E+04 -0.51562998529E+03 -0.64715940898E+03  0.15017264594E+04  0.12699999809E+01 0. -1.
</event>
<event>
 5   0  0.7094341E-06  0.3136617E+04  0.7818609E-02  0.8205760E-01
       -2   -1    0    0    0  501  0.00000000000E+00  0.00000000000E+00  0.10338276100E+04  0.10338276100E+04  0.25500000920E-02 0.  1.
        2   -1    0    0  501    0  0.00000000000E+00  0.00000000000E+00 -0.23791124979E+04  0.23791124979E+04  0.25500000920E-02 0. -1.
    10030    2    1    2    0    0  0.00000000000E+00  0.00000000000E+00 -0.13452848879E+04  0.34129401079E+04  0.31366174058E+04 0.  0.
        3    1    3    3  502    0  0.11314919062E+04  0.99201820011E+03 -0.19188369334E+03  0.15169684918E+04  0.10100000352E+00 0. -1.
       -3    1    3    3    0  502 -0.11314919062E+04 -0.99201820011E+03 -0.11534011945E+04  0.18959716161E+04  0.10100000352E+00 0.  1.
</event>
<event>
 5   0  0.2598987E-06  0.2786973E+04  0.7818609E-02  0.8307324E-01
        1   -1    0    0  501    0  0.00000000000E+00  0.00000000000E+00  0.15402385512E+04  0.15402385512E+04  0.50400001928E-02 0.  1.
       -1   -1    0    0    0  501  0.00000000000E+00  0.00000000000E+00 -0.12607168010E+04  0.12607168010E+04  0.50400001928E-02 0. -1.
    10030    2    1    2    0    0  0.00000000000E+00  0.00000000000E+00  0.27952175026E+03  0.28009553522E+04  0.27869729952E+04 0.  0.
        2    1    3    3  502    0  0.59063997057E+03 -0.68325680022E+02 -0.11268320196E+04  0.12740778524E+04  0.25500000920E-02 0. -1.
       -2    1    3    3    0  502 -0.59063997057E+03  0.68325680022E+02  0.14063537699E+04  0.15268774998E+04  0.25500000920E-02 0.  1.
</event>
<event>
 5   0  0.7094341E-06  0.3073687E+04  0.7818609E-02  0.8222996E-01
        2   -1    0    0  501    0  0.00000000000E+00  0.00000000000E+00  0.22472121461E+04  0.22472121461E+04  0.25500000920E-02 0. -1.
       -2   -1    0    0    0  501  0.00000000000E+00  0.00000000000E+00 -0.10510305899E+04  0.10510305899E+04  0.25500000920E-02 0.  1.
    10030    2    1    2    0    0  0.00000000000E+00  0.00000000000E+00  0.11961815562E+04  0.32982427360E+04  0.30736874972E+04 0.  0.
        3    1    3    3  502    0 -0.30030513308E+03  0.12194144232E+03 -0.10139383546E+04  0.10644829193E+04  0.10100000352E+00 0.  1.
       -3    1    3    3    0  502  0.30030513308E+03 -0.12194144232E+03  0.22101199108E+04  0.22337598167E+04  0.10100000352E+00 0. -1.
</event>
<event>
 5   0  0.2674441E-06  0.2375451E+04  0.7818609E-02  0.8448752E-01
       -1   -1    0    0    0  501  0.00000000000E+00  0.00000000000E+00  0.10821263350E+04  0.10821263350E+04  0.50400001928E-02 0. -1.
        1   -1    0    0  501    0  0.00000000000E+00  0.00000000000E+00 -0.13036298327E+04  0.13036298328E+04  0.50400001928E-02 0.  1.
    10030    2    1    2    0    0  0.00000000000E+00  0.00000000000E+00 -0.22150349779E+03  0.23857561677E+04  0.23754512608E+04 0.  0.
        5    1    3    3  502    0  0.62182654331E+03  0.95510708117E+03  0.22502221564E+03  0.11617034363E+04  0.46999998093E+01 0. -1.
       -5    1    3    3    0  502 -0.62182654331E+03 -0.95510708117E+03 -0.44652571343E+03  0.12240527314E+04  0.46999998093E+01 0.  1.
</event>
<event>
 5   0  0.7094341E-06  0.3231273E+04  0.7818609E-02  0.8180607E-01
        2   -1    0    0  501    0  0.00000000000E+00  0.00000000000E+00  0.23597331594E+04  0.23597331594E+04  0.25500000920E-02 0. -1.
       -2   -1    0    0    0  501  0.00000000000E+00  0.00000000000E+00 -0.11061765778E+04  0.11061765778E+04  0.25500000920E-02 0.  1.
    10030    2    1    2    0    0  0.00000000000E+00  0.00000000000E+00  0.12535565816E+04  0.34659097373E+04  0.32312731552E+04 0.  0.
        3    1    3    3  502    0  0.14523687822E+04 -0.46658301565E+03  0.11975932896E+04  0.19394082828E+04  0.10100000352E+00 0. -1.
       -3    1    3    3    0  502 -0.14523687822E+04  0.46658301565E+03  0.55963292033E+02  0.15265014544E+04  0.10100000352E+00 0.  1.
</event>
<event>
 5   0  0.2517725E-06  0.3099005E+04  0.7818609E-02  0.8216011E-01
       -1   -1    0    0    0  501  0.00000000000E+00  0.00000000000E+00  0.15831947950E+04  0.15831947950E+04  0.50400001928E-02 0.  1.
        1   -1    0    0  501    0  0.00000000000E+00  0.00000000000E+00 -0.15165268236E+04  0.15165268237E+04  0.50400001928E-02 0. -1.
    10030    2    1    2    0    0  0.00000000000E+00  0.00000000000E+00  0.66667971392E+02  0.30997216187E+04  0.30990045975E+04 0.  0.
        3    1    3    3  502    0 -0.11531170732E+04 -0.10102242173E+04 -0.19194114719E+03  0.15450156529E+04  0.10100000352E+00 0.  1.
       -3    1    3    3    0  502  0.11531170732E+04  0.10102242173E+04  0.25860911859E+03  0.15547059658E+04  0.10100000352E+00 0. -1.
</event>
<event>
 5   0  0.2674441E-06  0.2185036E+04  0.7818609E-02  0.8524683E-01
        1   -1    0    0  501    0  0.00000000000E+00  0.00000000000E+00  0.59885426164E+03  0.59885426166E+03  0.50400001928E-02 0. -1.
       -1   -1    0    0    0  501  0.00000000000E+00  0.00000000000E+00 -0.19931313223E+04  0.19931313223E+04  0.50400001928E-02 0.  1.
    10030    2    1    2    0    0  0.00000000000E+00  0.00000000000E+00 -0.13942770606E+04  0.25919855840E+04  0.21850356394E+04 0.  0.
        5    1    3    3  502    0  0.29119792106E+03  0.96484249056E+03 -0.11974127421E+04  0.15650995578E+04  0.46999998093E+01 0.  1.
       -5    1    3    3    0  502 -0.29119792106E+03 -0.96484249056E+03 -0.19686431852E+03  0.10268860262E+04  0.46999998093E+01 0. -1.
</event>
<event>
 5   0  0.7079223E-06  0.3079682E+04  0.7818609E-02  0.8221336E-01
        2   -1    0    0  501    0  0.00000000000E+00  0.00000000000E+00  0.16934025571E+04  0.16934025571E+04  0.25500000920E-02 0.  1.
       -2   -1    0    0    0  501  0.00000000000E+00  0.00000000000E+00 -0.14002051876E+04  0.14002051876E+04  0.25500000920E-02 0. -1.
    10030    2    1    2    0    0  0.00000000000E+00  0.00000000000E+00  0.29319736948E+03  0.30936077447E+04  0.30796824805E+04 0.  0.
        5    1    3    3  502    0 -0.43352525888E+03 -0.13352175457E+04  0.78218305001E+03  0.16070415235E+04  0.46999998093E+01 0.  1.
       -5    1    3    3    0  502  0.43352525888E+03  0.13352175457E+04 -0.48898568054E+03  0.14865662213E+04  0.46999998093E+01 0. -1.
</event>
<event>
 5   0  0.2624011E-06  0.3069519E+04  0.7818609E-02  0.8224153E-01
       -1   -1    0    0    0  501  0.00000000000E+00  0.00000000000E+00  0.12505844318E+04  0.12505844318E+04  0.50400001928E-02 0.  1.
        1   -1    0    0  501    0  0.00000000000E+00  0.00000000000E+00 -0.18835093659E+04  0.18835093660E+04  0.50400001928E-02 0. -1.
    10030    2    1    2    0    0  0.00000000000E+00  0.00000000000E+00 -0.63292493418E+03  0.31340937977E+04  0.30695195000E+04 0.  0.
        1    1    3    3  502    0  0.12169401393E+04  0.20844049160E+03 -0.12472860653E+04  0.17550251480E+04  0.50400001928E-02 0. -1.
       -1    1    3    3    0  502 -0.12169401393E+04 -0.20844049160E+03  0.61436113115E+03  0.13790686498E+04  0.50400001928E-02 0.  1.
</event>
<event>
 5   0  0.2598987E-06  0.2541075E+04  0.7818609E-02  0.8388497E-01
       -1   -1    0    0    0  501  0.00000000000E+00  0.00000000000E+00  0.64791096150E+03  0.64791096152E+03  0.50400001928E-02 0.  1.
        1   -1    0    0  501    0  0.00000000000E+00  0.00000000000E+00 -0.24914936734E+04  0.24914936734E+04  0.50400001928E-02 0. -1.
    10030    2    1    2    0    0  0.00000000000E+00  0.00000000000E+00 -0.18435827119E+04  0.31394046349E+04  0.25410754113E+04 0.  0.
        2    1    3    3  502    0  0.85076276483E+03  0.61050404431E+03 -0.18107699454E+04  0.20917457458E+04  0.25500000920E-02 0.  1.
       -2    1    3    3    0  502 -0.85076276483E+03 -0.61050404431E+03 -0.32812766481E+02  0.10476588890E+04  0.25500000920E-02 0. -1.
</event>
<event>
 5   0  0.7414808E-06  0.1915686E+04  0.7818609E-02  0.8647087E-01
       -2   -1    0    0    0  501  0.00000000000E+00  0.00000000000E+00  0.74008089149E+03  0.74008089149E+03  0.25500000920E-02 0. -1.
        2   -1    0    0  501    0  0.00000000000E+00  0.00000000000E+00 -0.12396801885E+04  0.12396801885E+04  0.25500000920E-02 0.  1.
    10030    2    1    2    0    0  0.00000000000E+00  0.00000000000E+00 -0.49959929705E+03  0.19797610800E+04  0.19156864243E+04 0.  0.
        2    1    3    3  502    0 -0.48079226497E+03  0.79898611083E+03 -0.23562910073E+02  0.93278894617E+03  0.25500000920E-02 0. -1.
       -2    1    3    3    0  502  0.48079226497E+03 -0.79898611083E+03 -0.47603638698E+03  0.10469721339E+04  0.25500000920E-02 0.  1.
</event>
<event>
 5   0  0.7414808E-06  0.2819981E+04  0.7818609E-02  0.8297092E-01
        2   -1    0    0  501    0  0.00000000000E+00  0.00000000000E+00  0.18764770341E+04  0.18764770341E+04  0.25500000920E-02 0. -1.
       -2   -1    0    0    0  501  0.00000000000E+00  0.00000000000E+00 -0.10594712532E+04  0.10594712532E+04  0.25500000920E-02 0.  1.
    10030    2    1    2    0    0  0.00000000000E+00  0.00000000000E+00  0.81700578085E+03  0.29359482873E+04  0.28199811878E+04 0.  0.
        2    1    3    3  502    0  0.92521024971E+03  0.61851933276E+03 -0.49283176421E+03  0.12171537779E+04  0.25500000920E-02 0.  1.
       -2    1    3    3    0  502 -0.92521024971E+03 -0.61851933276E+03  0.13098375451E+04  0.17187945094E+04  0.25500000920E-02 0. -1.
</event>
<event>
 5   0  0.7363513E-06  0.3079091E+04  0.7818609E-02  0.8221500E-01
       -2   -1    0    0    0  501  0.00000000000E+00  0.00000000000E+00  0.15431057671E+04  0.15431057671E+04  0.25500000920E-02 0.  1.
        2   -1    0    0  501    0  0.00000000000E+00  0.00000000000E+00 -0.15359930730E+04  0.15359930730E+04  0.25500000920E-02 0. -1.
    10030    2    1    2    0    0  0.00000000000E+00  0.00000000000E+00  0.71126941586E+01  0.30790988401E+04  0.30790906249E+04 0.  0.
        4    1    3    3  502    0  0.10140174401E+04  0.11125374114E+04 -0.31928703898E+03  0.15388036544E+04  0.12699999809E+01 0. -1.
       -4    1    3    3    0  502 -0.10140174401E+04 -0.11125374114E+04  0.32639973314E+03  0.15402951857E+04  0.12699999809E+01 0.  1.
</event>
<event>
 5   0  0.7071012E-06  0.3112104E+04  0.7818609E-02  0.8212424E-01
       -2   -1    0    0    0  501  0.00000000000E+00  0.00000000000E+00  0.13129998130E+04  0.13129998130E+04  0.25500000920E-02 0. -1.
        2   -1    0    0  501    0  0.00000000000E+00  0.00000000000E+00 -0.18440963351E+04  0.18440963351E+04  0.25500000920E-02 0.  1.
    10030    2    1    2    0    0  0.00000000000E+00  0.00000000000E+00 -0.53109652207E+03  0.31570961481E+04  0.31121042034E+04 0.  0.
        1    1    3    3  502    0 -0.54060005440E+02 -0.79158721944E+03  0.10923719209E+04  0.13501145225E+04  0.50400001928E-02 0. -1.
       -1    1    3    3    0  502  0.54060005440E+02  0.79158721944E+03 -0.16234684430E+04  0.18069816257E+04  0.50400001928E-02 0.  1.
</event>
<event>
 5   0  0.7079223E-06  0.3109369E+04  0.7818609E-02  0.8213171E-01
        2   -1    0    0  501    0  0.00000000000E+00  0.00000000000E+00  0.27675350541E+04  0.27675350541E+04  0.25500000920E-02 0. -1.
       -2   -1    0    0    0  501  0.00000000000E+00  0.00000000000E+00 -0.87335619064E+03  0.87335619064E+03  0.25500000920E-02 0.  1.
    10030    2    1    2    0    0  0.00000000000E+00  0.00000000000E+00  0.18941788634E+04  0.36408912447E+04  0.31093689857E+04 0.  0.
        5    1    3    3  502    0 -0.70406644443E+03 -0.10237058017E+04 -0.14718634545E+03  0.12511470884E+04  0.46999998093E+01 0.  1.
       -5    1    3    3    0  502  0.70406644443E+03  0.10237058017E+04  0.20413652089E+04  0.23897441563E+04  0.46999998093E+01 0. -1.
</event>
<event>
 5   0  0.7363513E-06  0.3147754E+04  0.7818609E-02  0.8202753E-01
       -2   -1    0    0    0  501  0.00000000000E+00  0.00000000000E+00  0.13906501022E+04  0.13906501022E+04  0.25500000920E-02 0.  1.
        2   -1    0    0  501    0  0.00000000000E+00  0.00000000000E+00 -0.17812453001E+04  0.17812453001E+04  0.25500000920E-02 0. -1.
    10030    2    1    2    0    0  0.00000000000E+00  0.00000000000E+00 -0.39059519788E+03  0.31718954023E+04  0.31477540938E+04 0.  0.
        4    1    3    3  502    0 -0.82162783237E+03  0.13318737522E+04 -0.36429597817E+03  0.16067585877E+04  0.12699999809E+01 0. -1.
       -4    1    3    3    0  502  0.82162783237E+03 -0.13318737522E+04 -0.26299219711E+02  0.15651368146E+04  0.12699999809E+01 0.  1.
</event>
<event>
 5   0  0.7094341E-06  0.2239687E+04  0.7818609E-02  0.8502089E-01
       -2   -1    0    0    0  501  0.00000000000E+00  0.00000000000E+00  0.54858230400E+03  0.54858230401E+03  0.25500000920E-02 0.  1.
        2   -1    0    0  501    0  0.00000000000E+00  0.00000000000E+00 -0.22859814875E+04  0.22859814875E+04  0.25500000920E-02 0. -1.
    10030    2    1    2    0    0  0.00000000000E+00  0.00000000000E+00 -0.17373991835E+04  0.28345637915E+04  0.22396865775E+04 0.  0.
        3    1    3    3  502    0 -0.32951964567E+03 -0.29421073221E+03  0.43365023762E+03  0.61902802087E+03  0.10100000352E+00 0.  1.
       -3    1    3    3    0  502  0.32951964567E+03  0.29421073221E+03 -0.21710494212E+04  0.22155357707E+04  0.10100000352E+00 0. -1.
</event>
<event>
 5   0  0.2393250E-06  0.3091978E+04  0.7818609E-02  0.8217943E-01
        3   -1    0    0  501    0  0.00000000000E+00  0.00000000000E+00  0.12593401215E+04  0.12593401255E+04  0.10100000352E+00 0.  1.
       -3   -1    0    0    0  501  0.00000000000E+00  0.00000000000E+00 -0.18978843770E+04  0.18978843797E+04  0.10100000352E+00 0. -1.
    10030    2    1    2    0    0  0.00000000000E+00  0.00000000000E+00 -0.63854425557E+03  0.31572245052E+04  0.30919779770E+04 0.  0.
        4    1    3    3  502    0  0.27759503810E+03 -0.10564695636E+04 -0.14363843626E+04  0.18045466450E+04  0.12699999809E+01 0. -1.
       -4    1    3    3    0  502 -0.27759503810E+03  0.10564695636E+04  0.79784010706E+03  0.13526778602E+04  0.12699999809E+01 0.  1.
</event>
<event>
 5   0  0.2393250E-06  0.3098535E+04  0.7818609E-02  0.8216140E-01
       -3   -1    0    0    0  501  0.00000000000E+00  0.00000000000E+00  0.19034993730E+04  0.19034993757E+04  0.10100000352E+00 0.  1.
        3   -1    0    0  501    0  0.00000000000E+00  0.00000000000E+00 -0.12609563943E+04  0.12609563983E+04  0.10100000352E+00 0. -1.
    10030    2    1    2    0    0  0.00000000000E+00  0.00000000000E+00  0.64254297874E+03  0.31644557740E+04  0.30985349548E+04 0.  0.
        4    1    3    3  502    0 -0.52641767991E+03 -0.10411147632E+04 -0.71982420195E+03  0.13708333300E+04  0.12699999809E+01 0. -1.
       -4    1    3    3    0  502  0.52641767991E+03  0.10411147632E+04  0.13623671807E+04  0.17936224441E+04  0.12699999809E+01 0.  1.
</event>
<event>
 5   0  0.2517725E-06  0.2336590E+04  0.7818609E-02  0.8463632E-01
        1   -1    0    0  501    0  0.00000000000E+00  0.00000000000E+00  0.12650804687E+04  0.12650804687E+04  0.50400001928E-02 0. -1.
       -1   -1    0    0    0  501  0.00000000000E+00  0.00000000000E+00 -0.10789143058E+04  0.10789143058E+04  0.50400001928E-02 0.  1.
    10030    2    1    2    0    0  0.00000000000E+00  0.00000000000E+00  0.18616616291E+03  0.23439947745E+04  0.23365901786E+04 0.  0.
        3    1    3    3  502    0 -0.77734120237E+03  0.59663188159E+03 -0.54508099797E+03  0.11213127359E+04  0.10100000352E+00 0.  1.
       -3    1    3    3    0  502  0.77734120237E+03 -0.59663188159E+03  0.73124716089E+03  0.12226820386E+04  0.10100000352E+00 0. -1.
</event>
<event>
 5   0  0.7079223E-06  0.3086333E+04  0.7818609E-02  0.8219499E-01
        2   -1    0    0  501    0  0.00000000000E+00  0.00000000000E+00  0.89010868975E+03  0.89010868975E+03  0.25500000920E-02 0. -1.
       -2   -1    0    0    0  501  0.00000000000E+00  0.00000000000E+00 -0.26753620827E+04  0.26753620827E+04  0.25500000920E-02 0.  1.
    10030    2    1    2    0    0  0.00000000000E+00  0.00000000000E+00 -0.17852533929E+04  0.35654707724E+04  0.30863331239E+04 0.  0.
        5    1    3    3  502    0  0.23037087047E+03  0.11456429486E+04 -0.20569465271E+04  0.23657175675E+04  0.46999998093E+01 0.  1.
       -5    1    3    3    0  502 -0.23037087047E+03 -0.11456429486E+04  0.27169313421E+03  0.11997532049E+04  0.46999998093E+01 0. -1.
</event>
<event>
 5   0  0.2612331E-06  0.3092478E+04  0.7818609E-02  0.8217805E-01
       -1   -1    0    0    0  501  0.00000000000E+00  0.00000000000E+00  0.27805678617E+04  0.27805678617E+04  0.50400001928E-02 0. -1.
        1   -1    0    0  501    0  0.00000000000E+00  0.00000000000E+00 -0.85984402442E+03  0.85984402444E+03  0.50400001928E-02 0.  1.
    10030    2    1    2    0    0  0.00000000000E+00  0.00000000000E+00  0.19207238373E+04  0.36404118862E+04  0.30924777512E+04 0.  0.
        4    1    3    3  502    0 -0.57353946835E+03  0.92078659846E+03  0.22574324119E+04  0.25045554873E+04  0.12699999809E+01 0. -1.
       -4    1    3    3    0  502  0.57353946835E+03 -0.92078659846E+03 -0.33670857465E+03  0.11358563988E+04  0.12699999809E+01 0.  1.
</event>
<event>
 5   0  0.7071012E-06  0.2180984E+04  0.7818609E-02  0.8526385E-01
        2   -1    0    0  501    0  0.00000000000E+00  0.00000000000E+00  0.10698820346E+04  0.10698820346E+04  0.25500000920E-02 0.  1.
       -2   -1    0    0    0  501  0.00000000000E+00  0.00000000000E+00 -0.11114994591E+04  0.11114994591E+04  0.25500000920E-02 0. -1.
    10030    2    1    2    0    0  0.00000000000E+00  0.00000000000E+00 -0.41617424581E+02  0.21813814937E+04  0.21809844592E+04 0.  0.
        1    1    3    3  502    0  0.89274972449E+03 -0.27322935055E+03 -0.58439771913E+03  0.11014431636E+04  0.50400001928E-02 0. -1.
       -1    1    3    3    0  502 -0.89274972449E+03  0.27322935055E+03  0.54278029455E+03  0.10799383301E+04  0.50400001928E-02 0.  1.
</event>
<event>
 5   0  0.7414808E-06  0.2051985E+04  0.7818609E-02  0.8582694E-01
        2   -1    0    0  501    0  0.00000000000E+00  0.00000000000E+00  0.15832738396E+04  0.15832738396E+04  0.25500000920E-02 0. -1.
       -2   -1    0    0    0  501  0.00000000000E+00  0.00000000000E+00 -0.66486319870E+03  0.66486319870E+03  0.25500000920E-02 0.  1.
    10030    2    1    2    0    0  0.00000000000E+00  0.00000000000E+00  0.91841064094E+03  0.22481370383E+04  0.20519849019E+04 0.  0.
        2    1    3    3  502    0  0.45099824299E+03 -0.45092804342E+03 -0.42131557102E+03  0.76435745951E+03  0.25500000920E-02 0.  1.
       -2    1    3    3    0  502 -0.45099824299E+03  0.45092804342E+03  0.13397262120E+04  0.14837795788E+04  0.25500000920E-02 0. -1.
</event>
<event>
 5   0  0.2674441E-06  0.3049582E+04  0.7818609E-02  0.8229713E-01
       -1   -1    0    0    0  501  0.00000000000E+00  0.00000000000E+00  0.82611737438E+03  0.82611737440E+03  0.50400001928E-02 0.  1.
        1   -1    0    0  501    0  0.00000000000E+00  0.00000000000E+00 -0.28143548311E+04  0.28143548311E+04  0.50400001928E-02 0. -1.
    10030    2    1    2    0    0  0.00000000000E+00  0.00000000000E+00 -0.19882374568E+04  0.36404722055E+04  0.30495818885E+04 0.  0.
        5    1    3    3  502    0  0.93017278695E+03  0.10117358803E+04 -0.20575323750E+03  0.13896716842E+04  0.46999998093E+01 0. -1.
       -5    1    3    3    0  502 -0.93017278695E+03 -0.10117358803E+04 -0.17824842193E+04  0.22508005214E+04  0.46999998093E+01 0.  1.
</event>
<event>
 5   0  0.7363513E-06  0.3151993E+04  0.7818609E-02  0.8201612E-01
        2   -1    0    0  501    0  0.00000000000E+00  0.00000000000E+00  0.14614099402E+04  0.14614099402E+04  0.25500000920E-02 0.  1.
       -2   -1    0    0    0  501  0.00000000000E+00  0.00000000000E+00 -0.16995670935E+04  0.16995670935E+04  0.25500000920E-02 0. -1.
    10030    2    1    2    0    0  0.00000000000E+00  0.00000000000E+00 -0.23815715331E+03  0.31609770337E+04  0.31519925409E+04 0.  0.
        4    1    3    3  502    0 -0.63383751148E+03  0.13934916690E+04  0.25641305897E+03  0.15521978908E+04  0.12699999809E+01 0.  1.
       -4    1    3    3    0  502  0.63383751148E+03 -0.13934916690E+04 -0.49457021228E+03  0.16087791428E+04  0.12699999809E+01 0. -1.
</event>
<event>
 5   0  0.7079223E-06  0.3112867E+04  0.7818609E-02  0.8212216E-01
       -2   -1    0    0    0  501  0.00000000000E+00  0.00000000000E+00  0.15163186586E+04  0.15163186586E+04  0.25500000920E-02 0. -1.
        2   -1    0    0  501    0  0.00000000000E+00  0.00000000000E+00 -0.15976094254E+04  0.15976094254E+04  0.25500000920E-02 0.  1.
    10030    2    1    2    0    0  0.00000000000E+00  0.00000000000E+00 -0.81290766786E+02  0.31139280841E+04  0.31128668336E+04 0.  0.
        5    1    3    3  502    0 -0.64724521067E+03  0.27124530582E+03 -0.14303499121E+04  0.15932430259E+04  0.46999998093E+01 0.  1.
       -5    1    3    3    0  502  0.64724521067E+03 -0.27124530582E+03  0.13490591453E+04  0.15206850582E+04  0.46999998093E+01 0. -1.
</event>
<event>
 5   0  0.2612331E-06  0.2486404E+04  0.7818609E-02  0.8407845E-01
        1   -1    0    0  501    0  0.00000000000E+00  0.00000000000E+00  0.12354587962E+04  0.12354587962E+04  0.50400001928E-02 0.  1.
       -1   -1    0    0    0  501  0.00000000000E+00  0.00000000000E+00 -0.12509939154E+04  0.12509939154E+04  0.50400001928E-02 0. -1.
    10030    2    1    2    0    0  0.00000000000E+00  0.00000000000E+00 -0.15535119221E+02  0.24864527116E+04  0.24864041801E+04 0.  0.
        4    1    3    3  502    0 -0.11621374493E+04 -0.87472813115E+02  0.42506288406E+03  0.12405220725E+04  0.12699999809E+01 0. -1.
       -4    1    3    3    0  502  0.11621374493E+04  0.87472813115E+02 -0.44059800328E+03  0.12459306391E+04  0.12699999809E+01 0.  1.
</event>
<event>
 5   0  0.7094341E-06  0.3107371E+04  0.7818609E-02  0.8213718E-01
        2   -1    0    0  501    0  0.00000000000E+00  0.00000000000E+00  0.96280160751E+03  0.96280160752E+03  0.25500000920E-02 0. -1.
       -2   -1    0    0    0  501  0.00000000000E+00  0.00000000000E+00 -0.25072023125E+04  0.25072023125E+04  0.25500000920E-02 0.  1.
    10030    2    1    2    0    0  0.00000000000E+00  0.00000000000E+00 -0.15444007050E+04  0.34700039201E+04  0.31073708610E+04 0.  0.
        3    1    3    3  502    0 -0.82185493571E+03  0.19739089872E+03 -0.22279988149E+04  0.23829367242E+04  0.10100000352E+00 0.  1.
       -3    1    3    3    0  502  0.82185493571E+03 -0.19739089872E+03  0.68359810987E+03  0.10870671958E+04  0.10100000352E+00 0. -1.
</event>
<event>
 5   0  0.2674441E-06  0.3316065E+04  0.7818609E-02  0.8158820E-01
        1   -1    0    0  501    0  0.00000000000E+00  0.00000000000E+00  0.26995978923E+04  0.26995978923E+04  0.50400001928E-02 0.  1.
       -1   -1    0    0    0  501  0.00000000000E+00  0.00000000000E+00 -0.10183261529E+04  0.10183261529E+04  0.50400001928E-02 0. -1.
    10030    2    1    2    0    0  0.00000000000E+00  0.00000000000E+00  0.16812717394E+04  0.37179240453E+04  0.33160646170E+04 0.  0.
        5    1    3    3  502    0 -0.13275395715E+04  0.39610813168E+03  0.18619529644E+04  0.23208088886E+04  0.46999998093E+01 0.  1.
       -5    1    3    3    0  502  0.13275395715E+04 -0.39610813168E+03 -0.18068122492E+03  0.13971151566E+04  0.46999998093E+01 0. -1.
</event>
<event>
 5   0  0.2517725E-06  0.2746134E+04  0.7818609E-02  0.8320189E-01
        1   -1    0    0  501    0  0.00000000000E+00  0.00000000000E+00  0.16758340322E+04  0.16758340322E+04  0.50400001928E-02 0.  1.
       -1   -1    0    0    0  501  0.00000000000E+00  0.00000000000E+00 -0.11249997414E+04  0.11249997414E+04  0.50400001928E-02 0. -1.
    10030    2    1    2    0    0  0.00000000000E+00  0.00000000000E+00  0.55083429088E+03  0.28008337736E+04  0.27461339027E+04 0.  0.
        3    1    3    3  502    0  0.94600903444E+03 -0.93270854019E+03 -0.78532215995E+02  0.13308063846E+04  0.10100000352E+00 0. -1.
       -3    1    3    3    0  502 -0.94600903444E+03  0.93270854019E+03  0.62936650688E+03  0.14700273890E+04  0.10100000352E+00 0.  1.
</event>
<event>
 5   0  0.2517725E-06  0.3122816E+04  0.7818609E-02  0.8209504E-01
       -1   -1    0    0    0  501  0.00000000000E+00  0.00000000000E+00  0.15870713479E+04  0.15870713479E+04  0.50400001928E-02 0. -1.
        1   -1    0    0  501    0  0.00000000000E+00  0.00000000000E+00 -0.15361592340E+04  0.15361592340E+04  0.50400001928E-02 0.  1.
    10030    2    1    2    0    0  0.00000000000E+00  0.00000000000E+00  0.50912113849E+02  0.31232305819E+04  0.31228155924E+04 0.  0.
        3    1    3    3  502    0  0.13840257132E+04 -0.37715908739E+03  0.64215631192E+03  0.15716681874E+04  0.10100000352E+00 0.  1.
       -3    1    3    3    0  502 -0.13840257132E+04  0.37715908739E+03 -0.59124419807E+03  0.15515623945E+04  0.10100000352E+00 0. -1.
</event>
<event>
 5   0  0.2624011E-06  0.3137533E+04  0.7818609E-02  0.8205512E-01
       -1   -1    0    0    0  501  0.00000000000E+00  0.00000000000E+00  0.13804775757E+04  0.13804775757E+04  0.50400001928E-02 0. -1.
        1   -1    0    0  501    0  0.00000000000E+00  0.00000000000E+00 -0.17827370816E+04  0.17827370816E+04  0.50400001928E-02 0.  1.
    10030    2    1    2    0    0  0.00000000000E+00  0.00000000000E+00 -0.40225950586E+03  0.31632146573E+04  0.31375331485E+04 0.  0.
        1    1    3    3  502    0  0.29477292634E+03  0.35377002364E+03 -0.17130662444E+04  0.17738771844E+04  0.50400001928E-02 0.  1.
       -1    1    3    3    0  502 -0.29477292634E+03 -0.35377002364E+03  0.13108067385E+04  0.13893374729E+04  0.50400001928E-02 0. -1.
</event>
<event>
 5   0  0.7094341E-06  0.3119611E+04  0.7818609E-02  0.8210376E-01
       -2   -1    0    0    0  501  0.00000000000E+00  0.00000000000E+00  0.14562590861E+04  0.14562590861E+04  0.25500000920E-02 0. -1.
        2   -1    0    0  501    0  0.00000000000E+00  0.00000000000E+00 -0.16707141410E+04  0.16707141410E+04  0.25500000920E-02 0.  1.
    10030    2    1    2    0    0  0.00000000000E+00  0.00000000000E+00 -0.21445505490E+03  0.31269732271E+04  0.31196106476E+04 0.  0.
        3    1    3    3  502    0 -0.13477670297E+04 -0.73653482262E+03  0.16550492321E+03  0.15447819914E+04  0.10100000352E+00 0.  1.
       -3    1    3    3    0  502  0.13477670297E+04  0.73653482262E+03 -0.37995997811E+03  0.15821912357E+04  0.10100000352E+00 0. -1.
</event>
<event>
 5   0  0.2674441E-06  0.3224122E+04  0.7818609E-02  0.8182476E-01
       -1   -1    0    0    0  501  0.00000000000E+00  0.00000000000E+00  0.13273536035E+04  0.13273536035E+04  0.50400001928E-02 0.  1.
        1   -1    0    0  501    0  0.00000000000E+00  0.00000000000E+00 -0.19578355379E+04  0.19578355379E+04  0.50400001928E-02 0. -1.
    10030    2    1    2    0    0  0.00000000000E+00  0.00000000000E+00 -0.63048193434E+03  0.32851891414E+04  0.32241216207E+04 0.  0.
        5    1    3    3  502    0  0.30161382441E+03 -0.43244446889E+03  0.12370105710E+04  0.13446919203E+04  0.46999998093E+01 0.  1.
       -5    1    3    3    0  502 -0.30161382441E+03  0.43244446889E+03 -0.18674925053E+04  0.19404972211E+04  0.46999998093E+01 0. -1.
</event>
<event>
 5   0  0.7094341E-06  0.3102116E+04  0.7818609E-02  0.8215157E-01
        2   -1    0    0  501    0  0.00000000000E+00  0.00000000000E+00  0.13232233741E+04  0.13232233741E+04  0.25500000920E-02 0. -1.
       -2   -1    0    0    0  501  0.00000000000E+00  0.00000000000E+00 -0.18181218490E+04  0.18181218490E+04  0.25500000920E-02 0.  1.
    10030    2    1    2    0    0  0.00000000000E+00  0.00000000000E+00 -0.49489847489E+03  0.31413452231E+04  0.31021162632E+04 0.  0.
        3    1    3    3  502    0 -0.61539544325E+01 -0.73170366204E+03  0.11374539318E+04  0.13524901395E+04  0.10100000352E+00 0. -1.
       -3    1    3    3    0  502  0.61539544325E+01  0.73170366204E+03 -0.16323524067E+04  0.17888550836E+04  0.10100000352E+00 0.  1.
</event>
<event>
 5   0  0.7079223E-06  0.3115535E+04  0.7818609E-02  0.8211487E-01
       -2   -1    0    0    0  501  0.00000000000E+00  0.00000000000E+00  0.13976044712E+04  0.13976044712E+04  0.25500000920E-02 0.  1.
        2   -1    0    0  501    0  0.00000000000E+00  0.00000000000E+00 -0.17362846664E+04  0.17362846664E+04  0.25500000920E-02 0. -1.
    10030    2    1    2    0    0  0.00000000000E+00  0.00000000000E+00 -0.33868019518E+03  0.31338891375E+04  0.31155347618E+04 0.  0.
        5    1    3    3  502    0  0.12143105628E+04  0.58354416617E+03  0.61727919485E+03  0.14819344220E+04  0.46999998093E+01 0.  1.
       -5    1    3    3    0  502 -0.12143105628E+04 -0.58354416617E+03 -0.95595939003E+03  0.16519547155E+04  0.46999998093E+01 0. -1.
</event>
<event>
 5   0  0.2598987E-06  0.2018814E+04  0.7818609E-02  0.8597875E-01
       -1   -1    0    0    0  501  0.00000000000E+00  0.00000000000E+00  0.11086569314E+04  0.11086569314E+04  0.50400001928E-02 0.  1.
        1   -1    0    0  501    0  0.00000000000E+00  0.00000000000E+00 -0.91904180889E+03  0.91904180890E+03  0.50400001928E-02 0. -1.
    10030    2    1    2    0    0  0.00000000000E+00  0.00000000000E+00  0.18961512247E+03  0.20276987403E+04  0.20188135839E+04 0.  0.
        2    1    3    3  502    0  0.91797825819E+03 -0.26197274611E+03 -0.23464256176E+03  0.98304167461E+03  0.25500000920E-02 0. -1.
       -2    1    3    3    0  502 -0.91797825819E+03  0.26197274611E+03  0.42425768423E+03  0.10446570657E+04  0.25500000920E-02 0.  1.
</event>
<event>
 5   0  0.2612331E-06  0.3122619E+04  0.7818609E-02  0.8209557E-01
        1   -1    0    0  501    0  0.00000000000E+00  0.00000000000E+00  0.94841881246E+03  0.94841881247E+03  0.50400001928E-02 0.  1.
       -1   -1    0    0    0  501  0.00000000000E+00  0.00000000000E+00 -0.25702654119E+04  0.25702654119E+04  0.50400001928E-02 0. -1.
    10030    2    1    2    0    0  0.00000000000E+00  0.00000000000E+00 -0.16218465994E+04  0.35186842243E+04  0.31226194579E+04 0.  0.
        4    1    3    3  502    0  0.58397246544E+03 -0.10850019771E+04 -0.18914147952E+04  0.22573667560E+04  0.12699999809E+01 0. -1.
       -4    1    3    3    0  502 -0.58397246544E+03  0.10850019771E+04  0.26956819580E+03  0.12613174683E+04  0.12699999809E+01 0.  1.
</event>
<event>
 5   0  0.7414808E-06  0.2286953E+04  0.7818609E-02  0.8483083E-01
       -2   -1    0    0    0  501  0.00000000000E+00  0.00000000000E+00  0.91377080515E+03  0.91377080516E+03  0.25500000920E-02 0.  1.
        2   -1    0    0  501    0  0.00000000000E+00  0.00000000000E+00 -0.14309258439E+04  0.14309258439E+04  0.25500000920E-02 0. -1.
    10030    2    1    2    0    0  0.00000000000E+00  0.00000000000E+00 -0.51715503877E+03  0.23446966491E+04  0.22869527853E+04 0.  0.
        2    1    3    3  502    0 -0.32956477568E+02 -0.14091432926E+03 -0.14214991313E+04  0.14288466530E+04  0.25500000920E-02 0. -1.
       -2    1    3    3    0  502  0.32956477568E+02  0.14091432926E+03  0.90434409252E+03  0.91584999606E+03  0.25500000920E-02 0.  1.
</event>
<event>
 5   0  0.7094341E-06  0.3067153E+04  0.7818609E-02  0.8224811E-01
        2   -1    0    0  501    0  0.00000000000E+00  0.00000000000E+00  0.15852105466E+04  0.15852105466E+04  0.25500000920E-02 0. -1.
       -2   -1    0    0    0  501  0.00000000000E+00  0.00000000000E+00 -0.14836241784E+04  0.14836241784E+04  0.25500000920E-02 0.  1.
    10030    2    1    2    0    0  0.00000000000E+00  0.00000000000E+00  0.10158636823E+03  0.30688347250E+04  0.30671528784E+04 0.  0.
        3    1    3    3  502    0  0.73419451676E+03  0.84232095802E+03 -0.10001686673E+04  0.14996278065E+04  0.10100000352E+00 0.  1.
       -3    1    3    3    0  502 -0.73419451676E+03 -0.84232095802E+03  0.11017550355E+04  0.15692069186E+04  0.10100000352E+00 0. -1.
</event>
<event>
 5   0  0.2624011E-06  0.3152949E+04  0.7818609E-02  0.8201355E-01
        1   -1    0    0  501    0  0.00000000000E+00  0.00000000000E+00  0.26494650104E+04  0.26494650104E+04  0.50400001928E-02 0. -1.
       -1   -1    0    0    0  501  0.00000000000E+00  0.00000000000E+00 -0.93802775350E+03  0.93802775351E+03  0.50400001928E-02 0.  1.
    10030    2    1    2    0    0  0.00000000000E+00  0.00000000000E+00  0.17114372569E+04  0.35874927639E+04  0.31529489128E+04 0.  0.
        1    1    3    3  502    0  0.43253397889E+03  0.14683362982E+04  0.12847460817E+04  0.19984167788E+04  0.50400001928E-02 0. -1.
       -1    1    3    3    0  502 -0.43253397889E+03 -0.14683362982E+04  0.42669117515E+03  0.15890759851E+04  0.50400001928E-02 0.  1.
</event>
<event>
 5   0  0.7079223E-06  0.3027233E+04  0.7818609E-02  0.8235997E-01
        2   -1    0    0  501    0  0.00000000000E+00  0.00000000000E+00  0.16298486822E+04  0.16298486822E+04  0.25500000920E-02 0. -1.
       -2   -1    0    0    0  501  0.00000000000E+00  0.00000000000E+00 -0.14056735514E+04  0.14056735514E+04  0.25500000920E-02 0.  1.
    10030    2    1    2    0    0  0.00000000000E+00  0.00000000000E+00  0.22417513079E+03  0.30355222336E+04  0.30272331825E+04 0.  0.
        5    1    3    3  502    0  0.14845946365E+04 -0.17284470595E+03  0.35173268887E+03  0.15354590524E+04  0.46999998093E+01 0. -1.
       -5    1    3    3    0  502 -0.14845946365E+04  0.17284470595E+03 -0.12755755808E+03  0.15000631812E+04  0.46999998093E+01 0.  1.
</event>
<event>
 5   0  0.2612331E-06  0.3060358E+04  0.7818609E-02  0.8226702E-01
       -1   -1    0    0    0  501  0.00000000000E+00  0.00000000000E+00  0.77514169350E+03  0.77514169352E+03  0.50400001928E-02 0.  1.
        1   -1    0    0  501    0  0.00000000000E+00  0.00000000000E+00 -0.30206701596E+04  0.30206701596E+04  0.50400001928E-02 0. -1.
    10030    2    1    2    0    0  0.00000000000E+00  0.00000000000E+00 -0.22455284661E+04  0.37958118531E+04  0.30603577458E+04 0.  0.
        4    1    3    3  502    0  0.49236079918E+02 -0.95743774522E+03  0.35645777357E+03  0.10228269574E+04  0.12699999809E+01 0.  1.
       -4    1    3    3    0  502 -0.49236079918E+02  0.95743774522E+03 -0.26019862396E+04  0.27729848957E+04  0.12699999809E+01 0. -1.
</event>
<event>
 5   0  0.2674441E-06  0.2916795E+04  0.7818609E-02  0.8267898E-01
        1   -1    0    0  501    0  0.00000000000E+00  0.00000000000E+00  0.12284533615E+04  0.12284533615E+04  0.50400001928E-02 0. -1.
       -1   -1    0    0    0  501  0.00000000000E+00  0.00000000000E+00 -0.17313829294E+04  0.17313829294E+04  0.50400001928E-02 0.  1.
    10030    2    1    2    0    0  0.00000000000E+00  0.00000000000E+00 -0.50292956783E+03  0.29598362909E+04  0.29167949394E+04 0.  0.
        5    1    3    3  502    0 -0.42188950467E+03 -0.41255918622E+03  0.11018966202E+04  0.12499576344E+04  0.46999998093E+01 0. -1.
       -5    1    3    3    0  502  0.42188950467E+03  0.41255918622E+03 -0.16048261880E+04  0.17098786565E+04  0.46999998093E+01 0.  1.
</event>
<event>
 5   0  0.7414808E-06  0.3101147E+04  0.7818609E-02  0.8215423E-01
       -2   -1    0    0    0  501  0.00000000000E+00  0.00000000000E+00  0.10956450448E+04  0.10956450448E+04  0.25500000920E-02 0. -1.
        2   -1    0    0  501    0  0.00000000000E+00  0.00000000000E+00 -0.21943954416E+04  0.21943954416E+04  0.25500000920E-02 0.  1.
    10030    2    1    2    0    0  0.00000000000E+00  0.00000000000E+00 -0.10987503968E+04  0.32900404864E+04  0.31011472019E+04 0.  0.
        2    1    3    3  502    0 -0.10000716674E+04 -0.36672228181E+03 -0.17447961294E+04  0.20442460970E+04  0.25500000920E-02 0.  1.
       -2    1    3    3    0  502  0.10000716674E+04  0.36672228181E+03  0.64604573267E+03  0.12457943894E+04  0.25500000920E-02 0. -1.
</event>
<event>
 5   0  0.2624011E-06  0.2548677E+04  0.7818609E-02  0.8385846E-01
       -1   -1    0    0    0  501  0.00000000000E+00  0.00000000000E+00  0.12914090394E+04  0.12914090395E+04  0.50400001928E-02 0. -1.
        1   -1    0    0  501    0  0.00000000000E+00  0.00000000000E+00 -0.12574934824E+04  0.12574934825E+04  0.50400001928E-02 0.  1.
    10030    2    1    2    0    0  0.00000000000E+00  0.00000000000E+00  0.33915557004E+02  0.25489025219E+04  0.25486768727E+04 0.  0.
        1    1    3    3  502    0  0.11373995386E+04  0.19236654753E+03  0.55853674865E+03  0.12816574810E+04  0.50400001928E-02 0. -1.
       -1    1    3    3    0  502 -0.11373995386E+04 -0.19236654753E+03 -0.52462119164E+03  0.12672450409E+04  0.50400001928E-02 0.  1.
</event>
<event>
 5   0  0.2598987E-06  0.3068344E+04  0.7818609E-02  0.8224480E-01
       -1   -1    0    0    0  501  0.00000000000E+00  0.00000000000E+00  0.15214226177E+04  0.15214226177E+04  0.50400001928E-02 0.  1.
        1   -1    0    0  501    0  0.00000000000E+00  0.00000000000E+00 -0.15470279503E+04  0.15470279503E+04  0.50400001928E-02 0. -1.
    10030    2    1    2    0    0  0.00000000000E+00  0.00000000000E+00 -0.25605332570E+02  0.30684505680E+04  0.30683437316E+04 0.  0.
        2    1    3    3  502    0  0.26626006908E+03  0.55491715057E+03 -0.14181472406E+04  0.15459524780E+04  0.25500000920E-02 0. -1.
       -2    1    3    3    0  502 -0.26626006908E+03 -0.55491715057E+03  0.13925419080E+04  0.15224980899E+04  0.25500000920E-02 0.  1.
</event>
<event>
 5   0  0.7079223E-06  0.2519341E+04  0.7818609E-02  0.8396128E-01
        2   -1    0    0  501    0  0.00000000000E+00  0.00000000000E+00  0.24185402446E+04  0.24185402446E+04  0.25500000920E-02 0.  1.
       -2   -1    0    0    0  501  0.00000000000E+00  0.00000000000E+00 -0.65608564385E+03  0.65608564386E+03  0.25500000920E-02 0. -1.
    10030    2    1    2    0    0  0.00000000000E+00  0.00000000000E+00  0.17624546008E+04  0.30746258885E+04  0.25193408135E+04 0.  0.
        5    1    3    3  502    0  0.79630640266E+03 -0.76742816398E+03  0.14523112608E+03  0.11154210164E+04  0.46999998093E+01 0. -1.
       -5    1    3    3    0  502 -0.79630640266E+03  0.76742816398E+03  0.16172234747E+04  0.19592048721E+04  0.46999998093E+01 0.  1.
</event>
<event>
 5   0  0.7363513E-06  0.2336282E+04  0.7818609E-02  0.8463751E-01
        2   -1    0    0  501    0  0.00000000000E+00  0.00000000000E+00  0.18905112646E+04  0.18905112646E+04  0.25500000920E-02 0.  1.
       -2   -1    0    0    0  501  0.00000000000E+00  0.00000000000E+00 -0.72179079239E+03  0.72179079239E+03  0.25500000920E-02 0. -1.
    10030    2    1    2    0    0  0.00000000000E+00  0.00000000000E+00  0.11687204722E+04  0.26123020570E+04  0.23362821950E+04 0.  0.
        4    1    3    3  502    0 -0.47550767627E+03 -0.76391821382E+03  0.14172644420E+04  0.16787848877E+04  0.12699999809E+01 0.  1.
       -4    1    3    3    0  502  0.47550767627E+03  0.76391821382E+03 -0.24854396980E+03  0.93351716932E+03  0.12699999809E+01 0. -1.
</event>
<event>
 5   0  0.2598987E-06  0.3007219E+04  0.7818609E-02  0.8241673E-01
       -1   -1    0    0    0  501  0.00000000000E+00  0.00000000000E+00  0.11777626153E+04  0.11777626153E+04  0.50400001928E-02 0. -1.
        1   -1    0    0  501    0  0.00000000000E+00  0.00000000000E+00 -0.19196066841E+04  0.19196066841E+04  0.50400001928E-02 0.  1.
    10030    2    1    2    0    0  0.00000000000E+00  0.00000000000E+00 -0.74184406877E+03  0.30973692994E+04  0.30072186410E+04 0.  0.
        2    1    3    3  502    0  0.34022616527E+03  0.13804588529E+04 -0.87489663795E+03  0.16693904921E+04  0.25500000920E-02 0.  1.
       -2    1    3    3    0  502 -0.34022616527E+03 -0.13804588529E+04  0.13305256918E+03  0.14279788073E+04  0.25500000920E-02 0. -1.
</event>
<event>
 5   0  0.2517725E-06  0.3121767E+04  0.7818609E-02  0.8209790E-01
       -1   -1    0    0    0  501  0.00000000000E+00  0.00000000000E+00  0.92731242398E+03  0.92731242400E+03  0.50400001928E-02 0.  1.
        1   -1    0    0  501    0  0.00000000000E+00  0.00000000000E+00 -0.26273310196E+04  0.26273310196E+04  0.50400001928E-02 0. -1.
    10030    2    1    2    0    0  0.00000000000E+00  0.00000000000E+00 -0.17000185957E+04  0.35546434436E+04  0.31217666130E+04 0.  0.
        3    1    3    3  502    0 -0.33276503583E+03  0.12668853322E+04  0.11659890810E+03  0.13150385278E+04  0.10100000352E+00 0.  1.
       -3    1    3    3    0  502  0.33276503583E+03 -0.12668853322E+04 -0.18166175038E+04  0.22396049159E+04  0.10100000352E+00 0. -1.
</event>
<event>
 5   0  0.2598987E-06  0.2165390E+04  0.7818609E-02  0.8532973E-01
        1   -1    0    0  501    0  0.00000000000E+00  0.00000000000E+00  0.11709235710E+04  0.11709235710E+04  0.50400001928E-02 0.  1.
       -1   -1    0    0    0  501  0.00000000000E+00  0.00000000000E+00 -0.10011147044E+04  0.10011147044E+04  0.50400001928E-02 0. -1.
    10030    2    1    2    0    0  0.00000000000E+00  0.00000000000E+00  0.16980886664E+03  0.21720382754E+04  0.21653903155E+04 0.  0.
        2    1    3    3  502    0 -0.69447420079E+03  0.60139344509E+03 -0.48979460948E+03  0.10410894538E+04  0.25500000920E-02 0. -1.
       -2    1    3    3    0  502  0.69447420079E+03 -0.60139344509E+03  0.65960347612E+03  0.11309488216E+04  0.25500000920E-02 0.  1.
</event>
<event>
 5   0  0.7094341E-06  0.3098094E+04  0.7818609E-02  0.8216261E-01
       -2   -1    0    0    0  501  0.00000000000E+00  0.00000000000E+00  0.10558213149E+04  0.10558213149E+04  0.25500000920E-02 0. -1.
        2   -1    0    0  501    0  0.00000000000E+00  0.00000000000E+00 -0.22726817705E+04  0.22726817705E+04  0.25500000920E-02 0.  1.
    10030    2    1    2    0    0  0.00000000000E+00  0.00000000000E+00 -0.12168604556E+04  0.33285030855E+04  0.30980935140E+04 0.  0.
        3    1    3    3  502    0 -0.76561191999E+03  0.74303382049E+03 -0.18150239251E+04  0.21053675995E+04  0.10100000352E+00 0. -1.
       -3    1    3    3    0  502  0.76561191999E+03 -0.74303382049E+03  0.59816346952E+03  0.12231354859E+04  0.10100000352E+00 0.  1.
</event>
<event>
 5   0  0.2674441E-06  0.3012965E+04  0.7818609E-02  0.8240038E-01
       -1   -1    0    0    0  501  0.00000000000E+00  0.00000000000E+00  0.13221273147E+04  0.13221273147E+04  0.50400001928E-02 0.  1.
        1   -1    0    0  501    0  0.00000000000E+00  0.00000000000E+00 -0.17165442405E+04  0.17165442405E+04  0.50400001928E-02 0. -1.
    10030    2    1    2    0    0  0.00000000000E+00  0.00000000000E+00 -0.39441692585E+03  0.30386715552E+04  0.30129653348E+04 0.  0.
        5    1    3    3  502    0 -0.49471032524E+03 -0.54989172155E+03  0.11263714560E+04  0.13475362549E+04  0.46999998093E+01 0.  1.
       -5    1    3    3    0  502  0.49471032524E+03  0.54989172155E+03 -0.15207883819E+04  0.16911353003E+04  0.46999998093E+01 0. -1.
</event>
<event>
 5   0  0.2612331E-06  0.3148583E+04  0.7818609E-02  0.8202530E-01
        1   -1    0    0  501    0  0.00000000000E+00  0.00000000000E+00  0.16228898465E+04  0.16228898465E+04  0.50400001928E-02 0.  1.
       -1   -1    0    0    0  501  0.00000000000E+00  0.00000000000E+00 -0.15271479942E+04  0.15271479943E+04  0.50400001928E-02 0. -1.
    10030    2    1    2    0    0  0.00000000000E+00  0.00000000000E+00  0.95741852229E+02  0.31500378407E+04  0.31485825217E+04 0.  0.
        4    1    3    3  502    0 -0.52440295517E+03  0.11570894748E+04  0.97810543191E+03  0.16032923504E+04  0.12699999809E+01 0.  1.
       -4    1    3    3    0  502  0.52440295517E+03 -0.11570894748E+04 -0.88236357968E+03  0.15467454903E+04  0.12699999809E+01 0. -1.
</event>
<event>
 5   0  0.2517725E-06  0.3124062E+04  0.7818609E-02  0.8209165E-01
        1   -1    0    0  501    0  0.00000000000E+00  0.00000000000E+00  0.15283984178E+04  0.15283984178E+04  0.50400001928E-02 0.  1.
       -1   -1    0    0    0  501  0.00000000000E+00  0.00000000000E+00 -0.15964033469E+04  0.15964033469E+04  0.50400001928E-02 0. -1.
    10030    2    1    2    0    0  0.00000000000E+00  0.00000000000E+00 -0.68004929042E+02  0.31248017647E+04  0.31240616829E+04 0.  0.
        3    1    3    3  502    0 -0.82798850678E+02  0.77672890432E+03 -0.13870153766E+04  0.15918464453E+04  0.10100000352E+00 0. -1.
       -3    1    3    3    0  502  0.82798850678E+02 -0.77672890432E+03  0.13190104475E+04  0.15329553194E+04  0.10100000352E+00 0.  1.
</event>
<event>
 5   0  0.7071012E-06  0.2931531E+04  0.7818609E-02  0.8263557E-01
        2   -1    0    0  501    0  0.00000000000E+00  0.00000000000E+00  0.12642296798E+04  0.12642296798E+04  0.25500000920E-02 0. -1.
       -2   -1    0    0    0  501  0.00000000000E+00  0.00000000000E+00 -0.16994295026E+04  0.16994295026E+04  0.25500000920E-02 0.  1.
    10030    2    1    2    0    0  0.00000000000E+00  0.00000000000E+00 -0.43519982274E+03  0.29636591824E+04  0.29315314878E+04 0.  0.
        1    1    3    3  502    0  0.93241405483E+03  0.73998223667E+03  0.64705083929E+03  0.13548595753E+04  0.50400001928E-02 0. -1.
       -1    1    3    3    0  502 -0.93241405483E+03 -0.73998223667E+03 -0.10822506620E+04  0.16087996071E+04  0.50400001928E-02 0.  1.
</event>
<event>
 5   0  0.2624011E-06  0.3095091E+04  0.7818609E-02  0.8217086E-01
        1   -1    0    0  501    0  0.00000000000E+00  0.00000000000E+00  0.17244071203E+04  0.17244071203E+04  0.50400001928E-02 0. -1.
       -1   -1    0    0    0  501  0.00000000000E+00  0.00000000000E+00 -0.13888237483E+04  0.13888237483E+04  0.50400001928E-02 0.  1.
    10030    2    1    2    0    0  0.00000000000E+00  0.00000000000E+00  0.33558337202E+03  0.31132308687E+04  0.30950913140E+04 0.  0.
        1    1    3    3  502    0  0.55208726133E+03  0.13399089928E+04 -0.37829076089E+03  0.14977517661E+04  0.50400001928E-02 0.  1.
       -1    1    3    3    0  502 -0.55208726133E+03 -0.13399089928E+04  0.71387413291E+03  0.16154791025E+04  0.50400001928E-02 0. -1.
</event>
<event>
 5   0  0.7094341E-06  0.3298744E+04  0.7818609E-02  0.8163215E-01
        2   -1    0    0  501    0  0.00000000000E+00  0.00000000000E+00  0.20093160497E+04  0.20093160497E+04  0.25500000920E-02 0.  1.
       -2   -1    0    0    0  501  0.00000000000E+00  0.00000000000E+00 -0.13539077438E+04  0.13539077438E+04  0.25500000920E-02 0. -1.
    10030    2    1    2    0    0  0.00000000000E+00  0.00000000000E+00  0.65540830595E+03  0.33632237935E+04  0.32987443426E+04 0.  0.
        3    1    3    3  502    0 -0.11175055006E+04  0.65099611128E+03  0.13713405601E+04  0.18849905631E+04  0.10100000352E+00 0.  1.
       -3    1    3    3    0  502  0.11175055006E+04 -0.65099611128E+03 -0.71593225417E+03  0.14782332304E+04  0.10100000352E+00 0. -1.
</event>
<event>
 5   0  0.7094341E-06  0.2310203E+04  0.7818609E-02  0.8473909E-01
        2   -1    0    0  501    0  0.00000000000E+00  0.00000000000E+00  0.12079944756E+04  0.12079944756E+04  0.25500000920E-02 0. -1.
       -2   -1    0    0    0  501  0.00000000000E+00  0.00000000000E+00 -0.11045244467E+04  0.11045244467E+04  0.25500000920E-02 0.  1.
    10030    2    1    2    0    0  0.00000000000E+00  0.00000000000E+00  0.10347002893E+03  0.23125189222E+04  0.23102029605E+04 0.  0.
        3    1    3    3  502    0  0.26781590088E+03 -0.86716072304E+03 -0.66352055832E+03  0.11242564733E+04  0.10100000352E+00 0.  1.
       -3    1    3    3    0  502 -0.26781590088E+03  0.86716072304E+03  0.76699058725E+03  0.11882624489E+04  0.10100000352E+00 0. -1.
</event>
<event>
 5   0  0.7363513E-06  0.3057700E+04  0.7818609E-02  0.8227444E-01
       -2   -1    0    0    0  501  0.00000000000E+00  0.00000000000E+00  0.13472144984E+04  0.13472144984E+04  0.25500000920E-02 0.  1.
        2   -1    0    0  501    0  0.00000000000E+00  0.00000000000E+00 -0.17349737195E+04  0.17349737195E+04  0.25500000920E-02 0. -1.
    10030    2    1    2    0    0  0.00000000000E+00  0.00000000000E+00 -0.38775922108E+03  0.30821882179E+04  0.30576996251E+04 0.  0.
        4    1    3    3  502    0 -0.98370063375E+03  0.11698981480E+04 -0.22656650810E+03  0.15452063322E+04  0.12699999809E+01 0. -1.
       -4    1    3    3    0  502  0.98370063375E+03 -0.11698981480E+04 -0.16119271298E+03  0.15369818857E+04  0.12699999809E+01 0.  1.
</event>
<event>
 5   0  0.2517725E-06  0.2537945E+04  0.7818609E-02  0.8389591E-01
       -1   -1    0    0    0  501  0.00000000000E+00  0.00000000000E+00  0.10725366037E+04  0.10725366037E+04  0.50400001928E-02 0.  1.
        1   -1    0    0  501    0  0.00000000000E+00  0.00000000000E+00 -0.15013854061E+04  0.15013854061E+04  0.50400001928E-02 0. -1.
    10030    2    1    2    0    0  0.00000000000E+00  0.00000000000E+00 -0.42884880237E+03  0.25739220098E+04  0.25379446836E+04 0.  0.
        3    1    3    3  502    0 -0.38000073784E+02 -0.10976399465E+04 -0.85907120145E+03  0.13943675258E+04  0.10100000352E+00 0. -1.
       -3    1    3    3    0  502  0.38000073784E+02  0.10976399465E+04  0.43022239907E+03  0.11795544840E+04  0.10100000352E+00 0.  1.
</event>
<event>
 5   0  0.7363513E-06  0.3084656E+04  0.7818609E-02  0.8219961E-01
        2   -1    0    0  501    0  0.00000000000E+00  0.00000000000E+00  0.16159310466E+04  0.16159310466E+04  0.25500000920E-02 0.  1.
       -2   -1    0    0    0  501  0.00000000000E+00  0.00000000000E+00 -0.14720779174E+04  0.14720779174E+04  0.25500000920E-02 0. -1.
    10030    2    1    2    0    0  0.00000000000E+00  0.00000000000E+00  0.14385312922E+03  0.30880089639E+04  0.30846564863E+04 0.  0.
        4    1    3    3  502    0 -0.21111908189E+02 -0.13287681703E+03 -0.14661914068E+04  0.14723521371E+04  0.12699999809E+01 0. -1.
       -4    1    3    3    0  502  0.21111908189E+02  0.13287681703E+03  0.16100445361E+04  0.16156568269E+04  0.12699999809E+01 0.  1.
</event>
<event>
 5   0  0.2674441E-06  0.3016010E+04  0.7818609E-02  0.8239174E-01
       -1   -1    0    0    0  501  0.00000000000E+00  0.00000000000E+00  0.11255069769E+04  0.11255069769E+04  0.50400001928E-02 0. -1.
        1   -1    0    0  501    0  0.00000000000E+00  0.00000000000E+00 -0.20204930641E+04  0.20204930641E+04  0.50400001928E-02 0.  1.
    10030    2    1    2    0    0  0.00000000000E+00  0.00000000000E+00 -0.89498608717E+03  0.31460000410E+04  0.30160099737E+04 0.  0.
        5    1    3    3  502    0  0.10041321877E+04 -0.57606245973E+02 -0.16195109620E+04  0.19064201468E+04  0.46999998093E+01 0.  1.
       -5    1    3    3    0  502 -0.10041321877E+04  0.57606245973E+02  0.72452487487E+03  0.12395798942E+04  0.46999998093E+01 0. -1.
</event>
<event>
 5   0  0.7071012E-06  0.3116291E+04  0.7818609E-02  0.8211281E-01
       -2   -1    0    0    0  501  0.00000000000E+00  0.00000000000E+00  0.15773914277E+04  0.15773914277E+04  0.25500000920E-02 0. -1.
        2   -1    0    0  501    0  0.00000000000E+00  0.00000000000E+00 -0.15391342964E+04  0.15391342964E+04  0.25500000920E-02 0.  1.
    10030    2    1    2    0    0  0.00000000000E+00  0.00000000000E+00  0.38257131325E+02  0.31165257242E+04  0.31162909013E+04 0.  0.
        1    1    3    3  502    0 -0.10427554847E+04  0.11503791461E+04  0.14992857576E+03  0.15598685068E+04  0.50400001928E-02 0. -1.
       -1    1    3    3    0  502  0.10427554847E+04 -0.11503791461E+04 -0.11167144443E+03  0.15566572173E+04  0.50400001928E-02 0.  1.
</event>
<event>
 5   0  0.2598987E-06  0.3085255E+04  0.7818609E-02  0.8219796E-01
        1   -1    0    0  501    0  0.00000000000E+00  0.00000000000E+00  0.12046842771E+04  0.12046842771E+04  0.50400001928E-02 0. -1.
       -1   -1    0    0    0  501  0.00000000000E+00  0.00000000000E+00 -0.19753725532E+04  0.19753725532E+04  0.50400001928E-02 0.  1.
    10030    2    1    2    0    0  0.00000000000E+00  0.00000000000E+00 -0.77068827609E+03  0.31800568303E+04  0.30852554230E+04 0.  0.
        2    1    3    3  502    0  0.71968014724E+03  0.96943675556E+03 -0.13750318449E+04  0.18298796988E+04  0.25500000920E-02 0. -1.
       -2    1    3    3    0  502 -0.71968014724E+03 -0.96943675556E+03  0.60434356886E+03  0.13501771316E+04  0.25500000920E-02 0.  1.
</event>
<event>
 5   0  0.7079223E-06  0.3063677E+04  0.7818609E-02  0.8225778E-01
       -2   -1    0    0    0  501  0.00000000000E+00  0.00000000000E+00  0.12494138475E+04  0.12494138475E+04  0.25500000920E-02 0. -1.
        2   -1    0    0  501    0  0.00000000000E+00  0.00000000000E+00 -0.18781043045E+04  0.18781043045E+04  0.25500000920E-02 0.  1.
    10030    2    1    2    0    0  0.00000000000E+00  0.00000000000E+00 -0.62869045701E+03  0.31275181520E+04  0.30636772187E+04 0.  0.
        5    1    3    3  502    0 -0.51372450555E+02  0.35395289821E+02  0.12481091168E+04  0.12496761231E+04  0.46999998093E+01 0. -1.
       -5    1    3    3    0  502  0.51372450555E+02 -0.35395289821E+02 -0.18767995738E+04  0.18778420289E+04  0.46999998093E+01 0.  1.
</event>
<event>
 5   0  0.2517725E-06  0.2437804E+04  0.7818609E-02  0.8425485E-01
       -1   -1    0    0    0  501  0.00000000000E+00  0.00000000000E+00  0.83041725993E+03  0.83041725994E+03  0.50400001928E-02 0. -1.
        1   -1    0    0  501    0  0.00000000000E+00  0.00000000000E+00 -0.17891265039E+04  0.17891265039E+04  0.50400001928E-02 0.  1.
    10030    2    1    2    0    0  0.00000000000E+00  0.00000000000E+00 -0.95870924399E+03  0.26195437639E+04  0.24378035434E+04 0.  0.
        3    1    3    3  502    0  0.77112865266E+03 -0.76927989605E+03  0.10850477520E+03  0.10946251659E+04  0.10100000352E+00 0.  1.
       -3    1    3    3    0  502 -0.77112865266E+03  0.76927989605E+03 -0.10672140192E+04  0.15249185979E+04  0.10100000352E+00 0. -1.
</event>
<event>
 5   0  0.2517725E-06  0.2817154E+04  0.7818609E-02  0.8297963E-01
        1   -1    0    0  501    0  0.00000000000E+00  0.00000000000E+00  0.13089032999E+04  0.13089032999E+04  0.50400001928E-02 0.  1.
       -1   -1    0    0    0  501  0.00000000000E+00  0.00000000000E+00 -0.15158405074E+04  0.15158405074E+04  0.50400001928E-02 0. -1.
    10030    2    1    2    0    0  0.00000000000E+00  0.00000000000E+00 -0.20693720746E+03  0.28247438073E+04  0.28171536289E+04 0.  0.
        3    1    3    3  502    0  0.10710077550E+04  0.89661865949E+03 -0.28590937153E+03  0.14257372867E+04  0.10100000352E+00 0. -1.
       -3    1    3    3    0  502 -0.10710077550E+04 -0.89661865949E+03  0.78972164069E+02  0.13990065206E+04  0.10100000352E+00 0.  1.
</event>
<event>
 5   0  0.2393250E-06  0.3129339E+04  0.7818609E-02  0.8207732E-01
        3   -1    0    0  501    0  0.00000000000E+00  0.00000000000E+00  0.78611523627E+03  0.78611524276E+03  0.10100000352E+00 0.  1.
       -3   -1    0    0    0  501  0.00000000000E+00  0.00000000000E+00 -0.31142895784E+04  0.31142895800E+04  0.10100000352E+00 0. -1.
    10030    2    1    2    0    0  0.00000000000E+00  0.00000000000E+00 -0.23281743421E+04  0.39004048227E+04  0.31293389101E+04 0.  0.
        4    1    3    3  502    0 -0.52727880784E+02  0.51259508671E+03  0.67731913371E+03  0.85105626965E+03  0.12699999809E+01 0.  1.
       -4    1    3    3    0  502  0.52727880784E+02 -0.51259508671E+03 -0.30054934758E+04  0.30493485531E+04  0.12699999809E+01 0. -1.
</event>
<event>
 5   0  0.2624011E-06  0.3129932E+04  0.7818609E-02  0.8207571E-01
        1   -1    0    0  501    0  0.00000000000E+00  0.00000000000E+00  0.90090354651E+03  0.90090354653E+03  0.50400001928E-02 0.  1.
       -1   -1    0    0    0  501  0.00000000000E+00  0.00000000000E+00 -0.27185130869E+04  0.27185130869E+04  0.50400001928E-02 0. -1.
    10030    2    1    2    0    0  0.00000000000E+00  0.00000000000E+00 -0.18176095404E+04  0.36194166334E+04  0.31299316806E+04 0.  0.
        1    1    3    3  502    0  0.16727543816E+03  0.15423457325E+04 -0.11466574458E+04  0.19291538894E+04  0.50400001928E-02 0. -1.
       -1    1    3    3    0  502 -0.16727543816E+03 -0.15423457325E+04 -0.67095209455E+03  0.16902627441E+04  0.50400001928E-02 0.  1.
</event>
<event>
 5   0  0.2598987E-06  0.3409972E+04  0.7818609E-02  0.8135463E-01
        1   -1    0    0  501    0  0.00000000000E+00  0.00000000000E+00  0.16763053775E+04  0.16763053775E+04  0.50400001928E-02 0.  1.
       -1   -1    0    0    0  501  0.00000000000E+00  0.00000000000E+00 -0.17341575902E+04  0.17341575902E+04  0.50400001928E-02 0. -1.
    10030    2    1    2    0    0  0.00000000000E+00  0.00000000000E+00 -0.57852212725E+02  0.34104629677E+04  0.34099722544E+04 0.  0.
        2    1    3    3  502    0  0.99903737308E+03  0.89693792508E+02  0.13499880212E+04  0.16818407495E+04  0.25500000920E-02 0.  1.
       -2    1    3    3    0  502 -0.99903737308E+03 -0.89693792508E+02 -0.14078402339E+04  0.17286222183E+04  0.25500000920E-02 0. -1.
</event>
<event>
 5   0  0.2674441E-06  0.2951420E+04  0.7818609E-02  0.8257741E-01
       -1   -1    0    0    0  501  0.00000000000E+00  0.00000000000E+00  0.13330195928E+04  0.13330195928E+04  0.50400001928E-02 0. -1.
        1   -1    0    0  501    0  0.00000000000E+00  0.00000000000E+00 -0.16336748589E+04  0.16336748589E+04  0.50400001928E-02 0.  1.
    10030    2    1    2    0    0  0.00000000000E+00  0.00000000000E+00 -0.30065526617E+03  0.29666944517E+04  0.29514204005E+04 0.  0.
        5    1    3    3  502    0  0.78709253358E+03  0.18696553488E+03  0.10902506212E+04  0.13576226555E+04  0.46999998093E+01 0. -1.
       -5    1    3    3    0  502 -0.78709253358E+03 -0.18696553488E+03 -0.13909058874E+04  0.16090717962E+04  0.46999998093E+01 0.  1.
</event>
<event>
 5   0  0.7079223E-06  0.3100369E+04  0.7818609E-02  0.8215637E-01
       -2   -1    0    0    0  501  0.00000000000E+00  0.00000000000E+00  0.29107951246E+04  0.29107951246E+04  0.25500000920E-02 0.  1.
        2   -1    0    0  501    0  0.00000000000E+00  0.00000000000E+00 -0.82557239422E+03  0.82557239423E+03  0.25500000920E-02 0. -1.
    10030    2    1    2    0    0  0.00000000000E+00  0.00000000000E+00  0.20852227304E+04  0.37363675188E+04  0.31003690749E+04 0.  0.
        5    1    3    3  502    0  0.13115690319E+03  0.15176842214E+04  0.13887236781E+04  0.20613449671E+04  0.46999998093E+01 0.  1.
       -5    1    3    3    0  502 -0.13115690319E+03 -0.15176842214E+04  0.69649905224E+03  0.16750225518E+04  0.46999998093E+01 0. -1.
</event>
<event>
 5   0  0.2674441E-06  0.2339153E+04  0.7818609E-02  0.8462642E-01
       -1   -1    0    0    0  501  0.00000000000E+00  0.00000000000E+00  0.64142376509E+03  0.64142376511E+03  0.50400001928E-02 0. -1.
        1   -1    0    0  501    0  0.00000000000E+00  0.00000000000E+00 -0.21326129361E+04  0.21326129361E+04  0.50400001928E-02 0.  1.
    10030    2    1    2    0    0  0.00000000000E+00  0.00000000000E+00 -0.14911891710E+04  0.27740367012E+04  0.23391525123E+04 0.  0.
        5    1    3    3  502    0  0.51155393667E+03  0.97878849731E+03 -0.28909856709E+03  0.11416279710E+04  0.46999998093E+01 0. -1.
       -5    1    3    3    0  502 -0.51155393667E+03 -0.97878849731E+03 -0.12020906039E+04  0.16324087302E+04  0.46999998093E+01 0.  1.
</event>
<event>
 5   0  0.7071012E-06  0.2753370E+04  0.7818609E-02  0.8317893E-01
        2   -1    0    0  501    0  0.00000000000E+00  0.00000000000E+00  0.17781751238E+04  0.17781751238E+04  0.25500000920E-02 0.  1.
       -2   -1    0    0    0  501  0.00000000000E+00  0.00000000000E+00 -0.10658465622E+04  0.10658465622E+04  0.25500000920E-02 0. -1.
    10030    2    1    2    0    0  0.00000000000E+00  0.00000000000E+00  0.71232856162E+03  0.28440216860E+04  0.27533701841E+04 0.  0.
        1    1    3    3  502    0 -0.12748994107E+03 -0.17850859099E+03 -0.10476787130E+04  0.10703969768E+04  0.50400001928E-02 0. -1.
       -1    1    3    3    0  502  0.12748994107E+03  0.17850859099E+03  0.17600072747E+04  0.17736247092E+04  0.50400001928E-02 0.  1.
</event>
<event>
 5   0  0.2624011E-06  0.3120655E+04  0.7818609E-02  0.8210092E-01
        1   -1    0    0  501    0  0.00000000000E+00  0.00000000000E+00  0.21673077006E+04  0.21673077006E+04  0.50400001928E-02 0. -1.
       -1   -1    0    0    0  501  0.00000000000E+00  0.00000000000E+00 -0.11233390392E+04  0.11233390393E+04  0.50400001928E-02 0.  1.
    10030    2    1    2    0    0  0.00000000000E+00  0.00000000000E+00  0.10439686614E+04  0.32906467399E+04  0.31206546430E+04 0.  0.
        1    1    3    3  502    0 -0.15395648942E+04  0.23783002647E+03  0.42886673093E+03  0.16157815006E+04  0.50400001928E-02 0.  1.
       -1    1    3    3    0  502  0.15395648942E+04 -0.23783002647E+03  0.61510193043E+03  0.16748652392E+04  0.50400001928E-02 0. -1.
</event>
<event>
 5   0  0.7363513E-06  0.3088425E+04  0.7818609E-02  0.8218922E-01
       -2   -1    0    0    0  501  0.00000000000E+00  0.00000000000E+00  0.19582777715E+04  0.19582777715E+04  0.25500000920E-02 0.  1.
        2   -1    0    0  501    0  0.00000000000E+00  0.00000000000E+00 -0.12176985615E+04  0.12176985615E+04  0.25500000920E-02 0. -1.
    10030    2    1    2    0    0  0.00000000000E+00  0.00000000000E+00  0.74057921001E+03  0.31759763329E+04  0.30884248576E+04 0.  0.
        4    1    3    3  502    0 -0.13162831400E+04  0.61216381343E+03 -0.17117708551E+03  0.14617281028E+04  0.12699999809E+01 0. -1.
       -4    1    3    3    0  502  0.13162831400E+04 -0.61216381343E+03  0.91175629551E+03  0.17142482301E+04  0.12699999809E+01 0.  1.
</event>
<event>
 5   0  0.7094341E-06  0.3046983E+04  0.7818609E-02  0.8230440E-01
        2   -1    0    0  501    0  0.00000000000E+00  0.00000000000E+00  0.15949154486E+04  0.15949154486E+04  0.25500000920E-02 0.  1.
       -2   -1    0    0    0  501  0.00000000000E+00  0.00000000000E+00 -0.14552660476E+04  0.14552660477E+04  0.25500000920E-02 0. -1.
    10030    2    1    2    0    0  0.00000000000E+00  0.00000000000E+00  0.13964940093E+03  0.30501814962E+04  0.30469829676E+04 0.  0.
        3    1    3    3  502    0  0.14244031345E+04 -0.47156870006E+03 -0.19450733505E+03  0.15129885796E+04  0.10100000352E+00 0. -1.
       -3    1    3    3    0  502 -0.14244031345E+04  0.47156870006E+03  0.33415673598E+03  0.15371929166E+04  0.10100000352E+00 0.  1.
</event>
<event>
 5   0  0.2517725E-06  0.3071301E+04  0.7818609E-02  0.8223659E-01
       -1   -1    0    0    0  501  0.00000000000E+00  0.00000000000E+00  0.16232164574E+04  0.16232164574E+04  0.50400001928E-02 0.  1.
        1   -1    0    0  501    0  0.00000000000E+00  0.00000000000E+00 -0.14528083268E+04  0.14528083268E+04  0.50400001928E-02 0. -1.
    10030    2    1    2    0    0  0.00000000000E+00  0.00000000000E+00  0.17040813061E+03  0.30760247842E+04  0.30713009527E+04 0.  0.
        3    1    3    3  502    0  0.78883982851E+03  0.67543178231E+03 -0.10477944678E+04  0.14752456150E+04  0.10100000352E+00 0. -1.
       -3    1    3    3    0  502 -0.78883982851E+03 -0.67543178231E+03  0.12182025984E+04  0.16007791692E+04  0.10100000352E+00 0.  1.
</event>
<event>
 5   0  0.2674441E-06  0.3191080E+04  0.7818609E-02  0.8191177E-01
       -1   -1    0    0    0  501  0.00000000000E+00  0.00000000000E+00  0.14985003065E+04  0.14985003065E+04  0.50400001928E-02 0.  1.
        1   -1    0    0  501    0  0.00000000000E+00  0.00000000000E+00 -0.16988638054E+04  0.16988638054E+04  0.50400001928E-02 0. -1.
    10030    2    1    2    0    0  0.00000000000E+00  0.00000000000E+00 -0.20036349888E+03  0.31973641119E+04  0.31910800260E+04 0.  0.
        5    1    3    3  502    0 -0.28020088800E+03  0.15685802742E+04 -0.18261909390E+03  0.16038480096E+04  0.46999998093E+01 0. -1.
       -5    1    3    3    0  502  0.28020088800E+03 -0.15685802742E+04 -0.17744404973E+02  0.15935161023E+04  0.46999998093E+01 0.  1.
</event>
<event>
 5   0  0.2393250E-06  0.2854164E+04  0.7818609E-02  0.8286647E-01
        3   -1    0    0  501    0  0.00000000000E+00  0.00000000000E+00  0.15369795094E+04  0.15369795128E+04  0.10100000352E+00 0.  1.
       -3   -1    0    0    0  501  0.00000000000E+00  0.00000000000E+00 -0.13250423615E+04  0.13250423654E+04  0.10100000352E+00 0. -1.
    10030    2    1    2    0    0  0.00000000000E+00  0.00000000000E+00  0.21193714791E+03  0.28620218782E+04  0.28541639540E+04 0.  0.
        3    1    3    3  502    0 -0.14143909523E+04 -0.40256581985E+02  0.29206129646E+03  0.14447913931E+04  0.10100000352E+00 0.  1.
       -3    1    3    3    0  502  0.14143909523E+04  0.40256581985E+02 -0.80124148550E+02  0.14172304851E+04  0.10100000352E+00 0. -1.
</event>
<event>
 5   0  0.2598987E-06  0.2815352E+04  0.7818609E-02  0.8298518E-01
        1   -1    0    0  501    0  0.00000000000E+00  0.00000000000E+00  0.12044804572E+04  0.12044804572E+04  0.50400001928E-02 0. -1.
       -1   -1    0    0    0  501  0.00000000000E+00  0.00000000000E+00 -0.16451507975E+04  0.16451507976E+04  0.50400001928E-02 0.  1.
    10030    2    1    2    0    0  0.00000000000E+00  0.00000000000E+00 -0.44067034038E+03  0.28496312547E+04  0.28153521874E+04 0.  0.
        2    1    3    3  502    0  0.77916208084E+03 -0.13196709431E+02  0.96623718146E+03  0.12413226785E+04  0.25500000920E-02 0. -1.
       -2    1    3    3    0  502 -0.77916208084E+03  0.13196709431E+02 -0.14069075218E+04  0.16083085762E+04  0.25500000920E-02 0.  1.
</event>
<event>
 5   0  0.7094341E-06  0.3165046E+04  0.7818609E-02  0.8198110E-01
       -2   -1    0    0    0  501  0.00000000000E+00  0.00000000000E+00  0.21460353515E+04  0.21460353515E+04  0.25500000920E-02 0.  1.
        2   -1    0    0  501    0  0.00000000000E+00  0.00000000000E+00 -0.11669790502E+04  0.11669790502E+04  0.25500000920E-02 0. -1.
    10030    2    1    2    0    0  0.00000000000E+00  0.00000000000E+00  0.97905630130E+03  0.33130144017E+04  0.31650455265E+04 0.  0.
        3    1    3    3  502    0  0.91685224344E+03 -0.58396001529E+03  0.16934059438E+04  0.20122750897E+04  0.10100000352E+00 0.  1.
       -3    1    3    3    0  502 -0.91685224344E+03  0.58396001529E+03 -0.71434964253E+03  0.13007393120E+04  0.10100000352E+00 0. -1.
</event>
<event>
 5   0  0.7414808E-06  0.2616114E+04  0.7818609E-02  0.8362748E-01
        2   -1    0    0  501    0  0.00000000000E+00  0.00000000000E+00  0.10267544203E+04  0.10267544203E+04  0.25500000920E-02 0.  1.
       -2   -1    0    0    0  501  0.00000000000E+00  0.00000000000E+00 -0.16664285938E+04  0.16664285938E+04  0.25500000920E-02 0. -1.
    10030    2    1    2    0    0  0.00000000000E+00  0.00000000000E+00 -0.63967417357E+03  0.26931830141E+04  0.26161138544E+04 0.  0.
        2    1    3    3  502    0 -0.11807988353E+04 -0.42630412719E+03 -0.69807317442E+03  0.14364286460E+04  0.25500000920E-02 0. -1.
       -2    1    3    3    0  502  0.11807988353E+04  0.42630412719E+03  0.58399000855E+02  0.12567543681E+04  0.25500000920E-02 0.  1.
</event>
<event>
 5   0  0.7094341E-06  0.3065801E+04  0.7818609E-02  0.8225187E-01
        2   -1    0    0  501    0  0.00000000000E+00  0.00000000000E+00  0.23383219422E+04  0.23383219422E+04  0.25500000920E-02 0.  1.
       -2   -1    0    0    0  501  0.00000000000E+00  0.00000000000E+00 -0.10049016458E+04  0.10049016458E+04  0.25500000920E-02 0. -1.
    10030    2    1    2    0    0  0.00000000000E+00  0.00000000000E+00  0.13334202965E+04  0.33432235880E+04  0.30658007555E+04 0.  0.
        3    1    3    3  502    0 -0.19457862192E+03 -0.14301503823E+04  0.12297583061E+04  0.18961794371E+04  0.10100000352E+00 0. -1.
       -3    1    3    3    0  502  0.19457862192E+03  0.14301503823E+04  0.10366199039E+03  0.14470441509E+04  0.10100000352E+00 0.  1.
</event>
<event>
 5   0  0.7414808E-06  0.3132028E+04  0.7818609E-02  0.8207003E-01
        2   -1    0    0  501    0  0.00000000000E+00  0.00000000000E+00  0.19917692008E+04  0.19917692008E+04  0.25500000920E-02 0. -1.
       -2   -1    0    0    0  501  0.00000000000E+00  0.00000000000E+00 -0.12312670890E+04  0.12312670890E+04  0.25500000920E-02 0.  1.
    10030    2    1    2    0    0  0.00000000000E+00  0.00000000000E+00  0.76050211183E+03  0.32230362898E+04  0.31320280113E+04 0.  0.
        2    1    3    3  502    0 -0.49526188557E+03  0.11654534890E+04 -0.56784177697E+03  0.13878077871E+04  0.25500000920E-02 0.  1.
       -2    1    3    3    0  502  0.49526188557E+03 -0.11654534890E+04  0.13283438888E+04  0.18352285027E+04  0.25500000920E-02 0. -1.
</event>
<event>
 5   0  0.7094341E-06  0.3066401E+04  0.7818609E-02  0.8225020E-01
       -2   -1    0    0    0  501  0.00000000000E+00  0.00000000000E+00  0.15959605011E+04  0.15959605011E+04  0.25500000920E-02 0. -1.
        2   -1    0    0  501    0  0.00000000000E+00  0.00000000000E+00 -0.14729087674E+04  0.14729087674E+04  0.25500000920E-02 0.  1.
    10030    2    1    2    0    0  0.00000000000E+00  0.00000000000E+00  0.12305173364E+03  0.30688692685E+04  0.30664012878E+04 0.  0.
        3    1    3    3  502    0  0.72906456220E+03 -0.26186663898E+03  0.13856912584E+04  0.15875293844E+04  0.10100000352E+00 0. -1.
       -3    1    3    3    0  502 -0.72906456220E+03  0.26186663898E+03 -0.12626395248E+04  0.14813398841E+04  0.10100000352E+00 0.  1.
</event>
<event>
 5   0  0.7079223E-06  0.3137733E+04  0.7818609E-02  0.8205458E-01
        2   -1    0    0  501    0  0.00000000000E+00  0.00000000000E+00  0.24555277695E+04  0.24555277695E+04  0.25500000920E-02 0. -1.
       -2   -1    0    0    0  501  0.00000000000E+00  0.00000000000E+00 -0.10023681104E+04  0.10023681104E+04  0.25500000920E-02 0.  1.
    10030    2    1    2    0    0  0.00000000000E+00  0.00000000000E+00  0.14531596591E+04  0.34578958798E+04  0.31377334050E+04 0.  0.
        5    1    3    3  502    0  0.41864537442E+03 -0.15019985667E+04  0.91763933973E+03  0.18092395341E+04  0.46999998093E+01 0.  1.
       -5    1    3    3    0  502 -0.41864537442E+03  0.15019985667E+04  0.53552031935E+03  0.16486563457E+04  0.46999998093E+01 0. -1.
</event>
<event>
 5   0  0.7363513E-06  0.3078352E+04  0.7818609E-02  0.8221704E-01
        2   -1    0    0  501    0  0.00000000000E+00  0.00000000000E+00  0.14636700937E+04  0.14636700937E+04  0.25500000920E-02 0. -1.
       -2   -1    0    0    0  501  0.00000000000E+00  0.00000000000E+00 -0.16185767732E+04  0.16185767732E+04  0.25500000920E-02 0.  1.
    10030    2    1    2    0    0  0.00000000000E+00  0.00000000000E+00 -0.15490667952E+03  0.30822468670E+04  0.30783517781E+04 0.  0.
        4    1    3    3  502    0 -0.38180309073E+03 -0.26405025695E+03  0.13919063832E+04  0.14672767737E+04  0.12699999809E+01 0. -1.
       -4    1    3    3    0  502  0.38180309073E+03  0.26405025695E+03 -0.15468130627E+04  0.16149700932E+04  0.12699999809E+01 0.  1.
</event>
<event>
 5   0  0.7363513E-06  0.2944023E+04  0.7818609E-02  0.8259899E-01
        2   -1    0    0  501    0  0.00000000000E+00  0.00000000000E+00  0.15746927342E+04  0.15746927342E+04  0.25500000920E-02 0.  1.
       -2   -1    0    0    0  501  0.00000000000E+00  0.00000000000E+00 -0.13760255532E+04  0.13760255532E+04  0.25500000920E-02 0. -1.
    10030    2    1    2    0    0  0.00000000000E+00  0.00000000000E+00  0.19866718099E+03  0.29507182874E+04  0.29440227178E+04 0.  0.
        4    1    3    3  502    0 -0.12469795545E+03  0.10396783373E+04 -0.93758938162E+03  0.14055447651E+04  0.12699999809E+01 0. -1.
       -4    1    3    3    0  502  0.12469795545E+03 -0.10396783373E+04  0.11362565626E+04  0.15451735224E+04  0.12699999809E+01 0.  1.
</event>
<event>
 5   0  0.2624011E-06  0.3057005E+04  0.7818609E-02  0.8227638E-01
       -1   -1    0    0    0  501  0.00000000000E+00  0.00000000000E+00  0.11924671510E+04  0.11924671510E+04  0.50400001928E-02 0. -1.
        1   -1    0    0  501    0  0.00000000000E+00  0.00000000000E+00 -0.19592316745E+04  0.19592316745E+04  0.50400001928E-02 0.  1.
    10030    2    1    2    0    0  0.00000000000E+00  0.00000000000E+00 -0.76676452351E+03  0.31516988255E+04  0.30570046863E+04 0.  0.
        1    1    3    3  502    0 -0.56258367814E+03 -0.46107054305E+03 -0.17693581539E+04  0.19130380857E+04  0.50400001928E-02 0.  1.
       -1    1    3    3    0  502  0.56258367814E+03  0.46107054305E+03  0.10025936304E+04  0.12386607398E+04  0.50400001928E-02 0. -1.
</event>
<event>
 5   0  0.7414808E-06  0.3083454E+04  0.7818609E-02  0.8220293E-01
        2   -1    0    0  501    0  0.00000000000E+00  0.00000000000E+00  0.18659297910E+04  0.18659297910E+04  0.25500000920E-02 0. -1.
       -2   -1    0    0    0  501  0.00000000000E+00  0.00000000000E+00 -0.12738542596E+04  0.12738542596E+04  0.25500000920E-02 0.  1.
    10030    2    1    2    0    0  0.00000000000E+00  0.00000000000E+00  0.59207553145E+03  0.31397840506E+04  0.30834543048E+04 0.  0.
        2    1    3    3  502    0 -0.62019838556E+03  0.13168196705E+04 -0.22144151164E+03  0.14723098944E+04  0.25500000920E-02 0.  1.
       -2    1    3    3    0  502  0.62019838556E+03 -0.13168196705E+04  0.81351704308E+03  0.16674741562E+04  0.25500000920E-02 0. -1.
</event>
<event>
 5   0  0.2674441E-06  0.3113255E+04  0.7818609E-02  0.8212110E-01
        1   -1    0    0  501    0  0.00000000000E+00  0.00000000000E+00  0.14292704890E+04  0.14292704890E+04  0.50400001928E-02 0. -1.
       -1   -1    0    0    0  501  0.00000000000E+00  0.00000000000E+00 -0.16953328825E+04  0.16953328825E+04  0.50400001928E-02 0.  1.
    10030    2    1    2    0    0  0.00000000000E+00  0.00000000000E+00 -0.26606239346E+03  0.31246033715E+04  0.31132550541E+04 0.  0.
        5    1    3    3  502    0  0.66428476038E+03 -0.12244324731E+04 -0.83022733815E+03  0.16216684763E+04  0.46999998093E+01 0.  1.
       -5    1    3    3    0  502 -0.66428476038E+03  0.12244324731E+04  0.56416494469E+03  0.15029348951E+04  0.46999998093E+01 0. -1.
</event>
<event>
 5   0  0.2612331E-06  0.2938668E+04  0.7818609E-02  0.8261465E-01
       -1   -1    0    0    0  501  0.00000000000E+00  0.00000000000E+00  0.17667103651E+04  0.17667103651E+04  0.50400001928E-02 0. -1.
        1   -1    0    0  501    0  0.00000000000E+00  0.00000000000E+00 -0.12220124530E+04  0.12220124530E+04  0.50400001928E-02 0.  1.
    10030    2    1    2    0    0  0.00000000000E+00  0.00000000000E+00  0.54469791205E+03  0.29887228181E+04  0.29386677710E+04 0.  0.
        4    1    3    3  502    0 -0.95910417498E+03 -0.11068905796E+04  0.15264591280E+03  0.14725454021E+04  0.12699999809E+01 0. -1.
       -4    1    3    3    0  502  0.95910417498E+03  0.11068905796E+04  0.39205199925E+03  0.15161774160E+04  0.12699999809E+01 0.  1.
</event>
<event>
 5   0  0.2674441E-06  0.3116632E+04  0.7818609E-02  0.8211188E-01
        1   -1    0    0  501    0  0.00000000000E+00  0.00000000000E+00  0.15460174182E+04  0.15460174182E+04  0.50400001928E-02 0.  1.
       -1   -1    0    0    0  501  0.00000000000E+00  0.00000000000E+00 -0.15707126593E+04  0.15707126593E+04  0.50400001928E-02 0. -1.
    10030    2    1    2    0    0  0.00000000000E+00  0.00000000000E+00 -0.24695241093E+02  0.31167300775E+04  0.31166322402E+04 0.  0.
        5    1    3    3  502    0 -0.12236841983E+04  0.56173520605E+03  0.77213706247E+03  0.15521492171E+04  0.46999998093E+01 0.  1.
       -5    1    3    3    0  502  0.12236841983E+04 -0.56173520605E+03 -0.79683230356E+03  0.15645808604E+04  0.46999998093E+01 0. -1.
</event>
<event>
 5   0  0.7071012E-06  0.3157082E+04  0.7818609E-02  0.8200244E-01
        2   -1    0    0  501    0  0.00000000000E+00  0.00000000000E+00  0.23712869825E+04  0.23712869825E+04  0.25500000920E-02 0.  1.
       -2   -1    0    0    0  501  0.00000000000E+00  0.00000000000E+00 -0.10508185464E+04  0.10508185464E+04  0.25500000920E-02 0. -1.
    10030    2    1    2    0    0  0.00000000000E+00  0.00000000000E+00  0.13204684361E+04  0.34221055289E+04  0.31570824126E+04 0.  0.
        1    1    3    3  502    0  0.13759747660E+04  0.69647983740E+03  0.29521384293E+03  0.15702044242E+04  0.50400001928E-02 0.  1.
       -1    1    3    3    0  502 -0.13759747660E+04 -0.69647983740E+03  0.10252545932E+04  0.18519011047E+04  0.50400001928E-02 0. -1.
</event>
<event>
 5   0  0.7094341E-06  0.3113351E+04  0.7818609E-02  0.8212083E-01
       -2   -1    0    0    0  501  0.00000000000E+00  0.00000000000E+00  0.19277491653E+04  0.19277491654E+04  0.25500000920E-02 0.  1.
        2   -1    0    0  501    0  0.00000000000E+00  0.00000000000E+00 -0.12570299405E+04  0.12570299405E+04  0.25500000920E-02 0. -1.
    10030    2    1    2    0    0  0.00000000000E+00  0.00000000000E+00  0.67071922484E+03  0.31847791059E+04  0.31133508756E+04 0.  0.
        3    1    3    3  502    0 -0.89757470408E+03  0.12308433722E+04  0.76623117018E+01  0.15233760131E+04  0.10100000352E+00 0. -1.
       -3    1    3    3    0  502  0.89757470408E+03 -0.12308433722E+04  0.66305691314E+03  0.16614030927E+04  0.10100000352E+00 0.  1.
</event>
<event>
 5   0  0.7079223E-06  0.2551559E+04  0.7818609E-02  0.8384844E-01
        2   -1    0    0  501    0  0.00000000000E+00  0.00000000000E+00  0.16599096422E+04  0.16599096422E+04  0.25500000920E-02 0. -1.
       -2   -1    0    0    0  501  0.00000000000E+00  0.00000000000E+00 -0.98054348621E+03  0.98054348621E+03  0.25500000920E-02 0.  1.
    10030    2    1    2    0    0  0.00000000000E+00  0.00000000000E+00  0.67936615598E+03  0.26404531284E+04  0.25515591997E+04 0.  0.
        5    1    3    3  502    0  0.34796768155E+03 -0.10413829031E+04 -0.33258937938E+03  0.11472565727E+04  0.46999998093E+01 0.  1.
       -5    1    3    3    0  502 -0.34796768155E+03  0.10413829031E+04  0.10119555354E+04  0.14931965557E+04  0.46999998093E+01 0. -1.
</event>
<event>
 5   0  0.2674441E-06  0.3099788E+04  0.7818609E-02  0.8215796E-01
       -1   -1    0    0    0  501  0.00000000000E+00  0.00000000000E+00  0.30950397238E+04  0.30950397238E+04  0.50400001928E-02 0.  1.
        1   -1    0    0  501    0  0.00000000000E+00  0.00000000000E+00 -0.77613605353E+03  0.77613605355E+03  0.50400001928E-02 0. -1.
    10030    2    1    2    0    0  0.00000000000E+00  0.00000000000E+00  0.23189036702E+04  0.38711757773E+04  0.30997883262E+04 0.  0.
        5    1    3    3  502    0  0.11383984162E+04  0.10500519411E+04  0.12342766432E+04  0.19804092897E+04  0.46999998093E+01 0.  1.
       -5    1    3    3    0  502 -0.11383984162E+04 -0.10500519411E+04  0.10846270270E+04  0.18907664876E+04  0.46999998093E+01 0. -1.
</event>
<event>
 5   0  0.7094341E-06  0.3094775E+04  0.7818609E-02  0.8217173E-01
        2   -1    0    0  501    0  0.00000000000E+00  0.00000000000E+00  0.16124229374E+04  0.16124229374E+04  0.25500000920E-02 0.  1.
       -2   -1    0    0    0  501  0.00000000000E+00  0.00000000000E+00 -0.14849749269E+04  0.14849749269E+04  0.25500000920E-02 0. -1.
    10030    2    1    2    0    0  0.00000000000E+00  0.00000000000E+00  0.12744801051E+03  0.30973978643E+04  0.30947747147E+04 0.  0.
        3    1    3    3  502    0  0.12151757202E+04  0.95760925100E+03  0.36495895661E+02  0.15475785826E+04  0.10100000352E+00 0.  1.
       -3    1    3    3    0  502 -0.12151757202E+04 -0.95760925100E+03  0.90952114848E+02  0.15498192817E+04  0.10100000352E+00 0. -1.
</event>
<event>
 5   0  0.7363513E-06  0.3074304E+04  0.7818609E-02  0.8222825E-01
        2   -1    0    0  501    0  0.00000000000E+00  0.00000000000E+00  0.13036773542E+04  0.13036773542E+04  0.25500000920E-02 0. -1.
       -2   -1    0    0    0  501  0.00000000000E+00  0.00000000000E+00 -0.18124395684E+04  0.18124395684E+04  0.25500000920E-02 0.  1.
    10030    2    1    2    0    0  0.00000000000E+00  0.00000000000E+00 -0.50876221417E+03  0.31161169226E+04  0.30743040977E+04 0.  0.
        4    1    3    3  502    0 -0.10679545531E+04  0.10911876361E+04 -0.74149830286E+02  0.15286324591E+04  0.12699999809E+01 0.  1.
       -4    1    3    3    0  502  0.10679545531E+04 -0.10911876361E+04 -0.43461238389E+03  0.15874844635E+04  0.12699999809E+01 0. -1.
</event>
<event>
 5   0  0.7079223E-06  0.3204548E+04  0.7818609E-02  0.8187617E-01
        2   -1    0    0  501    0  0.00000000000E+00  0.00000000000E+00  0.19332825402E+04  0.19332825403E+04  0.25500000920E-02 0.  1.
       -2   -1    0    0    0  501  0.00000000000E+00  0.00000000000E+00 -0.13279393830E+04  0.13279393830E+04  0.25500000920E-02 0. -1.
    10030    2    1    2    0    0  0.00000000000E+00  0.00000000000E+00  0.60534315723E+03  0.32612219233E+04  0.32045480329E+04 0.  0.
        5    1    3    3  502    0 -0.84401057469E+03 -0.34447219746E+03 -0.10382984468E+04  0.13817021023E+04  0.46999998093E+01 0. -1.
       -5    1    3    3    0  502  0.84401057469E+03  0.34447219746E+03  0.16436416040E+04  0.18795198210E+04  0.46999998093E+01 0.  1.
</event>
<event>
 5   0  0.2674441E-06  0.2524279E+04  0.7818609E-02  0.8394387E-01
        1   -1    0    0  501    0  0.00000000000E+00  0.00000000000E+00  0.22799186221E+04  0.22799186221E+04  0.50400001928E-02 0. -1.
       -1   -1    0    0    0  501  0.00000000000E+00  0.00000000000E+00 -0.69870756232E+03  0.69870756233E+03  0.50400001928E-02 0.  1.
    10030    2    1    2    0    0  0.00000000000E+00  0.00000000000E+00  0.15812110598E+04  0.29786261844E+04  0.25242792102E+04 0.  0.
        5    1    3    3  502    0  0.10030076880E+04  0.70170118193E+03  0.11534700990E+04  0.16819406441E+04  0.46999998093E+01 0. -1.
       -5    1    3    3    0  502 -0.10030076880E+04 -0.70170118193E+03  0.42774096076E+03  0.12966855403E+04  0.46999998093E+01 0.  1.
</event>
<event>
 5   0  0.7094341E-06  0.2732703E+04  0.7818609E-02  0.8324471E-01
       -2   -1    0    0    0  501  0.00000000000E+00  0.00000000000E+00  0.15174388564E+04  0.15174388564E+04  0.25500000920E-02 0.  1.
        2   -1    0    0  501    0  0.00000000000E+00  0.00000000000E+00 -0.12303071673E+04  0.12303071673E+04  0.25500000920E-02 0. -1.
    10030    2    1    2    0    0  0.00000000000E+00  0.00000000000E+00  0.28713168908E+03  0.27477460236E+04  0.27327026189E+04 0.  0.
        3    1    3    3  502    0 -0.62866792891E+03  0.10709504317E+04 -0.42944645313E+03  0.13139948471E+04  0.10100000352E+00 0. -1.
       -3    1    3    3    0  502  0.62866792891E+03 -0.10709504317E+04  0.71657814221E+03  0.14337511765E+04  0.10100000352E+00 0.  1.
</event>
<event>
 5   0  0.7071012E-06  0.3096345E+04  0.7818609E-02  0.8216742E-01
        2   -1    0    0  501    0  0.00000000000E+00  0.00000000000E+00  0.13246518648E+04  0.13246518648E+04  0.25500000920E-02 0.  1.
       -2   -1    0    0    0  501  0.00000000000E+00  0.00000000000E+00 -0.18094094799E+04  0.18094094799E+04  0.25500000920E-02 0. -1.
    10030    2    1    2    0    0  0.00000000000E+00  0.00000000000E+00 -0.48475761512E+03  0.31340613446E+04  0.30963447105E+04 0.  0.
        1    1    3    3  502    0 -0.88130429043E+03  0.12148566114E+04  0.14206854748E+03  0.15075666853E+04  0.50400001928E-02 0.  1.
       -1    1    3    3    0  502  0.88130429043E+03 -0.12148566114E+04 -0.62682616261E+03  0.16264946593E+04  0.50400001928E-02 0. -1.
</event>
<event>
 5   0  0.7363513E-06  0.2723994E+04  0.7818609E-02  0.8327262E-01
       -2   -1    0    0    0  501  0.00000000000E+00  0.00000000000E+00  0.95995909096E+03  0.95995909097E+03  0.25500000920E-02 0. -1.
        2   -1    0    0  501    0  0.00000000000E+00  0.00000000000E+00 -0.19324110286E+04  0.19324110286E+04  0.25500000920E-02 0.  1.
    10030    2    1    2    0    0  0.00000000000E+00  0.00000000000E+00 -0.97245193768E+03  0.28923701196E+04  0.27239937844E+04 0.  0.
        4    1    3    3  502    0 -0.61731614610E+03 -0.11754630682E+04 -0.16374031661E+03  0.13377612467E+04  0.12699999809E+01 0. -1.
       -4    1    3    3    0  502  0.61731614610E+03  0.11754630682E+04 -0.80871162107E+03  0.15546088729E+04  0.12699999809E+01 0.  1.
</event>
<event>
 5   0  0.7071012E-06  0.3152753E+04  0.7818609E-02  0.8201408E-01
        2   -1    0    0  501    0  0.00000000000E+00  0.00000000000E+00  0.18233351093E+04  0.18233351093E+04  0.25500000920E-02 0. -1.
       -2   -1    0    0    0  501  0.00000000000E+00  0.00000000000E+00 -0.13628664869E+04  0.13628664869E+04  0.25500000920E-02 0.  1.
    10030    2    1    2    0    0  0.00000000000E+00  0.00000000000E+00  0.46046862235E+03  0.31862015962E+04  0.31527526480E+04 0.  0.
        1    1    3    3  502    0  0.14257311735E+04 -0.39644386706E+02  0.90868470797E+03  0.16911501870E+04  0.50400001928E-02 0. -1.
       -1    1    3    3    0  502 -0.14257311735E+04  0.39644386706E+02 -0.44821608562E+03  0.14950514092E+04  0.50400001928E-02 0.  1.
</event>
<event>
 5   0  0.7094341E-06  0.3113295E+04  0.7818609E-02  0.8212099E-01
        2   -1    0    0  501    0  0.00000000000E+00  0.00000000000E+00  0.13993651649E+04  0.13993651649E+04  0.25500000920E-02 0. -1.
       -2   -1    0    0    0  501  0.00000000000E+00  0.00000000000E+00 -0.17316080568E+04  0.17316080568E+04  0.25500000920E-02 0.  1.
    10030    2    1    2    0    0  0.00000000000E+00  0.00000000000E+00 -0.33224289193E+03  0.31309732217E+04  0.31132953563E+04 0.  0.
        3    1    3    3  502    0 -0.10890031426E+03  0.74939916290E+03 -0.15338783835E+04  0.17106259934E+04  0.10100000352E+00 0.  1.
       -3    1    3    3    0  502  0.10890031426E+03 -0.74939916290E+03  0.12016354916E+04  0.14203472282E+04  0.10100000352E+00 0. -1.
</event>
<event>
 5   0  0.7414808E-06  0.2826197E+04  0.7818609E-02  0.8295181E-01
       -2   -1    0    0    0  501  0.00000000000E+00  0.00000000000E+00  0.96145494256E+03  0.96145494256E+03  0.25500000920E-02 0. -1.
        2   -1    0    0  501    0  0.00000000000E+00  0.00000000000E+00 -0.20769023716E+04  0.20769023716E+04  0.25500000920E-02 0.  1.
    10030    2    1    2    0    0  0.00000000000E+00  0.00000000000E+00 -0.11154474290E+04  0.30383573141E+04  0.28261974810E+04 0.  0.
        2    1    3    3  502    0  0.37537893900E+02 -0.11800082348E+04 -0.13925613655E+04  0.18256658194E+04  0.25500000920E-02 0.  1.
       -2    1    3    3    0  502 -0.37537893900E+02  0.11800082348E+04  0.27711393645E+03  0.12126914947E+04  0.25500000920E-02 0. -1.
</event>
<event>
 5   0  0.7071012E-06  0.3047449E+04  0.7818609E-02  0.8230310E-01
       -2   -1    0    0    0  501  0.00000000000E+00  0.00000000000E+00  0.90469372620E+03  0.90469372620E+03  0.25500000920E-02 0. -1.
        2   -1    0    0  501    0  0.00000000000E+00  0.00000000000E+00 -0.25663228233E+04  0.25663228233E+04  0.25500000920E-02 0.  1.
    10030    2    1    2    0    0  0.00000000000E+00  0.00000000000E+00 -0.16616290971E+04  0.34710165495E+04  0.30474488725E+04 0.  0.
        1    1    3    3  502    0  0.42688552859E+03  0.10399700992E+04 -0.20023524318E+04  0.22963415083E+04  0.50400001928E-02 0.  1.
       -1    1    3    3    0  502 -0.42688552859E+03 -0.10399700992E+04  0.34072333462E+03  0.11746750412E+04  0.50400001928E-02 0. -1.
</event>
<event>
 5   0  0.7414808E-06  0.3085428E+04  0.7818609E-02  0.8219748E-01
        2   -1    0    0  501    0  0.00000000000E+00  0.00000000000E+00  0.18650290087E+04  0.18650290087E+04  0.25500000920E-02 0.  1.
       -2   -1    0    0    0  501  0.00000000000E+00  0.00000000000E+00 -0.12761015493E+04  0.12761015493E+04  0.25500000920E-02 0. -1.
    10030    2    1    2    0    0  0.00000000000E+00  0.00000000000E+00  0.58892745940E+03  0.31411305580E+04  0.30854279492E+04 0.  0.
        2    1    3    3  502    0  0.11071942219E+04 -0.10645631711E+04  0.44126342585E+03  0.15980886087E+04  0.25500000920E-02 0.  1.
       -2    1    3    3    0  502 -0.11071942219E+04  0.10645631711E+04  0.14766403354E+03  0.15430419492E+04  0.25500000920E-02 0. -1.
</event>
<event>
 5   0  0.2624011E-06  0.3062415E+04  0.7818609E-02  0.8226129E-01
       -1   -1    0    0    0  501  0.00000000000E+00  0.00000000000E+00  0.11307735225E+04  0.11307735225E+04  0.50400001928E-02 0.  1.
        1   -1    0    0  501    0  0.00000000000E+00  0.00000000000E+00 -0.20734441081E+04  0.20734441081E+04  0.50400001928E-02 0. -1.
    10030    2    1    2    0    0  0.00000000000E+00  0.00000000000E+00 -0.94267058561E+03  0.32042176307E+04  0.30624145362E+04 0.  0.
        1    1    3    3  502    0  0.12189890979E+04  0.84869528874E+03 -0.86055148558E+03  0.17166149752E+04  0.50400001928E-02 0.  1.
       -1    1    3    3    0  502 -0.12189890979E+04 -0.84869528874E+03 -0.82119100028E+02  0.14876026554E+04  0.50400001928E-02 0. -1.
</event>
<event>
 5   0  0.2598987E-06  0.3176928E+04  0.7818609E-02  0.8194937E-01
       -1   -1    0    0    0  501  0.00000000000E+00  0.00000000000E+00  0.15911647885E+04  0.15911647885E+04  0.50400001928E-02 0. -1.
        1   -1    0    0  501    0  0.00000000000E+00  0.00000000000E+00 -0.15857673336E+04  0.15857673336E+04  0.50400001928E-02 0.  1.
    10030    2    1    2    0    0  0.00000000000E+00  0.00000000000E+00  0.53974549523E+01  0.31769321221E+04  0.31769275371E+04 0.  0.
        2    1    3    3  502    0  0.47408601586E+03  0.13763534716E+04 -0.63299922059E+03  0.15873860408E+04  0.25500000920E-02 0.  1.
       -2    1    3    3    0  502 -0.47408601586E+03 -0.13763534716E+04  0.63839667555E+03  0.15895460813E+04  0.25500000920E-02 0. -1.
</event>
<event>
 5   0  0.2612331E-06  0.3117293E+04  0.7818609E-02  0.8211008E-01
        1   -1    0    0  501    0  0.00000000000E+00  0.00000000000E+00  0.13364967305E+04  0.13364967305E+04  0.50400001928E-02 0. -1.
       -1   -1    0    0    0  501  0.00000000000E+00  0.00000000000E+00 -0.18177215784E+04  0.18177215784E+04  0.50400001928E-02 0.  1.
    10030    2    1    2    0    0  0.00000000000E+00  0.00000000000E+00 -0.48122484784E+03  0.31542183089E+04  0.31172930222E+04 0.  0.
        4    1    3    3  502    0  0.57916625829E+03  0.14339888165E+04 -0.44356548246E+02  0.15471672815E+04  0.12699999809E+01 0. -1.
       -4    1    3    3    0  502 -0.57916625829E+03 -0.14339888165E+04 -0.43686829959E+03  0.16070510274E+04  0.12699999809E+01 0.  1.
</event>
<event>
 5   0  0.2674441E-06  0.3090372E+04  0.7818609E-02  0.8218385E-01
        1   -1    0    0  501    0  0.00000000000E+00  0.00000000000E+00  0.14787426846E+04  0.14787426846E+04  0.50400001928E-02 0.  1.
       -1   -1    0    0    0  501  0.00000000000E+00  0.00000000000E+00 -0.16146149503E+04  0.16146149503E+04  0.50400001928E-02 0. -1.
    10030    2    1    2    0    0  0.00000000000E+00  0.00000000000E+00 -0.13587226568E+03  0.30933576349E+04  0.30903721757E+04 0.  0.
        5    1    3    3  502    0  0.56080345737E+03  0.14296183142E+04 -0.23918300730E+03  0.15542006444E+04  0.46999998093E+01 0. -1.
       -5    1    3    3    0  502 -0.56080345737E+03 -0.14296183142E+04  0.10331074162E+03  0.15391569905E+04  0.46999998093E+01 0.  1.
</event>
<event>
 5   0  0.7094341E-06  0.3098582E+04  0.7818609E-02  0.8216127E-01
       -2   -1    0    0    0  501  0.00000000000E+00  0.00000000000E+00  0.14605903530E+04  0.14605903530E+04  0.25500000920E-02 0. -1.
        2   -1    0    0  501    0  0.00000000000E+00  0.00000000000E+00 -0.16433785292E+04  0.16433785292E+04  0.25500000920E-02 0.  1.
    10030    2    1    2    0    0  0.00000000000E+00  0.00000000000E+00 -0.18278817622E+03  0.31039688822E+04  0.30985821442E+04 0.  0.
        3    1    3    3  502    0  0.60359541295E+03 -0.82337303117E+03 -0.12587663930E+04  0.16207292844E+04  0.10100000352E+00 0.  1.
       -3    1    3    3    0  502 -0.60359541295E+03  0.82337303117E+03  0.10759782168E+04  0.14832395977E+04  0.10100000352E+00 0. -1.
</event>
<event>
 5   0  0.2393250E-06  0.3124573E+04  0.7818609E-02  0.8209026E-01
       -3   -1    0    0    0  501  0.00000000000E+00  0.00000000000E+00  0.16801792707E+04  0.16801792737E+04  0.10100000352E+00 0. -1.
        3   -1    0    0  501    0  0.00000000000E+00  0.00000000000E+00 -0.14526655772E+04  0.14526655807E+04  0.10100000352E+00 0.  1.
    10030    2    1    2    0    0  0.00000000000E+00  0.00000000000E+00  0.22751369353E+03  0.31328448544E+04  0.31245726750E+04 0.  0.
        5    1    3    3  502    0 -0.95942168303E+03 -0.23529983936E+03  0.13272753324E+04  0.16545506575E+04  0.46999998093E+01 0. -1.
       -5    1    3    3    0  502  0.95942168303E+03  0.23529983936E+03 -0.10997616389E+04  0.14782941969E+04  0.46999998093E+01 0.  1.
</event>
<event>
 5   0  0.7094341E-06  0.3059961E+04  0.7818609E-02  0.8226813E-01
       -2   -1    0    0    0  501  0.00000000000E+00  0.00000000000E+00  0.17341507855E+04  0.17341507855E+04  0.25500000920E-02 0. -1.
        2   -1    0    0  501    0  0.00000000000E+00  0.00000000000E+00 -0.13498482697E+04  0.13498482697E+04  0.25500000920E-02 0.  1.
    10030    2    1    2    0    0  0.00000000000E+00  0.00000000000E+00  0.38430251588E+03  0.30839990552E+04  0.30599610698E+04 0.  0.
        3    1    3    3  502    0 -0.98960175934E+03  0.96160297375E+03 -0.47398605734E+03  0.14589909917E+04  0.10100000352E+00 0.  1.
       -3    1    3    3    0  502  0.98960175934E+03 -0.96160297375E+03  0.85828857322E+03  0.16250080635E+04  0.10100000352E+00 0. -1.
</event>
<event>
 5   0  0.2517725E-06  0.2601150E+04  0.7818609E-02  0.8367811E-01
        1   -1    0    0  501    0  0.00000000000E+00  0.00000000000E+00  0.21720769910E+04  0.21720769910E+04  0.50400001928E-02 0. -1.
       -1   -1    0    0    0  501  0.00000000000E+00  0.00000000000E+00 -0.77874571980E+03  0.77874571982E+03  0.50400001928E-02 0.  1.
    10030    2    1    2    0    0  0.00000000000E+00  0.00000000000E+00  0.13933312712E+04  0.29508227108E+04  0.26011502531E+04 0.  0.
        3    1    3    3  502    0 -0.11221742189E+04  0.54732196924E+03  0.28347869708E+03  0.12803110940E+04  0.10100000352E+00 0. -1.
       -3    1    3    3    0  502  0.11221742189E+04 -0.54732196924E+03  0.11098525741E+04  0.16705116168E+04  0.10100000352E+00 0.  1.
</event>
<event>
 5   0  0.2612331E-06  0.2342372E+04  0.7818609E-02  0.8461399E-01
        1   -1    0    0  501    0  0.00000000000E+00  0.00000000000E+00  0.18753716408E+04  0.18753716408E+04  0.50400001928E-02 0.  1.
       -1   -1    0    0    0  501  0.00000000000E+00  0.00000000000E+00 -0.73141566787E+03  0.73141566789E+03  0.50400001928E-02 0. -1.
    10030    2    1    2    0    0  0.00000000000E+00  0.00000000000E+00  0.11439559729E+04  0.26067873087E+04  0.23423716197E+04 0.  0.
        4    1    3    3  502    0  0.59265323508E+03 -0.61258358636E+02 -0.55015111569E+03  0.81096134714E+03  0.12699999809E+01 0. -1.
       -4    1    3    3    0  502 -0.59265323508E+03  0.61258358636E+02  0.16941070886E+04  0.17958259615E+04  0.12699999809E+01 0.  1.
</event>
<event>
 5   0  0.2674441E-06  0.2819803E+04  0.7818609E-02  0.8297147E-01
        1   -1    0    0  501    0  0.00000000000E+00  0.00000000000E+00  0.15374900722E+04  0.15374900722E+04  0.50400001928E-02 0.  1.
       -1   -1    0    0    0  501  0.00000000000E+00  0.00000000000E+00 -0.12929007771E+04  0.12929007771E+04  0.50400001928E-02 0. -1.
    10030    2    1    2    0    0  0.00000000000E+00  0.00000000000E+00  0.24458929509E+03  0.28303908494E+04  0.28198029075E+04 0.  0.
        5    1    3    3  502    0 -0.29298398142E+03 -0.16723561502E+03 -0.12517840276E+04  0.12964538966E+04  0.46999998093E+01 0. -1.
       -5    1    3    3    0  502  0.29298398142E+03  0.16723561502E+03  0.14963733227E+04  0.15339369528E+04  0.46999998093E+01 0.  1.
</event>
<event>
 5   0  0.7363513E-06  0.3158257E+04  0.7818609E-02  0.8199929E-01
       -2   -1    0    0    0  501  0.00000000000E+00  0.00000000000E+00  0.18928340123E+04  0.18928340123E+04  0.25500000920E-02 0. -1.
        2   -1    0    0  501    0  0.00000000000E+00  0.00000000000E+00 -0.13174144553E+04  0.13174144553E+04  0.25500000920E-02 0.  1.
    10030    2    1    2    0    0  0.00000000000E+00  0.00000000000E+00  0.57541955699E+03  0.32102484675E+04  0.31582570441E+04 0.  0.
        4    1    3    3  502    0  0.25190273966E+03 -0.78950531879E+03  0.16540373252E+04  0.18500310064E+04  0.12699999809E+01 0. -1.
       -4    1    3    3    0  502 -0.25190273966E+03  0.78950531879E+03 -0.10786177682E+04  0.13602174611E+04  0.12699999809E+01 0.  1.
</event>
<event>
 5   0  0.7363513E-06  0.3049953E+04  0.7818609E-02  0.8229609E-01
       -2   -1    0    0    0  501  0.00000000000E+00  0.00000000000E+00  0.97673191244E+03  0.97673191244E+03  0.25500000920E-02 0. -1.
        2   -1    0    0  501    0  0.00000000000E+00  0.00000000000E+00 -0.23809538095E+04  0.23809538095E+04  0.25500000920E-02 0.  1.
    10030    2    1    2    0    0  0.00000000000E+00  0.00000000000E+00 -0.14042218970E+04  0.33576857219E+04  0.30499531588E+04 0.  0.
        4    1    3    3  502    0  0.13183891866E+04  0.41721597620E+03  0.56665902803E+01  0.13828423414E+04  0.12699999809E+01 0.  1.
       -4    1    3    3    0  502 -0.13183891866E+04 -0.41721597620E+03 -0.14098884873E+04  0.19748433805E+04  0.12699999809E+01 0. -1.
</event>
<event>
 5   0  0.7094341E-06  0.2297318E+04  0.7818609E-02  0.8478979E-01
       -2   -1    0    0    0  501  0.00000000000E+00  0.00000000000E+00  0.91117836835E+03  0.91117836835E+03  0.25500000920E-02 0. -1.
        2   -1    0    0  501    0  0.00000000000E+00  0.00000000000E+00 -0.14480341891E+04  0.14480341891E+04  0.25500000920E-02 0.  1.
    10030    2    1    2    0    0  0.00000000000E+00  0.00000000000E+00 -0.53685582075E+03  0.23592125575E+04  0.22973179403E+04 0.  0.
        3    1    3    3  502    0  0.10400093098E+04 -0.48385387060E+03 -0.20610100823E+03  0.11654233429E+04  0.10100000352E+00 0. -1.
       -3    1    3    3    0  502 -0.10400093098E+04  0.48385387060E+03 -0.33075481252E+03  0.11937892145E+04  0.10100000352E+00 0.  1.
</event>
<event>
 5   0  0.2624011E-06  0.3078544E+04  0.7818609E-02  0.8221651E-01
        1   -1    0    0  501    0  0.00000000000E+00  0.00000000000E+00  0.14133470826E+04  0.14133470827E+04  0.50400001928E-02 0.  1.
       -1   -1    0    0    0  501  0.00000000000E+00  0.00000000000E+00 -0.16764159219E+04  0.16764159220E+04  0.50400001928E-02 0. -1.
    10030    2    1    2    0    0  0.00000000000E+00  0.00000000000E+00 -0.26306883930E+03  0.30897630046E+04  0.30785435210E+04 0.  0.
        1    1    3    3  502    0 -0.58338615483E+02 -0.40709982764E+02 -0.16747651884E+04  0.16762753751E+04  0.50400001928E-02 0. -1.
       -1    1    3    3    0  502  0.58338615483E+02  0.40709982764E+02  0.14116963491E+04  0.14134876295E+04  0.50400001928E-02 0.  1.
</event>
<event>
 5   0  0.7363513E-06  0.2912781E+04  0.7818609E-02  0.8269085E-01
        2   -1    0    0  501    0  0.00000000000E+00  0.00000000000E+00  0.18991715737E+04  0.18991715737E+04  0.25500000920E-02 0.  1.
       -2   -1    0    0    0  501  0.00000000000E+00  0.00000000000E+00 -0.11168412304E+04  0.11168412304E+04  0.25500000920E-02 0. -1.
    10030    2    1    2    0    0  0.00000000000E+00  0.00000000000E+00  0.78233034330E+03  0.30160128040E+04  0.29127808823E+04 0.  0.
        4    1    3    3  502    0 -0.54707920034E+02  0.12104098693E+04  0.12278799996E+04  0.17250437428E+04  0.12699999809E+01 0.  1.
       -4    1    3    3    0  502  0.54707920034E+02 -0.12104098693E+04 -0.44554965629E+03  0.12909690613E+04  0.12699999809E+01 0. -1.
</event>
<event>
 5   0  0.2612331E-06  0.3081430E+04  0.7818609E-02  0.8220853E-01
       -1   -1    0    0    0  501  0.00000000000E+00  0.00000000000E+00  0.94412499361E+03  0.94412499362E+03  0.50400001928E-02 0.  1.
        1   -1    0    0  501    0  0.00000000000E+00  0.00000000000E+00 -0.25142883796E+04  0.25142883796E+04  0.50400001928E-02 0. -1.
    10030    2    1    2    0    0  0.00000000000E+00  0.00000000000E+00 -0.15701633860E+04  0.34584133733E+04  0.30814298632E+04 0.  0.
        4    1    3    3  502    0  0.12724382741E+04  0.42312107477E+03  0.66470986804E+02  0.13425910063E+04  0.12699999809E+01 0.  1.
       -4    1    3    3    0  502 -0.12724382741E+04 -0.42312107477E+03 -0.16366343728E+04  0.21158223669E+04  0.12699999809E+01 0. -1.
</event>
<event>
 5   0  0.7071012E-06  0.2490638E+04  0.7818609E-02  0.8406328E-01
       -2   -1    0    0    0  501  0.00000000000E+00  0.00000000000E+00  0.62132438232E+03  0.62132438233E+03  0.25500000920E-02 0. -1.
        2   -1    0    0  501    0  0.00000000000E+00  0.00000000000E+00 -0.24959893817E+04  0.24959893817E+04  0.25500000920E-02 0.  1.
    10030    2    1    2    0    0  0.00000000000E+00  0.00000000000E+00 -0.18746649994E+04  0.31173137641E+04  0.24906377183E+04 0.  0.
        1    1    3    3  502    0  0.20248006447E+03  0.10680449394E+04 -0.16977331919E+04  0.20159405150E+04  0.50400001928E-02 0.  1.
       -1    1    3    3    0  502 -0.20248006447E+03 -0.10680449394E+04 -0.17693180751E+03  0.11013732490E+04  0.50400001928E-02 0. -1.
</event>
<event>
 5   0  0.7079223E-06  0.3077438E+04  0.7818609E-02  0.8221957E-01
        2   -1    0    0  501    0  0.00000000000E+00  0.00000000000E+00  0.31199688407E+04  0.31199688407E+04  0.25500000920E-02 0. -1.
       -2   -1    0    0    0  501  0.00000000000E+00  0.00000000000E+00 -0.75887164737E+03  0.75887164738E+03  0.25500000920E-02 0.  1.
    10030    2    1    2    0    0  0.00000000000E+00  0.00000000000E+00  0.23610971933E+04  0.38788404881E+04  0.30774378264E+04 0.  0.
        5    1    3    3  502    0 -0.75188443934E+03 -0.87063369280E+03  0.24685768497E+04  0.27234586448E+04  0.46999998093E+01 0. -1.
       -5    1    3    3    0  502  0.75188443934E+03  0.87063369280E+03 -0.10747965639E+03  0.11553818432E+04  0.46999998093E+01 0.  1.
</event>
<event>
 5   0  0.2612331E-06  0.2132354E+04  0.7818609E-02  0.8547123E-01
        1   -1    0    0  501    0  0.00000000000E+00  0.00000000000E+00  0.10250513770E+04  0.10250513770E+04  0.50400001928E-02 0. -1.
       -1   -1    0    0    0  501  0.00000000000E+00  0.00000000000E+00 -0.11089530214E+04  0.11089530214E+04  0.50400001928E-02 0.  1.
    10030    2    1    2    0    0  0.00000000000E+00  0.00000000000E+00 -0.83901644385E+02  0.21340043984E+04  0.21323543998E+04 0.  0.
        4    1    3    3  502    0  0.10090242821E+04 -0.27097458486E+02 -0.38553547804E+03  0.10805107551E+04  0.12699999809E+01 0.  1.
       -4    1    3    3    0  502 -0.10090242821E+04  0.27097458486E+02  0.30163383366E+03  0.10534936434E+04  0.12699999809E+01 0. -1.
</event>
<event>
 5   0  0.2624011E-06  0.3058759E+04  0.7818609E-02  0.8227148E-01
        1   -1    0    0  501    0  0.00000000000E+00  0.00000000000E+00  0.10348711389E+04  0.10348711389E+04  0.50400001928E-02 0. -1.
       -1   -1    0    0    0  501  0.00000000000E+00  0.00000000000E+00 -0.22601857744E+04  0.22601857744E+04  0.50400001928E-02 0.  1.
    10030    2    1    2    0    0  0.00000000000E+00  0.00000000000E+00 -0.12253146355E+04  0.32950569133E+04  0.30587585890E+04 0.  0.
        1    1    3    3  502    0  0.56043763829E+02 -0.39159909872E+03  0.97880319096E+03  0.10557208174E+04  0.50400001928E-02 0. -1.
       -1    1    3    3    0  502 -0.56043763829E+02  0.39159909872E+03 -0.22041178264E+04  0.22393360959E+04  0.50400001928E-02 0.  1.
</event>
<event>
 5   0  0.2612331E-06  0.3095475E+04  0.7818609E-02  0.8216981E-01
       -1   -1    0    0    0  501  0.00000000000E+00  0.00000000000E+00  0.11204506960E+04  0.11204506960E+04  0.50400001928E-02 0. -1.
        1   -1    0    0  501    0  0.00000000000E+00  0.00000000000E+00 -0.21379718406E+04  0.21379718406E+04  0.50400001928E-02 0.  1.
    10030    2    1    2    0    0  0.00000000000E+00  0.00000000000E+00 -0.10175211445E+04  0.32584225366E+04  0.30954754315E+04 0.  0.
        4    1    3    3  502    0  0.96235445120E+03  0.12118286464E+04 -0.53919018310E+03  0.16387136493E+04  0.12699999809E+01 0. -1.
       -4    1    3    3    0  502 -0.96235445120E+03 -0.12118286464E+04 -0.47833096145E+03  0.16197088873E+04  0.12699999809E+01 0.  1.
</event>
<event>
 5   0  0.7363513E-06  0.3105895E+04  0.7818609E-02  0.8214122E-01
       -2   -1    0    0    0  501  0.00000000000E+00  0.00000000000E+00  0.10184104892E+04  0.10184104892E+04  0.25500000920E-02 0.  1.
        2   -1    0    0  501    0  0.00000000000E+00  0.00000000000E+00 -0.23680488479E+04  0.23680488479E+04  0.25500000920E-02 0. -1.
    10030    2    1    2    0    0  0.00000000000E+00  0.00000000000E+00 -0.13496383587E+04  0.33864593371E+04  0.31058949021E+04 0.  0.
        4    1    3    3  502    0 -0.30137478098E+03  0.83207663983E+03  0.71656942151E+03  0.11387061262E+04  0.12699999809E+01 0.  1.
       -4    1    3    3    0  502  0.30137478098E+03 -0.83207663983E+03 -0.20662077802E+04  0.22477532109E+04  0.12699999809E+01 0. -1.
</event>
<event>
 5   0  0.2624011E-06  0.3103688E+04  0.7818609E-02  0.8214727E-01
        1   -1    0    0  501    0  0.00000000000E+00  0.00000000000E+00  0.19757784249E+04  0.19757784249E+04  0.50400001928E-02 0. -1.
       -1   -1    0    0    0  501  0.00000000000E+00  0.00000000000E+00 -0.12188710219E+04  0.12188710219E+04  0.50400001928E-02 0.  1.
    10030    2    1    2    0    0  0.00000000000E+00  0.00000000000E+00  0.75690740298E+03  0.31946494468E+04  0.31036875280E+04 0.  0.
        1    1    3    3  502    0  0.87953030286E+03  0.32789111405E+03  0.16504435333E+04  0.18986969197E+04  0.50400001928E-02 0. -1.
       -1    1    3    3    0  502 -0.87953030286E+03 -0.32789111405E+03 -0.89353613030E+03  0.12959525271E+04  0.50400001928E-02 0.  1.
</event>
<event>
 5   0  0.7071012E-06  0.3082005E+04  0.7818609E-02  0.8220694E-01
        2   -1    0    0  501    0  0.00000000000E+00  0.00000000000E+00  0.20485378076E+04  0.20485378076E+04  0.25500000920E-02 0. -1.
       -2   -1    0    0    0  501  0.00000000000E+00  0.00000000000E+00 -0.11592115351E+04  0.11592115351E+04  0.25500000920E-02 0.  1.
    10030    2    1    2    0    0  0.00000000000E+00  0.00000000000E+00  0.88932627252E+03  0.32077493427E+04  0.30820049686E+04 0.  0.
        1    1    3    3  502    0  0.90763656590E+03 -0.33985748957E+02  0.17403350324E+04  0.19630907243E+04  0.50400001928E-02 0. -1.
       -1    1    3    3    0  502 -0.90763656590E+03  0.33985748957E+02 -0.85100875989E+03  0.12446586184E+04  0.50400001928E-02 0.  1.
</event>
<event>
 5   0  0.2393250E-06  0.3068987E+04  0.7818609E-02  0.8224301E-01
       -3   -1    0    0    0  501  0.00000000000E+00  0.00000000000E+00  0.24459833092E+04  0.24459833113E+04  0.10100000352E+00 0. -1.
        3   -1    0    0  501    0  0.00000000000E+00  0.00000000000E+00 -0.96266793158E+03  0.96266793687E+03  0.10100000352E+00 0.  1.
    10030    2    1    2    0    0  0.00000000000E+00  0.00000000000E+00  0.14833153777E+04  0.34086512482E+04  0.30689866116E+04 0.  0.
        4    1    3    3  502    0  0.11572547252E+04  0.36588802556E+03  0.17844850476E+04  0.21581244275E+04  0.12699999809E+01 0. -1.
       -4    1    3    3    0  502 -0.11572547252E+04 -0.36588802556E+03 -0.30116966997E+03  0.12505268207E+04  0.12699999809E+01 0.  1.
</event>
<event>
 5   0  0.2674441E-06  0.3091291E+04  0.7818609E-02  0.8218132E-01
       -1   -1    0    0    0  501  0.00000000000E+00  0.00000000000E+00  0.12594591926E+04  0.12594591926E+04  0.50400001928E-02 0.  1.
        1   -1    0    0  501    0  0.00000000000E+00  0.00000000000E+00 -0.18968621464E+04  0.18968621464E+04  0.50400001928E-02 0. -1.
    10030    2    1    2    0    0  0.00000000000E+00  0.00000000000E+00 -0.63740295382E+03  0.31563213390E+04  0.30912912949E+04 0.  0.
        5    1    3    3  502    0  0.13630281124E+04 -0.35308863180E+03  0.33226929774E+03  0.14467004505E+04  0.46999998093E+01 0.  1.
       -5    1    3    3    0  502 -0.13630281124E+04  0.35308863180E+03 -0.96967225156E+03  0.17096208886E+04  0.46999998093E+01 0. -1.
</event>
<event>
 5   0  0.7094341E-06  0.3111592E+04  0.7818609E-02  0.8212564E-01
        2   -1    0    0  501    0  0.00000000000E+00  0.00000000000E+00  0.22655769167E+04  0.22655769167E+04  0.25500000920E-02 0. -1.
       -2   -1    0    0    0  501  0.00000000000E+00  0.00000000000E+00 -0.10683819943E+04  0.10683819944E+04  0.25500000920E-02 0.  1.
    10030    2    1    2    0    0  0.00000000000E+00  0.00000000000E+00  0.11971949223E+04  0.33339589110E+04  0.31115922513E+04 0.  0.
        3    1    3    3  502    0  0.90371284276E+03 -0.93400120635E+00 -0.75831921810E+03  0.11797227731E+04  0.10100000352E+00 0.  1.
       -3    1    3    3    0  502 -0.90371284276E+03  0.93400120635E+00  0.19555141404E+04  0.21542361380E+04  0.10100000352E+00 0. -1.
</event>
<event>
 5   0  0.2624011E-06  0.3037520E+04  0.7818609E-02  0.8233097E-01
       -1   -1    0    0    0  501  0.00000000000E+00  0.00000000000E+00  0.15034749878E+04  0.15034749878E+04  0.50400001928E-02 0. -1.
        1   -1    0    0  501    0  0.00000000000E+00  0.00000000000E+00 -0.15342007604E+04  0.15342007604E+04  0.50400001928E-02 0.  1.
    10030    2    1    2    0    0  0.00000000000E+00  0.00000000000E+00 -0.30725772561E+02  0.30376757482E+04  0.30375203502E+04 0.  0.
        1    1    3    3  502    0  0.10478556621E+04 -0.77354489210E+03  0.76586801656E+03  0.15109358052E+04  0.50400001928E-02 0. -1.
       -1    1    3    3    0  502 -0.10478556621E+04  0.77354489210E+03 -0.79659378912E+03  0.15267399430E+04  0.50400001928E-02 0.  1.
</event>
<event>
 5   0  0.2674441E-06  0.2766093E+04  0.7818609E-02  0.8313873E-01
       -1   -1    0    0    0  501  0.00000000000E+00  0.00000000000E+00  0.16333781704E+04  0.16333781704E+04  0.50400001928E-02 0.  1.
        1   -1    0    0  501    0  0.00000000000E+00  0.00000000000E+00 -0.11710808561E+04  0.11710808561E+04  0.50400001928E-02 0. -1.
    10030    2    1    2    0    0  0.00000000000E+00  0.00000000000E+00  0.46229731430E+03  0.28044590266E+04  0.27660932061E+04 0.  0.
        5    1    3    3  502    0 -0.11736453899E+04 -0.38423993505E+03  0.86245027713E+03  0.15062955883E+04  0.46999998093E+01 0.  1.
       -5    1    3    3    0  502  0.11736453899E+04  0.38423993505E+03 -0.40015296283E+03  0.12981634383E+04  0.46999998093E+01 0. -1.
</event>
<event>
 5   0  0.7079223E-06  0.2815515E+04  0.7818609E-02  0.8298468E-01
        2   -1    0    0  501    0  0.00000000000E+00  0.00000000000E+00  0.19200741595E+04  0.19200741595E+04  0.25500000920E-02 0.  1.
       -2   -1    0    0    0  501  0.00000000000E+00  0.00000000000E+00 -0.10321374664E+04  0.10321374664E+04  0.25500000920E-02 0. -1.
    10030    2    1    2    0    0  0.00000000000E+00  0.00000000000E+00  0.88793669316E+03  0.29522116259E+04  0.28155145024E+04 0.  0.
        5    1    3    3  502    0  0.93721147791E+03  0.63728914599E+03 -0.43159125759E+03  0.12127637501E+04  0.46999998093E+01 0. -1.
       -5    1    3    3    0  502 -0.93721147791E+03 -0.63728914599E+03  0.13195279507E+04  0.17394478758E+04  0.46999998093E+01 0.  1.
</event>
<event>
 5   0  0.2624011E-06  0.3082838E+04  0.7818609E-02  0.8220464E-01
        1   -1    0    0  501    0  0.00000000000E+00  0.00000000000E+00  0.15656062908E+04  0.15656062909E+04  0.50400001928E-02 0. -1.
       -1   -1    0    0    0  501  0.00000000000E+00  0.00000000000E+00 -0.15176050515E+04  0.15176050516E+04  0.50400001928E-02 0.  1.
    10030    2    1    2    0    0  0.00000000000E+00  0.00000000000E+00  0.48001239298E+02  0.30832113424E+04  0.30828376641E+04 0.  0.
        1    1    3    3  502    0 -0.14925274730E+04 -0.26725730400E+03  0.30135587335E+03  0.15459237002E+04  0.50400001928E-02 0. -1.
       -1    1    3    3    0  502  0.14925274730E+04  0.26725730400E+03 -0.25335463405E+03  0.15372876422E+04  0.50400001928E-02 0.  1.
</event>
<event>
 5   0  0.2674441E-06  0.3252285E+04  0.7818609E-02  0.8175144E-01
       -1   -1    0    0    0  501  0.00000000000E+00  0.00000000000E+00  0.17244702395E+04  0.17244702395E+04  0.50400001928E-02 0. -1.
        1   -1    0    0  501    0  0.00000000000E+00  0.00000000000E+00 -0.15334209218E+04  0.15334209218E+04  0.50400001928E-02 0.  1.
    10030    2    1    2    0    0  0.00000000000E+00  0.00000000000E+00  0.19104931771E+03  0.32578911613E+04  0.32522845781E+04 0.  0.
        5    1    3    3  502    0 -0.11719792967E+04  0.62616075685E+03  0.10345326883E+04  0.16840109080E+04  0.46999998093E+01 0. -1.
       -5    1    3    3    0  502  0.11719792967E+04 -0.62616075685E+03 -0.84348337057E+03  0.15738802533E+04  0.46999998093E+01 0.  1.
</event>
<event>
 5   0  0.2517725E-06  0.3025513E+04  0.7818609E-02  0.8236483E-01
       -1   -1    0    0    0  501  0.00000000000E+00  0.00000000000E+00  0.93942668475E+03  0.93942668477E+03  0.50400001928E-02 0.  1.
        1   -1    0    0  501    0  0.00000000000E+00  0.00000000000E+00 -0.24359875704E+04  0.24359875704E+04  0.50400001928E-02 0. -1.
    10030    2    1    2    0    0  0.00000000000E+00  0.00000000000E+00 -0.14965608856E+04  0.33754142552E+04  0.30255126689E+04 0.  0.
        3    1    3    3  502    0  0.77140368795E+03  0.12323121506E+04 -0.28187076898E+03  0.14809145914E+04  0.10100000352E+00 0.  1.
       -3    1    3    3    0  502 -0.77140368795E+03 -0.12323121506E+04 -0.12146901167E+04  0.18944996638E+04  0.10100000352E+00 0. -1.
</event>
<event>
 5   0  0.7363513E-06  0.2628165E+04  0.7818609E-02  0.8358697E-01
        2   -1    0    0  501    0  0.00000000000E+00  0.00000000000E+00  0.16323715766E+04  0.16323715766E+04  0.25500000920E-02 0. -1.
       -2   -1    0    0    0  501  0.00000000000E+00  0.00000000000E+00 -0.10578548980E+04  0.10578548980E+04  0.25500000920E-02 0.  1.
    10030    2    1    2    0    0  0.00000000000E+00  0.00000000000E+00  0.57451667859E+03  0.26902264746E+04  0.26281645821E+04 0.  0.
        4    1    3    3  502    0  0.11029549173E+04 -0.30772165813E+03  0.94715888474E+03  0.14860396140E+04  0.12699999809E+01 0. -1.
       -4    1    3    3    0  502 -0.11029549173E+04  0.30772165813E+03 -0.37264220614E+03  0.12041868606E+04  0.12699999809E+01 0.  1.
</event>
<event>
 5   0  0.2598987E-06  0.3067207E+04  0.7818609E-02  0.8224796E-01
        1   -1    0    0  501    0  0.00000000000E+00  0.00000000000E+00  0.19403443653E+04  0.19403443653E+04  0.50400001928E-02 0.  1.
       -1   -1    0    0    0  501  0.00000000000E+00  0.00000000000E+00 -0.12121245961E+04  0.12121245961E+04  0.50400001928E-02 0. -1.
    10030    2    1    2    0    0  0.00000000000E+00  0.00000000000E+00  0.72821976922E+03  0.31524689614E+04  0.30672066315E+04 0.  0.
        2    1    3    3  502    0 -0.83228441480E+03  0.15180711772E+03 -0.95058659126E+03  0.12725398287E+04  0.25500000920E-02 0. -1.
       -2    1    3    3    0  502  0.83228441480E+03 -0.15180711772E+03  0.16788063605E+04  0.18799291327E+04  0.25500000920E-02 0.  1.
</event>
<event>
 5   0  0.2393250E-06  0.3379195E+04  0.7818609E-02  0.8143032E-01
        3   -1    0    0  501    0  0.00000000000E+00  0.00000000000E+00  0.19540248875E+04  0.19540248901E+04  0.10100000352E+00 0.  1.
       -3   -1    0    0    0  501  0.00000000000E+00  0.00000000000E+00 -0.14609534187E+04  0.14609534222E+04  0.10100000352E+00 0. -1.
    10030    2    1    2    0    0  0.00000000000E+00  0.00000000000E+00  0.49307146879E+03  0.34149783124E+04  0.33791947858E+04 0.  0.
        2    1    3    3  502    0  0.11364415572E+04  0.89898299755E+03  0.11246846909E+04  0.18342806483E+04  0.25500000920E-02 0.  1.
       -2    1    3    3    0  502 -0.11364415572E+04 -0.89898299755E+03 -0.63161322207E+03  0.15806976641E+04  0.25500000920E-02 0. -1.
</event>
<event>
 5   0  0.7071012E-06  0.2866123E+04  0.7818609E-02  0.8283029E-01
       -2   -1    0    0    0  501  0.00000000000E+00  0.00000000000E+00  0.14233664913E+04  0.14233664913E+04  0.25500000920E-02 0.  1.
        2   -1    0    0  501    0  0.00000000000E+00  0.00000000000E+00 -0.14428221522E+04  0.14428221522E+04  0.25500000920E-02 0. -1.
    10030    2    1    2    0    0  0.00000000000E+00  0.00000000000E+00 -0.19455660885E+02  0.28661886436E+04  0.28661226104E+04 0.  0.
        1    1    3    3  502    0  0.63969797930E+03  0.20626119926E+03  0.12559661814E+04  0.14245028030E+04  0.50400001928E-02 0.  1.
       -1    1    3    3    0  502 -0.63969797930E+03 -0.20626119926E+03 -0.12754218423E+04  0.14416858405E+04  0.50400001928E-02 0. -1.
</event>
<event>
 5   0  0.7363513E-06  0.3146359E+04  0.7818609E-02  0.8203129E-01
        2   -1    0    0  501    0  0.00000000000E+00  0.00000000000E+00  0.14301148309E+04  0.14301148310E+04  0.25500000920E-02 0.  1.
       -2   -1    0    0    0  501  0.00000000000E+00  0.00000000000E+00 -0.17305557483E+04  0.17305557483E+04  0.25500000920E-02 0. -1.
    10030    2    1    2    0    0  0.00000000000E+00  0.00000000000E+00 -0.30044091735E+03  0.31606705793E+04  0.31463588107E+04 0.  0.
        4    1    3    3  502    0 -0.62928907971E+03  0.12943028499E+04 -0.78845855739E+03  0.16410036937E+04  0.12699999809E+01 0.  1.
       -4    1    3    3    0  502  0.62928907971E+03 -0.12943028499E+04  0.48801764004E+03  0.15196668855E+04  0.12699999809E+01 0. -1.
</event>
<event>
 5   0  0.7363513E-06  0.3545741E+04  0.7818609E-02  0.8103035E-01
       -2   -1    0    0    0  501  0.00000000000E+00  0.00000000000E+00  0.18026357745E+04  0.18026357745E+04  0.25500000920E-02 0. -1.
        2   -1    0    0  501    0  0.00000000000E+00  0.00000000000E+00 -0.17435962274E+04  0.17435962274E+04  0.25500000920E-02 0.  1.
    10030    2    1    2    0    0  0.00000000000E+00  0.00000000000E+00  0.59039547193E+02  0.35462320019E+04  0.35457405070E+04 0.  0.
        4    1    3    3  502    0  0.10850011951E+04 -0.13788157510E+04 -0.22489090664E+03  0.17688804373E+04  0.12699999809E+01 0.  1.
       -4    1    3    3    0  502 -0.10850011951E+04  0.13788157510E+04  0.28393045384E+03  0.17773515646E+04  0.12699999809E+01 0. -1.
</event>
<event>
 5   0  0.7363513E-06  0.3116437E+04  0.7818609E-02  0.8211241E-01
       -2   -1    0    0    0  501  0.00000000000E+00  0.00000000000E+00  0.13400868672E+04  0.13400868672E+04  0.25500000920E-02 0. -1.
        2   -1    0    0  501    0  0.00000000000E+00  0.00000000000E+00 -0.18118557720E+04  0.18118557720E+04  0.25500000920E-02 0.  1.
    10030    2    1    2    0    0  0.00000000000E+00  0.00000000000E+00 -0.47176890477E+03  0.31519426393E+04  0.31164365069E+04 0.  0.
        4    1    3    3  502    0  0.10542829912E+04  0.11366631316E+04 -0.77489778089E+02  0.15522635018E+04  0.12699999809E+01 0. -1.
       -4    1    3    3    0  502 -0.10542829912E+04 -0.11366631316E+04 -0.39427912668E+03  0.15996791375E+04  0.12699999809E+01 0.  1.
</event>
<event>
 5   0  0.7094341E-06  0.3067023E+04  0.7818609E-02  0.8224847E-01
       -2   -1    0    0    0  501  0.00000000000E+00  0.00000000000E+00  0.10818874905E+04  0.10818874905E+04  0.25500000920E-02 0.  1.
        2   -1    0    0  501    0  0.00000000000E+00  0.00000000000E+00 -0.21736613942E+04  0.21736613942E+04  0.25500000920E-02 0. -1.
    10030    2    1    2    0    0  0.00000000000E+00  0.00000000000E+00 -0.10917739037E+04  0.32555488847E+04  0.30670227068E+04 0.  0.
        3    1    3    3  502    0 -0.90515476742E+03  0.78748389787E+03  0.46792467355E+03  0.12877847463E+04  0.10100000352E+00 0.  1.
       -3    1    3    3    0  502  0.90515476742E+03 -0.78748389787E+03 -0.15596985772E+04  0.19677641384E+04  0.10100000352E+00 0. -1.
</event>
<event>
 5   0  0.2517725E-06  0.2342956E+04  0.7818609E-02  0.8461174E-01
       -1   -1    0    0    0  501  0.00000000000E+00  0.00000000000E+00  0.12093127981E+04  0.12093127981E+04  0.50400001928E-02 0.  1.
        1   -1    0    0  501    0  0.00000000000E+00  0.00000000000E+00 -0.11348272876E+04  0.11348272877E+04  0.50400001928E-02 0. -1.
    10030    2    1    2    0    0  0.00000000000E+00  0.00000000000E+00  0.74485510477E+02  0.23441400858E+04  0.23429563911E+04 0.  0.
        3    1    3    3  502    0  0.61851267602E+03 -0.32470078899E+03  0.97812874223E+03  0.12019668795E+04  0.10100000352E+00 0.  1.
       -3    1    3    3    0  502 -0.61851267602E+03  0.32470078899E+03 -0.90364323175E+03  0.11421732063E+04  0.10100000352E+00 0. -1.
</event>
<event>
 5   0  0.2612331E-06  0.3068266E+04  0.7818609E-02  0.8224501E-01
       -1   -1    0    0    0  501  0.00000000000E+00  0.00000000000E+00  0.15338181400E+04  0.15338181400E+04  0.50400001928E-02 0. -1.
        1   -1    0    0  501    0  0.00000000000E+00  0.00000000000E+00 -0.15344478749E+04  0.15344478749E+04  0.50400001928E-02 0.  1.
    10030    2    1    2    0    0  0.00000000000E+00  0.00000000000E+00 -0.62973494818E+00  0.30682660149E+04  0.30682659503E+04 0.  0.
        4    1    3    3  502    0 -0.70413796583E+03 -0.13501553314E+04 -0.18695002002E+03  0.15341713127E+04  0.12699999809E+01 0.  1.
       -4    1    3    3    0  502  0.70413796583E+03  0.13501553314E+04  0.18632028507E+03  0.15340947022E+04  0.12699999809E+01 0. -1.
</event>
<event>
 5   0  0.7094341E-06  0.3212756E+04  0.7818609E-02  0.8185457E-01
        2   -1    0    0  501    0  0.00000000000E+00  0.00000000000E+00  0.18807021066E+04  0.18807021066E+04  0.25500000920E-02 0.  1.
       -2   -1    0    0    0  501  0.00000000000E+00  0.00000000000E+00 -0.13720670977E+04  0.13720670977E+04  0.25500000920E-02 0. -1.
    10030    2    1    2    0    0  0.00000000000E+00  0.00000000000E+00  0.50863500892E+03  0.32527692042E+04  0.32127555033E+04 0.  0.
        3    1    3    3  502    0 -0.69519378040E+03  0.14402862488E+04  0.40696195551E+03  0.16502535909E+04  0.10100000352E+00 0. -1.
       -3    1    3    3    0  502  0.69519378040E+03 -0.14402862488E+04  0.10167305341E+03  0.16025156133E+04  0.10100000352E+00 0.  1.
</event>
<event>
 5   0  0.7414808E-06  0.3081570E+04  0.7818609E-02  0.8220814E-01
        2   -1    0    0  501    0  0.00000000000E+00  0.00000000000E+00  0.12618939532E+04  0.12618939532E+04  0.25500000920E-02 0. -1.
       -2   -1    0    0    0  501  0.00000000000E+00  0.00000000000E+00 -0.18813140963E+04  0.18813140963E+04  0.25500000920E-02 0.  1.
    10030    2    1    2    0    0  0.00000000000E+00  0.00000000000E+00 -0.61942014306E+03  0.31432080495E+04  0.30815703025E+04 0.  0.
        2    1    3    3  502    0  0.58834158649E+03  0.14979110739E+02  0.11427272609E+04  0.12853776834E+04  0.25500000920E-02 0. -1.
       -2    1    3    3    0  502 -0.58834158649E+03 -0.14979110739E+02 -0.17621474040E+04  0.18578303662E+04  0.25500000920E-02 0.  1.
</event>
<event>
 5   0  0.2624011E-06  0.2374148E+04  0.7818609E-02  0.8449246E-01
       -1   -1    0    0    0  501  0.00000000000E+00  0.00000000000E+00  0.11730526282E+04  0.11730526282E+04  0.50400001928E-02 0. -1.
        1   -1    0    0  501    0  0.00000000000E+00  0.00000000000E+00 -0.12012625429E+04  0.12012625429E+04  0.50400001928E-02 0.  1.
    10030    2    1    2    0    0  0.00000000000E+00  0.00000000000E+00 -0.28209914649E+02  0.23743151711E+04  0.23741475802E+04 0.  0.
        1    1    3    3  502    0  0.42056446804E+03  0.10990858419E+04  0.14172652672E+03  0.11853061073E+04  0.50400001928E-02 0. -1.
       -1    1    3    3    0  502 -0.42056446804E+03 -0.10990858419E+04 -0.16993644137E+03  0.11890090638E+04  0.50400001928E-02 0.  1.
</event>
<event>
 5   0  0.7071012E-06  0.3022415E+04  0.7818609E-02  0.8237359E-01
        2   -1    0    0  501    0  0.00000000000E+00  0.00000000000E+00  0.11940533403E+04  0.11940533403E+04  0.25500000920E-02 0. -1.
       -2   -1    0    0    0  501  0.00000000000E+00  0.00000000000E+00 -0.19126012702E+04  0.19126012702E+04  0.25500000920E-02 0.  1.
    10030    2    1    2    0    0  0.00000000000E+00  0.00000000000E+00 -0.71854792993E+03  0.31066546105E+04  0.30224148857E+04 0.  0.
        1    1    3    3  502    0 -0.66678225453E+03  0.13015011932E+04  0.32457087989E+02  0.14627225962E+04  0.50400001928E-02 0. -1.
       -1    1    3    3    0  502  0.66678225453E+03 -0.13015011932E+04 -0.75100501792E+03  0.16439320143E+04  0.50400001928E-02 0.  1.
</event>
<event>
 5   0  0.2598987E-06  0.3070253E+04  0.7818609E-02  0.8223949E-01
       -1   -1    0    0    0  501  0.00000000000E+00  0.00000000000E+00  0.16104179508E+04  0.16104179508E+04  0.50400001928E-02 0.  1.
        1   -1    0    0  501    0  0.00000000000E+00  0.00000000000E+00 -0.14633549597E+04  0.14633549597E+04  0.50400001928E-02 0. -1.
    10030    2    1    2    0    0  0.00000000000E+00  0.00000000000E+00  0.14706299113E+03  0.30737729106E+04  0.30702528206E+04 0.  0.
        2    1    3    3  502    0 -0.12389992868E+04  0.11566836181E+03 -0.82645116311E+03  0.14938272750E+04  0.25500000920E-02 0. -1.
       -2    1    3    3    0  502  0.12389992868E+04 -0.11566836181E+03  0.97351415424E+03  0.15799456355E+04  0.25500000920E-02 0.  1.
</event>
<event>
 5   0  0.7079223E-06  0.3057666E+04  0.7818609E-02  0.8227453E-01
        2   -1    0    0  501    0  0.00000000000E+00  0.00000000000E+00  0.22610850711E+04  0.22610850711E+04  0.25500000920E-02 0. -1.
       -2   -1    0    0    0  501  0.00000000000E+00  0.00000000000E+00 -0.10337206622E+04  0.10337206622E+04  0.25500000920E-02 0.  1.
    10030    2    1    2    0    0  0.00000000000E+00  0.00000000000E+00  0.12273644090E+04  0.32948057333E+04  0.30576660098E+04 0.  0.
        5    1    3    3  502    0  0.36366600138E+03  0.14759986694E+04  0.78904008146E+03  0.17127262983E+04  0.46999998093E+01 0. -1.
       -5    1    3    3    0  502 -0.36366600138E+03 -0.14759986694E+04  0.43832432750E+03  0.15820794350E+04  0.46999998093E+01 0.  1.
</event>
<event>
 5   0  0.2598987E-06  0.3464620E+04  0.7818609E-02  0.8122226E-01
       -1   -1    0    0    0  501  0.00000000000E+00  0.00000000000E+00  0.26389789193E+04  0.26389789193E+04  0.50400001928E-02 0.  1.
        1   -1    0    0  501    0  0.00000000000E+00  0.00000000000E+00 -0.11371438348E+04  0.11371438348E+04  0.50400001928E-02 0. -1.
    10030    2    1    2    0    0  0.00000000000E+00  0.00000000000E+00  0.15018350845E+04  0.37761227541E+04  0.34646203880E+04 0.  0.
        2    1    3    3  502    0  0.23616574348E+03 -0.37266125441E+03  0.25767186527E+04  0.26142168396E+04  0.25500000920E-02 0.  1.
       -2    1    3    3    0  502 -0.23616574348E+03  0.37266125441E+03 -0.10748835682E+04  0.11619059145E+04  0.25500000920E-02 0. -1.
</event>
<event>
 5   0  0.2517725E-06  0.2288794E+04  0.7818609E-02  0.8482353E-01
        1   -1    0    0  501    0  0.00000000000E+00  0.00000000000E+00  0.21062499130E+04  0.21062499130E+04  0.50400001928E-02 0. -1.
       -1   -1    0    0    0  501  0.00000000000E+00  0.00000000000E+00 -0.62178944223E+03  0.62178944225E+03  0.50400001928E-02 0.  1.
    10030    2    1    2    0    0  0.00000000000E+00  0.00000000000E+00  0.14844604708E+04  0.27280393552E+04  0.22887935325E+04 0.  0.
        3    1    3    3  502    0 -0.46484488511E+03 -0.19343150564E+01  0.19886525356E+04  0.20422593925E+04  0.10100000352E+00 0. -1.
       -3    1    3    3    0  502  0.46484488511E+03  0.19343150564E+01 -0.50419206485E+03  0.68577996271E+03  0.10100000352E+00 0.  1.
</event>
<event>
 5   0  0.2674441E-06  0.3005056E+04  0.7818609E-02  0.8242288E-01
       -1   -1    0    0    0  501  0.00000000000E+00  0.00000000000E+00  0.13678142593E+04  0.13678142593E+04  0.50400001928E-02 0. -1.
        1   -1    0    0  501    0  0.00000000000E+00  0.00000000000E+00 -0.16505099386E+04  0.16505099386E+04  0.50400001928E-02 0.  1.
    10030    2    1    2    0    0  0.00000000000E+00  0.00000000000E+00 -0.28269567927E+03  0.30183241979E+04  0.30050564248E+04 0.  0.
        5    1    3    3  502    0 -0.11958668769E+04  0.72182656189E+02 -0.10521375274E+04  0.15944664906E+04  0.46999998093E+01 0.  1.
       -5    1    3    3    0  502  0.11958668769E+04 -0.72182656189E+02  0.76944184810E+03  0.14238577073E+04  0.46999998093E+01 0. -1.
</event>
<event>
 5   0  0.7071012E-06  0.3175075E+04  0.7818609E-02  0.8195431E-01
       -2   -1    0    0    0  501  0.00000000000E+00  0.00000000000E+00  0.12509602651E+04  0.12509602651E+04  0.25500000920E-02 0.  1.
        2   -1    0    0  501    0  0.00000000000E+00  0.00000000000E+00 -0.20146722930E+04  0.20146722930E+04  0.25500000920E-02 0. -1.
    10030    2    1    2    0    0  0.00000000000E+00  0.00000000000E+00 -0.76371202792E+03  0.32656325582E+04  0.31750747933E+04 0.  0.
        1    1    3    3  502    0  0.49705901373E+03 -0.12405779589E+04 -0.12631336595E+04  0.18389148912E+04  0.50400001928E-02 0.  1.
       -1    1    3    3    0  502 -0.49705901373E+03  0.12405779589E+04  0.49942163161E+03  0.14267176670E+04  0.50400001928E-02 0. -1.
</event>
<event>
 5   0  0.2517725E-06  0.3043141E+04  0.7818609E-02  0.8231518E-01
       -1   -1    0    0    0  501  0.00000000000E+00  0.00000000000E+00  0.15716905946E+04  0.15716905946E+04  0.50400001928E-02 0.  1.
        1   -1    0    0  501    0  0.00000000000E+00  0.00000000000E+00 -0.14730488286E+04  0.14730488286E+04  0.50400001928E-02 0. -1.
    10030    2    1    2    0    0  0.00000000000E+00  0.00000000000E+00  0.98641765988E+02  0.30447394233E+04  0.30431411334E+04 0.  0.
        3    1    3    3  502    0 -0.13409463484E+04  0.62888195513E+03 -0.29949864876E+03  0.15110688514E+04  0.10100000352E+00 0. -1.
       -3    1    3    3    0  502  0.13409463484E+04 -0.62888195513E+03  0.39814041475E+03  0.15336705718E+04  0.10100000352E+00 0.  1.
</event>
<event>
 5   0  0.7414808E-06  0.2933051E+04  0.7818609E-02  0.8263111E-01
       -2   -1    0    0    0  501  0.00000000000E+00  0.00000000000E+00  0.12036503057E+04  0.12036503057E+04  0.25500000920E-02 0. -1.
        2   -1    0    0  501    0  0.00000000000E+00  0.00000000000E+00 -0.17868127027E+04  0.17868127027E+04  0.25500000920E-02 0.  1.
    10030    2    1    2    0    0  0.00000000000E+00  0.00000000000E+00 -0.58316239701E+03  0.29904630083E+04  0.29330514184E+04 0.  0.
        2    1    3    3  502    0  0.79281707024E+03 -0.63473926331E+03  0.78707067950E+03  0.12848864128E+04  0.25500000920E-02 0. -1.
       -2    1    3    3    0  502 -0.79281707024E+03  0.63473926331E+03 -0.13702330765E+04  0.17055765955E+04  0.25500000920E-02 0.  1.
</event>
<event>
 5   0  0.2612331E-06  0.2935582E+04  0.7818609E-02  0.8262369E-01
        1   -1    0    0  501    0  0.00000000000E+00  0.00000000000E+00  0.21720004602E+04  0.21720004602E+04  0.50400001928E-02 0.  1.
       -1   -1    0    0    0  501  0.00000000000E+00  0.00000000000E+00 -0.99190167168E+03  0.99190167170E+03  0.50400001928E-02 0. -1.
    10030    2    1    2    0    0  0.00000000000E+00  0.00000000000E+00  0.11800987886E+04  0.31639021319E+04  0.29355823187E+04 0.  0.
        4    1    3    3  502    0  0.13660829527E+03  0.32606636642E+03 -0.94532969100E+03  0.10092724802E+04  0.12699999809E+01 0. -1.
       -4    1    3    3    0  502 -0.13660829527E+03 -0.32606636642E+03  0.21254284796E+04  0.21546296518E+04  0.12699999809E+01 0.  1.
</event>
<event>
 5   0  0.2674441E-06  0.3107838E+04  0.7818609E-02  0.8213590E-01
        1   -1    0    0  501    0  0.00000000000E+00  0.00000000000E+00  0.27399269029E+04  0.27399269029E+04  0.50400001928E-02 0. -1.
       -1   -1    0    0    0  501  0.00000000000E+00  0.00000000000E+00 -0.88128771237E+03  0.88128771238E+03  0.50400001928E-02 0.  1.
    10030    2    1    2    0    0  0.00000000000E+00  0.00000000000E+00  0.18586391905E+04  0.36212146153E+04  0.31078377772E+04 0.  0.
        5    1    3    3  502    0 -0.32996950688E+03 -0.93203298058E+03 -0.46748566648E+03  0.10936774162E+04  0.46999998093E+01 0.  1.
       -5    1    3    3    0  502  0.32996950688E+03  0.93203298058E+03  0.23261248570E+04  0.25275371991E+04  0.46999998093E+01 0. -1.
</event>
<event>
 5   0  0.7079223E-06  0.3057107E+04  0.7818609E-02  0.8227609E-01
        2   -1    0    0  501    0  0.00000000000E+00  0.00000000000E+00  0.22230317574E+04  0.22230317574E+04  0.25500000920E-02 0.  1.
       -2   -1    0    0    0  501  0.00000000000E+00  0.00000000000E+00 -0.10510309541E+04  0.10510309541E+04  0.25500000920E-02 0. -1.
    10030    2    1    2    0    0  0.00000000000E+00  0.00000000000E+00  0.11720008033E+04  0.32740627115E+04  0.30571065987E+04 0.  0.
        5    1    3    3  502    0  0.39337027908E+03 -0.14573160130E+04  0.84379674482E+03  0.17293134981E+04  0.46999998093E+01 0. -1.
       -5    1    3    3    0  502 -0.39337027908E+03  0.14573160130E+04  0.32820405850E+03  0.15447492134E+04  0.46999998093E+01 0.  1.
</event>
<event>
 5   0  0.2674441E-06  0.3172133E+04  0.7818609E-02  0.8196216E-01
        1   -1    0    0  501    0  0.00000000000E+00  0.00000000000E+00  0.17581027716E+04  0.17581027716E+04  0.50400001928E-02 0. -1.
       -1   -1    0    0    0  501  0.00000000000E+00  0.00000000000E+00 -0.14308648570E+04  0.14308648570E+04  0.50400001928E-02 0.  1.
    10030    2    1    2    0    0  0.00000000000E+00  0.00000000000E+00  0.32723791459E+03  0.31889676285E+04  0.31721333331E+04 0.  0.
        5    1    3    3  502    0 -0.15699234185E+04 -0.21953204745E+03  0.21616027241E+03  0.15998753743E+04  0.46999998093E+01 0. -1.
       -5    1    3    3    0  502  0.15699234185E+04  0.21953204745E+03  0.11107764217E+03  0.15890922542E+04  0.46999998093E+01 0.  1.
</event>
<event>
 5   0  0.2598987E-06  0.3199291E+04  0.7818609E-02  0.8189004E-01
        1   -1    0    0  501    0  0.00000000000E+00  0.00000000000E+00  0.20533406488E+04  0.20533406488E+04  0.50400001928E-02 0. -1.
       -1   -1    0    0    0  501  0.00000000000E+00  0.00000000000E+00 -0.12461966073E+04  0.12461966073E+04  0.50400001928E-02 0.  1.
    10030    2    1    2    0    0  0.00000000000E+00  0.00000000000E+00  0.80714404153E+03  0.32995372561E+04  0.31992912654E+04 0.  0.
        2    1    3    3  502    0 -0.37434506749E+03  0.12047706443E+04  0.14178822001E+04  0.18978926388E+04  0.25500000920E-02 0. -1.
       -2    1    3    3    0  502  0.37434506749E+03 -0.12047706443E+04 -0.61073815859E+03  0.14016446173E+04  0.25500000920E-02 0.  1.
</event>
<event>
 5   0  0.7071012E-06  0.3200751E+04  0.7818609E-02  0.8188619E-01
        2   -1    0    0  501    0  0.00000000000E+00  0.00000000000E+00  0.17353877756E+04  0.17353877756E+04  0.25500000920E-02 0. -1.
       -2   -1    0    0    0  501  0.00000000000E+00  0.00000000000E+00 -0.14758671875E+04  0.14758671875E+04  0.25500000920E-02 0.  1.
    10030    2    1    2    0    0  0.00000000000E+00  0.00000000000E+00  0.25952058805E+03  0.32112549631E+04  0.32007510841E+04 0.  0.
        1    1    3    3  502    0 -0.51761248506E+03 -0.37640599808E+03 -0.13418859437E+04  0.14866950077E+04  0.50400001928E-02 0.  1.
       -1    1    3    3    0  502  0.51761248506E+03  0.37640599808E+03  0.16014065317E+04  0.17245599554E+04  0.50400001928E-02 0. -1.
</event>
<event>
 5   0  0.2612331E-06  0.3115006E+04  0.7818609E-02  0.8211632E-01
        1   -1    0    0  501    0  0.00000000000E+00  0.00000000000E+00  0.24034993474E+04  0.24034993474E+04  0.50400001928E-02 0. -1.
       -1   -1    0    0    0  501  0.00000000000E+00  0.00000000000E+00 -0.10092848210E+04  0.10092848210E+04  0.50400001928E-02 0.  1.
    10030    2    1    2    0    0  0.00000000000E+00  0.00000000000E+00  0.13942145264E+04  0.34127841684E+04  0.31150058803E+04 0.  0.
        4    1    3    3  502    0  0.36109604134E+03 -0.57755689666E+03  0.22316642306E+04  0.23333000602E+04  0.12699999809E+01 0. -1.
       -4    1    3    3    0  502 -0.36109604134E+03  0.57755689666E+03 -0.83744970418E+03  0.10794841082E+04  0.12699999809E+01 0.  1.
</event>
<event>
 5   0  0.7071012E-06  0.2615038E+04  0.7818609E-02  0.8363111E-01
        2   -1    0    0  501    0  0.00000000000E+00  0.00000000000E+00  0.10874807033E+04  0.10874807033E+04  0.25500000920E-02 0.  1.
       -2   -1    0    0    0  501  0.00000000000E+00  0.00000000000E+00 -0.15720797593E+04  0.15720797593E+04  0.25500000920E-02 0. -1.
    10030    2    1    2    0    0  0.00000000000E+00  0.00000000000E+00 -0.48459905594E+03  0.26595604626E+04  0.26150383572E+04 0.  0.
        1    1    3    3  502    0 -0.51033658018E+03  0.70556889878E+03  0.74967074517E+03  0.11490331249E+04  0.50400001928E-02 0.  1.
       -1    1    3    3    0  502  0.51033658018E+03 -0.70556889878E+03 -0.12342698011E+04  0.15105273377E+04  0.50400001928E-02 0. -1.
</event>
<event>
 5   0  0.7071012E-06  0.2650571E+04  0.7818609E-02  0.8351224E-01
       -2   -1    0    0    0  501  0.00000000000E+00  0.00000000000E+00  0.18639934679E+04  0.18639934679E+04  0.25500000920E-02 0. -1.
        2   -1    0    0  501    0  0.00000000000E+00  0.00000000000E+00 -0.94226785961E+03  0.94226785962E+03  0.25500000920E-02 0.  1.
    10030    2    1    2    0    0  0.00000000000E+00  0.00000000000E+00  0.92172560830E+03  0.28062613275E+04  0.26505706068E+04 0.  0.
        1    1    3    3  502    0  0.10167997294E+04 -0.84293334836E+03  0.34506363556E+03  0.13650960524E+04  0.50400001928E-02 0. -1.
       -1    1    3    3    0  502 -0.10167997294E+04  0.84293334836E+03  0.57666197274E+03  0.14411652752E+04  0.50400001928E-02 0.  1.
</event>
<event>
 5   0  0.2612331E-06  0.2807497E+04  0.7818609E-02  0.8300945E-01
        1   -1    0    0  501    0  0.00000000000E+00  0.00000000000E+00  0.18590467161E+04  0.18590467162E+04  0.50400001928E-02 0. -1.
       -1   -1    0    0    0  501  0.00000000000E+00  0.00000000000E+00 -0.10599573577E+04  0.10599573577E+04  0.50400001928E-02 0.  1.
    10030    2    1    2    0    0  0.00000000000E+00  0.00000000000E+00  0.79908935847E+03  0.29190040738E+04  0.28074972806E+04 0.  0.
        4    1    3    3  502    0  0.77621201649E+03  0.69818244581E+03 -0.57609866836E+03  0.11924156619E+04  0.12699999809E+01 0.  1.
       -4    1    3    3    0  502 -0.77621201649E+03 -0.69818244581E+03  0.13751880268E+04  0.17265884119E+04  0.12699999809E+01 0. -1.
</event>
<event>
 5   0  0.2517725E-06  0.3147928E+04  0.7818609E-02  0.8202706E-01
        1   -1    0    0  501    0  0.00000000000E+00  0.00000000000E+00  0.18166660790E+04  0.18166660790E+04  0.50400001928E-02 0. -1.
       -1   -1    0    0    0  501  0.00000000000E+00  0.00000000000E+00 -0.13636863696E+04  0.13636863696E+04  0.50400001928E-02 0.  1.
    10030    2    1    2    0    0  0.00000000000E+00  0.00000000000E+00  0.45297970942E+03  0.31803524486E+04  0.31479280614E+04 0.  0.
        3    1    3    3  502    0 -0.39983284365E+03  0.13463434644E+04  0.94434050567E+03  0.16924201688E+04  0.10100000352E+00 0. -1.
       -3    1    3    3    0  502  0.39983284365E+03 -0.13463434644E+04 -0.49136079625E+03  0.14879322798E+04  0.10100000352E+00 0.  1.
</event>
<event>
 5   0  0.7363513E-06  0.2846206E+04  0.7818609E-02  0.8289065E-01
        2   -1    0    0  501    0  0.00000000000E+00  0.00000000000E+00  0.19858320744E+04  0.19858320744E+04  0.25500000920E-02 0.  1.
       -2   -1    0    0    0  501  0.00000000000E+00  0.00000000000E+00 -0.10198355406E+04  0.10198355406E+04  0.25500000920E-02 0. -1.
    10030    2    1    2    0    0  0.00000000000E+00  0.00000000000E+00  0.96599653382E+03  0.30056676151E+04  0.28462059850E+04 0.  0.
        4    1    3    3  502    0  0.24245565893E+03 -0.51398948730E+03 -0.89480233195E+03  0.10600201723E+04  0.12699999809E+01 0. -1.
       -4    1    3    3    0  502 -0.24245565893E+03  0.51398948730E+03  0.18607988658E+04  0.19456474427E+04  0.12699999809E+01 0.  1.
</event>
<event>
 5   0  0.2612331E-06  0.2030540E+04  0.7818609E-02  0.8592474E-01
       -1   -1    0    0    0  501  0.00000000000E+00  0.00000000000E+00  0.96824103453E+03  0.96824103454E+03  0.50400001928E-02 0.  1.
        1   -1    0    0  501    0  0.00000000000E+00  0.00000000000E+00 -0.10645832696E+04  0.10645832696E+04  0.50400001928E-02 0. -1.
    10030    2    1    2    0    0  0.00000000000E+00  0.00000000000E+00 -0.96342235085E+02  0.20328243042E+04  0.20305400329E+04 0.  0.
        4    1    3    3  502    0 -0.79623417389E+03  0.62794931983E+03  0.15071348753E+01  0.10140577362E+04  0.12699999809E+01 0. -1.
       -4    1    3    3    0  502  0.79623417389E+03 -0.62794931983E+03 -0.97849369960E+02  0.10187665680E+04  0.12699999809E+01 0.  1.
</event>
<event>
 5   0  0.2624011E-06  0.3040640E+04  0.7818609E-02  0.8232220E-01
       -1   -1    0    0    0  501  0.00000000000E+00  0.00000000000E+00  0.13108900315E+04  0.13108900315E+04  0.50400001928E-02 0. -1.
        1   -1    0    0  501    0  0.00000000000E+00  0.00000000000E+00 -0.17632089726E+04  0.17632089726E+04  0.50400001928E-02 0.  1.
    10030    2    1    2    0    0  0.00000000000E+00  0.00000000000E+00 -0.45231894117E+03  0.30740990041E+04  0.30406401074E+04 0.  0.
        1    1    3    3  502    0 -0.41730857665E+03 -0.12549662759E+04  0.53194938129E+03  0.14255023487E+04  0.50400001928E-02 0. -1.
       -1    1    3    3    0  502  0.41730857665E+03  0.12549662759E+04 -0.98426832246E+03  0.16485966555E+04  0.50400001928E-02 0.  1.
</event>
<event>
 5   0  0.2674441E-06  0.3029078E+04  0.7818609E-02  0.8235476E-01
       -1   -1    0    0    0  501  0.00000000000E+00  0.00000000000E+00  0.95733848054E+03  0.95733848056E+03  0.50400001928E-02 0. -1.
        1   -1    0    0  501    0  0.00000000000E+00  0.00000000000E+00 -0.23960466510E+04  0.23960466510E+04  0.50400001928E-02 0.  1.
    10030    2    1    2    0    0  0.00000000000E+00  0.00000000000E+00 -0.14387081704E+04  0.33533851315E+04  0.30290775231E+04 0.  0.
        5    1    3    3  502    0 -0.88203001780E+02 -0.88363996221E+03  0.63886881281E+03  0.10939720300E+04  0.46999998093E+01 0. -1.
       -5    1    3    3    0  502  0.88203001780E+02  0.88363996221E+03 -0.20775769832E+04  0.22594131016E+04  0.46999998093E+01 0.  1.
</event>
<event>
 5   0  0.7363513E-06  0.1997941E+04  0.7818609E-02  0.8607584E-01
        2   -1    0    0  501    0  0.00000000000E+00  0.00000000000E+00  0.92595802578E+03  0.92595802579E+03  0.25500000920E-02 0.  1.
       -2   -1    0    0    0  501  0.00000000000E+00  0.00000000000E+00 -0.10777397335E+04  0.10777397335E+04  0.25500000920E-02 0. -1.
    10030    2    1    2    0    0  0.00000000000E+00  0.00000000000E+00 -0.15178170768E+03  0.20036977592E+04  0.19979406957E+04 0.  0.
        4    1    3    3  502    0 -0.41431037637E+03  0.59980071424E+03 -0.76088619752E+03  0.10537378247E+04  0.12699999809E+01 0. -1.
       -4    1    3    3    0  502  0.41431037637E+03 -0.59980071424E+03  0.60910448984E+03  0.94995993453E+03  0.12699999809E+01 0.  1.
</event>
<event>
 5   0  0.7414808E-06  0.3093856E+04  0.7818609E-02  0.8217426E-01
        2   -1    0    0  501    0  0.00000000000E+00  0.00000000000E+00  0.30752394859E+04  0.30752394859E+04  0.25500000920E-02 0.  1.
       -2   -1    0    0    0  501  0.00000000000E+00  0.00000000000E+00 -0.77814641677E+03  0.77814641677E+03  0.25500000920E-02 0. -1.
    10030    2    1    2    0    0  0.00000000000E+00  0.00000000000E+00  0.22970930692E+04  0.38533859027E+04  0.30938562259E+04 0.  0.
        2    1    3    3  502    0 -0.13255170932E+04  0.68740147481E+03  0.64497436581E+03  0.16265018550E+04  0.25500000920E-02 0. -1.
       -2    1    3    3    0  502  0.13255170932E+04 -0.68740147481E+03  0.16521187034E+04  0.22268840477E+04  0.25500000920E-02 0.  1.
</event>
<event>
 5   0  0.2674441E-06  0.3103660E+04  0.7818609E-02  0.8214734E-01
       -1   -1    0    0    0  501  0.00000000000E+00  0.00000000000E+00  0.11065340777E+04  0.11065340777E+04  0.50400001928E-02 0.  1.
        1   -1    0    0  501    0  0.00000000000E+00  0.00000000000E+00 -0.21763241342E+04  0.21763241342E+04  0.50400001928E-02 0. -1.
    10030    2    1    2    0    0  0.00000000000E+00  0.00000000000E+00 -0.10697900565E+04  0.32828582119E+04  0.31036603027E+04 0.  0.
        5    1    3    3  502    0 -0.32563191092E+03 -0.82714872624E+03 -0.18803204512E+04  0.20798649586E+04  0.46999998093E+01 0. -1.
       -5    1    3    3    0  502  0.32563191092E+03  0.82714872624E+03  0.81053039472E+03  0.12029932533E+04  0.46999998093E+01 0.  1.
</event>
<event>
 5   0  0.2624011E-06  0.3145996E+04  0.7818609E-02  0.8203227E-01
       -1   -1    0    0    0  501  0.00000000000E+00  0.00000000000E+00  0.15632233423E+04  0.15632233423E+04  0.50400001928E-02 0.  1.
        1   -1    0    0  501    0  0.00000000000E+00  0.00000000000E+00 -0.15828340312E+04  0.15828340312E+04  0.50400001928E-02 0. -1.
    10030    2    1    2    0    0  0.00000000000E+00  0.00000000000E+00 -0.19610688898E+02  0.31460573735E+04  0.31459962521E+04 0.  0.
        1    1    3    3  502    0  0.16004653546E+03  0.10821196616E+03  0.15513138297E+04  0.15632975793E+04  0.50400001928E-02 0.  1.
       -1    1    3    3    0  502 -0.16004653546E+03 -0.10821196616E+03 -0.15709245186E+04  0.15827597942E+04  0.50400001928E-02 0. -1.
</event>
<event>
 5   0  0.7094341E-06  0.3113730E+04  0.7818609E-02  0.8211980E-01
        2   -1    0    0  501    0  0.00000000000E+00  0.00000000000E+00  0.21725365380E+04  0.21725365380E+04  0.25500000920E-02 0.  1.
       -2   -1    0    0    0  501  0.00000000000E+00  0.00000000000E+00 -0.11156673654E+04  0.11156673654E+04  0.25500000920E-02 0. -1.
    10030    2    1    2    0    0  0.00000000000E+00  0.00000000000E+00  0.10568691726E+04  0.32882039035E+04  0.31137296708E+04 0.  0.
        3    1    3    3  502    0  0.43615554122E+03  0.14781666094E+04  0.76128926830E+03  0.17189443101E+04  0.10100000352E+00 0.  1.
       -3    1    3    3    0  502 -0.43615554122E+03 -0.14781666094E+04  0.29557990427E+03  0.15692595933E+04  0.10100000352E+00 0. -1.
</event>
<event>
 5   0  0.7363513E-06  0.2088071E+04  0.7818609E-02  0.8566516E-01
        2   -1    0    0  501    0  0.00000000000E+00  0.00000000000E+00  0.16428077484E+04  0.16428077484E+04  0.25500000920E-02 0. -1.
       -2   -1    0    0    0  501  0.00000000000E+00  0.00000000000E+00 -0.66350444608E+03  0.66350444609E+03  0.25500000920E-02 0.  1.
    10030    2    1    2    0    0  0.00000000000E+00  0.00000000000E+00  0.97930330235E+03  0.23063121945E+04  0.20880711148E+04 0.  0.
        4    1    3    3  502    0 -0.59290778552E+03 -0.67171421916E+03  0.10816454935E+04  0.14045277572E+04  0.12699999809E+01 0. -1.
       -4    1    3    3    0  502  0.59290778552E+03  0.67171421916E+03 -0.10234219114E+03  0.90178443729E+03  0.12699999809E+01 0.  1.
</event>
<event>
 5   0  0.7363513E-06  0.3095273E+04  0.7818609E-02  0.8217036E-01
        2   -1    0    0  501    0  0.00000000000E+00  0.00000000000E+00  0.15319837164E+04  0.15319837164E+04  0.25500000920E-02 0.  1.
       -2   -1    0    0    0  501  0.00000000000E+00  0.00000000000E+00 -0.15634495220E+04  0.15634495220E+04  0.25500000920E-02 0. -1.
    10030    2    1    2    0    0  0.00000000000E+00  0.00000000000E+00 -0.31465805670E+02  0.30954332384E+04  0.30952733056E+04 0.  0.
        4    1    3    3  502    0 -0.28282017958E+03 -0.15215408565E+04 -0.25919895745E+02  0.15478201724E+04  0.12699999809E+01 0. -1.
       -4    1    3    3    0  502  0.28282017958E+03  0.15215408565E+04 -0.55459099242E+01  0.15476130660E+04  0.12699999809E+01 0.  1.
</event>
<event>
 5   0  0.2517725E-06  0.2819144E+04  0.7818609E-02  0.8297349E-01
        1   -1    0    0  501    0  0.00000000000E+00  0.00000000000E+00  0.15008525352E+04  0.15008525353E+04  0.50400001928E-02 0. -1.
       -1   -1    0    0    0  501  0.00000000000E+00  0.00000000000E+00 -0.13238430660E+04  0.13238430660E+04  0.50400001928E-02 0.  1.
    10030    2    1    2    0    0  0.00000000000E+00  0.00000000000E+00  0.17700946924E+03  0.28246956013E+04  0.28191439991E+04 0.  0.
        3    1    3    3  502    0 -0.13982275697E+04 -0.11505807173E+03 -0.48198961829E+02  0.14037812674E+04  0.10100000352E+00 0. -1.
       -3    1    3    3    0  502  0.13982275697E+04  0.11505807173E+03  0.22520843107E+03  0.14209143339E+04  0.10100000352E+00 0.  1.
</event>
<event>
 5   0  0.2517725E-06  0.3146732E+04  0.7818609E-02  0.8203029E-01
       -1   -1    0    0    0  501  0.00000000000E+00  0.00000000000E+00  0.91680103071E+03  0.91680103072E+03  0.50400001928E-02 0. -1.
        1   -1    0    0  501    0  0.00000000000E+00  0.00000000000E+00 -0.27001279497E+04  0.27001279497E+04  0.50400001928E-02 0.  1.
    10030    2    1    2    0    0  0.00000000000E+00  0.00000000000E+00 -0.17833269190E+04  0.36169289804E+04  0.31467316933E+04 0.  0.
        3    1    3    3  502    0 -0.81223094358E+03  0.11635496663E+04 -0.11046670923E+03  0.14232954141E+04  0.10100000352E+00 0. -1.
       -3    1    3    3    0  502  0.81223094358E+03 -0.11635496663E+04 -0.16728602098E+04  0.21936335663E+04  0.10100000352E+00 0.  1.
</event>
<event>
 5   0  0.2624011E-06  0.3082689E+04  0.7818609E-02  0.8220505E-01
       -1   -1    0    0    0  501  0.00000000000E+00  0.00000000000E+00  0.13925344446E+04  0.13925344446E+04  0.50400001928E-02 0.  1.
        1   -1    0    0  501    0  0.00000000000E+00  0.00000000000E+00 -0.17060567804E+04  0.17060567804E+04  0.50400001928E-02 0. -1.
    10030    2    1    2    0    0  0.00000000000E+00  0.00000000000E+00 -0.31352233582E+03  0.30985912250E+04  0.30826889763E+04 0.  0.
        1    1    3    3  502    0 -0.13993709614E+04 -0.79667539447E+01  0.49266794110E+03  0.14835849342E+04  0.50400001928E-02 0.  1.
       -1    1    3    3    0  502  0.13993709614E+04  0.79667539447E+01 -0.80619027692E+03  0.16150062908E+04  0.50400001928E-02 0. -1.
</event>
<event>
 5   0  0.2598987E-06  0.3178814E+04  0.7818609E-02  0.8194435E-01
        1   -1    0    0  501    0  0.00000000000E+00  0.00000000000E+00  0.14098527338E+04  0.14098527339E+04  0.50400001928E-02 0.  1.
       -1   -1    0    0    0  501  0.00000000000E+00  0.00000000000E+00 -0.17918281641E+04  0.17918281641E+04  0.50400001928E-02 0. -1.
    10030    2    1    2    0    0  0.00000000000E+00  0.00000000000E+00 -0.38197543022E+03  0.32016808979E+04  0.31788135118E+04 0.  0.
        2    1    3    3  502    0 -0.14269734667E+04 -0.68933942471E+03 -0.68574442982E+02  0.15862359759E+04  0.25500000920E-02 0. -1.
       -2    1    3    3    0  502  0.14269734667E+04  0.68933942471E+03 -0.31340098724E+03  0.16154449220E+04  0.25500000920E-02 0.  1.
</event>
<event>
 5   0  0.7094341E-06  0.3093037E+04  0.7818609E-02  0.8217652E-01
       -2   -1    0    0    0  501  0.00000000000E+00  0.00000000000E+00  0.17059380728E+04  0.17059380728E+04  0.25500000920E-02 0. -1.
        2   -1    0    0  501    0  0.00000000000E+00  0.00000000000E+00 -0.14019964248E+04  0.14019964248E+04  0.25500000920E-02 0.  1.
    10030    2    1    2    0    0  0.00000000000E+00  0.00000000000E+00  0.30394164802E+03  0.31079344976E+04  0.30930367466E+04 0.  0.
        3    1    3    3  502    0 -0.60984229556E+03 -0.27734870859E+03  0.15525600703E+04  0.16909384122E+04  0.10100000352E+00 0. -1.
       -3    1    3    3    0  502  0.60984229556E+03  0.27734870859E+03 -0.12486184223E+04  0.14169960855E+04  0.10100000352E+00 0.  1.
</event>
<event>
 5   0  0.7094341E-06  0.3152515E+04  0.7818609E-02  0.8201471E-01
        2   -1    0    0  501    0  0.00000000000E+00  0.00000000000E+00  0.10787335156E+04  0.10787335156E+04  0.25500000920E-02 0.  1.
       -2   -1    0    0    0  501  0.00000000000E+00  0.00000000000E+00 -0.23032457722E+04  0.23032457722E+04  0.25500000920E-02 0. -1.
    10030    2    1    2    0    0  0.00000000000E+00  0.00000000000E+00 -0.12245122566E+04  0.33819792878E+04  0.31525154459E+04 0.  0.
        3    1    3    3  502    0 -0.13787084636E+04 -0.56793984572E+03 -0.63983286022E+02  0.14924766555E+04  0.10100000352E+00 0.  1.
       -3    1    3    3    0  502  0.13787084636E+04  0.56793984572E+03 -0.11605289705E+04  0.18895026324E+04  0.10100000352E+00 0. -1.
</event>
<event>
 5   0  0.2517725E-06  0.2370620E+04  0.7818609E-02  0.8450586E-01
       -1   -1    0    0    0  501  0.00000000000E+00  0.00000000000E+00  0.71938017078E+03  0.71938017079E+03  0.50400001928E-02 0.  1.
        1   -1    0    0  501    0  0.00000000000E+00  0.00000000000E+00 -0.19530144972E+04  0.19530144972E+04  0.50400001928E-02 0. -1.
    10030    2    1    2    0    0  0.00000000000E+00  0.00000000000E+00 -0.12336343265E+04  0.26723946680E+04  0.23706200898E+04 0.  0.
        3    1    3    3  502    0 -0.83778079578E+02  0.31276836427E+03 -0.19021922179E+04  0.19295538501E+04  0.10100000352E+00 0. -1.
       -3    1    3    3    0  502  0.83778079578E+02 -0.31276836427E+03  0.66855789148E+03  0.74284081792E+03  0.10100000352E+00 0.  1.
</event>
<event>
 5   0  0.7414808E-06  0.3050602E+04  0.7818609E-02  0.8229427E-01
        2   -1    0    0  501    0  0.00000000000E+00  0.00000000000E+00  0.16742527695E+04  0.16742527695E+04  0.25500000920E-02 0.  1.
       -2   -1    0    0    0  501  0.00000000000E+00  0.00000000000E+00 -0.13896006678E+04  0.13896006678E+04  0.25500000920E-02 0. -1.
    10030    2    1    2    0    0  0.00000000000E+00  0.00000000000E+00  0.28465210164E+03  0.30638534373E+04  0.30506017548E+04 0.  0.
        2    1    3    3  502    0 -0.59169579722E+03  0.14795762773E+03 -0.12617983069E+04  0.14014743463E+04  0.25500000920E-02 0. -1.
       -2    1    3    3    0  502  0.59169579722E+03 -0.14795762773E+03  0.15464504086E+04  0.16623790910E+04  0.25500000920E-02 0.  1.
</event>
<event>
 5   0  0.7071012E-06  0.3055309E+04  0.7818609E-02  0.8228111E-01
        2   -1    0    0  501    0  0.00000000000E+00  0.00000000000E+00  0.26809816207E+04  0.26809816207E+04  0.25500000920E-02 0. -1.
       -2   -1    0    0    0  501  0.00000000000E+00  0.00000000000E+00 -0.87047518362E+03  0.87047518362E+03  0.25500000920E-02 0.  1.
    10030    2    1    2    0    0  0.00000000000E+00  0.00000000000E+00  0.18105064370E+04  0.35514568043E+04  0.30553088018E+04 0.  0.
        1    1    3    3  502    0  0.67600830769E+03  0.95739293767E+03  0.20442397640E+04  0.23563753270E+04  0.50400001928E-02 0.  1.
       -1    1    3    3    0  502 -0.67600830769E+03 -0.95739293767E+03 -0.23373332693E+03  0.11950814773E+04  0.50400001928E-02 0. -1.
</event>
<event>
 5   0  0.7363513E-06  0.3065023E+04  0.7818609E-02  0.8225403E-01
        2   -1    0    0  501    0  0.00000000000E+00  0.00000000000E+00  0.16224570900E+04  0.16224570900E+04  0.25500000920E-02 0.  1.
       -2   -1    0    0    0  501  0.00000000000E+00  0.00000000000E+00 -0.14475518559E+04  0.14475518559E+04  0.25500000920E-02 0. -1.
    10030    2    1    2    0    0  0.00000000000E+00  0.00000000000E+00  0.17490523415E+03  0.30700089459E+04  0.30650225264E+04 0.  0.
        4    1    3    3  502    0 -0.10643418975E+04  0.63327132985E+03 -0.81664140810E+03  0.14834962266E+04  0.12699999809E+01 0. -1.
       -4    1    3    3    0  502  0.10643418975E+04 -0.63327132985E+03  0.99154664225E+03  0.15865127193E+04  0.12699999809E+01 0.  1.
</event>
<event>
 5   0  0.2674441E-06  0.3171430E+04  0.7818609E-02  0.8196404E-01
       -1   -1    0    0    0  501  0.00000000000E+00  0.00000000000E+00  0.11728401884E+04  0.11728401884E+04  0.50400001928E-02 0. -1.
        1   -1    0    0  501    0  0.00000000000E+00  0.00000000000E+00 -0.21439335768E+04  0.21439335768E+04  0.50400001928E-02 0.  1.
    10030    2    1    2    0    0  0.00000000000E+00  0.00000000000E+00 -0.97109338843E+03  0.33167737652E+04  0.31714296209E+04 0.  0.
        5    1    3    3  502    0  0.66335258849E+03  0.67752059578E+03  0.84368478127E+03  0.12692111387E+04  0.46999998093E+01 0. -1.
       -5    1    3    3    0  502 -0.66335258849E+03 -0.67752059578E+03 -0.18147781697E+04  0.20475626265E+04  0.46999998093E+01 0.  1.
</event>
<event>
 5   0  0.7071012E-06  0.3041413E+04  0.7818609E-02  0.8232003E-01
       -2   -1    0    0    0  501  0.00000000000E+00  0.00000000000E+00  0.14704966743E+04  0.14704966743E+04  0.25500000920E-02 0.  1.
        2   -1    0    0  501    0  0.00000000000E+00  0.00000000000E+00 -0.15726306869E+04  0.15726306869E+04  0.25500000920E-02 0. -1.
    10030    2    1    2    0    0  0.00000000000E+00  0.00000000000E+00 -0.10213401259E+03  0.30431273611E+04  0.30414129578E+04 0.  0.
        1    1    3    3  502    0 -0.49609322099E+03 -0.41517815003E+02  0.13866549220E+04  0.14733105869E+04  0.50400001928E-02 0.  1.
       -1    1    3    3    0  502  0.49609322099E+03  0.41517815003E+02 -0.14887889346E+04  0.15698167742E+04  0.50400001928E-02 0. -1.
</event>
<event>
 5   0  0.7094341E-06  0.2914538E+04  0.7818609E-02  0.8268565E-01
        2   -1    0    0  501    0  0.00000000000E+00  0.00000000000E+00  0.22927292485E+04  0.22927292485E+04  0.25500000920E-02 0. -1.
       -2   -1    0    0    0  501  0.00000000000E+00  0.00000000000E+00 -0.92624684097E+03  0.92624684097E+03  0.25500000920E-02 0.  1.
    10030    2    1    2    0    0  0.00000000000E+00  0.00000000000E+00  0.13664824075E+04  0.32189760895E+04  0.29145381957E+04 0.  0.
        3    1    3    3  502    0  0.66950725617E+03  0.34720060337E+03  0.20604238723E+04  0.21941136636E+04  0.10100000352E+00 0. -1.
       -3    1    3    3    0  502 -0.66950725617E+03 -0.34720060337E+03 -0.69394146483E+03  0.10248624258E+04  0.10100000352E+00 0.  1.
</event>
<event>
 5   0  0.2612331E-06  0.3016036E+04  0.7818609E-02  0.8239167E-01
        1   -1    0    0  501    0  0.00000000000E+00  0.00000000000E+00  0.15934670224E+04  0.15934670225E+04  0.50400001928E-02 0. -1.
       -1   -1    0    0    0  501  0.00000000000E+00  0.00000000000E+00 -0.14271507346E+04  0.14271507346E+04  0.50400001928E-02 0.  1.
    10030    2    1    2    0    0  0.00000000000E+00  0.00000000000E+00  0.16631628787E+03  0.30206177570E+04  0.30160355645E+04 0.  0.
        4    1    3    3  502    0 -0.10827303932E+04 -0.90168711893E+02  0.11305388048E+04  0.15679780302E+04  0.12699999809E+01 0. -1.
       -4    1    3    3    0  502  0.10827303932E+04  0.90168711893E+02 -0.96422251696E+03  0.14526397269E+04  0.12699999809E+01 0.  1.
</event>
<event>
 5   0  0.7079223E-06  0.3201786E+04  0.7818609E-02  0.8188346E-01
        2   -1    0    0  501    0  0.00000000000E+00  0.00000000000E+00  0.20477657579E+04  0.20477657579E+04  0.25500000920E-02 0.  1.
       -2   -1    0    0    0  501  0.00000000000E+00  0.00000000000E+00 -0.12515390154E+04  0.12515390154E+04  0.25500000920E-02 0. -1.
    10030    2    1    2    0    0  0.00000000000E+00  0.00000000000E+00  0.79622674253E+03  0.32993047733E+04  0.32017862142E+04 0.  0.
        5    1    3    3  502    0  0.10050998072E+01  0.23103509749E+03  0.20304890196E+04  0.20435963338E+04  0.46999998093E+01 0.  1.
       -5    1    3    3    0  502 -0.10050998072E+01 -0.23103509749E+03 -0.12342622771E+04  0.12557084396E+04  0.46999998093E+01 0. -1.
</event>
<event>
 5   0  0.7414808E-06  0.3134617E+04  0.7818609E-02  0.8206301E-01
       -2   -1    0    0    0  501  0.00000000000E+00  0.00000000000E+00  0.17534569660E+04  0.17534569660E+04  0.25500000920E-02 0.  1.
        2   -1    0    0  501    0  0.00000000000E+00  0.00000000000E+00 -0.14009220837E+04  0.14009220837E+04  0.25500000920E-02 0. -1.
    10030    2    1    2    0    0  0.00000000000E+00  0.00000000000E+00  0.35253488238E+03  0.31543790497E+04  0.31346174162E+04 0.  0.
        2    1    3    3  502    0  0.18838346124E+03 -0.15092279198E+04  0.55706999450E+03  0.16197481969E+04  0.25500000920E-02 0.  1.
       -2    1    3    3    0  502 -0.18838346124E+03  0.15092279198E+04 -0.20453511212E+03  0.15346308528E+04  0.25500000920E-02 0. -1.
</event>
<event>
 5   0  0.7414808E-06  0.3074529E+04  0.7818609E-02  0.8222763E-01
       -2   -1    0    0    0  501  0.00000000000E+00  0.00000000000E+00  0.15157508062E+04  0.15157508062E+04  0.25500000920E-02 0.  1.
        2   -1    0    0  501    0  0.00000000000E+00  0.00000000000E+00 -0.15590831695E+04  0.15590831695E+04  0.25500000920E-02 0. -1.
    10030    2    1    2    0    0  0.00000000000E+00  0.00000000000E+00 -0.43332363252E+02  0.30748339758E+04  0.30745286281E+04 0.  0.
        2    1    3    3  502    0  0.24711276219E+03  0.14148938940E+04  0.52628614560E+03  0.15296949224E+04  0.25500000920E-02 0. -1.
       -2    1    3    3    0  502 -0.24711276219E+03 -0.14148938940E+04 -0.56961850886E+03  0.15451390534E+04  0.25500000920E-02 0.  1.
</event>
<event>
 5   0  0.2517725E-06  0.3101834E+04  0.7818609E-02  0.8215235E-01
        1   -1    0    0  501    0  0.00000000000E+00  0.00000000000E+00  0.19412524184E+04  0.19412524184E+04  0.50400001928E-02 0.  1.
       -1   -1    0    0    0  501  0.00000000000E+00  0.00000000000E+00 -0.12390678941E+04  0.12390678941E+04  0.50400001928E-02 0. -1.
    10030    2    1    2    0    0  0.00000000000E+00  0.00000000000E+00  0.70218452425E+03  0.31803203125E+04  0.31018340033E+04 0.  0.
        3    1    3    3  502    0 -0.10639219206E+04  0.11221930597E+04  0.22935971211E+03  0.15632827652E+04  0.10100000352E+00 0.  1.
       -3    1    3    3    0  502  0.10639219206E+04 -0.11221930597E+04  0.47282481213E+03  0.16170375473E+04  0.10100000352E+00 0. -1.
</event>
<event>
 5   0  0.2598987E-06  0.1981763E+04  0.7818609E-02  0.8615195E-01
       -1   -1    0    0    0  501  0.00000000000E+00  0.00000000000E+00  0.47296438212E+03  0.47296438214E+03  0.50400001928E-02 0.  1.
        1   -1    0    0  501    0  0.00000000000E+00  0.00000000000E+00 -0.20759419475E+04  0.20759419475E+04  0.50400001928E-02 0. -1.
    10030    2    1    2    0    0  0.00000000000E+00  0.00000000000E+00 -0.16029775654E+04  0.25489063297E+04  0.19817634577E+04 0.  0.
        2    1    3    3  502    0  0.30265156914E+03 -0.49642852691E+03  0.23051199263E+03  0.62543987192E+03  0.25500000920E-02 0.  1.
       -2    1    3    3    0  502 -0.30265156914E+03  0.49642852691E+03 -0.18334895580E+04  0.19234664577E+04  0.25500000920E-02 0. -1.
</event>
<event>
 5   0  0.7071012E-06  0.3125196E+04  0.7818609E-02  0.8208857E-01
       -2   -1    0    0    0  501  0.00000000000E+00  0.00000000000E+00  0.12829810721E+04  0.12829810721E+04  0.25500000920E-02 0.  1.
        2   -1    0    0  501    0  0.00000000000E+00  0.00000000000E+00 -0.19031560649E+04  0.19031560649E+04  0.25500000920E-02 0. -1.
    10030    2    1    2    0    0  0.00000000000E+00  0.00000000000E+00 -0.62017499285E+03  0.31861371370E+04  0.31251964473E+04 0.  0.
        1    1    3    3  502    0  0.93741305204E+03 -0.11822780829E+04  0.10427177882E+03  0.15124143940E+04  0.50400001928E-02 0.  1.
       -1    1    3    3    0  502 -0.93741305204E+03  0.11822780829E+04 -0.72444677167E+03  0.16737227430E+04  0.50400001928E-02 0. -1.
</event>
<event>
 5   0  0.2598987E-06  0.3286308E+04  0.7818609E-02  0.8166388E-01
        1   -1    0    0  501    0  0.00000000000E+00  0.00000000000E+00  0.18853424013E+04  0.18853424013E+04  0.50400001928E-02 0.  1.
       -1   -1    0    0    0  501  0.00000000000E+00  0.00000000000E+00 -0.14320767989E+04  0.14320767989E+04  0.50400001928E-02 0. -1.
    10030    2    1    2    0    0  0.00000000000E+00  0.00000000000E+00  0.45326560234E+03  0.33174192002E+04  0.32863080263E+04 0.  0.
        2    1    3    3  502    0  0.44788370950E+03  0.11874460545E+04 -0.82695625927E+03  0.15147556253E+04  0.25500000920E-02 0. -1.
       -2    1    3    3    0  502 -0.44788370950E+03 -0.11874460545E+04  0.12802218616E+04  0.18026635750E+04  0.25500000920E-02 0.  1.
</event>
<event>
 5   0  0.2674441E-06  0.3049753E+04  0.7818609E-02  0.8229665E-01
       -1   -1    0    0    0  501  0.00000000000E+00  0.00000000000E+00  0.96293876088E+03  0.96293876090E+03  0.50400001928E-02 0.  1.
        1   -1    0    0  501    0  0.00000000000E+00  0.00000000000E+00 -0.24147417364E+04  0.24147417364E+04  0.50400001928E-02 0. -1.
    10030    2    1    2    0    0  0.00000000000E+00  0.00000000000E+00 -0.14518029755E+04  0.33776804973E+04  0.30497530493E+04 0.  0.
        5    1    3    3  502    0  0.30446806403E+03 -0.89552463041E+01 -0.23806968989E+04  0.24001085002E+04  0.46999998093E+01 0. -1.
       -5    1    3    3    0  502 -0.30446806403E+03  0.89552463041E+01  0.92889392341E+03  0.97757199704E+03  0.46999998093E+01 0.  1.
</event>
<event>
 5   0  0.7079223E-06  0.3077450E+04  0.7818609E-02  0.8221954E-01
        2   -1    0    0  501    0  0.00000000000E+00  0.00000000000E+00  0.20252337522E+04  0.20252337522E+04  0.25500000920E-02 0. -1.
       -2   -1    0    0    0  501  0.00000000000E+00  0.00000000000E+00 -0.11690873115E+04  0.11690873115E+04  0.25500000920E-02 0.  1.
    10030    2    1    2    0    0  0.00000000000E+00  0.00000000000E+00  0.85614644070E+03  0.31943210636E+04  0.30774502969E+04 0.  0.
        5    1    3    3  502    0  0.10198812963E+04  0.10499357010E+04 -0.64424648497E+02  0.14651605578E+04  0.46999998093E+01 0.  1.
       -5    1    3    3    0  502 -0.10198812963E+04 -0.10499357010E+04  0.92057108920E+03  0.17291605059E+04  0.46999998093E+01 0. -1.
</event>
<event>
 5   0  0.2598987E-06  0.3026715E+04  0.7818609E-02  0.8236143E-01
       -1   -1    0    0    0  501  0.00000000000E+00  0.00000000000E+00  0.11848088862E+04  0.11848088862E+04  0.50400001928E-02 0.  1.
        1   -1    0    0  501    0  0.00000000000E+00  0.00000000000E+00 -0.19330133988E+04  0.19330133988E+04  0.50400001928E-02 0. -1.
    10030    2    1    2    0    0  0.00000000000E+00  0.00000000000E+00 -0.74820451259E+03  0.31178222851E+04  0.30267153498E+04 0.  0.
        2    1    3    3  502    0  0.10463963217E+02 -0.15093217297E+04 -0.26083857824E+03  0.15317305058E+04  0.25500000920E-02 0.  1.
       -2    1    3    3    0  502 -0.10463963217E+02  0.15093217297E+04 -0.48736593435E+03  0.15860917793E+04  0.25500000920E-02 0. -1.
</event>
<event>
 5   0  0.2517725E-06  0.2977856E+04  0.7818609E-02  0.8250083E-01
        1   -1    0    0  501    0  0.00000000000E+00  0.00000000000E+00  0.15862955189E+04  0.15862955189E+04  0.50400001928E-02 0.  1.
       -1   -1    0    0    0  501  0.00000000000E+00  0.00000000000E+00 -0.13975366317E+04  0.13975366318E+04  0.50400001928E-02 0. -1.
    10030    2    1    2    0    0  0.00000000000E+00  0.00000000000E+00  0.18875888712E+03  0.29838321506E+04  0.29778556690E+04 0.  0.
        3    1    3    3  502    0  0.11954044682E+03 -0.58270913519E+03 -0.12733018023E+04  0.14053957964E+04  0.10100000352E+00 0. -1.
       -3    1    3    3    0  502 -0.11954044682E+03  0.58270913519E+03  0.14620606894E+04  0.15784363542E+04  0.10100000352E+00 0.  1.
</event>
<event>
 5   0  0.2517725E-06  0.3159149E+04  0.7818609E-02  0.8199690E-01
       -1   -1    0    0    0  501  0.00000000000E+00  0.00000000000E+00  0.10876035055E+04  0.10876035055E+04  0.50400001928E-02 0.  1.
        1   -1    0    0  501    0  0.00000000000E+00  0.00000000000E+00 -0.22940849602E+04  0.22940849602E+04  0.50400001928E-02 0. -1.
    10030    2    1    2    0    0  0.00000000000E+00  0.00000000000E+00 -0.12064814547E+04  0.33816884657E+04  0.31591485211E+04 0.  0.
        3    1    3    3  502    0 -0.47272653069E+03 -0.14877317197E+04 -0.86156768596E+03  0.17830072715E+04  0.10100000352E+00 0.  1.
       -3    1    3    3    0  502  0.47272653069E+03  0.14877317197E+04 -0.34491376879E+03  0.15986811942E+04  0.10100000352E+00 0. -1.
</event>
<event>
 5   0  0.7414808E-06  0.3124586E+04  0.7818609E-02  0.8209023E-01
       -2   -1    0    0    0  501  0.00000000000E+00  0.00000000000E+00  0.97992481218E+03  0.97992481219E+03  0.25500000920E-02 0. -1.
        2   -1    0    0  501    0  0.00000000000E+00  0.00000000000E+00 -0.24907620723E+04  0.24907620723E+04  0.25500000920E-02 0.  1.
    10030    2    1    2    0    0  0.00000000000E+00  0.00000000000E+00 -0.15108372601E+04  0.34706868845E+04  0.31245860884E+04 0.  0.
        2    1    3    3  502    0 -0.11908120670E+04  0.74948680893E+03 -0.12449407692E+01  0.14070413659E+04  0.25500000920E-02 0. -1.
       -2    1    3    3    0  502  0.11908120670E+04 -0.74948680893E+03 -0.15095923194E+04  0.20636455186E+04  0.25500000920E-02 0.  1.
</event>
<event>
 5   0  0.7071012E-06  0.3054985E+04  0.7818609E-02  0.8228202E-01
       -2   -1    0    0    0  501  0.00000000000E+00  0.00000000000E+00  0.13397006643E+04  0.13397006643E+04  0.25500000920E-02 0. -1.
        2   -1    0    0  501    0  0.00000000000E+00  0.00000000000E+00 -0.17416078797E+04  0.17416078797E+04  0.25500000920E-02 0.  1.
    10030    2    1    2    0    0  0.00000000000E+00  0.00000000000E+00 -0.40190721541E+03  0.30813085440E+04  0.30549849318E+04 0.  0.
        1    1    3    3  502    0 -0.40715888037E+02  0.53090455415E+03  0.12430655018E+04  0.13523051693E+04  0.50400001928E-02 0. -1.
       -1    1    3    3    0  502  0.40715888037E+02 -0.53090455415E+03 -0.16449727172E+04  0.17290033747E+04  0.50400001928E-02 0.  1.
</event>
<event>
 5   0  0.2517725E-06  0.3160380E+04  0.7818609E-02  0.8199360E-01
        1   -1    0    0  501    0  0.00000000000E+00  0.00000000000E+00  0.21545868765E+04  0.21545868766E+04  0.50400001928E-02 0.  1.
       -1   -1    0    0    0  501  0.00000000000E+00  0.00000000000E+00 -0.11589233947E+04  0.11589233947E+04  0.50400001928E-02 0. -1.
    10030    2    1    2    0    0  0.00000000000E+00  0.00000000000E+00  0.99566348183E+03  0.33135102713E+04  0.31603804437E+04 0.  0.
        3    1    3    3  502    0 -0.15745576192E+04 -0.99570913100E+02  0.40490861202E+03  0.16288330354E+04  0.10100000352E+00 0.  1.
       -3    1    3    3    0  502  0.15745576192E+04  0.99570913100E+02  0.59075486981E+03  0.16846772359E+04  0.10100000352E+00 0. -1.
</event>
<event>
 5   0  0.7071012E-06  0.3091927E+04  0.7818609E-02  0.8217957E-01
        2   -1    0    0  501    0  0.00000000000E+00  0.00000000000E+00  0.15314755404E+04  0.15314755404E+04  0.25500000920E-02 0.  1.
       -2   -1    0    0    0  501  0.00000000000E+00  0.00000000000E+00 -0.15605880695E+04  0.15605880695E+04  0.25500000920E-02 0. -1.
    10030    2    1    2    0    0  0.00000000000E+00  0.00000000000E+00 -0.29112529022E+02  0.30920636099E+04  0.30919265561E+04 0.  0.
        1    1    3    3  502    0 -0.14689348913E+04 -0.48132014904E+03  0.91862335657E+01  0.15458082636E+04  0.50400001928E-02 0.  1.
       -1    1    3    3    0  502  0.14689348913E+04  0.48132014904E+03 -0.38298762588E+02  0.15462553463E+04  0.50400001928E-02 0. -1.
</event>
<event>
 5   0  0.7071012E-06  0.3075462E+04  0.7818609E-02  0.8222504E-01
        2   -1    0    0  501    0  0.00000000000E+00  0.00000000000E+00  0.14021765381E+04  0.14021765381E+04  0.25500000920E-02 0. -1.
       -2   -1    0    0    0  501  0.00000000000E+00  0.00000000000E+00 -0.16863904333E+04  0.16863904333E+04  0.25500000920E-02 0.  1.
    10030    2    1    2    0    0  0.00000000000E+00  0.00000000000E+00 -0.28421389526E+03  0.30885669714E+04  0.30754623065E+04 0.  0.
        1    1    3    3  502    0 -0.10018507549E+04 -0.68369534084E+02 -0.13116454720E+04  0.16519059212E+04  0.50400001928E-02 0.  1.
       -1    1    3    3    0  502  0.10018507549E+04  0.68369534084E+02  0.10274315767E+04  0.14366610502E+04  0.50400001928E-02 0. -1.
</event>
<event>
 5   0  0.7079223E-06  0.3062551E+04  0.7818609E-02  0.8226091E-01
        2   -1    0    0  501    0  0.00000000000E+00  0.00000000000E+00  0.82353702636E+03  0.82353702636E+03  0.25500000920E-02 0.  1.
       -2   -1    0    0    0  501  0.00000000000E+00  0.00000000000E+00 -0.28472370196E+04  0.28472370196E+04  0.25500000920E-02 0. -1.
    10030    2    1    2    0    0  0.00000000000E+00  0.00000000000E+00 -0.20236999932E+04  0.36707740459E+04  0.30625512949E+04 0.  0.
        5    1    3    3  502    0  0.15109988091E+04  0.21011638833E+03 -0.11704856073E+04  0.19228429329E+04  0.46999998093E+01 0.  1.
       -5    1    3    3    0  502 -0.15109988091E+04 -0.21011638833E+03 -0.85321438587E+03  0.17479311130E+04  0.46999998093E+01 0. -1.
</event>
<event>
 5   0  0.7094341E-06  0.3240119E+04  0.7818609E-02  0.8178302E-01
       -2   -1    0    0    0  501  0.00000000000E+00  0.00000000000E+00  0.92937158810E+03  0.92937158810E+03  0.25500000920E-02 0. -1.
        2   -1    0    0  501    0  0.00000000000E+00  0.00000000000E+00 -0.28240505349E+04  0.28240505349E+04  0.25500000920E-02 0.  1.
    10030    2    1    2    0    0  0.00000000000E+00  0.00000000000E+00 -0.18946789468E+04  0.37534221230E+04  0.32401187204E+04 0.  0.
        3    1    3    3  502    0 -0.26861709532E+03 -0.15195028878E+04 -0.37565170010E+03  0.15881304669E+04  0.10100000352E+00 0.  1.
       -3    1    3    3    0  502  0.26861709532E+03  0.15195028878E+04 -0.15190272467E+04  0.21652916562E+04  0.10100000352E+00 0. -1.
</event>
<event>
 5   0  0.2624011E-06  0.3077042E+04  0.7818609E-02  0.8222067E-01
        1   -1    0    0  501    0  0.00000000000E+00  0.00000000000E+00  0.10543543304E+04  0.10543543304E+04  0.50400001928E-02 0. -1.
       -1   -1    0    0    0  501  0.00000000000E+00  0.00000000000E+00 -0.22450209633E+04  0.22450209633E+04  0.50400001928E-02 0.  1.
    10030    2    1    2    0    0  0.00000000000E+00  0.00000000000E+00 -0.11906666330E+04  0.32993752937E+04  0.30770424595E+04 0.  0.
        1    1    3    3  502    0 -0.11660412386E+03  0.15308956106E+04 -0.70153360483E+03  0.16880128231E+04  0.50400001928E-02 0.  1.
       -1    1    3    3    0  502  0.11660412386E+03 -0.15308956106E+04 -0.48913302815E+03  0.16113624706E+04  0.50400001928E-02 0. -1.
</event>
<event>
 5   0  0.2624011E-06  0.2956223E+04  0.7818609E-02  0.8256343E-01
       -1   -1    0    0    0  501  0.00000000000E+00  0.00000000000E+00  0.20386925969E+04  0.20386925969E+04  0.50400001928E-02 0. -1.
        1   -1    0    0  501    0  0.00000000000E+00  0.00000000000E+00 -0.10716735645E+04  0.10716735645E+04  0.50400001928E-02 0.  1.
    10030    2    1    2    0    0  0.00000000000E+00  0.00000000000E+00  0.96701903242E+03  0.31103661615E+04  0.29562225642E+04 0.  0.
        1    1    3    3  502    0  0.80930104546E+03 -0.72370495078E+03  0.15388536144E+04  0.18832916621E+04  0.50400001928E-02 0. -1.
       -1    1    3    3    0  502 -0.80930104546E+03  0.72370495078E+03 -0.57183458193E+03  0.12270744994E+04  0.50400001928E-02 0.  1.
</event>
<event>
 5   0  0.2624011E-06  0.3047202E+04  0.7818609E-02  0.8230379E-01
        1   -1    0    0  501    0  0.00000000000E+00  0.00000000000E+00  0.24217604585E+04  0.24217604585E+04  0.50400001928E-02 0. -1.
       -1   -1    0    0    0  501  0.00000000000E+00  0.00000000000E+00 -0.95854238344E+03  0.95854238346E+03  0.50400001928E-02 0.  1.
    10030    2    1    2    0    0  0.00000000000E+00  0.00000000000E+00  0.14632180751E+04  0.33803028420E+04  0.30472020229E+04 0.  0.
        1    1    3    3  502    0  0.29674815168E+03  0.14462372494E+04  0.31403178919E+03  0.15093964395E+04  0.50400001928E-02 0.  1.
       -1    1    3    3    0  502 -0.29674815168E+03 -0.14462372494E+04  0.11491862859E+04  0.18709064024E+04  0.50400001928E-02 0. -1.
</event>
<event>
 5   0  0.7079223E-06  0.2979899E+04  0.7818609E-02  0.8249494E-01
        2   -1    0    0  501    0  0.00000000000E+00  0.00000000000E+00  0.26330431485E+04  0.26330431485E+04  0.25500000920E-02 0. -1.
       -2   -1    0    0    0  501  0.00000000000E+00  0.00000000000E+00 -0.84311145106E+03  0.84311145106E+03  0.25500000920E-02 0.  1.
    10030    2    1    2    0    0  0.00000000000E+00  0.00000000000E+00  0.17899316974E+04  0.34761545995E+04  0.29798985416E+04 0.  0.
        5    1    3    3  502    0  0.88819068459E+03 -0.10126229260E+04  0.15200251594E+03  0.13555127212E+04  0.46999998093E+01 0.  1.
       -5    1    3    3    0  502 -0.88819068459E+03  0.10126229260E+04  0.16379291815E+04  0.21206418783E+04  0.46999998093E+01 0. -1.
</event>
<event>
 5   0  0.7071012E-06  0.3138746E+04  0.7818609E-02  0.8205184E-01
        2   -1    0    0  501    0  0.00000000000E+00  0.00000000000E+00  0.19683521390E+04  0.19683521390E+04  0.25500000920E-02 0.  1.
       -2   -1    0    0    0  501  0.00000000000E+00  0.00000000000E+00 -0.12512654700E+04  0.12512654701E+04  0.25500000920E-02 0. -1.
    10030    2    1    2    0    0  0.00000000000E+00  0.00000000000E+00  0.71708666898E+03  0.32196176091E+04  0.31387456504E+04 0.  0.
        1    1    3    3  502    0  0.72363636728E+03 -0.99208888767E+03  0.13609852174E+04  0.18330768438E+04  0.50400001928E-02 0.  1.
       -1    1    3    3    0  502 -0.72363636728E+03  0.99208888767E+03 -0.64389854846E+03  0.13865407653E+04  0.50400001928E-02 0. -1.
</event>
<event>
 5   0  0.2674441E-06  0.3078379E+04  0.7818609E-02  0.8221697E-01
       -1   -1    0    0    0  501  0.00000000000E+00  0.00000000000E+00  0.16595935511E+04  0.16595935511E+04  0.50400001928E-02 0. -1.
        1   -1    0    0  501    0  0.00000000000E+00  0.00000000000E+00 -0.14275204596E+04  0.14275204597E+04  0.50400001928E-02 0.  1.
    10030    2    1    2    0    0  0.00000000000E+00  0.00000000000E+00  0.23207309141E+03  0.30871140107E+04  0.30783786309E+04 0.  0.
        5    1    3    3  502    0  0.41424713963E+03 -0.13405675859E+04 -0.51849864075E+03  0.14958559675E+04  0.46999998093E+01 0.  1.
       -5    1    3    3    0  502 -0.41424713963E+03  0.13405675859E+04  0.75057173217E+03  0.15912580432E+04  0.46999998093E+01 0. -1.
</event>
<event>
 5   0  0.2517725E-06  0.3114104E+04  0.7818609E-02  0.8211878E-01
        1   -1    0    0  501    0  0.00000000000E+00  0.00000000000E+00  0.23490472459E+04  0.23490472459E+04  0.50400001928E-02 0. -1.
       -1   -1    0    0    0  501  0.00000000000E+00  0.00000000000E+00 -0.10320827188E+04  0.10320827189E+04  0.50400001928E-02 0.  1.
    10030    2    1    2    0    0  0.00000000000E+00  0.00000000000E+00  0.13169645270E+04  0.33811299647E+04  0.31141040883E+04 0.  0.
        3    1    3    3  502    0 -0.13890785528E+04  0.56426922679E+03  0.20237526921E+03  0.15129093648E+04  0.10100000352E+00 0. -1.
       -3    1    3    3    0  502  0.13890785528E+04 -0.56426922679E+03  0.11145892578E+04  0.18682206000E+04  0.10100000352E+00 0.  1.
</event>
<event>
 5   0  0.7071012E-06  0.3081998E+04  0.7818609E-02  0.8220696E-01
        2   -1    0    0  501    0  0.00000000000E+00  0.00000000000E+00  0.18840166543E+04  0.18840166543E+04  0.25500000920E-02 0. -1.
       -2   -1    0    0    0  501  0.00000000000E+00  0.00000000000E+00 -0.12604335547E+04  0.12604335547E+04  0.25500000920E-02 0.  1.
    10030    2    1    2    0    0  0.00000000000E+00  0.00000000000E+00  0.62358309965E+03  0.31444502090E+04  0.30819979291E+04 0.  0.
        1    1    3    3  502    0  0.12577119460E+04 -0.76232617533E+03  0.78122065235E+03  0.16653186615E+04  0.50400001928E-02 0. -1.
       -1    1    3    3    0  502 -0.12577119460E+04  0.76232617533E+03 -0.15763755270E+03  0.14791315475E+04  0.50400001928E-02 0.  1.
</event>
<event>
 5   0  0.2624011E-06  0.3041533E+04  0.7818609E-02  0.8231969E-01
        1   -1    0    0  501    0  0.00000000000E+00  0.00000000000E+00  0.12032728070E+04  0.12032728071E+04  0.50400001928E-02 0. -1.
       -1   -1    0    0    0  501  0.00000000000E+00  0.00000000000E+00 -0.19220338114E+04  0.19220338114E+04  0.50400001928E-02 0.  1.
    10030    2    1    2    0    0  0.00000000000E+00  0.00000000000E+00 -0.71876100431E+03  0.31253066184E+04  0.30415331788E+04 0.  0.
        1    1    3    3  502    0 -0.90689610008E+03  0.27413714527E+03  0.86297238224E+03  0.12815354241E+04  0.50400001928E-02 0. -1.
       -1    1    3    3    0  502  0.90689610008E+03 -0.27413714527E+03 -0.15817333866E+04  0.18437711943E+04  0.50400001928E-02 0.  1.
</event>
<event>
 5   0  0.2598987E-06  0.2029517E+04  0.7818609E-02  0.8592943E-01
       -1   -1    0    0    0  501  0.00000000000E+00  0.00000000000E+00  0.17472370747E+04  0.17472370747E+04  0.50400001928E-02 0. -1.
        1   -1    0    0  501    0  0.00000000000E+00  0.00000000000E+00 -0.58935053583E+03  0.58935053585E+03  0.50400001928E-02 0.  1.
    10030    2    1    2    0    0  0.00000000000E+00  0.00000000000E+00  0.11578865388E+04  0.23365876105E+04  0.20295172886E+04 0.  0.
        2    1    3    3  502    0  0.44579694246E+02  0.90609287973E+03  0.55457121369E+02  0.90888236211E+03  0.25500000920E-02 0.  1.
       -2    1    3    3    0  502 -0.44579694246E+02 -0.90609287973E+03  0.11024294175E+04  0.14277052484E+04  0.25500000920E-02 0. -1.
</event>
<event>
 5   0  0.2612331E-06  0.3044788E+04  0.7818609E-02  0.8231056E-01
        1   -1    0    0  501    0  0.00000000000E+00  0.00000000000E+00  0.18155278095E+04  0.18155278095E+04  0.50400001928E-02 0.  1.
       -1   -1    0    0    0  501  0.00000000000E+00  0.00000000000E+00 -0.12765890378E+04  0.12765890379E+04  0.50400001928E-02 0. -1.
    10030    2    1    2    0    0  0.00000000000E+00  0.00000000000E+00  0.53893877166E+03  0.30921168474E+04  0.30447876113E+04 0.  0.
        4    1    3    3  502    0 -0.14489614541E+04  0.34714550347E+03  0.58686881662E+03  0.16013793795E+04  0.12699999809E+01 0.  1.
       -4    1    3    3    0  502  0.14489614541E+04 -0.34714550347E+03 -0.47930044955E+02  0.14907374679E+04  0.12699999809E+01 0. -1.
</event>
<event>
 5   0  0.2612331E-06  0.2986003E+04  0.7818609E-02  0.8247739E-01
       -1   -1    0    0    0  501  0.00000000000E+00  0.00000000000E+00  0.26614266275E+04  0.26614266275E+04  0.50400001928E-02 0. -1.
        1   -1    0    0  501    0  0.00000000000E+00  0.00000000000E+00 -0.83754080226E+03  0.83754080227E+03  0.50400001928E-02 0.  1.
    10030    2    1    2    0    0  0.00000000000E+00  0.00000000000E+00  0.18238858252E+04  0.34989674298E+04  0.29860029422E+04 0.  0.
        4    1    3    3  502    0  0.98809220012E+03  0.45214494840E+03 -0.28780637216E+03  0.11240975808E+04  0.12699999809E+01 0.  1.
       -4    1    3    3    0  502 -0.98809220012E+03 -0.45214494840E+03  0.21116921974E+04  0.23748698490E+04  0.12699999809E+01 0. -1.
</event>
<event>
 5   0  0.2624011E-06  0.3120420E+04  0.7818609E-02  0.8210156E-01
       -1   -1    0    0    0  501  0.00000000000E+00  0.00000000000E+00  0.10190609316E+04  0.10190609316E+04  0.50400001928E-02 0.  1.
        1   -1    0    0  501    0  0.00000000000E+00  0.00000000000E+00 -0.23887246221E+04  0.23887246221E+04  0.50400001928E-02 0. -1.
    10030    2    1    2    0    0  0.00000000000E+00  0.00000000000E+00 -0.13696636905E+04  0.34077855536E+04  0.31204204452E+04 0.  0.
        1    1    3    3  502    0  0.14695476125E+03  0.15310258715E+04 -0.97090990738E+03  0.18188738190E+04  0.50400001928E-02 0.  1.
       -1    1    3    3    0  502 -0.14695476125E+03 -0.15310258715E+04 -0.39875378310E+03  0.15889117347E+04  0.50400001928E-02 0. -1.
</event>
<event>
 5   0  0.2517725E-06  0.3104174E+04  0.7818609E-02  0.8214593E-01
       -1   -1    0    0    0  501  0.00000000000E+00  0.00000000000E+00  0.15012994903E+04  0.15012994903E+04  0.50400001928E-02 0.  1.
        1   -1    0    0  501    0  0.00000000000E+00  0.00000000000E+00 -0.16045930821E+04  0.16045930821E+04  0.50400001928E-02 0. -1.
    10030    2    1    2    0    0  0.00000000000E+00  0.00000000000E+00 -0.10329359182E+03  0.31058925724E+04  0.31041744644E+04 0.  0.
        3    1    3    3  502    0  0.11292452107E+04 -0.43549260933E+03  0.92055257272E+03  0.15206135630E+04  0.10100000352E+00 0.  1.
       -3    1    3    3    0  502 -0.11292452107E+04  0.43549260933E+03 -0.10238461645E+04  0.15852790094E+04  0.10100000352E+00 0. -1.
</event>
<event>
 5   0  0.2612331E-06  0.2402611E+04  0.7818609E-02  0.8438527E-01
       -1   -1    0    0    0  501  0.00000000000E+00  0.00000000000E+00  0.75857406655E+03  0.75857406656E+03  0.50400001928E-02 0. -1.
        1   -1    0    0  501    0  0.00000000000E+00  0.00000000000E+00 -0.19024316831E+04  0.19024316831E+04  0.50400001928E-02 0.  1.
    10030    2    1    2    0    0  0.00000000000E+00  0.00000000000E+00 -0.11438576166E+04  0.26610057497E+04  0.24026113612E+04 0.  0.
        4    1    3    3  502    0  0.10035077382E+04  0.65932565068E+03 -0.53055289364E+03  0.13127170602E+04  0.12699999809E+01 0.  1.
       -4    1    3    3    0  502 -0.10035077382E+04 -0.65932565068E+03 -0.61330472295E+03  0.13482886895E+04  0.12699999809E+01 0. -1.
</event>
<event>
 5   0  0.7094341E-06  0.3098341E+04  0.7818609E-02  0.8216193E-01
        2   -1    0    0  501    0  0.00000000000E+00  0.00000000000E+00  0.29909363869E+04  0.29909363869E+04  0.25500000920E-02 0. -1.
       -2   -1    0    0    0  501  0.00000000000E+00  0.00000000000E+00 -0.80240043269E+03  0.80240043270E+03  0.25500000920E-02 0.  1.
    10030    2    1    2    0    0  0.00000000000E+00  0.00000000000E+00  0.21885359542E+04  0.37933368196E+04  0.30983406210E+04 0.  0.
        3    1    3    3  502    0  0.15334008206E+04 -0.16673834652E+03  0.12708785425E+04  0.19985624916E+04  0.10100000352E+00 0. -1.
       -3    1    3    3    0  502 -0.15334008206E+04  0.16673834652E+03  0.91765741168E+03  0.17947743280E+04  0.10100000352E+00 0.  1.
</event>
<event>
 5   0  0.2598987E-06  0.2983525E+04  0.7818609E-02  0.8248451E-01
        1   -1    0    0  501    0  0.00000000000E+00  0.00000000000E+00  0.14427451305E+04  0.14427451305E+04  0.50400001928E-02 0. -1.
       -1   -1    0    0    0  501  0.00000000000E+00  0.00000000000E+00 -0.15424454241E+04  0.15424454241E+04  0.50400001928E-02 0.  1.
    10030    2    1    2    0    0  0.00000000000E+00  0.00000000000E+00 -0.99700293574E+02  0.29851905546E+04  0.29835251798E+04 0.  0.
        2    1    3    3  502    0 -0.85125689463E+03  0.97542009790E+03  0.69169305856E+03  0.14678289939E+04  0.25500000920E-02 0. -1.
       -2    1    3    3    0  502  0.85125689463E+03 -0.97542009790E+03 -0.79139335213E+03  0.15173615607E+04  0.25500000920E-02 0.  1.
</event>
<event>
 5   0  0.2517725E-06  0.3110232E+04  0.7818609E-02  0.8212935E-01
        1   -1    0    0  501    0  0.00000000000E+00  0.00000000000E+00  0.24624610947E+04  0.24624610947E+04  0.50400001928E-02 0.  1.
       -1   -1    0    0    0  501  0.00000000000E+00  0.00000000000E+00 -0.98210133944E+03  0.98210133945E+03  0.50400001928E-02 0. -1.
    10030    2    1    2    0    0  0.00000000000E+00  0.00000000000E+00  0.14803597553E+04  0.34445624342E+04  0.31102323640E+04 0.  0.
        3    1    3    3  502    0 -0.17319682104E+03 -0.47908406040E+03  0.23674297060E+04  0.24216197263E+04  0.10100000352E+00 0.  1.
       -3    1    3    3    0  502  0.17319682104E+03  0.47908406040E+03 -0.88706995077E+03  0.10229427078E+04  0.10100000352E+00 0. -1.
</event>
<event>
 5   0  0.2598987E-06  0.1925192E+04  0.7818609E-02  0.8642418E-01
        1   -1    0    0  501    0  0.00000000000E+00  0.00000000000E+00  0.72733893961E+03  0.72733893963E+03  0.50400001928E-02 0. -1.
       -1   -1    0    0    0  501  0.00000000000E+00  0.00000000000E+00 -0.12739461823E+04  0.12739461823E+04  0.50400001928E-02 0.  1.
    10030    2    1    2    0    0  0.00000000000E+00  0.00000000000E+00 -0.54660724267E+03  0.20012851219E+04  0.19251915908E+04 0.  0.
        2    1    3    3  502    0 -0.83304388312E+03  0.44147444186E+03 -0.71387071212E+02  0.94549347325E+03  0.25500000920E-02 0.  1.
       -2    1    3    3    0  502  0.83304388312E+03 -0.44147444186E+03 -0.47522017146E+03  0.10557916487E+04  0.25500000920E-02 0. -1.
</event>
<event>
 5   0  0.7071012E-06  0.3005392E+04  0.7818609E-02  0.8242193E-01
       -2   -1    0    0    0  501  0.00000000000E+00  0.00000000000E+00  0.12757857166E+04  0.12757857166E+04  0.25500000920E-02 0.  1.
        2   -1    0    0  501    0  0.00000000000E+00  0.00000000000E+00 -0.17699646466E+04  0.17699646466E+04  0.25500000920E-02 0. -1.
    10030    2    1    2    0    0  0.00000000000E+00  0.00000000000E+00 -0.49417893006E+03  0.30457503632E+04  0.30053922306E+04 0.  0.
        1    1    3    3  502    0 -0.11217173574E+04 -0.99884853590E+03 -0.20012727404E+03  0.15152554746E+04  0.50400001928E-02 0. -1.
       -1    1    3    3    0  502  0.11217173574E+04  0.99884853590E+03 -0.29405165601E+03  0.15304948886E+04  0.50400001928E-02 0.  1.
</event>
<event>
 5   0  0.2624011E-06  0.3104484E+04  0.7818609E-02  0.8214508E-01
       -1   -1    0    0    0  501  0.00000000000E+00  0.00000000000E+00  0.16323261825E+04  0.16323261825E+04  0.50400001928E-02 0.  1.
        1   -1    0    0  501    0  0.00000000000E+00  0.00000000000E+00 -0.14760872253E+04  0.14760872253E+04  0.50400001928E-02 0. -1.
    10030    2    1    2    0    0  0.00000000000E+00  0.00000000000E+00  0.15623895720E+03  0.31084134079E+04  0.31044843859E+04 0.  0.
        1    1    3    3  502    0  0.15280447854E+03  0.28705140597E+03  0.15978375193E+04  0.16305926703E+04  0.50400001928E-02 0.  1.
       -1    1    3    3    0  502 -0.15280447854E+03 -0.28705140597E+03 -0.14415985621E+04  0.14778207376E+04  0.50400001928E-02 0. -1.
</event>
<event>
 5   0  0.7414808E-06  0.3080691E+04  0.7818609E-02  0.8221057E-01
       -2   -1    0    0    0  501  0.00000000000E+00  0.00000000000E+00  0.13855185914E+04  0.13855185914E+04  0.25500000920E-02 0.  1.
        2   -1    0    0  501    0  0.00000000000E+00  0.00000000000E+00 -0.17124735848E+04  0.17124735848E+04  0.25500000920E-02 0. -1.
    10030    2    1    2    0    0  0.00000000000E+00  0.00000000000E+00 -0.32695499340E+03  0.30979921762E+04  0.30806908245E+04 0.  0.
        2    1    3    3  502    0  0.58915461323E+03  0.97950670542E+03 -0.12018107510E+04  0.16585793998E+04  0.25500000920E-02 0. -1.
       -2    1    3    3    0  502 -0.58915461323E+03 -0.97950670542E+03  0.87485575762E+03  0.14394127764E+04  0.25500000920E-02 0.  1.
</event>
<event>
 5   0  0.2674441E-06  0.2245949E+04  0.7818609E-02  0.8499543E-01
        1   -1    0    0  501    0  0.00000000000E+00  0.00000000000E+00  0.88471858628E+03  0.88471858629E+03  0.50400001928E-02 0.  1.
       -1   -1    0    0    0  501  0.00000000000E+00  0.00000000000E+00 -0.14253930859E+04  0.14253930859E+04  0.50400001928E-02 0. -1.
    10030    2    1    2    0    0  0.00000000000E+00  0.00000000000E+00 -0.54067449964E+03  0.23101116722E+04  0.22459490251E+04 0.  0.
        5    1    3    3  502    0  0.77011498621E+03 -0.77004548004E+03 -0.55202699923E+03  0.12209844517E+04  0.46999998093E+01 0.  1.
       -5    1    3    3    0  502 -0.77011498621E+03  0.77004548004E+03  0.11352499590E+02  0.10891272206E+04  0.46999998093E+01 0. -1.
</event>
<event>
 5   0  0.2612331E-06  0.3131276E+04  0.7818609E-02  0.8207206E-01
       -1   -1    0    0    0  501  0.00000000000E+00  0.00000000000E+00  0.12665184872E+04  0.12665184872E+04  0.50400001928E-02 0.  1.
        1   -1    0    0  501    0  0.00000000000E+00  0.00000000000E+00 -0.19354025103E+04  0.19354025103E+04  0.50400001928E-02 0. -1.
    10030    2    1    2    0    0  0.00000000000E+00  0.00000000000E+00 -0.66888402309E+03  0.32019209975E+04  0.31312764550E+04 0.  0.
        4    1    3    3  502    0  0.30259677191E+03 -0.14457251410E+03 -0.18982434346E+04  0.19276399477E+04  0.12699999809E+01 0. -1.
       -4    1    3    3    0  502 -0.30259677191E+03  0.14457251410E+03  0.12293594115E+04  0.12742810498E+04  0.12699999809E+01 0.  1.
</event>
<event>
 5   0  0.2517725E-06  0.1950199E+04  0.7818609E-02  0.8630265E-01
       -1   -1    0    0    0  501  0.00000000000E+00  0.00000000000E+00  0.79855014763E+03  0.79855014765E+03  0.50400001928E-02 0.  1.
        1   -1    0    0  501    0  0.00000000000E+00  0.00000000000E+00 -0.11906811615E+04  0.11906811615E+04  0.50400001928E-02 0. -1.
    10030    2    1    2    0    0  0.00000000000E+00  0.00000000000E+00 -0.39213101388E+03  0.19892313092E+04  0.19501985718E+04 0.  0.
        3    1    3    3  502    0 -0.50492368084E+03  0.53246272984E+03 -0.85106599526E+03  0.11237338745E+04  0.10100000352E+00 0.  1.
       -3    1    3    3    0  502  0.50492368084E+03 -0.53246272984E+03  0.45893498138E+03  0.86549743470E+03  0.10100000352E+00 0. -1.
</event>
<event>
 5   0  0.7094341E-06  0.3087179E+04  0.7818609E-02  0.8219265E-01
       -2   -1    0    0    0  501  0.00000000000E+00  0.00000000000E+00  0.12716950359E+04  0.12716950359E+04  0.25500000920E-02 0. -1.
        2   -1    0    0  501    0  0.00000000000E+00  0.00000000000E+00 -0.18736162640E+04  0.18736162640E+04  0.25500000920E-02 0.  1.
    10030    2    1    2    0    0  0.00000000000E+00  0.00000000000E+00 -0.60192122810E+03  0.31453112999E+04  0.30871789725E+04 0.  0.
        3    1    3    3  502    0  0.41695206612E+03  0.85911983528E+03 -0.15365343938E+04  0.18091085845E+04  0.10100000352E+00 0.  1.
       -3    1    3    3    0  502 -0.41695206612E+03 -0.85911983528E+03  0.93461316574E+03  0.13362027154E+04  0.10100000352E+00 0. -1.
</event>
<event>
 5   0  0.7363513E-06  0.3098638E+04  0.7818609E-02  0.8216112E-01
       -2   -1    0    0    0  501  0.00000000000E+00  0.00000000000E+00  0.14982392116E+04  0.14982392116E+04  0.25500000920E-02 0.  1.
        2   -1    0    0  501    0  0.00000000000E+00  0.00000000000E+00 -0.16021402869E+04  0.16021402869E+04  0.25500000920E-02 0. -1.
    10030    2    1    2    0    0  0.00000000000E+00  0.00000000000E+00 -0.10390107530E+03  0.31003794984E+04  0.30986380235E+04 0.  0.
        4    1    3    3  502    0 -0.53732994579E+03  0.13424792525E+04  0.50461182207E+03  0.15315380236E+04  0.12699999809E+01 0.  1.
       -4    1    3    3    0  502  0.53732994579E+03 -0.13424792525E+04 -0.60851289737E+03  0.15688414748E+04  0.12699999809E+01 0. -1.
</event>
<event>
 5   0  0.2612331E-06  0.2773115E+04  0.7818609E-02  0.8311664E-01
        1   -1    0    0  501    0  0.00000000000E+00  0.00000000000E+00  0.26450304154E+04  0.26450304154E+04  0.50400001928E-02 0. -1.
       -1   -1    0    0    0  501  0.00000000000E+00  0.00000000000E+00 -0.72685055061E+03  0.72685055062E+03  0.50400001928E-02 0.  1.
    10030    2    1    2    0    0  0.00000000000E+00  0.00000000000E+00  0.19181798647E+04  0.33718809660E+04  0.27731150815E+04 0.  0.
        4    1    3    3  502    0 -0.13263920274E+04  0.40395613677E+03  0.96713982677E+03  0.16905198692E+04  0.12699999809E+01 0. -1.
       -4    1    3    3    0  502  0.13263920274E+04 -0.40395613677E+03  0.95104003798E+03  0.16813610967E+04  0.12699999809E+01 0.  1.
</event>
<event>
 5   0  0.2674441E-06  0.3036026E+04  0.7818609E-02  0.8233518E-01
        1   -1    0    0  501    0  0.00000000000E+00  0.00000000000E+00  0.22515862322E+04  0.22515862322E+04  0.50400001928E-02 0.  1.
       -1   -1    0    0    0  501  0.00000000000E+00  0.00000000000E+00 -0.10234398428E+04  0.10234398428E+04  0.50400001928E-02 0. -1.
    10030    2    1    2    0    0  0.00000000000E+00  0.00000000000E+00  0.12281463894E+04  0.32750260750E+04  0.30360257308E+04 0.  0.
        5    1    3    3  502    0  0.14121515321E+04  0.28244802844E+03  0.11318506480E+04  0.18316814182E+04  0.46999998093E+01 0.  1.
       -5    1    3    3    0  502 -0.14121515321E+04 -0.28244802844E+03  0.96295741389E+02  0.14433446568E+04  0.46999998093E+01 0. -1.
</event>
<event>
 5   0  0.7094341E-06  0.3117948E+04  0.7818609E-02  0.8210829E-01
       -2   -1    0    0    0  501  0.00000000000E+00  0.00000000000E+00  0.12151388621E+04  0.12151388622E+04  0.25500000920E-02 0. -1.
        2   -1    0    0  501    0  0.00000000000E+00  0.00000000000E+00 -0.20001005214E+04  0.20001005214E+04  0.25500000920E-02 0.  1.
    10030    2    1    2    0    0  0.00000000000E+00  0.00000000000E+00 -0.78496165928E+03  0.32152393836E+04  0.31179479609E+04 0.  0.
        3    1    3    3  502    0 -0.93393433412E+03  0.49809685954E+03 -0.15727771272E+04  0.18957747029E+04  0.10100000352E+00 0.  1.
       -3    1    3    3    0  502  0.93393433412E+03 -0.49809685954E+03  0.78781546793E+03  0.13194646807E+04  0.10100000352E+00 0. -1.
</event>
<event>
 5   0  0.2612331E-06  0.3148514E+04  0.7818609E-02  0.8202548E-01
       -1   -1    0    0    0  501  0.00000000000E+00  0.00000000000E+00  0.19582565928E+04  0.19582565928E+04  0.50400001928E-02 0. -1.
        1   -1    0    0  501    0  0.00000000000E+00  0.00000000000E+00 -0.12655571517E+04  0.12655571517E+04  0.50400001928E-02 0.  1.
    10030    2    1    2    0    0  0.00000000000E+00  0.00000000000E+00  0.69269944112E+03  0.32238137445E+04  0.31485143391E+04 0.  0.
        4    1    3    3  502    0  0.12710535187E+04 -0.92867240148E+03  0.32938400869E+03  0.16082614572E+04  0.12699999809E+01 0. -1.
       -4    1    3    3    0  502 -0.12710535187E+04  0.92867240148E+03  0.36331543244E+03  0.16155522873E+04  0.12699999809E+01 0.  1.
</event>
<event>
 5   0  0.7094341E-06  0.2388959E+04  0.7818609E-02  0.8443649E-01
       -2   -1    0    0    0  501  0.00000000000E+00  0.00000000000E+00  0.12716237888E+04  0.12716237888E+04  0.25500000920E-02 0. -1.
        2   -1    0    0  501    0  0.00000000000E+00  0.00000000000E+00 -0.11220148982E+04  0.11220148982E+04  0.25500000920E-02 0.  1.
    10030    2    1    2    0    0  0.00000000000E+00  0.00000000000E+00  0.14960889056E+03  0.23936386870E+04  0.23889586317E+04 0.  0.
        3    1    3    3  502    0  0.55057877122E+03  0.63698404203E+03  0.92375125894E+03  0.12498808150E+04  0.10100000352E+00 0. -1.
       -3    1    3    3    0  502 -0.55057877122E+03 -0.63698404203E+03 -0.77414236838E+03  0.11437578720E+04  0.10100000352E+00 0.  1.
</event>
<event>
 5   0  0.2674441E-06  0.3094851E+04  0.7818609E-02  0.8217152E-01
       -1   -1    0    0    0  501  0.00000000000E+00  0.00000000000E+00  0.17881496024E+04  0.17881496024E+04  0.50400001928E-02 0. -1.
        1   -1    0    0  501    0  0.00000000000E+00  0.00000000000E+00 -0.13391081189E+04  0.13391081189E+04  0.50400001928E-02 0.  1.
    10030    2    1    2    0    0  0.00000000000E+00  0.00000000000E+00  0.44904148353E+03  0.31272577213E+04  0.30948509821E+04 0.  0.
        5    1    3    3  502    0  0.56585960652E+03 -0.11586669544E+04  0.10889298785E+04  0.16877489670E+04  0.46999998093E+01 0. -1.
       -5    1    3    3    0  502 -0.56585960652E+03  0.11586669544E+04 -0.63988839494E+03  0.14395087542E+04  0.46999998093E+01 0.  1.
</event>
<event>
 5   0  0.2598987E-06  0.3089392E+04  0.7818609E-02  0.8218655E-01
        1   -1    0    0  501    0  0.00000000000E+00  0.00000000000E+00  0.16862436997E+04  0.16862436997E+04  0.50400001928E-02 0.  1.
       -1   -1    0    0    0  501  0.00000000000E+00  0.00000000000E+00 -0.14150302929E+04  0.14150302929E+04  0.50400001928E-02 0. -1.
    10030    2    1    2    0    0  0.00000000000E+00  0.00000000000E+00  0.27121340677E+03  0.31012739926E+04  0.30893921191E+04 0.  0.
        2    1    3    3  502    0 -0.14663233056E+04  0.48497614303E+03  0.16364296408E+03  0.15530888306E+04  0.25500000920E-02 0. -1.
       -2    1    3    3    0  502  0.14663233056E+04 -0.48497614303E+03  0.10757044268E+03  0.15481851621E+04  0.25500000920E-02 0.  1.
</event>
<event>
 5   0  0.7079223E-06  0.3165480E+04  0.7818609E-02  0.8197994E-01
        2   -1    0    0  501    0  0.00000000000E+00  0.00000000000E+00  0.23443370581E+04  0.23443370581E+04  0.25500000920E-02 0.  1.
       -2   -1    0    0    0  501  0.00000000000E+00  0.00000000000E+00 -0.10685605892E+04  0.10685605892E+04  0.25500000920E-02 0. -1.
    10030    2    1    2    0    0  0.00000000000E+00  0.00000000000E+00  0.12757764689E+04  0.34128976472E+04  0.31654801772E+04 0.  0.
        5    1    3    3  502    0 -0.48178026208E+03  0.14515228279E+04  0.19859432516E+03  0.15422362130E+04  0.46999998093E+01 0. -1.
       -5    1    3    3    0  502  0.48178026208E+03 -0.14515228279E+04  0.10771821437E+04  0.18706614342E+04  0.46999998093E+01 0.  1.
</event>
<event>
 5   0  0.2624011E-06  0.3420259E+04  0.7818609E-02  0.8132952E-01
        1   -1    0    0  501    0  0.00000000000E+00  0.00000000000E+00  0.19687933566E+04  0.19687933566E+04  0.50400001928E-02 0.  1.
       -1   -1    0    0    0  501  0.00000000000E+00  0.00000000000E+00 -0.14854493746E+04  0.14854493746E+04  0.50400001928E-02 0. -1.
    10030    2    1    2    0    0  0.00000000000E+00  0.00000000000E+00  0.48334398205E+03  0.34542427312E+04  0.34202589728E+04 0.  0.
        1    1    3    3  502    0  0.17341531631E+03  0.89046695417E+03 -0.12224003843E+04  0.15222571951E+04  0.50400001928E-02 0. -1.
       -1    1    3    3    0  502 -0.17341531631E+03 -0.89046695417E+03  0.17057443664E+04  0.19319855361E+04  0.50400001928E-02 0.  1.
</event>
<event>
 5   0  0.2624011E-06  0.2072093E+04  0.7818609E-02  0.8573637E-01
       -1   -1    0    0    0  501  0.00000000000E+00  0.00000000000E+00  0.96198647981E+03  0.96198647982E+03  0.50400001928E-02 0. -1.
        1   -1    0    0  501    0  0.00000000000E+00  0.00000000000E+00 -0.11158083370E+04  0.11158083370E+04  0.50400001928E-02 0.  1.
    10030    2    1    2    0    0  0.00000000000E+00  0.00000000000E+00 -0.15382185717E+03  0.20777948168E+04  0.20720931777E+04 0.  0.
        1    1    3    3  502    0  0.67607003934E+03  0.46668405705E+03 -0.70993861266E+03  0.10857612726E+04  0.50400001928E-02 0.  1.
       -1    1    3    3    0  502 -0.67607003934E+03 -0.46668405705E+03  0.55611675549E+03  0.99203354427E+03  0.50400001928E-02 0. -1.
</event>
<event>
 5   0  0.7094341E-06  0.3107246E+04  0.7818609E-02  0.8213752E-01
        2   -1    0    0  501    0  0.00000000000E+00  0.00000000000E+00  0.23432362575E+04  0.23432362575E+04  0.25500000920E-02 0.  1.
       -2   -1    0    0    0  501  0.00000000000E+00  0.00000000000E+00 -0.10300899195E+04  0.10300899195E+04  0.25500000920E-02 0. -1.
    10030    2    1    2    0    0  0.00000000000E+00  0.00000000000E+00  0.13131463379E+04  0.33733261770E+04  0.31072457566E+04 0.  0.
        3    1    3    3  502    0  0.18810741203E+03 -0.61322855222E+03  0.21927755449E+04  0.22846658960E+04  0.10100000352E+00 0.  1.
       -3    1    3    3    0  502 -0.18810741203E+03  0.61322855222E+03 -0.87962920693E+03  0.10886602811E+04  0.10100000352E+00 0. -1.
</event>
<event>
 5   0  0.2612331E-06  0.3030669E+04  0.7818609E-02  0.8235027E-01
        1   -1    0    0  501    0  0.00000000000E+00  0.00000000000E+00  0.15641089993E+04  0.15641089993E+04  0.50400001928E-02 0. -1.
       -1   -1    0    0    0  501  0.00000000000E+00  0.00000000000E+00 -0.14680807949E+04  0.14680807949E+04  0.50400001928E-02 0.  1.
    10030    2    1    2    0    0  0.00000000000E+00  0.00000000000E+00  0.96028204387E+02  0.30321897942E+04  0.30306688259E+04 0.  0.
        4    1    3    3  502    0 -0.10406422039E+04  0.35986919384E+03  0.10895911920E+04  0.15490812154E+04  0.12699999809E+01 0. -1.
       -4    1    3    3    0  502  0.10406422039E+04 -0.35986919384E+03 -0.99356298765E+03  0.14831085788E+04  0.12699999809E+01 0.  1.
</event>
<event>
 5   0  0.2624011E-06  0.3012936E+04  0.7818609E-02  0.8240047E-01
        1   -1    0    0  501    0  0.00000000000E+00  0.00000000000E+00  0.10940212983E+04  0.10940212983E+04  0.50400001928E-02 0.  1.
       -1   -1    0    0    0  501  0.00000000000E+00  0.00000000000E+00 -0.20744070199E+04  0.20744070199E+04  0.50400001928E-02 0. -1.
    10030    2    1    2    0    0  0.00000000000E+00  0.00000000000E+00 -0.98038572162E+03  0.31684283183E+04  0.30129357519E+04 0.  0.
        1    1    3    3  502    0 -0.18636256314E+02 -0.11014044197E+04 -0.15708484448E+04  0.19185942360E+04  0.50400001928E-02 0. -1.
       -1    1    3    3    0  502  0.18636256314E+02  0.11014044197E+04  0.59046272315E+03  0.12498340823E+04  0.50400001928E-02 0.  1.
</event>
<event>
 5   0  0.7079223E-06  0.3040940E+04  0.7818609E-02  0.8232136E-01
       -2   -1    0    0    0  501  0.00000000000E+00  0.00000000000E+00  0.12624611900E+04  0.12624611900E+04  0.25500000920E-02 0. -1.
        2   -1    0    0  501    0  0.00000000000E+00  0.00000000000E+00 -0.18312075821E+04  0.18312075821E+04  0.25500000920E-02 0.  1.
    10030    2    1    2    0    0  0.00000000000E+00  0.00000000000E+00 -0.56874639210E+03  0.30936687722E+04  0.30409396596E+04 0.  0.
        5    1    3    3  502    0 -0.12507085743E+04 -0.82981588606E+03 -0.53135862745E+03  0.15922406927E+04  0.46999998093E+01 0.  1.
       -5    1    3    3    0  502  0.12507085743E+04  0.82981588606E+03 -0.37387764652E+02  0.15014280794E+04  0.46999998093E+01 0. -1.
</event>
<event>
 5   0  0.2674441E-06  0.2952343E+04  0.7818609E-02  0.8257472E-01
        1   -1    0    0  501    0  0.00000000000E+00  0.00000000000E+00  0.15971260896E+04  0.15971260896E+04  0.50400001928E-02 0. -1.
       -1   -1    0    0    0  501  0.00000000000E+00  0.00000000000E+00 -0.13643774573E+04  0.13643774574E+04  0.50400001928E-02 0.  1.
    10030    2    1    2    0    0  0.00000000000E+00  0.00000000000E+00  0.23274863224E+03  0.29615035469E+04  0.29523433629E+04 0.  0.
        5    1    3    3  502    0  0.22195479562E+03 -0.17635197117E+03  0.15695570909E+04  0.15949594041E+04  0.46999998093E+01 0. -1.
       -5    1    3    3    0  502 -0.22195479562E+03  0.17635197117E+03 -0.13368084587E+04  0.13665441428E+04  0.46999998093E+01 0.  1.
</event>
<event>
 5   0  0.7094341E-06  0.2538299E+04  0.7818609E-02  0.8389467E-01
       -2   -1    0    0    0  501  0.00000000000E+00  0.00000000000E+00  0.80045574251E+03  0.80045574251E+03  0.25500000920E-02 0. -1.
        2   -1    0    0  501    0  0.00000000000E+00  0.00000000000E+00 -0.20122793358E+04  0.20122793358E+04  0.25500000920E-02 0.  1.
    10030    2    1    2    0    0  0.00000000000E+00  0.00000000000E+00 -0.12118235933E+04  0.28127350783E+04  0.25382990761E+04 0.  0.
        3    1    3    3  502    0 -0.87737919761E+03 -0.77544951437E+03 -0.11483515341E+04  0.16400693467E+04  0.10100000352E+00 0.  1.
       -3    1    3    3    0  502  0.87737919761E+03  0.77544951437E+03 -0.63472059190E+02  0.11726657317E+04  0.10100000352E+00 0. -1.
</event>
<event>
 5   0  0.2598987E-06  0.3072252E+04  0.7818609E-02  0.8223395E-01
        1   -1    0    0  501    0  0.00000000000E+00  0.00000000000E+00  0.16566799680E+04  0.16566799680E+04  0.50400001928E-02 0.  1.
       -1   -1    0    0    0  501  0.00000000000E+00  0.00000000000E+00 -0.14243448011E+04  0.14243448011E+04  0.50400001928E-02 0. -1.
    10030    2    1    2    0    0  0.00000000000E+00  0.00000000000E+00  0.23233516686E+03  0.30810247691E+04  0.30722522680E+04 0.  0.
        2    1    3    3  502    0 -0.14967876620E+04  0.45987371905E+02 -0.22714800041E+03  0.15146235036E+04  0.25500000920E-02 0.  1.
       -2    1    3    3    0  502  0.14967876620E+04 -0.45987371905E+02  0.45948316727E+03  0.15664012655E+04  0.25500000920E-02 0. -1.
</event>
<event>
 5   0  0.2612331E-06  0.2093811E+04  0.7818609E-02  0.8563975E-01
        1   -1    0    0  501    0  0.00000000000E+00  0.00000000000E+00  0.25261072389E+04  0.25261072389E+04  0.50400001928E-02 0.  1.
       -1   -1    0    0    0  501  0.00000000000E+00  0.00000000000E+00 -0.43387358600E+03  0.43387358603E+03  0.50400001928E-02 0. -1.
    10030    2    1    2    0    0  0.00000000000E+00  0.00000000000E+00  0.20922336529E+04  0.29599808250E+04  0.20938110769E+04 0.  0.
        4    1    3    3  502    0 -0.52443227315E+03 -0.79152431980E+03  0.42270174437E+03  0.10393355260E+04  0.12699999809E+01 0. -1.
       -4    1    3    3    0  502  0.52443227315E+03  0.79152431980E+03  0.16695319086E+04  0.19206452990E+04  0.12699999809E+01 0.  1.
</event>
<event>
 5   0  0.2624011E-06  0.2097608E+04  0.7818609E-02  0.8562298E-01
       -1   -1    0    0    0  501  0.00000000000E+00  0.00000000000E+00  0.93372391445E+03  0.93372391446E+03  0.50400001928E-02 0. -1.
        1   -1    0    0  501    0  0.00000000000E+00  0.00000000000E+00 -0.11780670209E+04  0.11780670209E+04  0.50400001928E-02 0.  1.
    10030    2    1    2    0    0  0.00000000000E+00  0.00000000000E+00 -0.24434310641E+03  0.21117909353E+04  0.20976075421E+04 0.  0.
        1    1    3    3  502    0  0.68695653343E+02  0.10021713178E+02  0.93140820853E+03  0.93399185139E+03  0.50400001928E-02 0. -1.
       -1    1    3    3    0  502 -0.68695653343E+02 -0.10021713178E+02 -0.11757513149E+04  0.11777990839E+04  0.50400001928E-02 0.  1.
</event>
<event>
 5   0  0.2612331E-06  0.3055155E+04  0.7818609E-02  0.8228154E-01
       -1   -1    0    0    0  501  0.00000000000E+00  0.00000000000E+00  0.12920482363E+04  0.12920482363E+04  0.50400001928E-02 0. -1.
        1   -1    0    0  501    0  0.00000000000E+00  0.00000000000E+00 -0.18060415494E+04  0.18060415494E+04  0.50400001928E-02 0.  1.
    10030    2    1    2    0    0  0.00000000000E+00  0.00000000000E+00 -0.51399331315E+03  0.30980897857E+04  0.30551548560E+04 0.  0.
        4    1    3    3  502    0 -0.11460887610E+04  0.91115325471E+02 -0.12769496355E+04  0.17182617481E+04  0.12699999809E+01 0.  1.
       -4    1    3    3    0  502  0.11460887610E+04 -0.91115325471E+02  0.76295632231E+03  0.13798280376E+04  0.12699999809E+01 0. -1.
</event>
<event>
 5   0  0.7414808E-06  0.3086189E+04  0.7818609E-02  0.8219538E-01
       -2   -1    0    0    0  501  0.00000000000E+00  0.00000000000E+00  0.90669884861E+03  0.90669884861E+03  0.25500000920E-02 0. -1.
        2   -1    0    0  501    0  0.00000000000E+00  0.00000000000E+00 -0.26261649132E+04  0.26261649132E+04  0.25500000920E-02 0.  1.
    10030    2    1    2    0    0  0.00000000000E+00  0.00000000000E+00 -0.17194660646E+04  0.35328637618E+04  0.30861890435E+04 0.  0.
        2    1    3    3  502    0 -0.99446561139E+03 -0.70333291713E+03  0.22474808553E+03  0.12386083911E+04  0.25500000920E-02 0. -1.
       -2    1    3    3    0  502  0.99446561139E+03  0.70333291713E+03 -0.19442141501E+04  0.22942553707E+04  0.25500000920E-02 0.  1.
</event>
<event>
 5   0  0.7071012E-06  0.3114728E+04  0.7818609E-02  0.8211708E-01
       -2   -1    0    0    0  501  0.00000000000E+00  0.00000000000E+00  0.10735812964E+04  0.10735812964E+04  0.25500000920E-02 0.  1.
        2   -1    0    0  501    0  0.00000000000E+00  0.00000000000E+00 -0.22591515287E+04  0.22591515287E+04  0.25500000920E-02 0. -1.
    10030    2    1    2    0    0  0.00000000000E+00  0.00000000000E+00 -0.11855702323E+04  0.33327328251E+04  0.31147281274E+04 0.  0.
        1    1    3    3  502    0  0.32917650733E+02 -0.95209171194E+03 -0.19110132602E+04  0.21353065073E+04  0.50400001928E-02 0. -1.
       -1    1    3    3    0  502 -0.32917650733E+02  0.95209171194E+03  0.72544302790E+03  0.11974263177E+04  0.50400001928E-02 0.  1.
</event>
<event>
 5   0  0.7094341E-06  0.3040245E+04  0.7818609E-02  0.8232331E-01
        2   -1    0    0  501    0  0.00000000000E+00  0.00000000000E+00  0.22299206974E+04  0.22299206974E+04  0.25500000920E-02 0.  1.
       -2   -1    0    0    0  501  0.00000000000E+00  0.00000000000E+00 -0.10362578646E+04  0.10362578646E+04  0.25500000920E-02 0. -1.
    10030    2    1    2    0    0  0.00000000000E+00  0.00000000000E+00  0.11936628329E+04  0.32661785620E+04  0.30402452928E+04 0.  0.
        3    1    3    3  502    0  0.20031142063E+03  0.41174571162E+03  0.21540732845E+04  0.22022013808E+04  0.10100000352E+00 0.  1.
       -3    1    3    3    0  502 -0.20031142063E+03 -0.41174571162E+03 -0.96041045165E+03  0.10639771812E+04  0.10100000352E+00 0. -1.
</event>
<event>
 5   0  0.7071012E-06  0.3032567E+04  0.7818609E-02  0.8234492E-01
        2   -1    0    0  501    0  0.00000000000E+00  0.00000000000E+00  0.18052198552E+04  0.18052198552E+04  0.25500000920E-02 0.  1.
       -2   -1    0    0    0  501  0.00000000000E+00  0.00000000000E+00 -0.12735933664E+04  0.12735933664E+04  0.25500000920E-02 0. -1.
    10030    2    1    2    0    0  0.00000000000E+00  0.00000000000E+00  0.53162648878E+03  0.30788132217E+04  0.30325672507E+04 0.  0.
        1    1    3    3  502    0 -0.11515725532E+04  0.75726553201E+03 -0.37592227725E+03  0.14285965105E+04  0.50400001928E-02 0. -1.
       -1    1    3    3    0  502  0.11515725532E+04 -0.75726553201E+03  0.90754876603E+03  0.16502167112E+04  0.50400001928E-02 0.  1.
</event>
<event>
 5   0  0.7363513E-06  0.3166848E+04  0.7818609E-02  0.8197628E-01
        2   -1    0    0  501    0  0.00000000000E+00  0.00000000000E+00  0.13626325074E+04  0.13626325074E+04  0.25500000920E-02 0. -1.
       -2   -1    0    0    0  501  0.00000000000E+00  0.00000000000E+00 -0.18399906115E+04  0.18399906115E+04  0.25500000920E-02 0.  1.
    10030    2    1    2    0    0  0.00000000000E+00  0.00000000000E+00 -0.47735810412E+03  0.32026231189E+04  0.31668476569E+04 0.  0.
        4    1    3    3  502    0 -0.71725873462E+03 -0.42012627942E+03  0.11242337070E+04  0.13981663792E+04  0.12699999809E+01 0. -1.
       -4    1    3    3    0  502  0.71725873462E+03  0.42012627942E+03 -0.16015918111E+04  0.18044567397E+04  0.12699999809E+01 0.  1.
</event>
<event>
 5   0  0.2517725E-06  0.3134134E+04  0.7818609E-02  0.8206432E-01
        1   -1    0    0  501    0  0.00000000000E+00  0.00000000000E+00  0.20430010774E+04  0.20430010774E+04  0.50400001928E-02 0. -1.
       -1   -1    0    0    0  501  0.00000000000E+00  0.00000000000E+00 -0.12020056469E+04  0.12020056469E+04  0.50400001928E-02 0.  1.
    10030    2    1    2    0    0  0.00000000000E+00  0.00000000000E+00  0.84099543047E+03  0.32450067243E+04  0.31341339037E+04 0.  0.
        3    1    3    3  502    0  0.11463249837E+04 -0.89269996036E+03 -0.18740518202E+03  0.14649555965E+04  0.10100000352E+00 0.  1.
       -3    1    3    3    0  502 -0.11463249837E+04  0.89269996036E+03  0.10284006125E+04  0.17800511277E+04  0.10100000352E+00 0. -1.
</event>
<event>
 5   0  0.2624011E-06  0.2907805E+04  0.7818609E-02  0.8270559E-01
        1   -1    0    0  501    0  0.00000000000E+00  0.00000000000E+00  0.16516008401E+04  0.16516008401E+04  0.50400001928E-02 0. -1.
       -1   -1    0    0    0  501  0.00000000000E+00  0.00000000000E+00 -0.12798687509E+04  0.12798687509E+04  0.50400001928E-02 0.  1.
    10030    2    1    2    0    0  0.00000000000E+00  0.00000000000E+00  0.37173208927E+03  0.29314695910E+04  0.29078048794E+04 0.  0.
        1    1    3    3  502    0 -0.93918426462E+03 -0.11091678381E+04  0.22506601452E+03  0.14707056425E+04  0.50400001928E-02 0.  1.
       -1    1    3    3    0  502  0.93918426462E+03  0.11091678381E+04  0.14666607475E+03  0.14607639486E+04  0.50400001928E-02 0. -1.
</event>
<event>
 5   0  0.2674441E-06  0.2508331E+04  0.7818609E-02  0.8400024E-01
       -1   -1    0    0    0  501  0.00000000000E+00  0.00000000000E+00  0.74717436493E+03  0.74717436495E+03  0.50400001928E-02 0. -1.
        1   -1    0    0  501    0  0.00000000000E+00  0.00000000000E+00 -0.21051722205E+04  0.21051722205E+04  0.50400001928E-02 0.  1.
    10030    2    1    2    0    0  0.00000000000E+00  0.00000000000E+00 -0.13579978556E+04  0.28523465855E+04  0.25083306935E+04 0.  0.
        5    1    3    3  502    0 -0.92067141219E+03 -0.62661117673E+03 -0.23157266646E+02  0.11139280789E+04  0.46999998093E+01 0. -1.
       -5    1    3    3    0  502  0.92067141219E+03  0.62661117673E+03 -0.13348405890E+04  0.17384185066E+04  0.46999998093E+01 0.  1.
</event>
<event>
 5   0  0.2624011E-06  0.3142399E+04  0.7818609E-02  0.8204197E-01
       -1   -1    0    0    0  501  0.00000000000E+00  0.00000000000E+00  0.10430177285E+04  0.10430177285E+04  0.50400001928E-02 0. -1.
        1   -1    0    0  501    0  0.00000000000E+00  0.00000000000E+00 -0.23668510773E+04  0.23668510773E+04  0.50400001928E-02 0.  1.
    10030    2    1    2    0    0  0.00000000000E+00  0.00000000000E+00 -0.13238333489E+04  0.34098688058E+04  0.31423988508E+04 0.  0.
        1    1    3    3  502    0 -0.12273862737E+04 -0.97658885732E+03 -0.76175195035E+03  0.17436940371E+04  0.50400001928E-02 0.  1.
       -1    1    3    3    0  502  0.12273862737E+04  0.97658885732E+03 -0.56208139852E+03  0.16661747687E+04  0.50400001928E-02 0. -1.
</event>
<event>
 5   0  0.2612331E-06  0.3058667E+04  0.7818609E-02  0.8227174E-01
       -1   -1    0    0    0  501  0.00000000000E+00  0.00000000000E+00  0.12827483522E+04  0.12827483523E+04  0.50400001928E-02 0.  1.
        1   -1    0    0  501    0  0.00000000000E+00  0.00000000000E+00 -0.18233198258E+04  0.18233198258E+04  0.50400001928E-02 0. -1.
    10030    2    1    2    0    0  0.00000000000E+00  0.00000000000E+00 -0.54057147353E+03  0.31060681780E+04  0.30586667044E+04 0.  0.
        4    1    3    3  502    0 -0.27245372487E+03  0.10191683328E+04 -0.13946591325E+04  0.17487169100E+04  0.12699999809E+01 0. -1.
       -4    1    3    3    0  502  0.27245372487E+03 -0.10191683328E+04  0.85408765892E+03  0.13573512680E+04  0.12699999809E+01 0.  1.
</event>
<event>
 5   0  0.2517725E-06  0.3142187E+04  0.7818609E-02  0.8204254E-01
        1   -1    0    0  501    0  0.00000000000E+00  0.00000000000E+00  0.72150276269E+03  0.72150276271E+03  0.50400001928E-02 0.  1.
       -1   -1    0    0    0  501  0.00000000000E+00  0.00000000000E+00 -0.34211025009E+04  0.34211025009E+04  0.50400001928E-02 0. -1.
    10030    2    1    2    0    0  0.00000000000E+00  0.00000000000E+00 -0.26995997382E+04  0.41426052636E+04  0.31421870765E+04 0.  0.
        3    1    3    3  502    0 -0.92035077008E+02 -0.87288882119E+03  0.36811384794E+03  0.95179470728E+03  0.10100000352E+00 0.  1.
       -3    1    3    3    0  502  0.92035077008E+02  0.87288882119E+03 -0.30677135861E+04  0.31908105563E+04  0.10100000352E+00 0. -1.
</event>
<event>
 5   0  0.7363513E-06  0.3018586E+04  0.7818609E-02  0.8238443E-01
        2   -1    0    0  501    0  0.00000000000E+00  0.00000000000E+00  0.13796510601E+04  0.13796510601E+04  0.25500000920E-02 0. -1.
       -2   -1    0    0    0  501  0.00000000000E+00  0.00000000000E+00 -0.16511170508E+04  0.16511170509E+04  0.25500000920E-02 0.  1.
    10030    2    1    2    0    0  0.00000000000E+00  0.00000000000E+00 -0.27146599073E+03  0.30307681110E+04  0.30185860197E+04 0.  0.
        4    1    3    3  502    0  0.11437775258E+04  0.83365033626E+03 -0.66202765243E+03  0.15625242837E+04  0.12699999809E+01 0. -1.
       -4    1    3    3    0  502 -0.11437775258E+04 -0.83365033626E+03  0.39056166170E+03  0.14682438272E+04  0.12699999809E+01 0.  1.
</event>
<event>
 5   0  0.2598987E-06  0.2032894E+04  0.7818609E-02  0.8591394E-01
        1   -1    0    0  501    0  0.00000000000E+00  0.00000000000E+00  0.68309200281E+03  0.68309200283E+03  0.50400001928E-02 0.  1.
       -1   -1    0    0    0  501  0.00000000000E+00  0.00000000000E+00 -0.15124827820E+04  0.15124827820E+04  0.50400001928E-02 0. -1.
    10030    2    1    2    0    0  0.00000000000E+00  0.00000000000E+00 -0.82939077920E+03  0.21955747848E+04  0.20328943827E+04 0.  0.
        2    1    3    3  502    0 -0.39424231370E+03 -0.10565838124E+03  0.59069862503E+03  0.71799412327E+03  0.25500000920E-02 0.  1.
       -2    1    3    3    0  502  0.39424231370E+03  0.10565838124E+03 -0.14200894042E+04  0.14775806616E+04  0.25500000920E-02 0. -1.
</event>
<event>
 5   0  0.2517725E-06  0.3206983E+04  0.7818609E-02  0.8186975E-01
       -1   -1    0    0    0  501  0.00000000000E+00  0.00000000000E+00  0.11104114682E+04  0.11104114682E+04  0.50400001928E-02 0. -1.
        1   -1    0    0  501    0  0.00000000000E+00  0.00000000000E+00 -0.23155241650E+04  0.23155241650E+04  0.50400001928E-02 0.  1.
    10030    2    1    2    0    0  0.00000000000E+00  0.00000000000E+00 -0.12051126968E+04  0.34259356331E+04  0.32069827487E+04 0.  0.
        3    1    3    3  502    0 -0.74446546218E+03 -0.10455299923E+04 -0.16293351902E+04  0.20741492139E+04  0.10100000352E+00 0.  1.
       -3    1    3    3    0  502  0.74446546218E+03  0.10455299923E+04  0.42422249340E+03  0.13517864193E+04  0.10100000352E+00 0. -1.
</event>
<event>
 5   0  0.7079223E-06  0.3113088E+04  0.7818609E-02  0.8212155E-01
        2   -1    0    0  501    0  0.00000000000E+00  0.00000000000E+00  0.11856721814E+04  0.11856721814E+04  0.25500000920E-02 0.  1.
       -2   -1    0    0    0  501  0.00000000000E+00  0.00000000000E+00 -0.20434225793E+04  0.20434225793E+04  0.25500000920E-02 0. -1.
    10030    2    1    2    0    0  0.00000000000E+00  0.00000000000E+00 -0.85775039786E+03  0.32290947607E+04  0.31130880534E+04 0.  0.
        5    1    3    3  502    0  0.27417757847E+03 -0.10550332830E+04  0.72362691229E+03  0.13084061186E+04  0.46999998093E+01 0.  1.
       -5    1    3    3    0  502 -0.27417757847E+03  0.10550332830E+04 -0.15813773102E+04  0.19206886421E+04  0.46999998093E+01 0. -1.
</event>
<event>
 5   0  0.2598987E-06  0.2911624E+04  0.7818609E-02  0.8269427E-01
       -1   -1    0    0    0  501  0.00000000000E+00  0.00000000000E+00  0.13666931277E+04  0.13666931277E+04  0.50400001928E-02 0. -1.
        1   -1    0    0  501    0  0.00000000000E+00  0.00000000000E+00 -0.15507419722E+04  0.15507419722E+04  0.50400001928E-02 0.  1.
    10030    2    1    2    0    0  0.00000000000E+00  0.00000000000E+00 -0.18404884455E+03  0.29174350999E+04  0.29116238742E+04 0.  0.
        2    1    3    3  502    0  0.80890267555E+03 -0.29847570361E+03  0.10833372833E+04  0.13845688692E+04  0.25500000920E-02 0. -1.
       -2    1    3    3    0  502 -0.80890267555E+03  0.29847570361E+03 -0.12673861278E+04  0.15328662307E+04  0.25500000920E-02 0.  1.
</event>
<event>
 5   0  0.2517725E-06  0.2955869E+04  0.7818609E-02  0.8256446E-01
       -1   -1    0    0    0  501  0.00000000000E+00  0.00000000000E+00  0.26541191426E+04  0.26541191426E+04  0.50400001928E-02 0.  1.
        1   -1    0    0  501    0  0.00000000000E+00  0.00000000000E+00 -0.82298142782E+03  0.82298142783E+03  0.50400001928E-02 0. -1.
    10030    2    1    2    0    0  0.00000000000E+00  0.00000000000E+00  0.18311377148E+04  0.34771005705E+04  0.29558692540E+04 0.  0.
        3    1    3    3  502    0 -0.41390791981E+03 -0.88242916180E+03  0.22224635524E+04  0.24267973223E+04  0.10100000352E+00 0.  1.
       -3    1    3    3    0  502  0.41390791981E+03  0.88242916180E+03 -0.39132583760E+03  0.10503032481E+04  0.10100000352E+00 0. -1.
</event>
<event>
 5   0  0.2674441E-06  0.3283375E+04  0.7818609E-02  0.8167139E-01
        1   -1    0    0  501    0  0.00000000000E+00  0.00000000000E+00  0.15545319449E+04  0.15545319450E+04  0.50400001928E-02 0.  1.
       -1   -1    0    0    0  501  0.00000000000E+00  0.00000000000E+00 -0.17337294709E+04  0.17337294709E+04  0.50400001928E-02 0. -1.
    10030    2    1    2    0    0  0.00000000000E+00  0.00000000000E+00 -0.17919752591E+03  0.32882614158E+04  0.32833749992E+04 0.  0.
        5    1    3    3  502    0  0.51804304471E+03 -0.15357340078E+04  0.17207195820E+03  0.16298706659E+04  0.46999998093E+01 0.  1.
       -5    1    3    3    0  502 -0.51804304471E+03  0.15357340078E+04 -0.35126948411E+03  0.16583907499E+04  0.46999998093E+01 0. -1.
</event>
<event>
 5   0  0.7414808E-06  0.3124597E+04  0.7818609E-02  0.8209020E-01
        2   -1    0    0  501    0  0.00000000000E+00  0.00000000000E+00  0.19766510956E+04  0.19766510956E+04  0.25500000920E-02 0. -1.
       -2   -1    0    0    0  501  0.00000000000E+00  0.00000000000E+00 -0.12348039334E+04  0.12348039334E+04  0.25500000920E-02 0.  1.
    10030    2    1    2    0    0  0.00000000000E+00  0.00000000000E+00  0.74184716215E+03  0.32114550290E+04  0.31245969646E+04 0.  0.
        2    1    3    3  502    0 -0.15203221995E+04 -0.27646897644E+03  0.13439182071E+03  0.15510886005E+04  0.25500000920E-02 0.  1.
       -2    1    3    3    0  502  0.15203221995E+04  0.27646897644E+03  0.60745534143E+03  0.16603664285E+04  0.25500000920E-02 0. -1.
</event>
<event>
 5   0  0.7414808E-06  0.3081959E+04  0.7818609E-02  0.8220706E-01
       -2   -1    0    0    0  501  0.00000000000E+00  0.00000000000E+00  0.14863841450E+04  0.14863841450E+04  0.25500000920E-02 0. -1.
        2   -1    0    0  501    0  0.00000000000E+00  0.00000000000E+00 -0.15975805767E+04  0.15975805767E+04  0.25500000920E-02 0.  1.
    10030    2    1    2    0    0  0.00000000000E+00  0.00000000000E+00 -0.11119643168E+03  0.30839647216E+04  0.30819594024E+04 0.  0.
        2    1    3    3  502    0  0.10298162626E+04  0.11292502572E+04  0.14173750686E+03  0.15348671600E+04  0.25500000920E-02 0. -1.
       -2    1    3    3    0  502 -0.10298162626E+04 -0.11292502572E+04 -0.25293393854E+03  0.15490975616E+04  0.25500000920E-02 0.  1.
</event>
<event>
 5   0  0.7094341E-06  0.3052356E+04  0.7818609E-02  0.8228936E-01
        2   -1    0    0  501    0  0.00000000000E+00  0.00000000000E+00  0.17267914941E+04  0.17267914941E+04  0.25500000920E-02 0.  1.
       -2   -1    0    0    0  501  0.00000000000E+00  0.00000000000E+00 -0.13488715052E+04  0.13488715052E+04  0.25500000920E-02 0. -1.
    10030    2    1    2    0    0  0.00000000000E+00  0.00000000000E+00  0.37791998890E+03  0.30756629994E+04  0.30523563632E+04 0.  0.
        3    1    3    3  502    0 -0.43794653519E+03  0.12432746451E+04  0.96404784225E+03  0.16330698892E+04  0.10100000352E+00 0.  1.
       -3    1    3    3    0  502  0.43794653519E+03 -0.12432746451E+04 -0.58612785335E+03  0.14425931102E+04  0.10100000352E+00 0. -1.
</event>
<event>
 5   0  0.7363513E-06  0.3065917E+04  0.7818609E-02  0.8225154E-01
        2   -1    0    0  501    0  0.00000000000E+00  0.00000000000E+00  0.16113967263E+04  0.16113967263E+04  0.25500000920E-02 0.  1.
       -2   -1    0    0    0  501  0.00000000000E+00  0.00000000000E+00 -0.14583386554E+04  0.14583386554E+04  0.25500000920E-02 0. -1.
    10030    2    1    2    0    0  0.00000000000E+00  0.00000000000E+00  0.15305807087E+03  0.30697353817E+04  0.30659172430E+04 0.  0.
        4    1    3    3  502    0  0.10582694632E+04 -0.66012023396E+03  0.96885580044E+03  0.15793594129E+04  0.12699999809E+01 0. -1.
       -4    1    3    3    0  502 -0.10582694632E+04  0.66012023396E+03 -0.81579772957E+03  0.14903759688E+04  0.12699999809E+01 0.  1.
</event>
<event>
 5   0  0.2624011E-06  0.3139721E+04  0.7818609E-02  0.8204921E-01
       -1   -1    0    0    0  501  0.00000000000E+00  0.00000000000E+00  0.13049608366E+04  0.13049608366E+04  0.50400001928E-02 0. -1.
        1   -1    0    0  501    0  0.00000000000E+00  0.00000000000E+00 -0.18885329619E+04  0.18885329619E+04  0.50400001928E-02 0.  1.
    10030    2    1    2    0    0  0.00000000000E+00  0.00000000000E+00 -0.58357212525E+03  0.31934937985E+04  0.31397207226E+04 0.  0.
        1    1    3    3  502    0  0.12322052580E+04  0.48840394579E+03  0.56380635396E+03  0.14403977981E+04  0.50400001928E-02 0. -1.
       -1    1    3    3    0  502 -0.12322052580E+04 -0.48840394579E+03 -0.11473784792E+04  0.17530960004E+04  0.50400001928E-02 0.  1.
</event>
<event>
 5   0  0.7363513E-06  0.2981073E+04  0.7818609E-02  0.8249156E-01
        2   -1    0    0  501    0  0.00000000000E+00  0.00000000000E+00  0.20128414504E+04  0.20128414504E+04  0.25500000920E-02 0.  1.
       -2   -1    0    0    0  501  0.00000000000E+00  0.00000000000E+00 -0.11037623639E+04  0.11037623639E+04  0.25500000920E-02 0. -1.
    10030    2    1    2    0    0  0.00000000000E+00  0.00000000000E+00  0.90907908650E+03  0.31166038142E+04  0.29810727179E+04 0.  0.
        4    1    3    3  502    0  0.75224855073E+03 -0.10865333992E+04 -0.26619714705E+03  0.13480709342E+04  0.12699999809E+01 0. -1.
       -4    1    3    3    0  502 -0.75224855073E+03  0.10865333992E+04  0.11752762335E+04  0.17685328800E+04  0.12699999809E+01 0.  1.
</event>
<event>
 5   0  0.2612331E-06  0.3108088E+04  0.7818609E-02  0.8213522E-01
       -1   -1    0    0    0  501  0.00000000000E+00  0.00000000000E+00  0.14732387690E+04  0.14732387690E+04  0.50400001928E-02 0. -1.
        1   -1    0    0  501    0  0.00000000000E+00  0.00000000000E+00 -0.16392812386E+04  0.16392812386E+04  0.50400001928E-02 0.  1.
    10030    2    1    2    0    0  0.00000000000E+00  0.00000000000E+00 -0.16604246959E+03  0.31125200076E+04  0.31080879486E+04 0.  0.
        4    1    3    3  502    0  0.49068673372E+03 -0.89052942866E+03 -0.12599566415E+04  0.16190455477E+04  0.12699999809E+01 0.  1.
       -4    1    3    3    0  502 -0.49068673372E+03  0.89052942866E+03  0.10939141720E+04  0.14934744599E+04  0.12699999809E+01 0. -1.
</event>
<event>
 5   0  0.7071012E-06  0.3136110E+04  0.7818609E-02  0.8205897E-01
        2   -1    0    0  501    0  0.00000000000E+00  0.00000000000E+00  0.13879037019E+04  0.13879037019E+04  0.25500000920E-02 0. -1.
       -2   -1    0    0    0  501  0.00000000000E+00  0.00000000000E+00 -0.17715900382E+04  0.17715900382E+04  0.25500000920E-02 0.  1.
    10030    2    1    2    0    0  0.00000000000E+00  0.00000000000E+00 -0.38368633636E+03  0.31594937401E+04  0.31361099294E+04 0.  0.
        1    1    3    3  502    0 -0.14842032096E+04 -0.15266889679E+02  0.31759923495E+03  0.15178806012E+04  0.50400001928E-02 0. -1.
       -1    1    3    3    0  502  0.14842032096E+04  0.15266889679E+02 -0.70128557132E+03  0.16416131389E+04  0.50400001928E-02 0.  1.
</event>
<event>
 5   0  0.2517725E-06  0.3127060E+04  0.7818609E-02  0.8208350E-01
        1   -1    0    0  501    0  0.00000000000E+00  0.00000000000E+00  0.20000593962E+04  0.20000593962E+04  0.50400001928E-02 0.  1.
       -1   -1    0    0    0  501  0.00000000000E+00  0.00000000000E+00 -0.12222770589E+04  0.12222770589E+04  0.50400001928E-02 0. -1.
    10030    2    1    2    0    0  0.00000000000E+00  0.00000000000E+00  0.77778233735E+03  0.32223364551E+04  0.31270604193E+04 0.  0.
        3    1    3    3  502    0  0.13052458880E+04 -0.63165466006E+03  0.99149245840E+03  0.17566194075E+04  0.10100000352E+00 0.  1.
       -3    1    3    3    0  502 -0.13052458880E+04  0.63165466006E+03 -0.21371012106E+03  0.14657170476E+04  0.10100000352E+00 0. -1.
</event>
<event>
 5   0  0.7094341E-06  0.2845168E+04  0.7818609E-02  0.8289381E-01
       -2   -1    0    0    0  501  0.00000000000E+00  0.00000000000E+00  0.10455695851E+04  0.10455695851E+04  0.25500000920E-02 0.  1.
        2   -1    0    0  501    0  0.00000000000E+00  0.00000000000E+00 -0.19355436643E+04  0.19355436643E+04  0.25500000920E-02 0. -1.
    10030    2    1    2    0    0  0.00000000000E+00  0.00000000000E+00 -0.88997407918E+03  0.29811132494E+04  0.28451682453E+04 0.  0.
        3    1    3    3  502    0 -0.41772368515E+03  0.10628512395E+04  0.44383746837E+03  0.12252091834E+04  0.10100000352E+00 0.  1.
       -3    1    3    3    0  502  0.41772368515E+03 -0.10628512395E+04 -0.13338115475E+04  0.17559040660E+04  0.10100000352E+00 0. -1.
</event>
<event>
 5   0  0.2674441E-06  0.3093528E+04  0.7818609E-02  0.8217516E-01
        1   -1    0    0  501    0  0.00000000000E+00  0.00000000000E+00  0.13801856685E+04  0.13801856685E+04  0.50400001928E-02 0. -1.
       -1   -1    0    0    0  501  0.00000000000E+00  0.00000000000E+00 -0.17334471850E+04  0.17334471850E+04  0.50400001928E-02 0.  1.
    10030    2    1    2    0    0  0.00000000000E+00  0.00000000000E+00 -0.35326151651E+03  0.31136328535E+04  0.30935280583E+04 0.  0.
        5    1    3    3  502    0 -0.12850731589E+04 -0.30151650431E+03  0.63491683619E+03  0.14647411734E+04  0.46999998093E+01 0. -1.
       -5    1    3    3    0  502  0.12850731589E+04  0.30151650431E+03 -0.98817835270E+03  0.16488916802E+04  0.46999998093E+01 0.  1.
</event>
<event>
 5   0  0.7071012E-06  0.3094010E+04  0.7818609E-02  0.8217384E-01
       -2   -1    0    0    0  501  0.00000000000E+00  0.00000000000E+00  0.92679314893E+03  0.92679314894E+03  0.25500000920E-02 0. -1.
        2   -1    0    0  501    0  0.00000000000E+00  0.00000000000E+00 -0.25822631696E+04  0.25822631696E+04  0.25500000920E-02 0.  1.
    10030    2    1    2    0    0  0.00000000000E+00  0.00000000000E+00 -0.16554700207E+04  0.35090563185E+04  0.30940095762E+04 0.  0.
        1    1    3    3  502    0  0.65821497859E+03  0.37258290096E+03 -0.23582676577E+04  0.24765886460E+04  0.50400001928E-02 0.  1.
       -1    1    3    3    0  502 -0.65821497859E+03 -0.37258290096E+03  0.70279763705E+03  0.10324676725E+04  0.50400001928E-02 0. -1.
</event>
<event>
 5   0  0.7094341E-06  0.3012019E+04  0.7818609E-02  0.8240307E-01
       -2   -1    0    0    0  501  0.00000000000E+00  0.00000000000E+00  0.12586092922E+04  0.12586092922E+04  0.25500000920E-02 0. -1.
        2   -1    0    0  501    0  0.00000000000E+00  0.00000000000E+00 -0.18020403106E+04  0.18020403106E+04  0.25500000920E-02 0.  1.
    10030    2    1    2    0    0  0.00000000000E+00  0.00000000000E+00 -0.54343101843E+03  0.30606496028E+04  0.30120190437E+04 0.  0.
        3    1    3    3  502    0 -0.40353196040E+03  0.21450777397E+03  0.11864490520E+04  0.12714216418E+04  0.10100000352E+00 0. -1.
       -3    1    3    3    0  502  0.40353196040E+03 -0.21450777397E+03 -0.17298800704E+04  0.17892279610E+04  0.10100000352E+00 0.  1.
</event>
<event>
 5   0  0.2674441E-06  0.3050872E+04  0.7818609E-02  0.8229352E-01
        1   -1    0    0  501    0  0.00000000000E+00  0.00000000000E+00  0.18241031325E+04  0.18241031325E+04  0.50400001928E-02 0. -1.
       -1   -1    0    0    0  501  0.00000000000E+00  0.00000000000E+00 -0.12756704199E+04  0.12756704199E+04  0.50400001928E-02 0.  1.
    10030    2    1    2    0    0  0.00000000000E+00  0.00000000000E+00  0.54843271258E+03  0.30997735524E+04  0.30508716190E+04 0.  0.
        5    1    3    3  502    0  0.57818762453E+03  0.78404414312E+03  0.14668741713E+04  0.17608997904E+04  0.46999998093E+01 0. -1.
       -5    1    3    3    0  502 -0.57818762453E+03 -0.78404414312E+03 -0.91844145868E+03  0.13388737620E+04  0.46999998093E+01 0.  1.
</event>
<event>
 5   0  0.2612331E-06  0.3053397E+04  0.7818609E-02  0.8228645E-01
       -1   -1    0    0    0  501  0.00000000000E+00  0.00000000000E+00  0.13589835930E+04  0.13589835930E+04  0.50400001928E-02 0.  1.
        1   -1    0    0  501    0  0.00000000000E+00  0.00000000000E+00 -0.17151115600E+04  0.17151115600E+04  0.50400001928E-02 0. -1.
    10030    2    1    2    0    0  0.00000000000E+00  0.00000000000E+00 -0.35612796692E+03  0.30740951530E+04  0.30533971050E+04 0.  0.
        4    1    3    3  502    0  0.10894417585E+04  0.81091017367E+02 -0.12517583014E+04  0.16614329828E+04  0.12699999809E+01 0. -1.
       -4    1    3    3    0  502 -0.10894417585E+04 -0.81091017367E+02  0.89563033446E+03  0.14126621702E+04  0.12699999809E+01 0.  1.
</event>
<event>
 5   0  0.2598987E-06  0.2942227E+04  0.7818609E-02  0.8260423E-01
       -1   -1    0    0    0  501  0.00000000000E+00  0.00000000000E+00  0.15535137056E+04  0.15535137056E+04  0.50400001928E-02 0. -1.
        1   -1    0    0  501    0  0.00000000000E+00  0.00000000000E+00 -0.13930838158E+04  0.13930838158E+04  0.50400001928E-02 0.  1.
    10030    2    1    2    0    0  0.00000000000E+00  0.00000000000E+00  0.16042988976E+03  0.29465975214E+04  0.29422269124E+04 0.  0.
        2    1    3    3  502    0 -0.11136689878E+04 -0.44593211949E+03  0.93298481579E+03  0.15197285074E+04  0.25500000920E-02 0. -1.
       -2    1    3    3    0  502  0.11136689878E+04  0.44593211949E+03 -0.77255492603E+03  0.14268690141E+04  0.25500000920E-02 0.  1.
</event>
<event>
 5   0  0.7363513E-06  0.3087622E+04  0.7818609E-02  0.8219143E-01
       -2   -1    0    0    0  501  0.00000000000E+00  0.00000000000E+00  0.13248819590E+04  0.13248819590E+04  0.25500000920E-02 0.  1.
        2   -1    0    0  501    0  0.00000000000E+00  0.00000000000E+00 -0.17989171442E+04  0.17989171442E+04  0.25500000920E-02 0. -1.
    10030    2    1    2    0    0  0.00000000000E+00  0.00000000000E+00 -0.47403518517E+03  0.31237991032E+04  0.30876223020E+04 0.  0.
        4    1    3    3  502    0  0.84717609836E+02 -0.99080317288E+03  0.95770087985E+03  0.13806015316E+04  0.12699999809E+01 0.  1.
       -4    1    3    3    0  502 -0.84717609836E+02  0.99080317288E+03 -0.14317360650E+04  0.17431975716E+04  0.12699999809E+01 0. -1.
</event>
<event>
 5   0  0.7071012E-06  0.2720813E+04  0.7818609E-02  0.8328283E-01
        2   -1    0    0  501    0  0.00000000000E+00  0.00000000000E+00  0.16360021176E+04  0.16360021176E+04  0.25500000920E-02 0. -1.
       -2   -1    0    0    0  501  0.00000000000E+00  0.00000000000E+00 -0.11312365312E+04  0.11312365313E+04  0.25500000920E-02 0.  1.
    10030    2    1    2    0    0  0.00000000000E+00  0.00000000000E+00  0.50476558640E+03  0.27672386489E+04  0.27208126438E+04 0.  0.
        1    1    3    3  502    0  0.12361383578E+04 -0.10201045424E+03 -0.31595558224E+03  0.12799500390E+04  0.50400001928E-02 0.  1.
       -1    1    3    3    0  502 -0.12361383578E+04  0.10201045424E+03  0.82072116863E+03  0.14872886099E+04  0.50400001928E-02 0. -1.
</event>
<event>
 5   0  0.2624011E-06  0.3094411E+04  0.7818609E-02  0.8217273E-01
        1   -1    0    0  501    0  0.00000000000E+00  0.00000000000E+00  0.20181681082E+04  0.20181681082E+04  0.50400001928E-02 0. -1.
       -1   -1    0    0    0  501  0.00000000000E+00  0.00000000000E+00 -0.11861473285E+04  0.11861473285E+04  0.50400001928E-02 0.  1.
    10030    2    1    2    0    0  0.00000000000E+00  0.00000000000E+00  0.83202077970E+03  0.32043154367E+04  0.30944109035E+04 0.  0.
        1    1    3    3  502    0 -0.48760999837E+03  0.89267367818E+03  0.16232718682E+04  0.19156308006E+04  0.50400001928E-02 0. -1.
       -1    1    3    3    0  502  0.48760999837E+03 -0.89267367818E+03 -0.79125108847E+03  0.12886846361E+04  0.50400001928E-02 0.  1.
</event>
<event>
 5   0  0.7079223E-06  0.3197818E+04  0.7818609E-02  0.8189394E-01
       -2   -1    0    0    0  501  0.00000000000E+00  0.00000000000E+00  0.13509118304E+04  0.13509118304E+04  0.25500000920E-02 0.  1.
        2   -1    0    0  501    0  0.00000000000E+00  0.00000000000E+00 -0.18924330856E+04  0.18924330856E+04  0.25500000920E-02 0. -1.
    10030    2    1    2    0    0  0.00000000000E+00  0.00000000000E+00 -0.54152125521E+03  0.32433449160E+04  0.31978181584E+04 0.  0.
        5    1    3    3  502    0  0.11549847839E+04 -0.11042698108E+04 -0.21441351868E+03  0.16122645295E+04  0.46999998093E+01 0. -1.
       -5    1    3    3    0  502 -0.11549847839E+04  0.11042698108E+04 -0.32710773653E+03  0.16310803865E+04  0.46999998093E+01 0.  1.
</event>
<event>
 5   0  0.2612331E-06  0.2158860E+04  0.7818609E-02  0.8535749E-01
        1   -1    0    0  501    0  0.00000000000E+00  0.00000000000E+00  0.11205868307E+04  0.11205868307E+04  0.50400001928E-02 0. -1.
       -1   -1    0    0    0  501  0.00000000000E+00  0.00000000000E+00 -0.10397850482E+04  0.10397850482E+04  0.50400001928E-02 0.  1.
    10030    2    1    2    0    0  0.00000000000E+00  0.00000000000E+00  0.80801782500E+02  0.21603718789E+04  0.21588602843E+04 0.  0.
        4    1    3    3  502    0 -0.90183847720E+03 -0.80634546052E+02 -0.54767821848E+03  0.10581907261E+04  0.12699999809E+01 0.  1.
       -4    1    3    3    0  502  0.90183847720E+03  0.80634546052E+02  0.62848000098E+03  0.11021811528E+04  0.12699999809E+01 0. -1.
</event>
<event>
 5   0  0.2517725E-06  0.3085566E+04  0.7818609E-02  0.8219710E-01
        1   -1    0    0  501    0  0.00000000000E+00  0.00000000000E+00  0.23171646878E+04  0.23171646878E+04  0.50400001928E-02 0. -1.
       -1   -1    0    0    0  501  0.00000000000E+00  0.00000000000E+00 -0.10271947475E+04  0.10271947475E+04  0.50400001928E-02 0.  1.
    10030    2    1    2    0    0  0.00000000000E+00  0.00000000000E+00  0.12899699404E+04  0.33443594353E+04  0.30855660073E+04 0.  0.
        3    1    3    3  502    0  0.31429118355E+03 -0.14590394839E+04  0.10683952337E+04  0.18354954506E+04  0.10100000352E+00 0.  1.
       -3    1    3    3    0  502 -0.31429118355E+03  0.14590394839E+04  0.22157470664E+03  0.15088639847E+04  0.10100000352E+00 0. -1.
</event>
<event>
 5   0  0.2598987E-06  0.3012430E+04  0.7818609E-02  0.8240190E-01
       -1   -1    0    0    0  501  0.00000000000E+00  0.00000000000E+00  0.18337723268E+04  0.18337723268E+04  0.50400001928E-02 0.  1.
        1   -1    0    0  501    0  0.00000000000E+00  0.00000000000E+00 -0.12371672516E+04  0.12371672517E+04  0.50400001928E-02 0. -1.
    10030    2    1    2    0    0  0.00000000000E+00  0.00000000000E+00  0.59660507512E+03  0.30709395784E+04  0.30124296305E+04 0.  0.
        2    1    3    3  502    0 -0.10620420903E+04 -0.14605124407E+03  0.13768782590E+04  0.17450094864E+04  0.25500000920E-02 0.  1.
       -2    1    3    3    0  502  0.10620420903E+04  0.14605124407E+03 -0.78027318385E+03  0.13259300920E+04  0.25500000920E-02 0. -1.
</event>
<event>
 5   0  0.7363513E-06  0.3058363E+04  0.7818609E-02  0.8227259E-01
        2   -1    0    0  501    0  0.00000000000E+00  0.00000000000E+00  0.17044576312E+04  0.17044576312E+04  0.25500000920E-02 0. -1.
       -2   -1    0    0    0  501  0.00000000000E+00  0.00000000000E+00 -0.13719294251E+04  0.13719294251E+04  0.25500000920E-02 0.  1.
    10030    2    1    2    0    0  0.00000000000E+00  0.00000000000E+00  0.33252820617E+03  0.30763870563E+04  0.30583626849E+04 0.  0.
        4    1    3    3  502    0  0.60103580174E+03 -0.13330562693E+04 -0.28370985066E+03  0.14895556198E+04  0.12699999809E+01 0.  1.
       -4    1    3    3    0  502 -0.60103580174E+03  0.13330562693E+04  0.61623805683E+03  0.15868314365E+04  0.12699999809E+01 0. -1.
</event>
<event>
 5   0  0.2624011E-06  0.3058686E+04  0.7818609E-02  0.8227169E-01
        1   -1    0    0  501    0  0.00000000000E+00  0.00000000000E+00  0.12328825346E+04  0.12328825346E+04  0.50400001928E-02 0. -1.
       -1   -1    0    0    0  501  0.00000000000E+00  0.00000000000E+00 -0.18970905203E+04  0.18970905203E+04  0.50400001928E-02 0.  1.
    10030    2    1    2    0    0  0.00000000000E+00  0.00000000000E+00 -0.66420798578E+03  0.31299730549E+04  0.30586858413E+04 0.  0.
        1    1    3    3  502    0 -0.15037184637E+02  0.95869578271E+03 -0.15513280630E+04  0.18237166665E+04  0.50400001928E-02 0.  1.
       -1    1    3    3    0  502  0.15037184637E+02 -0.95869578271E+03  0.88712007723E+03  0.13062563884E+04  0.50400001928E-02 0. -1.
</event>
<event>
 5   0  0.2517725E-06  0.3088886E+04  0.7818609E-02  0.8218795E-01
       -1   -1    0    0    0  501  0.00000000000E+00  0.00000000000E+00  0.17180323185E+04  0.17180323185E+04  0.50400001928E-02 0. -1.
        1   -1    0    0  501    0  0.00000000000E+00  0.00000000000E+00 -0.13883929183E+04  0.13883929183E+04  0.50400001928E-02 0.  1.
    10030    2    1    2    0    0  0.00000000000E+00  0.00000000000E+00  0.32963940028E+03  0.31064252368E+04  0.30888858214E+04 0.  0.
        3    1    3    3  502    0 -0.73658292770E+03 -0.60401441780E+03 -0.10577790177E+04  0.14234761279E+04  0.10100000352E+00 0.  1.
       -3    1    3    3    0  502  0.73658292770E+03  0.60401441780E+03  0.13874184180E+04  0.16829491089E+04  0.10100000352E+00 0. -1.
</event>
<event>
 5   0  0.7414808E-06  0.3003980E+04  0.7818609E-02  0.8242595E-01
        2   -1    0    0  501    0  0.00000000000E+00  0.00000000000E+00  0.13761422011E+04  0.13761422011E+04  0.25500000920E-02 0. -1.
       -2   -1    0    0    0  501  0.00000000000E+00  0.00000000000E+00 -0.16393470576E+04  0.16393470576E+04  0.25500000920E-02 0.  1.
    10030    2    1    2    0    0  0.00000000000E+00  0.00000000000E+00 -0.26320485643E+03  0.30154892587E+04  0.30039804715E+04 0.  0.
        2    1    3    3  502    0 -0.77250106711E+03 -0.40234182162E+03 -0.13599480411E+04  0.16149599112E+04  0.25500000920E-02 0.  1.
       -2    1    3    3    0  502  0.77250106711E+03  0.40234182162E+03  0.10967431847E+04  0.14005293475E+04  0.25500000920E-02 0. -1.
</event>
<event>
 5   0  0.7363513E-06  0.3077460E+04  0.7818609E-02  0.8221951E-01
       -2   -1    0    0    0  501  0.00000000000E+00  0.00000000000E+00  0.11586505020E+04  0.11586505020E+04  0.25500000920E-02 0. -1.
        2   -1    0    0  501    0  0.00000000000E+00  0.00000000000E+00 -0.20434895446E+04  0.20434895446E+04  0.25500000920E-02 0.  1.
    10030    2    1    2    0    0  0.00000000000E+00  0.00000000000E+00 -0.88483904263E+03  0.32021400467E+04  0.30774601130E+04 0.  0.
        4    1    3    3  502    0  0.61445205502E+03 -0.10148890747E+04  0.57714469701E+03  0.13193364908E+04  0.12699999809E+01 0. -1.
       -4    1    3    3    0  502 -0.61445205502E+03  0.10148890747E+04 -0.14619837396E+04  0.18828035558E+04  0.12699999809E+01 0.  1.
</event>
<event>
 5   0  0.2674441E-06  0.3085592E+04  0.7818609E-02  0.8219703E-01
        1   -1    0    0  501    0  0.00000000000E+00  0.00000000000E+00  0.11997373241E+04  0.11997373241E+04  0.50400001928E-02 0. -1.
       -1   -1    0    0    0  501  0.00000000000E+00  0.00000000000E+00 -0.19839508000E+04  0.19839508000E+04  0.50400001928E-02 0.  1.
    10030    2    1    2    0    0  0.00000000000E+00  0.00000000000E+00 -0.78421347586E+03  0.31836881241E+04  0.30855922115E+04 0.  0.
        5    1    3    3  502    0 -0.94124370615E+03  0.65361259477E+03 -0.14579272817E+04  0.18543794614E+04  0.46999998093E+01 0.  1.
       -5    1    3    3    0  502  0.94124370615E+03 -0.65361259477E+03  0.67371380580E+03  0.13293086626E+04  0.46999998093E+01 0. -1.
</event>
<event>
 5   0  0.7363513E-06  0.3090138E+04  0.7818609E-02  0.8218450E-01
        2   -1    0    0  501    0  0.00000000000E+00  0.00000000000E+00  0.11670589678E+04  0.11670589678E+04  0.25500000920E-02 0. -1.
       -2   -1    0    0    0  501  0.00000000000E+00  0.00000000000E+00 -0.20455167717E+04  0.20455167717E+04  0.25500000920E-02 0.  1.
    10030    2    1    2    0    0  0.00000000000E+00  0.00000000000E+00 -0.87845780388E+03  0.32125757395E+04  0.30901383090E+04 0.  0.
        4    1    3    3  502    0  0.12730706472E+04  0.72812764974E+03  0.66200981317E+02  0.14680813771E+04  0.12699999809E+01 0. -1.
       -4    1    3    3    0  502 -0.12730706472E+04 -0.72812764974E+03 -0.94465878520E+03  0.17444943624E+04  0.12699999809E+01 0.  1.
</event>
<event>
 5   0  0.2598987E-06  0.2058959E+04  0.7818609E-02  0.8579541E-01
       -1   -1    0    0    0  501  0.00000000000E+00  0.00000000000E+00  0.53778496959E+03  0.53778496961E+03  0.50400001928E-02 0.  1.
        1   -1    0    0  501    0  0.00000000000E+00  0.00000000000E+00 -0.19707273990E+04  0.19707273990E+04  0.50400001928E-02 0. -1.
    10030    2    1    2    0    0  0.00000000000E+00  0.00000000000E+00 -0.14329424294E+04  0.25085123686E+04  0.20589585468E+04 0.  0.
        2    1    3    3  502    0  0.38553747916E+03  0.72838259499E+03  0.35203559715E+02  0.82487553191E+03  0.25500000920E-02 0.  1.
       -2    1    3    3    0  502 -0.38553747916E+03 -0.72838259499E+03 -0.14681459891E+04  0.16836368367E+04  0.25500000920E-02 0. -1.
</event>
<event>
 5   0  0.7079223E-06  0.3101807E+04  0.7818609E-02  0.8215242E-01
       -2   -1    0    0    0  501  0.00000000000E+00  0.00000000000E+00  0.17127306942E+04  0.17127306942E+04  0.25500000920E-02 0.  1.
        2   -1    0    0  501    0  0.00000000000E+00  0.00000000000E+00 -0.14043666864E+04  0.14043666864E+04  0.25500000920E-02 0. -1.
    10030    2    1    2    0    0  0.00000000000E+00  0.00000000000E+00  0.30836400777E+03  0.31170973806E+04  0.31018071699E+04 0.  0.
        5    1    3    3  502    0  0.10609657732E+03  0.96379248176E+02 -0.13976888715E+04  0.14050273003E+04  0.46999998093E+01 0. -1.
       -5    1    3    3    0  502 -0.10609657732E+03 -0.96379248176E+02  0.17060528792E+04  0.17120700803E+04  0.46999998093E+01 0.  1.
</event>
<event>
 5   0  0.2612331E-06  0.2388379E+04  0.7818609E-02  0.8443867E-01
       -1   -1    0    0    0  501  0.00000000000E+00  0.00000000000E+00  0.58792024427E+03  0.58792024429E+03  0.50400001928E-02 0. -1.
        1   -1    0    0  501    0  0.00000000000E+00  0.00000000000E+00 -0.24256497537E+04  0.24256497537E+04  0.50400001928E-02 0.  1.
    10030    2    1    2    0    0  0.00000000000E+00  0.00000000000E+00 -0.18377295094E+04  0.30135699980E+04  0.23883790283E+04 0.  0.
        4    1    3    3  502    0  0.21256179996E+02 -0.19877939514E+03 -0.24043855939E+04  0.24126824843E+04  0.12699999809E+01 0.  1.
       -4    1    3    3    0  502 -0.21256179996E+02  0.19877939514E+03  0.56665608447E+03  0.60088751367E+03  0.12699999809E+01 0. -1.
</event>
<event>
 5   0  0.7094341E-06  0.3057688E+04  0.7818609E-02  0.8227447E-01
        2   -1    0    0  501    0  0.00000000000E+00  0.00000000000E+00  0.17281940735E+04  0.17281940735E+04  0.25500000920E-02 0. -1.
       -2   -1    0    0    0  501  0.00000000000E+00  0.00000000000E+00 -0.13524894725E+04  0.13524894725E+04  0.25500000920E-02 0.  1.
    10030    2    1    2    0    0  0.00000000000E+00  0.00000000000E+00  0.37570460102E+03  0.30806835459E+04  0.30576882056E+04 0.  0.
        3    1    3    3  502    0 -0.47645355858E+03 -0.14425801532E+04  0.36036731593E+03  0.15613808327E+04  0.10100000352E+00 0.  1.
       -3    1    3    3    0  502  0.47645355858E+03  0.14425801532E+04  0.15337285092E+02  0.15193027133E+04  0.10100000352E+00 0. -1.
</event>
<event>
 5   0  0.2393250E-06  0.2022619E+04  0.7818609E-02  0.8596118E-01
        4   -1    0    0  501    0  0.00000000000E+00  0.00000000000E+00  0.79999850167E+03  0.79999950974E+03  0.12699999809E+01 0.  1.
       -4   -1    0    0    0  501  0.00000000000E+00  0.00000000000E+00 -0.12784343767E+04  0.12784350075E+04  0.12699999809E+01 0. -1.
    10030    2    1    2    0    0  0.00000000000E+00  0.00000000000E+00 -0.47843587504E+03  0.20784345173E+04  0.20226193799E+04 0.  0.
        4    1    3    3  502    0 -0.20071757430E+03 -0.95724357958E+03 -0.50349755509E+03  0.11000519152E+04  0.12699999809E+01 0.  1.
       -4    1    3    3    0  502  0.20071757430E+03  0.95724357958E+03  0.25061680048E+02  0.97838260205E+03  0.12699999809E+01 0. -1.
</event>
<event>
 5   0  0.7414808E-06  0.2675909E+04  0.7818609E-02  0.8342864E-01
       -2   -1    0    0    0  501  0.00000000000E+00  0.00000000000E+00  0.13431393318E+04  0.13431393318E+04  0.25500000920E-02 0.  1.
        2   -1    0    0  501    0  0.00000000000E+00  0.00000000000E+00 -0.13327895349E+04  0.13327895349E+04  0.25500000920E-02 0. -1.
    10030    2    1    2    0    0  0.00000000000E+00  0.00000000000E+00  0.10349796901E+02  0.26759288667E+04  0.26759088515E+04 0.  0.
        2    1    3    3  502    0 -0.42560489076E+03  0.70842859369E+03  0.10573764057E+04  0.13420340751E+04  0.25500000920E-02 0.  1.
       -2    1    3    3    0  502  0.42560489076E+03 -0.70842859369E+03 -0.10470266088E+04  0.13338947916E+04  0.25500000920E-02 0. -1.
</event>
<event>
 5   0  0.2393250E-06  0.3300576E+04  0.7818609E-02  0.8162749E-01
        3   -1    0    0  501    0  0.00000000000E+00  0.00000000000E+00  0.17459032382E+04  0.17459032411E+04  0.10100000352E+00 0. -1.
       -3   -1    0    0    0  501  0.00000000000E+00  0.00000000000E+00 -0.15599093265E+04  0.15599093298E+04  0.10100000352E+00 0.  1.
    10030    2    1    2    0    0  0.00000000000E+00  0.00000000000E+00  0.18599391172E+03  0.33058125709E+04  0.33005761647E+04 0.  0.
        2    1    3    3  502    0 -0.11076735793E+04 -0.10085949509E+04  0.78637137716E+03  0.16919173964E+04  0.25500000920E-02 0. -1.
       -2    1    3    3    0  502  0.11076735793E+04  0.10085949509E+04 -0.60037746544E+03  0.16138951745E+04  0.25500000920E-02 0.  1.
</event>
<event>
 5   0  0.7363513E-06  0.3041235E+04  0.7818609E-02  0.8232053E-01
       -2   -1    0    0    0  501  0.00000000000E+00  0.00000000000E+00  0.16579847916E+04  0.16579847916E+04  0.25500000920E-02 0.  1.
        2   -1    0    0  501    0  0.00000000000E+00  0.00000000000E+00 -0.13946314545E+04  0.13946314545E+04  0.25500000920E-02 0. -1.
    10030    2    1    2    0    0  0.00000000000E+00  0.00000000000E+00  0.26335333706E+03  0.30526162461E+04  0.30412351053E+04 0.  0.
        4    1    3    3  502    0  0.75063240590E+03 -0.12904401489E+04 -0.15852697754E+03  0.15012718615E+04  0.12699999809E+01 0. -1.
       -4    1    3    3    0  502 -0.75063240590E+03  0.12904401489E+04  0.42188031460E+03  0.15513443846E+04  0.12699999809E+01 0.  1.
</event>
<event>
 5   0  0.7079223E-06  0.3073562E+04  0.7818609E-02  0.8223031E-01
        2   -1    0    0  501    0  0.00000000000E+00  0.00000000000E+00  0.17601078340E+04  0.17601078340E+04  0.25500000920E-02 0.  1.
       -2   -1    0    0    0  501  0.00000000000E+00  0.00000000000E+00 -0.13417906455E+04  0.13417906455E+04  0.25500000920E-02 0. -1.
    10030    2    1    2    0    0  0.00000000000E+00  0.00000000000E+00  0.41831718847E+03  0.31018984795E+04  0.30735622504E+04 0.  0.
        5    1    3    3  502    0 -0.65746334263E+02  0.10559554467E+03 -0.13366943835E+04  0.13424779195E+04  0.46999998093E+01 0. -1.
       -5    1    3    3    0  502  0.65746334263E+02 -0.10559554467E+03  0.17550115719E+04  0.17594205601E+04  0.46999998093E+01 0.  1.
</event>
<event>
 5   0  0.2612331E-06  0.3079671E+04  0.7818609E-02  0.8221339E-01
        1   -1    0    0  501    0  0.00000000000E+00  0.00000000000E+00  0.19856741805E+04  0.19856741805E+04  0.50400001928E-02 0.  1.
       -1   -1    0    0    0  501  0.00000000000E+00  0.00000000000E+00 -0.11940995750E+04  0.11940995750E+04  0.50400001928E-02 0. -1.
    10030    2    1    2    0    0  0.00000000000E+00  0.00000000000E+00  0.79157460551E+03  0.31797737554E+04  0.30796705635E+04 0.  0.
        4    1    3    3  502    0  0.77840266189E+03 -0.51439197889E+03 -0.86901229643E+03  0.12750269786E+04  0.12699999809E+01 0. -1.
       -4    1    3    3    0  502 -0.77840266189E+03  0.51439197889E+03  0.16605869019E+04  0.19047467768E+04  0.12699999809E+01 0.  1.
</event>
<event>
 5   0  0.2598987E-06  0.3111311E+04  0.7818609E-02  0.8212641E-01
        1   -1    0    0  501    0  0.00000000000E+00  0.00000000000E+00  0.19131111407E+04  0.19131111407E+04  0.50400001928E-02 0. -1.
       -1   -1    0    0    0  501  0.00000000000E+00  0.00000000000E+00 -0.12649883920E+04  0.12649883920E+04  0.50400001928E-02 0.  1.
    10030    2    1    2    0    0  0.00000000000E+00  0.00000000000E+00  0.64812274874E+03  0.31780995327E+04  0.31113105828E+04 0.  0.
        2    1    3    3  502    0  0.12595811507E+04 -0.89316800769E+03  0.13087286401E+03  0.15496520486E+04  0.25500000920E-02 0.  1.
       -2    1    3    3    0  502 -0.12595811507E+04  0.89316800769E+03  0.51724988472E+03  0.16284474841E+04  0.25500000920E-02 0. -1.
</event>
<event>
 5   0  0.7079223E-06  0.3060517E+04  0.7818609E-02  0.8226658E-01
       -2   -1    0    0    0  501  0.00000000000E+00  0.00000000000E+00  0.20203108097E+04  0.20203108097E+04  0.25500000920E-02 0.  1.
        2   -1    0    0  501    0  0.00000000000E+00  0.00000000000E+00 -0.11590745380E+04  0.11590745380E+04  0.25500000920E-02 0. -1.
    10030    2    1    2    0    0  0.00000000000E+00  0.00000000000E+00  0.86123627171E+03  0.31793853477E+04  0.30605168311E+04 0.  0.
        5    1    3    3  502    0  0.12492574643E+04 -0.31463364913E+03  0.12885448548E+04  0.18220890423E+04  0.46999998093E+01 0.  1.
       -5    1    3    3    0  502 -0.12492574643E+04  0.31463364913E+03 -0.42730858309E+03  0.13572963054E+04  0.46999998093E+01 0. -1.
</event>
<event>
 5   0  0.2517725E-06  0.3126301E+04  0.7818609E-02  0.8208557E-01
        1   -1    0    0  501    0  0.00000000000E+00  0.00000000000E+00  0.21406621874E+04  0.21406621874E+04  0.50400001928E-02 0.  1.
       -1   -1    0    0    0  501  0.00000000000E+00  0.00000000000E+00 -0.11414407119E+04  0.11414407119E+04  0.50400001928E-02 0. -1.
    10030    2    1    2    0    0  0.00000000000E+00  0.00000000000E+00  0.99922147548E+03  0.32821028993E+04  0.31263006709E+04 0.  0.
        3    1    3    3  502    0  0.32835888851E+03 -0.13271725898E+04  0.12951566793E+04  0.18832518358E+04  0.10100000352E+00 0. -1.
       -3    1    3    3    0  502 -0.32835888851E+03  0.13271725898E+04 -0.29593520383E+03  0.13988510635E+04  0.10100000352E+00 0.  1.
</event>
<event>
 5   0  0.7071012E-06  0.2132217E+04  0.7818609E-02  0.8547183E-01
        2   -1    0    0  501    0  0.00000000000E+00  0.00000000000E+00  0.17535594060E+04  0.17535594060E+04  0.25500000920E-02 0. -1.
       -2   -1    0    0    0  501  0.00000000000E+00  0.00000000000E+00 -0.64816030484E+03  0.64816030484E+03  0.25500000920E-02 0.  1.
    10030    2    1    2    0    0  0.00000000000E+00  0.00000000000E+00  0.11053991012E+04  0.24017197109E+04  0.21322172489E+04 0.  0.
        1    1    3    3  502    0  0.19741920317E+03 -0.23897564215E+03  0.17016802307E+04  0.17296818513E+04  0.50400001928E-02 0. -1.
       -1    1    3    3    0  502 -0.19741920317E+03  0.23897564215E+03 -0.59628112946E+03  0.67203785957E+03  0.50400001928E-02 0.  1.
</event>
<event>
 5   0  0.2624011E-06  0.2957199E+04  0.7818609E-02  0.8256060E-01
       -1   -1    0    0    0  501  0.00000000000E+00  0.00000000000E+00  0.14386661918E+04  0.14386661918E+04  0.50400001928E-02 0.  1.
        1   -1    0    0  501    0  0.00000000000E+00  0.00000000000E+00 -0.15196407452E+04  0.15196407452E+04  0.50400001928E-02 0. -1.
    10030    2    1    2    0    0  0.00000000000E+00  0.00000000000E+00 -0.80974553375E+02  0.29583069371E+04  0.29571985147E+04 0.  0.
        1    1    3    3  502    0  0.11986606650E+04 -0.77148574241E+03 -0.43341703965E+03  0.14899087122E+04  0.50400001928E-02 0. -1.
       -1    1    3    3    0  502 -0.11986606650E+04  0.77148574241E+03  0.35244248627E+03  0.14683982248E+04  0.50400001928E-02 0.  1.
</event>
<event>
 5   0  0.7071012E-06  0.3091907E+04  0.7818609E-02  0.8217962E-01
        2   -1    0    0  501    0  0.00000000000E+00  0.00000000000E+00  0.11260803907E+04  0.11260803907E+04  0.25500000920E-02 0. -1.
       -2   -1    0    0    0  501  0.00000000000E+00  0.00000000000E+00 -0.21223820637E+04  0.21223820637E+04  0.25500000920E-02 0.  1.
    10030    2    1    2    0    0  0.00000000000E+00  0.00000000000E+00 -0.99630167300E+03  0.32484624545E+04  0.30919073877E+04 0.  0.
        1    1    3    3  502    0 -0.82390558905E+03 -0.63299576330E+03 -0.17008713326E+04  0.19931049511E+04  0.50400001928E-02 0.  1.
       -1    1    3    3    0  502  0.82390558905E+03  0.63299576330E+03  0.70456965958E+03  0.12553575034E+04  0.50400001928E-02 0. -1.
</event>
<event>
 5   0  0.7071012E-06  0.3086836E+04  0.7818609E-02  0.8219360E-01
       -2   -1    0    0    0  501  0.00000000000E+00  0.00000000000E+00  0.79852137880E+03  0.79852137880E+03  0.25500000920E-02 0. -1.
        2   -1    0    0  501    0  0.00000000000E+00  0.00000000000E+00 -0.29831874182E+04  0.29831874182E+04  0.25500000920E-02 0.  1.
    10030    2    1    2    0    0  0.00000000000E+00  0.00000000000E+00 -0.21846660394E+04  0.37817087970E+04  0.30868358754E+04 0.  0.
        1    1    3    3  502    0 -0.13636095199E+04  0.72298366687E+03 -0.10943179096E+04  0.18920010551E+04  0.50400001928E-02 0. -1.
       -1    1    3    3    0  502  0.13636095199E+04 -0.72298366687E+03 -0.10903481298E+04  0.18897077419E+04  0.50400001928E-02 0.  1.
</event>
<event>
 5   0  0.7079223E-06  0.3088753E+04  0.7818609E-02  0.8218831E-01
        2   -1    0    0  501    0  0.00000000000E+00  0.00000000000E+00  0.13853904267E+04  0.13853904267E+04  0.25500000920E-02 0.  1.
       -2   -1    0    0    0  501  0.00000000000E+00  0.00000000000E+00 -0.17216078388E+04  0.17216078388E+04  0.25500000920E-02 0. -1.
    10030    2    1    2    0    0  0.00000000000E+00  0.00000000000E+00 -0.33621741216E+03  0.31069982655E+04  0.30887531584E+04 0.  0.
        5    1    3    3  502    0  0.35171157651E+03  0.91884968634E+03 -0.13655568112E+04  0.16830785109E+04  0.46999998093E+01 0. -1.
       -5    1    3    3    0  502 -0.35171157651E+03 -0.91884968634E+03  0.10293393990E+04  0.14239197546E+04  0.46999998093E+01 0.  1.
</event>
<event>
 5   0  0.7094341E-06  0.2870349E+04  0.7818609E-02  0.8281754E-01
       -2   -1    0    0    0  501  0.00000000000E+00  0.00000000000E+00  0.11561575330E+04  0.11561575330E+04  0.25500000920E-02 0. -1.
        2   -1    0    0  501    0  0.00000000000E+00  0.00000000000E+00 -0.17815275136E+04  0.17815275136E+04  0.25500000920E-02 0.  1.
    10030    2    1    2    0    0  0.00000000000E+00  0.00000000000E+00 -0.62536998054E+03  0.29376850466E+04  0.28703494248E+04 0.  0.
        3    1    3    3  502    0  0.80310047482E+03 -0.56671641122E+03  0.75759510074E+03  0.12410029050E+04  0.10100000352E+00 0. -1.
       -3    1    3    3    0  502 -0.80310047482E+03  0.56671641122E+03 -0.13829650813E+04  0.16966821416E+04  0.10100000352E+00 0.  1.
</event>
<event>
 5   0  0.2598987E-06  0.3025265E+04  0.7818609E-02  0.8236553E-01
        1   -1    0    0  501    0  0.00000000000E+00  0.00000000000E+00  0.21271902847E+04  0.21271902847E+04  0.50400001928E-02 0. -1.
       -1   -1    0    0    0  501  0.00000000000E+00  0.00000000000E+00 -0.10756243633E+04  0.10756243633E+04  0.50400001928E-02 0.  1.
    10030    2    1    2    0    0  0.00000000000E+00  0.00000000000E+00  0.10515659214E+04  0.32028146481E+04  0.30252654070E+04 0.  0.
        2    1    3    3  502    0 -0.69416229134E+03  0.13434122605E+04  0.48560983941E+03  0.15882174614E+04  0.25500000920E-02 0.  1.
       -2    1    3    3    0  502  0.69416229134E+03 -0.13434122605E+04  0.56595608200E+03  0.16145971867E+04  0.25500000920E-02 0. -1.
</event>
<event>
 5   0  0.2517725E-06  0.2922765E+04  0.7818609E-02  0.8266136E-01
       -1   -1    0    0    0  501  0.00000000000E+00  0.00000000000E+00  0.27072548284E+04  0.27072548284E+04  0.50400001928E-02 0.  1.
        1   -1    0    0  501    0  0.00000000000E+00  0.00000000000E+00 -0.78885748265E+03  0.78885748266E+03  0.50400001928E-02 0. -1.
    10030    2    1    2    0    0  0.00000000000E+00  0.00000000000E+00  0.19183973457E+04  0.34961123110E+04  0.29227646014E+04 0.  0.
        3    1    3    3  502    0  0.12519499051E+04  0.44304913524E+03  0.22966757135E+03  0.13477456379E+04  0.10100000352E+00 0. -1.
       -3    1    3    3    0  502 -0.12519499051E+04 -0.44304913524E+03  0.16887297744E+04  0.21483666731E+04  0.10100000352E+00 0.  1.
</event>
<event>
 5   0  0.2393250E-06  0.3034009E+04  0.7818609E-02  0.8234086E-01
        3   -1    0    0  501    0  0.00000000000E+00  0.00000000000E+00  0.21255949741E+04  0.21255949765E+04  0.10100000352E+00 0.  1.
       -3   -1    0    0    0  501  0.00000000000E+00  0.00000000000E+00 -0.10826628201E+04  0.10826628248E+04  0.10100000352E+00 0. -1.
    10030    2    1    2    0    0  0.00000000000E+00  0.00000000000E+00  0.10429321540E+04  0.32082578012E+04  0.30340090048E+04 0.  0.
        4    1    3    3  502    0  0.73002096550E+02  0.68607076073E+03  0.19500869161E+04  0.20685412706E+04  0.12699999809E+01 0.  1.
       -4    1    3    3    0  502 -0.73002096550E+02 -0.68607076073E+03 -0.90715476214E+03  0.11397165306E+04  0.12699999809E+01 0. -1.
</event>
<event>
 5   0  0.2598987E-06  0.2929150E+04  0.7818609E-02  0.8264257E-01
       -1   -1    0    0    0  501  0.00000000000E+00  0.00000000000E+00  0.15202098451E+04  0.15202098451E+04  0.50400001928E-02 0. -1.
        1   -1    0    0  501    0  0.00000000000E+00  0.00000000000E+00 -0.14109762730E+04  0.14109762730E+04  0.50400001928E-02 0.  1.
    10030    2    1    2    0    0  0.00000000000E+00  0.00000000000E+00  0.10923357209E+03  0.29311861182E+04  0.29291500621E+04 0.  0.
        2    1    3    3  502    0  0.56273084916E+03 -0.92317664005E+03 -0.93402687851E+03  0.14287502676E+04  0.25500000920E-02 0.  1.
       -2    1    3    3    0  502 -0.56273084916E+03  0.92317664005E+03  0.10432604506E+04  0.15024358506E+04  0.25500000920E-02 0. -1.
</event>
<event>
 5   0  0.2624011E-06  0.3183757E+04  0.7818609E-02  0.8193120E-01
        1   -1    0    0  501    0  0.00000000000E+00  0.00000000000E+00  0.21645402009E+04  0.21645402009E+04  0.50400001928E-02 0. -1.
       -1   -1    0    0    0  501  0.00000000000E+00  0.00000000000E+00 -0.11707233659E+04  0.11707233659E+04  0.50400001928E-02 0.  1.
    10030    2    1    2    0    0  0.00000000000E+00  0.00000000000E+00  0.99381683500E+03  0.33352635667E+04  0.31837573962E+04 0.  0.
        1    1    3    3  502    0  0.14704764524E+04  0.86123609837E+02  0.11292551093E+04  0.18560537102E+04  0.50400001928E-02 0. -1.
       -1    1    3    3    0  502 -0.14704764524E+04 -0.86123609837E+02 -0.13543827433E+03  0.14792098565E+04  0.50400001928E-02 0.  1.
</event>
<event>
 5   0  0.7071012E-06  0.3089417E+04  0.7818609E-02  0.8218648E-01
        2   -1    0    0  501    0  0.00000000000E+00  0.00000000000E+00  0.15025091847E+04  0.15025091847E+04  0.25500000920E-02 0. -1.
       -2   -1    0    0    0  501  0.00000000000E+00  0.00000000000E+00 -0.15880925935E+04  0.15880925935E+04  0.25500000920E-02 0.  1.
    10030    2    1    2    0    0  0.00000000000E+00  0.00000000000E+00 -0.85583408857E+02  0.30906017782E+04  0.30894165843E+04 0.  0.
        1    1    3    3  502    0  0.11291985587E+04 -0.90490223804E+03  0.49795822712E+03  0.15303267107E+04  0.50400001928E-02 0. -1.
       -1    1    3    3    0  502 -0.11291985587E+04  0.90490223804E+03 -0.58354163597E+03  0.15602750675E+04  0.50400001928E-02 0.  1.
</event>
<event>
 5   0  0.2517725E-06  0.3039085E+04  0.7818609E-02  0.8232657E-01
       -1   -1    0    0    0  501  0.00000000000E+00  0.00000000000E+00  0.18693023119E+04  0.18693023119E+04  0.50400001928E-02 0. -1.
        1   -1    0    0  501    0  0.00000000000E+00  0.00000000000E+00 -0.12352256106E+04  0.12352256106E+04  0.50400001928E-02 0.  1.
    10030    2    1    2    0    0  0.00000000000E+00  0.00000000000E+00  0.63407670131E+03  0.31045279226E+04  0.30390854478E+04 0.  0.
        3    1    3    3  502    0 -0.77383570622E+03  0.71403061282E+02 -0.10168709808E+04  0.12798229172E+04  0.10100000352E+00 0.  1.
       -3    1    3    3    0  502  0.77383570622E+03 -0.71403061282E+02  0.16509476822E+04  0.18247050054E+04  0.10100000352E+00 0. -1.
</event>
<event>
 5   0  0.7414808E-06  0.3445845E+04  0.7818609E-02  0.8126745E-01
       -2   -1    0    0    0  501  0.00000000000E+00  0.00000000000E+00  0.16249343214E+04  0.16249343214E+04  0.25500000920E-02 0.  1.
        2   -1    0    0  501    0  0.00000000000E+00  0.00000000000E+00 -0.18268195943E+04  0.18268195943E+04  0.25500000920E-02 0. -1.
    10030    2    1    2    0    0  0.00000000000E+00  0.00000000000E+00 -0.20188527286E+03  0.34517539157E+04  0.34458449517E+04 0.  0.
        2    1    3    3  502    0 -0.23061026375E+03 -0.12513342621E+04  0.10627048059E+04  0.16578178531E+04  0.25500000920E-02 0.  1.
       -2    1    3    3    0  502  0.23061026375E+03  0.12513342621E+04 -0.12645900788E+04  0.17939360626E+04  0.25500000920E-02 0. -1.
</event>
<event>
 5   0  0.2674441E-06  0.2780751E+04  0.7818609E-02  0.8309269E-01
       -1   -1    0    0    0  501  0.00000000000E+00  0.00000000000E+00  0.74303808869E+03  0.74303808871E+03  0.50400001928E-02 0. -1.
        1   -1    0    0  501    0  0.00000000000E+00  0.00000000000E+00 -0.26016755338E+04  0.26016755338E+04  0.50400001928E-02 0.  1.
    10030    2    1    2    0    0  0.00000000000E+00  0.00000000000E+00 -0.18586374451E+04  0.33447136225E+04  0.27807509893E+04 0.  0.
        5    1    3    3  502    0 -0.10666323835E+03 -0.32524906545E+02  0.73764112191E+03  0.74603715101E+03  0.46999998093E+01 0. -1.
       -5    1    3    3    0  502  0.10666323835E+03  0.32524906545E+02 -0.25962785670E+04  0.25986764715E+04  0.46999998093E+01 0.  1.
</event>
<event>
 5   0  0.7363513E-06  0.3117400E+04  0.7818609E-02  0.8210979E-01
        2   -1    0    0  501    0  0.00000000000E+00  0.00000000000E+00  0.17591413153E+04  0.17591413154E+04  0.25500000920E-02 0.  1.
       -2   -1    0    0    0  501  0.00000000000E+00  0.00000000000E+00 -0.13810979203E+04  0.13810979203E+04  0.25500000920E-02 0. -1.
    10030    2    1    2    0    0  0.00000000000E+00  0.00000000000E+00  0.37804339503E+03  0.31402392357E+04  0.31174004633E+04 0.  0.
        4    1    3    3  502    0 -0.15309994606E+04  0.62816515336E+02  0.47684132351E+03  0.16047693055E+04  0.12699999809E+01 0.  1.
       -4    1    3    3    0  502  0.15309994606E+04 -0.62816515336E+02 -0.98797928480E+02  0.15354699302E+04  0.12699999809E+01 0. -1.
</event>
<event>
 5   0  0.7071012E-06  0.3130440E+04  0.7818609E-02  0.8207433E-01
        2   -1    0    0  501    0  0.00000000000E+00  0.00000000000E+00  0.21771236312E+04  0.21771236312E+04  0.25500000920E-02 0.  1.
       -2   -1    0    0    0  501  0.00000000000E+00  0.00000000000E+00 -0.11252980702E+04  0.11252980702E+04  0.25500000920E-02 0. -1.
    10030    2    1    2    0    0  0.00000000000E+00  0.00000000000E+00  0.10518255610E+04  0.33024217014E+04  0.31304395990E+04 0.  0.
        1    1    3    3  502    0 -0.13833216630E+04 -0.24510764622E+03 -0.20211446278E+03  0.14193332370E+04  0.50400001928E-02 0. -1.
       -1    1    3    3    0  502  0.13833216630E+04  0.24510764622E+03  0.12539400238E+04  0.18830884644E+04  0.50400001928E-02 0.  1.
</event>
<event>
 5   0  0.7071012E-06  0.3121562E+04  0.7818609E-02  0.8209845E-01
        2   -1    0    0  501    0  0.00000000000E+00  0.00000000000E+00  0.16553108708E+04  0.16553108708E+04  0.25500000920E-02 0. -1.
       -2   -1    0    0    0  501  0.00000000000E+00  0.00000000000E+00 -0.14716497341E+04  0.14716497341E+04  0.25500000920E-02 0.  1.
    10030    2    1    2    0    0  0.00000000000E+00  0.00000000000E+00  0.18366113676E+03  0.31269606049E+04  0.31215623030E+04 0.  0.
        1    1    3    3  502    0 -0.13837143511E+03  0.13940686970E+04 -0.59744630631E+03  0.15229958224E+04  0.50400001928E-02 0. -1.
       -1    1    3    3    0  502  0.13837143511E+03 -0.13940686970E+04  0.78110744307E+03  0.16039647826E+04  0.50400001928E-02 0.  1.
</event>
<event>
 5   0  0.2612331E-06  0.3140639E+04  0.7818609E-02  0.8204673E-01
        1   -1    0    0  501    0  0.00000000000E+00  0.00000000000E+00  0.16965069817E+04  0.16965069817E+04  0.50400001928E-02 0. -1.
       -1   -1    0    0    0  501  0.00000000000E+00  0.00000000000E+00 -0.14535181397E+04  0.14535181397E+04  0.50400001928E-02 0.  1.
    10030    2    1    2    0    0  0.00000000000E+00  0.00000000000E+00  0.24298884200E+03  0.31500251214E+04  0.31406392165E+04 0.  0.
        4    1    3    3  502    0 -0.12542090757E+04  0.16846837424E+03 -0.81105843881E+03  0.15030766457E+04  0.12699999809E+01 0.  1.
       -4    1    3    3    0  502  0.12542090757E+04 -0.16846837424E+03  0.10540472808E+04  0.16469484757E+04  0.12699999809E+01 0. -1.
</event>
<event>
 5   0  0.7363513E-06  0.1892490E+04  0.7818609E-02  0.8658604E-01
       -2   -1    0    0    0  501  0.00000000000E+00  0.00000000000E+00  0.59582725153E+03  0.59582725153E+03  0.25500000920E-02 0. -1.
        2   -1    0    0  501    0  0.00000000000E+00  0.00000000000E+00 -0.15027503525E+04  0.15027503525E+04  0.25500000920E-02 0.  1.
    10030    2    1    2    0    0  0.00000000000E+00  0.00000000000E+00 -0.90692310093E+03  0.20985776040E+04  0.18924900129E+04 0.  0.
        4    1    3    3  502    0  0.85701105002E+03  0.39872131131E+03 -0.50219473423E+03  0.10703493766E+04  0.12699999809E+01 0. -1.
       -4    1    3    3    0  502 -0.85701105002E+03 -0.39872131131E+03 -0.40472836671E+03  0.10282282274E+04  0.12699999809E+01 0.  1.
</event>
<event>
 5   0  0.7363513E-06  0.3171955E+04  0.7818609E-02  0.8196263E-01
        2   -1    0    0  501    0  0.00000000000E+00  0.00000000000E+00  0.17790689143E+04  0.17790689143E+04  0.25500000920E-02 0.  1.
       -2   -1    0    0    0  501  0.00000000000E+00  0.00000000000E+00 -0.14138431813E+04  0.14138431813E+04  0.25500000920E-02 0. -1.
    10030    2    1    2    0    0  0.00000000000E+00  0.00000000000E+00  0.36522573303E+03  0.31929120955E+04  0.31719548884E+04 0.  0.
        4    1    3    3  502    0  0.38437575091E+03 -0.29260632172E+03 -0.13379834763E+04  0.14225205001E+04  0.12699999809E+01 0. -1.
       -4    1    3    3    0  502 -0.38437575091E+03  0.29260632172E+03  0.17032092094E+04  0.17703915954E+04  0.12699999809E+01 0.  1.
</event>
<event>
 5   0  0.2598987E-06  0.3174080E+04  0.7818609E-02  0.8195696E-01
       -1   -1    0    0    0  501  0.00000000000E+00  0.00000000000E+00  0.31296798250E+04  0.31296798250E+04  0.50400001928E-02 0.  1.
        1   -1    0    0  501    0  0.00000000000E+00  0.00000000000E+00 -0.80477745021E+03  0.80477745022E+03  0.50400001928E-02 0. -1.
    10030    2    1    2    0    0  0.00000000000E+00  0.00000000000E+00  0.23249023748E+04  0.39344572752E+04  0.31740798664E+04 0.  0.
        2    1    3    3  502    0  0.29545364902E+03 -0.13924447734E+04  0.29254925341E+03  0.14531966046E+04  0.25500000920E-02 0. -1.
       -2    1    3    3    0  502 -0.29545364902E+03  0.13924447734E+04  0.20323531213E+04  0.24812606706E+04  0.25500000920E-02 0.  1.
</event>
<event>
 5   0  0.7071012E-06  0.3126205E+04  0.7818609E-02  0.8208583E-01
       -2   -1    0    0    0  501  0.00000000000E+00  0.00000000000E+00  0.94400509942E+03  0.94400509943E+03  0.25500000920E-02 0. -1.
        2   -1    0    0  501    0  0.00000000000E+00  0.00000000000E+00 -0.25882171647E+04  0.25882171647E+04  0.25500000920E-02 0.  1.
    10030    2    1    2    0    0  0.00000000000E+00  0.00000000000E+00 -0.16442120652E+04  0.35322222641E+04  0.31262054967E+04 0.  0.
        1    1    3    3  502    0  0.57319598557E+03  0.14071784681E+04 -0.40760143541E+03  0.15731636308E+04  0.50400001928E-02 0. -1.
       -1    1    3    3    0  502 -0.57319598557E+03 -0.14071784681E+04 -0.12366106298E+04  0.19590586333E+04  0.50400001928E-02 0.  1.
</event>
<event>
 5   0  0.2517725E-06  0.3141347E+04  0.7818609E-02  0.8204481E-01
        1   -1    0    0  501    0  0.00000000000E+00  0.00000000000E+00  0.14264156446E+04  0.14264156446E+04  0.50400001928E-02 0. -1.
       -1   -1    0    0    0  501  0.00000000000E+00  0.00000000000E+00 -0.17295208722E+04  0.17295208722E+04  0.50400001928E-02 0.  1.
    10030    2    1    2    0    0  0.00000000000E+00  0.00000000000E+00 -0.30310522753E+03  0.31559365168E+04  0.31413472459E+04 0.  0.
        3    1    3    3  502    0  0.59081055116E+02 -0.92147685329E+03  0.11249409251E+04  0.14553701445E+04  0.10100000352E+00 0. -1.
       -3    1    3    3    0  502 -0.59081055116E+02  0.92147685329E+03 -0.14280461527E+04  0.17005663723E+04  0.10100000352E+00 0.  1.
</event>
<event>
 5   0  0.2674441E-06  0.2752361E+04  0.7818609E-02  0.8318213E-01
       -1   -1    0    0    0  501  0.00000000000E+00  0.00000000000E+00  0.18280520129E+04  0.18280520129E+04  0.50400001928E-02 0. -1.
        1   -1    0    0  501    0  0.00000000000E+00  0.00000000000E+00 -0.10360062372E+04  0.10360062372E+04  0.50400001928E-02 0.  1.
    10030    2    1    2    0    0  0.00000000000E+00  0.00000000000E+00  0.79204577570E+03  0.28640582502E+04  0.27523613770E+04 0.  0.
        5    1    3    3  502    0  0.71665453612E+02 -0.88621594162E+02  0.18231241721E+04  0.18266892350E+04  0.46999998093E+01 0. -1.
       -5    1    3    3    0  502 -0.71665453612E+02  0.88621594162E+02 -0.10310783964E+04  0.10373690152E+04  0.46999998093E+01 0.  1.
</event>
<event>
 5   0  0.2674441E-06  0.3131254E+04  0.7818609E-02  0.8207212E-01
        1   -1    0    0  501    0  0.00000000000E+00  0.00000000000E+00  0.22335502103E+04  0.22335502103E+04  0.50400001928E-02 0. -1.
       -1   -1    0    0    0  501  0.00000000000E+00  0.00000000000E+00 -0.10974403517E+04  0.10974403517E+04  0.50400001928E-02 0.  1.
    10030    2    1    2    0    0  0.00000000000E+00  0.00000000000E+00  0.11361098586E+04  0.33309905620E+04  0.31312541439E+04 0.  0.
        5    1    3    3  502    0 -0.11194026388E+03  0.15180273303E+04  0.95779706097E+03  0.17984256721E+04  0.46999998093E+01 0. -1.
       -5    1    3    3    0  502  0.11194026388E+03 -0.15180273303E+04  0.17831279766E+03  0.15325648899E+04  0.46999998093E+01 0.  1.
</event>
<event>
 5   0  0.2598987E-06  0.3063728E+04  0.7818609E-02  0.8225764E-01
        1   -1    0    0  501    0  0.00000000000E+00  0.00000000000E+00  0.86620521227E+03  0.86620521228E+03  0.50400001928E-02 0.  1.
       -1   -1    0    0    0  501  0.00000000000E+00  0.00000000000E+00 -0.27090655802E+04  0.27090655802E+04  0.50400001928E-02 0. -1.
    10030    2    1    2    0    0  0.00000000000E+00  0.00000000000E+00 -0.18428603680E+04  0.35752707925E+04  0.30637276158E+04 0.  0.
        2    1    3    3  502    0 -0.89096805823E+03 -0.24061729521E+03 -0.23482292673E+04  0.25230738110E+04  0.25500000920E-02 0. -1.
       -2    1    3    3    0  502  0.89096805823E+03  0.24061729521E+03  0.50536889937E+03  0.10521969816E+04  0.25500000920E-02 0.  1.
</event>
<event>
 5   0  0.7094341E-06  0.3057485E+04  0.7818609E-02  0.8227503E-01
       -2   -1    0    0    0  501  0.00000000000E+00  0.00000000000E+00  0.10596064898E+04  0.10596064898E+04  0.25500000920E-02 0. -1.
        2   -1    0    0  501    0  0.00000000000E+00  0.00000000000E+00 -0.22055868661E+04  0.22055868661E+04  0.25500000920E-02 0.  1.
    10030    2    1    2    0    0  0.00000000000E+00  0.00000000000E+00 -0.11459803763E+04  0.32651933558E+04  0.30574853439E+04 0.  0.
        3    1    3    3  502    0 -0.45752554554E+03 -0.13974661720E+04 -0.10195001572E+04  0.17893076615E+04  0.10100000352E+00 0. -1.
       -3    1    3    3    0  502  0.45752554554E+03  0.13974661720E+04 -0.12648021905E+03  0.14758856943E+04  0.10100000352E+00 0.  1.
</event>
<event>
 5   0  0.7079223E-06  0.3103760E+04  0.7818609E-02  0.8214707E-01
        2   -1    0    0  501    0  0.00000000000E+00  0.00000000000E+00  0.21593710204E+04  0.21593710204E+04  0.25500000920E-02 0. -1.
       -2   -1    0    0    0  501  0.00000000000E+00  0.00000000000E+00 -0.11152934248E+04  0.11152934248E+04  0.25500000920E-02 0.  1.
    10030    2    1    2    0    0  0.00000000000E+00  0.00000000000E+00  0.10440775956E+04  0.32746644452E+04  0.31037604938E+04 0.  0.
        5    1    3    3  502    0  0.54036261121E+03  0.39945605605E+02 -0.10122436904E+04  0.11481492855E+04  0.46999998093E+01 0.  1.
       -5    1    3    3    0  502 -0.54036261121E+03 -0.39945605605E+02  0.20563212860E+04  0.21265151596E+04  0.46999998093E+01 0. -1.
</event>
<event>
 5   0  0.7414808E-06  0.3112350E+04  0.7818609E-02  0.8212357E-01
        2   -1    0    0  501    0  0.00000000000E+00  0.00000000000E+00  0.23446854680E+04  0.23446854680E+04  0.25500000920E-02 0. -1.
       -2   -1    0    0    0  501  0.00000000000E+00  0.00000000000E+00 -0.10328381225E+04  0.10328381225E+04  0.25500000920E-02 0.  1.
    10030    2    1    2    0    0  0.00000000000E+00  0.00000000000E+00  0.13118473455E+04  0.33775235906E+04  0.31123499396E+04 0.  0.
        2    1    3    3  502    0  0.10269527308E+04  0.11692022537E+04  0.66008653958E+03  0.16903786739E+04  0.25500000920E-02 0. -1.
       -2    1    3    3    0  502 -0.10269527308E+04 -0.11692022537E+04  0.65176080597E+03  0.16871449166E+04  0.25500000920E-02 0.  1.
</event>
<event>
 5   0  0.2598987E-06  0.2951603E+04  0.7818609E-02  0.8257687E-01
        1   -1    0    0  501    0  0.00000000000E+00  0.00000000000E+00  0.65508752482E+03  0.65508752484E+03  0.50400001928E-02 0.  1.
       -1   -1    0    0    0  501  0.00000000000E+00  0.00000000000E+00 -0.33247321926E+04  0.33247321926E+04  0.50400001928E-02 0. -1.
    10030    2    1    2    0    0  0.00000000000E+00  0.00000000000E+00 -0.26696446678E+04  0.39798197174E+04  0.29516033492E+04 0.  0.
        2    1    3    3  502    0 -0.92395992140E+03  0.11726775913E+03 -0.28784055043E+04  0.30253383134E+04  0.25500000920E-02 0. -1.
       -2    1    3    3    0  502  0.92395992140E+03 -0.11726775913E+03  0.20876083651E+03  0.95448140399E+03  0.25500000920E-02 0.  1.
</event>
<event>
 5   0  0.7071012E-06  0.3206300E+04  0.7818609E-02  0.8187155E-01
        2   -1    0    0  501    0  0.00000000000E+00  0.00000000000E+00  0.20951195296E+04  0.20951195296E+04  0.25500000920E-02 0. -1.
       -2   -1    0    0    0  501  0.00000000000E+00  0.00000000000E+00 -0.12267035293E+04  0.12267035293E+04  0.25500000920E-02 0.  1.
    10030    2    1    2    0    0  0.00000000000E+00  0.00000000000E+00  0.86841600027E+03  0.33218230589E+04  0.32063003735E+04 0.  0.
        1    1    3    3  502    0  0.49692579986E+03  0.96364519082E+03  0.16576637847E+04  0.19807565544E+04  0.50400001928E-02 0. -1.
       -1    1    3    3    0  502 -0.49692579986E+03 -0.96364519082E+03 -0.78924778448E+03  0.13410665046E+04  0.50400001928E-02 0.  1.
</event>
<event>
 5   0  0.2393250E-06  0.3066035E+04  0.7818609E-02  0.8225122E-01
       -3   -1    0    0    0  501  0.00000000000E+00  0.00000000000E+00  0.10795947791E+04  0.10795947839E+04  0.10100000352E+00 0.  1.
        3   -1    0    0  501    0  0.00000000000E+00  0.00000000000E+00 -0.21768748782E+04  0.21768748805E+04  0.10100000352E+00 0. -1.
    10030    2    1    2    0    0  0.00000000000E+00  0.00000000000E+00 -0.10972800990E+04  0.32564696644E+04  0.30660350714E+04 0.  0.
        3    1    3    3  502    0  0.15234193865E+04  0.11627062709E+02 -0.36714351936E+03  0.15670788716E+04  0.10100000352E+00 0.  1.
       -3    1    3    3    0  502 -0.15234193865E+04 -0.11627062709E+02 -0.73013657966E+03  0.16893907928E+04  0.10100000352E+00 0. -1.
</event>
<event>
 5   0  0.2393250E-06  0.2802422E+04  0.7818609E-02  0.8302517E-01
        4   -1    0    0  501    0  0.00000000000E+00  0.00000000000E+00  0.12788648247E+04  0.12788654553E+04  0.12699999809E+01 0. -1.
       -4   -1    0    0    0  501  0.00000000000E+00  0.00000000000E+00 -0.15352601097E+04  0.15352606350E+04  0.12699999809E+01 0.  1.
    10030    2    1    2    0    0  0.00000000000E+00  0.00000000000E+00 -0.25639528498E+03  0.28141260903E+04  0.28024216510E+04 0.  0.
        5    1    3    3  502    0 -0.25859478538E+03  0.11282121756E+04 -0.92120197701E+03  0.14793137424E+04  0.46999998093E+01 0.  1.
       -5    1    3    3    0  502  0.25859478538E+03 -0.11282121756E+04  0.66480669203E+03  0.13348123478E+04  0.46999998093E+01 0. -1.
</event>
<event>
 5   0  0.2624011E-06  0.3099204E+04  0.7818609E-02  0.8215956E-01
        1   -1    0    0  501    0  0.00000000000E+00  0.00000000000E+00  0.19458464821E+04  0.19458464821E+04  0.50400001928E-02 0.  1.
       -1   -1    0    0    0  501  0.00000000000E+00  0.00000000000E+00 -0.12340469487E+04  0.12340469487E+04  0.50400001928E-02 0. -1.
    10030    2    1    2    0    0  0.00000000000E+00  0.00000000000E+00  0.71179953342E+03  0.31798934309E+04  0.30992037132E+04 0.  0.
        1    1    3    3  502    0 -0.78699772609E+03 -0.11955257506E+03 -0.10082290430E+04  0.12845948942E+04  0.50400001928E-02 0. -1.
       -1    1    3    3    0  502  0.78699772609E+03  0.11955257506E+03  0.17200285765E+04  0.18952985366E+04  0.50400001928E-02 0.  1.
</event>
<event>
 5   0  0.2517725E-06  0.3033414E+04  0.7818609E-02  0.8234253E-01
        1   -1    0    0  501    0  0.00000000000E+00  0.00000000000E+00  0.18108361801E+04  0.18108361801E+04  0.50400001928E-02 0. -1.
       -1   -1    0    0    0  501  0.00000000000E+00  0.00000000000E+00 -0.12703525428E+04  0.12703525428E+04  0.50400001928E-02 0.  1.
    10030    2    1    2    0    0  0.00000000000E+00  0.00000000000E+00  0.54048363736E+03  0.30811887229E+04  0.30334141465E+04 0.  0.
        3    1    3    3  502    0  0.11031670330E+04 -0.10155141752E+04  0.50221060016E+03  0.15812849332E+04  0.10100000352E+00 0. -1.
       -3    1    3    3    0  502 -0.11031670330E+04  0.10155141752E+04  0.38273037198E+02  0.14999037897E+04  0.10100000352E+00 0.  1.
</event>
<event>
 5   0  0.2598987E-06  0.3078448E+04  0.7818609E-02  0.8221678E-01
       -1   -1    0    0    0  501  0.00000000000E+00  0.00000000000E+00  0.13957343125E+04  0.13957343125E+04  0.50400001928E-02 0.  1.
        1   -1    0    0  501    0  0.00000000000E+00  0.00000000000E+00 -0.16974658189E+04  0.16974658189E+04  0.50400001928E-02 0. -1.
    10030    2    1    2    0    0  0.00000000000E+00  0.00000000000E+00 -0.30173150638E+03  0.30932001315E+04  0.30784484974E+04 0.  0.
        2    1    3    3  502    0 -0.12630495379E+04  0.72653169166E+03 -0.64929607064E+03  0.15952203050E+04  0.25500000920E-02 0. -1.
       -2    1    3    3    0  502  0.12630495379E+04 -0.72653169166E+03  0.34756456426E+03  0.14979798265E+04  0.25500000920E-02 0.  1.
</event>
<event>
 5   0  0.2517725E-06  0.3166747E+04  0.7818609E-02  0.8197655E-01
       -1   -1    0    0    0  501  0.00000000000E+00  0.00000000000E+00  0.81378586637E+03  0.81378586639E+03  0.50400001928E-02 0. -1.
        1   -1    0    0  501    0  0.00000000000E+00  0.00000000000E+00 -0.30807510266E+04  0.30807510266E+04  0.50400001928E-02 0.  1.
    10030    2    1    2    0    0  0.00000000000E+00  0.00000000000E+00 -0.22669651602E+04  0.38945368930E+04  0.31667470018E+04 0.  0.
        3    1    3    3  502    0 -0.80486593769E+02 -0.40273532707E+03  0.74714002009E+03  0.85257964746E+03  0.10100000352E+00 0. -1.
       -3    1    3    3    0  502  0.80486593769E+02  0.40273532707E+03 -0.30141051803E+04  0.30419572455E+04  0.10100000352E+00 0.  1.
</event>
<event>
 5   0  0.2612331E-06  0.3219849E+04  0.7818609E-02  0.8183595E-01
        1   -1    0    0  501    0  0.00000000000E+00  0.00000000000E+00  0.22946044489E+04  0.22946044489E+04  0.50400001928E-02 0. -1.
       -1   -1    0    0    0  501  0.00000000000E+00  0.00000000000E+00 -0.11295441676E+04  0.11295441676E+04  0.50400001928E-02 0.  1.
    10030    2    1    2    0    0  0.00000000000E+00  0.00000000000E+00  0.11650602813E+04  0.34241486165E+04  0.32198491096E+04 0.  0.
        4    1    3    3  502    0  0.80887727202E+03  0.11591075243E+04 -0.23711513753E+03  0.14331915069E+04  0.12699999809E+01 0.  1.
       -4    1    3    3    0  502 -0.80887727202E+03 -0.11591075243E+04  0.14021754189E+04  0.19909571096E+04  0.12699999809E+01 0. -1.
</event>
<event>
 5   0  0.2598987E-06  0.3070268E+04  0.7818609E-02  0.8223945E-01
        1   -1    0    0  501    0  0.00000000000E+00  0.00000000000E+00  0.18202481299E+04  0.18202481299E+04  0.50400001928E-02 0.  1.
       -1   -1    0    0    0  501  0.00000000000E+00  0.00000000000E+00 -0.12946783362E+04  0.12946783362E+04  0.50400001928E-02 0. -1.
    10030    2    1    2    0    0  0.00000000000E+00  0.00000000000E+00  0.52556979374E+03  0.31149264661E+04  0.30702676237E+04 0.  0.
        2    1    3    3  502    0 -0.14874496665E+04 -0.14519878549E+03 -0.93097424530E+02  0.14974165513E+04  0.25500000920E-02 0. -1.
       -2    1    3    3    0  502  0.14874496665E+04  0.14519878549E+03  0.61866721826E+03  0.16175099148E+04  0.25500000920E-02 0.  1.
</event>
<event>
 5   0  0.7414808E-06  0.2896158E+04  0.7818609E-02  0.8274022E-01
        2   -1    0    0  501    0  0.00000000000E+00  0.00000000000E+00  0.19660736916E+04  0.19660736916E+04  0.25500000920E-02 0. -1.
       -2   -1    0    0    0  501  0.00000000000E+00  0.00000000000E+00 -0.10665583473E+04  0.10665583473E+04  0.25500000920E-02 0.  1.
    10030    2    1    2    0    0  0.00000000000E+00  0.00000000000E+00  0.89951534434E+03  0.30326320389E+04  0.28961576664E+04 0.  0.
        2    1    3    3  502    0 -0.58093361082E+03  0.13049271577E+04  0.20060947411E+03  0.14424156503E+04  0.25500000920E-02 0.  1.
       -2    1    3    3    0  502  0.58093361082E+03 -0.13049271577E+04  0.69890587022E+03  0.15902163886E+04  0.25500000920E-02 0. -1.
</event>
<event>
 5   0  0.2598987E-06  0.3054557E+04  0.7818609E-02  0.8228321E-01
        1   -1    0    0  501    0  0.00000000000E+00  0.00000000000E+00  0.22901042397E+04  0.22901042398E+04  0.50400001928E-02 0.  1.
       -1   -1    0    0    0  501  0.00000000000E+00  0.00000000000E+00 -0.10185472132E+04  0.10185472132E+04  0.50400001928E-02 0. -1.
    10030    2    1    2    0    0  0.00000000000E+00  0.00000000000E+00  0.12715570265E+04  0.33086514530E+04  0.30545567871E+04 0.  0.
        2    1    3    3  502    0  0.14055517996E+04  0.48198939407E+03  0.25329032702E+03  0.15073306296E+04  0.25500000920E-02 0. -1.
       -2    1    3    3    0  502 -0.14055517996E+04 -0.48198939407E+03  0.10182666995E+04  0.18013208233E+04  0.25500000920E-02 0.  1.
</event>
<event>
 5   0  0.2674441E-06  0.3108286E+04  0.7818609E-02  0.8213468E-01
        1   -1    0    0  501    0  0.00000000000E+00  0.00000000000E+00  0.20144504904E+04  0.20144504904E+04  0.50400001928E-02 0.  1.
       -1   -1    0    0    0  501  0.00000000000E+00  0.00000000000E+00 -0.11990168125E+04  0.11990168125E+04  0.50400001928E-02 0. -1.
    10030    2    1    2    0    0  0.00000000000E+00  0.00000000000E+00  0.81543367786E+03  0.32134673029E+04  0.31082857050E+04 0.  0.
        5    1    3    3  502    0  0.58331825408E+03 -0.13975341901E+04  0.76878567151E+03  0.16983567048E+04  0.46999998093E+01 0.  1.
       -5    1    3    3    0  502 -0.58331825408E+03  0.13975341901E+04  0.46648006348E+02  0.15151105981E+04  0.46999998093E+01 0. -1.
</event>
<event>
 5   0  0.2393250E-06  0.2115962E+04  0.7818609E-02  0.8554244E-01
       -3   -1    0    0    0  501  0.00000000000E+00  0.00000000000E+00  0.75143215892E+03  0.75143216571E+03  0.10100000352E+00 0. -1.
        3   -1    0    0  501    0  0.00000000000E+00  0.00000000000E+00 -0.14895873941E+04  0.14895873975E+04  0.10100000352E+00 0.  1.
    10030    2    1    2    0    0  0.00000000000E+00  0.00000000000E+00 -0.73815523514E+03  0.22410195632E+04  0.21159620818E+04 0.  0.
        4    1    3    3  502    0 -0.74568313079E+03 -0.60552187398E+03  0.10055044569E+03  0.96582196933E+03  0.12699999809E+01 0.  1.
       -4    1    3    3    0  502  0.74568313079E+03  0.60552187398E+03 -0.83870568082E+03  0.12751975939E+04  0.12699999809E+01 0. -1.
</event>
<event>
 5   0  0.7094341E-06  0.3149924E+04  0.7818609E-02  0.8202169E-01
       -2   -1    0    0    0  501  0.00000000000E+00  0.00000000000E+00  0.15395864555E+04  0.15395864555E+04  0.25500000920E-02 0. -1.
        2   -1    0    0  501    0  0.00000000000E+00  0.00000000000E+00 -0.16111500158E+04  0.16111500158E+04  0.25500000920E-02 0.  1.
    10030    2    1    2    0    0  0.00000000000E+00  0.00000000000E+00 -0.71563560309E+02  0.31507364713E+04  0.31499236449E+04 0.  0.
        3    1    3    3  502    0  0.12081687816E+03  0.11810966921E+04 -0.10709007987E+04  0.15988791840E+04  0.10100000352E+00 0.  1.
       -3    1    3    3    0  502 -0.12081687816E+03 -0.11810966921E+04  0.99933723841E+03  0.15518572874E+04  0.10100000352E+00 0. -1.
</event>
<event>
 5   0  0.7094341E-06  0.1948819E+04  0.7818609E-02  0.8630930E-01
       -2   -1    0    0    0  501  0.00000000000E+00  0.00000000000E+00  0.52292237039E+03  0.52292237040E+03  0.25500000920E-02 0.  1.
        2   -1    0    0  501    0  0.00000000000E+00  0.00000000000E+00 -0.18157076733E+04  0.18157076733E+04  0.25500000920E-02 0. -1.
    10030    2    1    2    0    0  0.00000000000E+00  0.00000000000E+00 -0.12927853029E+04  0.23386300437E+04  0.19488192943E+04 0.  0.
        3    1    3    3  502    0 -0.17855669694E+03 -0.50673043639E+03 -0.16218992309E+04  0.17085711441E+04  0.10100000352E+00 0. -1.
       -3    1    3    3    0  502  0.17855669694E+03  0.50673043639E+03  0.32911392795E+03  0.63005889960E+03  0.10100000352E+00 0.  1.
</event>
<event>
 5   0  0.7363513E-06  0.3016860E+04  0.7818609E-02  0.8238933E-01
       -2   -1    0    0    0  501  0.00000000000E+00  0.00000000000E+00  0.13015568035E+04  0.13015568035E+04  0.25500000920E-02 0. -1.
        2   -1    0    0  501    0  0.00000000000E+00  0.00000000000E+00 -0.17481839018E+04  0.17481839018E+04  0.25500000920E-02 0.  1.
    10030    2    1    2    0    0  0.00000000000E+00  0.00000000000E+00 -0.44662709832E+03  0.30497407053E+04  0.30168597258E+04 0.  0.
        4    1    3    3  502    0 -0.11417252118E+04  0.53260578171E+03  0.61527805731E+03  0.14020606544E+04  0.12699999809E+01 0. -1.
       -4    1    3    3    0  502  0.11417252118E+04 -0.53260578171E+03 -0.10619051556E+04  0.16476800510E+04  0.12699999809E+01 0.  1.
</event>
<event>
 5   0  0.7094341E-06  0.3073388E+04  0.7818609E-02  0.8223079E-01
        2   -1    0    0  501    0  0.00000000000E+00  0.00000000000E+00  0.12177774221E+04  0.12177774221E+04  0.25500000920E-02 0. -1.
       -2   -1    0    0    0  501  0.00000000000E+00  0.00000000000E+00 -0.19391301969E+04  0.19391301969E+04  0.25500000920E-02 0.  1.
    10030    2    1    2    0    0  0.00000000000E+00  0.00000000000E+00 -0.72135277479E+03  0.31569076190E+04  0.30733883401E+04 0.  0.
        3    1    3    3  502    0 -0.45182935365E+03 -0.83923188950E+03 -0.15988245375E+04  0.18613704201E+04  0.10100000352E+00 0.  1.
       -3    1    3    3    0  502  0.45182935365E+03  0.83923188950E+03  0.87747176268E+03  0.12955371989E+04  0.10100000352E+00 0. -1.
</event>
<event>
 5   0  0.7071012E-06  0.2987876E+04  0.7818609E-02  0.8247201E-01
       -2   -1    0    0    0  501  0.00000000000E+00  0.00000000000E+00  0.13229609621E+04  0.13229609621E+04  0.25500000920E-02 0.  1.
        2   -1    0    0  501    0  0.00000000000E+00  0.00000000000E+00 -0.16870119893E+04  0.16870119893E+04  0.25500000920E-02 0. -1.
    10030    2    1    2    0    0  0.00000000000E+00  0.00000000000E+00 -0.36405102724E+03  0.30099729514E+04  0.29878761718E+04 0.  0.
        1    1    3    3  502    0 -0.70271532603E+03 -0.90481022738E+03 -0.11479494946E+04  0.16218133121E+04  0.50400001928E-02 0. -1.
       -1    1    3    3    0  502  0.70271532603E+03  0.90481022738E+03  0.78389846741E+03  0.13881596393E+04  0.50400001928E-02 0.  1.
</event>
<event>
 5   0  0.7094341E-06  0.3099501E+04  0.7818609E-02  0.8215875E-01
       -2   -1    0    0    0  501  0.00000000000E+00  0.00000000000E+00  0.11059897715E+04  0.11059897715E+04  0.25500000920E-02 0.  1.
        2   -1    0    0  501    0  0.00000000000E+00  0.00000000000E+00 -0.21715633633E+04  0.21715633633E+04  0.25500000920E-02 0. -1.
    10030    2    1    2    0    0  0.00000000000E+00  0.00000000000E+00 -0.10655735918E+04  0.32775531347E+04  0.30995011649E+04 0.  0.
        3    1    3    3  502    0 -0.14504325353E+04  0.87674906128E+02  0.36945128811E+02  0.14535495799E+04  0.10100000352E+00 0. -1.
       -3    1    3    3    0  502  0.14504325353E+04 -0.87674906128E+02 -0.11025187206E+04  0.18240035548E+04  0.10100000352E+00 0.  1.
</event>
<event>
 5   0  0.7079223E-06  0.3167475E+04  0.7818609E-02  0.8197460E-01
        2   -1    0    0  501    0  0.00000000000E+00  0.00000000000E+00  0.23185545593E+04  0.23185545593E+04  0.25500000920E-02 0. -1.
       -2   -1    0    0    0  501  0.00000000000E+00  0.00000000000E+00 -0.10818053930E+04  0.10818053931E+04  0.25500000920E-02 0.  1.
    10030    2    1    2    0    0  0.00000000000E+00  0.00000000000E+00  0.12367491663E+04  0.34003599524E+04  0.31674752257E+04 0.  0.
        5    1    3    3  502    0 -0.89245417728E+03 -0.44469327754E+03 -0.70252920339E+03  0.12197524098E+04  0.46999998093E+01 0.  1.
       -5    1    3    3    0  502  0.89245417728E+03  0.44469327754E+03  0.19392783696E+04  0.21806075425E+04  0.46999998093E+01 0. -1.
</event>
<event>
 5   0  0.2517725E-06  0.3070698E+04  0.7818609E-02  0.8223826E-01
       -1   -1    0    0    0  501  0.00000000000E+00  0.00000000000E+00  0.11516705435E+04  0.11516705435E+04  0.50400001928E-02 0. -1.
        1   -1    0    0  501    0  0.00000000000E+00  0.00000000000E+00 -0.20468498461E+04  0.20468498461E+04  0.50400001928E-02 0.  1.
    10030    2    1    2    0    0  0.00000000000E+00  0.00000000000E+00 -0.89517930259E+03  0.31985203895E+04  0.30706980800E+04 0.  0.
        3    1    3    3  502    0 -0.13212050957E+04  0.67264197664E+03 -0.31895163134E+02  0.14829185566E+04  0.10100000352E+00 0. -1.
       -3    1    3    3    0  502  0.13212050957E+04 -0.67264197664E+03 -0.86328413945E+03  0.17156018330E+04  0.10100000352E+00 0.  1.
</event>
<event>
 5   0  0.2624011E-06  0.3134851E+04  0.7818609E-02  0.8206238E-01
        1   -1    0    0  501    0  0.00000000000E+00  0.00000000000E+00  0.18816803977E+04  0.18816803977E+04  0.50400001928E-02 0. -1.
       -1   -1    0    0    0  501  0.00000000000E+00  0.00000000000E+00 -0.13056536474E+04  0.13056536474E+04  0.50400001928E-02 0.  1.
    10030    2    1    2    0    0  0.00000000000E+00  0.00000000000E+00  0.57602675024E+03  0.31873340451E+04  0.31348511126E+04 0.  0.
        1    1    3    3  502    0 -0.67731030191E+03  0.11469453341E+04  0.11280353218E+04  0.17454788833E+04  0.50400001928E-02 0. -1.
       -1    1    3    3    0  502  0.67731030191E+03 -0.11469453341E+04 -0.55200857161E+03  0.14418551618E+04  0.50400001928E-02 0.  1.
</event>
<event>
 5   0  0.2517725E-06  0.3114345E+04  0.7818609E-02  0.8211812E-01
       -1   -1    0    0    0  501  0.00000000000E+00  0.00000000000E+00  0.12744249327E+04  0.12744249327E+04  0.50400001928E-02 0. -1.
        1   -1    0    0  501    0  0.00000000000E+00  0.00000000000E+00 -0.19026516168E+04  0.19026516168E+04  0.50400001928E-02 0.  1.
    10030    2    1    2    0    0  0.00000000000E+00  0.00000000000E+00 -0.62822668407E+03  0.31770765495E+04  0.31143452979E+04 0.  0.
        3    1    3    3  502    0 -0.14987059337E+03  0.18422816718E+03  0.12558413073E+04  0.12780996095E+04  0.10100000352E+00 0. -1.
       -3    1    3    3    0  502  0.14987059337E+03 -0.18422816718E+03 -0.18840679914E+04  0.18989769400E+04  0.10100000352E+00 0.  1.
</event>
<event>
 5   0  0.2624011E-06  0.3093782E+04  0.7818609E-02  0.8217446E-01
       -1   -1    0    0    0  501  0.00000000000E+00  0.00000000000E+00  0.14347349928E+04  0.14347349928E+04  0.50400001928E-02 0. -1.
        1   -1    0    0  501    0  0.00000000000E+00  0.00000000000E+00 -0.16678144925E+04  0.16678144925E+04  0.50400001928E-02 0.  1.
    10030    2    1    2    0    0  0.00000000000E+00  0.00000000000E+00 -0.23307949975E+03  0.31025494853E+04  0.30937820310E+04 0.  0.
        1    1    3    3  502    0  0.24471638052E+03  0.24091748740E+03 -0.16291059963E+04  0.16649065109E+04  0.50400001928E-02 0.  1.
       -1    1    3    3    0  502 -0.24471638052E+03 -0.24091748740E+03  0.13960264966E+04  0.14376429744E+04  0.50400001928E-02 0. -1.
</event>
<event>
 5   0  0.2612331E-06  0.3161782E+04  0.7818609E-02  0.8198984E-01
       -1   -1    0    0    0  501  0.00000000000E+00  0.00000000000E+00  0.10284255639E+04  0.10284255639E+04  0.50400001928E-02 0. -1.
        1   -1    0    0  501    0  0.00000000000E+00  0.00000000000E+00 -0.24301390321E+04  0.24301390321E+04  0.50400001928E-02 0.  1.
    10030    2    1    2    0    0  0.00000000000E+00  0.00000000000E+00 -0.14017134682E+04  0.34585645960E+04  0.31617824748E+04 0.  0.
        4    1    3    3  502    0 -0.28676550573E+03  0.13999647551E+04  0.38680219992E+02  0.14295571143E+04  0.12699999809E+01 0. -1.
       -4    1    3    3    0  502  0.28676550573E+03 -0.13999647551E+04 -0.14403936882E+04  0.20290074817E+04  0.12699999809E+01 0.  1.
</event>
<event>
 5   0  0.7363513E-06  0.3022702E+04  0.7818609E-02  0.8237278E-01
        2   -1    0    0  501    0  0.00000000000E+00  0.00000000000E+00  0.22297364649E+04  0.22297364649E+04  0.25500000920E-02 0.  1.
       -2   -1    0    0    0  501  0.00000000000E+00  0.00000000000E+00 -0.10244180398E+04  0.10244180398E+04  0.25500000920E-02 0. -1.
    10030    2    1    2    0    0  0.00000000000E+00  0.00000000000E+00  0.12053184251E+04  0.32541545047E+04  0.30227022736E+04 0.  0.
        4    1    3    3  502    0 -0.69897716167E+03  0.75546764629E+03  0.17941470270E+04  0.20683968683E+04  0.12699999809E+01 0.  1.
       -4    1    3    3    0  502  0.69897716167E+03 -0.75546764629E+03 -0.58882860192E+03  0.11857576365E+04  0.12699999809E+01 0. -1.
</event>
<event>
 5   0  0.7079223E-06  0.3054781E+04  0.7818609E-02  0.8228259E-01
        2   -1    0    0  501    0  0.00000000000E+00  0.00000000000E+00  0.21762967871E+04  0.21762967871E+04  0.25500000920E-02 0. -1.
       -2   -1    0    0    0  501  0.00000000000E+00  0.00000000000E+00 -0.10719682657E+04  0.10719682657E+04  0.25500000920E-02 0.  1.
    10030    2    1    2    0    0  0.00000000000E+00  0.00000000000E+00  0.11043285214E+04  0.32482650528E+04  0.30547805764E+04 0.  0.
        5    1    3    3  502    0 -0.88419747556E+03  0.28364532180E+03  0.18416736300E+04  0.20625333194E+04  0.46999998093E+01 0. -1.
       -5    1    3    3    0  502  0.88419747556E+03 -0.28364532180E+03 -0.73734510857E+03  0.11857317334E+04  0.46999998093E+01 0.  1.
</event>
<event>
 5   0  0.2624011E-06  0.3087367E+04  0.7818609E-02  0.8219214E-01
        1   -1    0    0  501    0  0.00000000000E+00  0.00000000000E+00  0.14898455748E+04  0.14898455748E+04  0.50400001928E-02 0.  1.
       -1   -1    0    0    0  501  0.00000000000E+00  0.00000000000E+00 -0.15994665636E+04  0.15994665636E+04  0.50400001928E-02 0. -1.
    10030    2    1    2    0    0  0.00000000000E+00  0.00000000000E+00 -0.10962098886E+03  0.30893121384E+04  0.30873666331E+04 0.  0.
        1    1    3    3  502    0  0.12338324055E+04 -0.12098152910E+02  0.87338894726E+03  0.15117198892E+04  0.50400001928E-02 0.  1.
       -1    1    3    3    0  502 -0.12338324055E+04  0.12098152910E+02 -0.98300993612E+03  0.15775922492E+04  0.50400001928E-02 0. -1.
</event>
<event>
 5   0  0.7094341E-06  0.2708226E+04  0.7818609E-02  0.8332341E-01
       -2   -1    0    0    0  501  0.00000000000E+00  0.00000000000E+00  0.91825947539E+03  0.91825947539E+03  0.25500000920E-02 0. -1.
        2   -1    0    0  501    0  0.00000000000E+00  0.00000000000E+00 -0.19968449291E+04  0.19968449291E+04  0.25500000920E-02 0.  1.
    10030    2    1    2    0    0  0.00000000000E+00  0.00000000000E+00 -0.10785854537E+04  0.29151044045E+04  0.27082258230E+04 0.  0.
        3    1    3    3  502    0  0.12961780446E+04 -0.38976675521E+03 -0.58269830344E+03  0.14736122183E+04  0.10100000352E+00 0.  1.
       -3    1    3    3    0  502 -0.12961780446E+04  0.38976675521E+03 -0.49588715029E+03  0.14414921862E+04  0.10100000352E+00 0. -1.
</event>
<event>
 5   0  0.7071012E-06  0.3096719E+04  0.7818609E-02  0.8216639E-01
        2   -1    0    0  501    0  0.00000000000E+00  0.00000000000E+00  0.15172978798E+04  0.15172978798E+04  0.25500000920E-02 0. -1.
       -2   -1    0    0    0  501  0.00000000000E+00  0.00000000000E+00 -0.15800571728E+04  0.15800571728E+04  0.25500000920E-02 0.  1.
    10030    2    1    2    0    0  0.00000000000E+00  0.00000000000E+00 -0.62759293010E+02  0.30973550526E+04  0.30967191660E+04 0.  0.
        1    1    3    3  502    0 -0.13982100079E+04  0.34167846434E+03  0.53942309110E+03  0.15371117950E+04  0.50400001928E-02 0.  1.
       -1    1    3    3    0  502  0.13982100079E+04 -0.34167846434E+03 -0.60218238411E+03  0.15602432576E+04  0.50400001928E-02 0. -1.
</event>
<event>
 5   0  0.7414808E-06  0.3011282E+04  0.7818609E-02  0.8240517E-01
        2   -1    0    0  501    0  0.00000000000E+00  0.00000000000E+00  0.19251043169E+04  0.19251043169E+04  0.25500000920E-02 0. -1.
       -2   -1    0    0    0  501  0.00000000000E+00  0.00000000000E+00 -0.11775748211E+04  0.11775748211E+04  0.25500000920E-02 0.  1.
    10030    2    1    2    0    0  0.00000000000E+00  0.00000000000E+00  0.74752949579E+03  0.31026791379E+04  0.30112817015E+04 0.  0.
        2    1    3    3  502    0  0.14242201815E+04 -0.39111676387E+03  0.67518254304E+03  0.16239602566E+04  0.25500000920E-02 0. -1.
       -2    1    3    3    0  502 -0.14242201815E+04  0.39111676387E+03  0.72346952754E+02  0.14787188813E+04  0.25500000920E-02 0.  1.
</event>
<event>
 5   0  0.2598987E-06  0.3223046E+04  0.7818609E-02  0.8182757E-01
        1   -1    0    0  501    0  0.00000000000E+00  0.00000000000E+00  0.21039631688E+04  0.21039631688E+04  0.50400001928E-02 0.  1.
       -1   -1    0    0    0  501  0.00000000000E+00  0.00000000000E+00 -0.12343402179E+04  0.12343402179E+04  0.50400001928E-02 0. -1.
    10030    2    1    2    0    0  0.00000000000E+00  0.00000000000E+00  0.86962295098E+03  0.33383033867E+04  0.32230459855E+04 0.  0.
        2    1    3    3  502    0  0.10486280713E+04 -0.59523001073E+03  0.15421971425E+04  0.19576239740E+04  0.25500000920E-02 0.  1.
       -2    1    3    3    0  502 -0.10486280713E+04  0.59523001073E+03 -0.67257419149E+03  0.13806794127E+04  0.25500000920E-02 0. -1.
</event>
<event>
 5   0  0.2612331E-06  0.3264186E+04  0.7818609E-02  0.8172068E-01
        1   -1    0    0  501    0  0.00000000000E+00  0.00000000000E+00  0.12126514874E+04  0.12126514874E+04  0.50400001928E-02 0. -1.
       -1   -1    0    0    0  501  0.00000000000E+00  0.00000000000E+00 -0.21966144701E+04  0.21966144701E+04  0.50400001928E-02 0.  1.
    10030    2    1    2    0    0  0.00000000000E+00  0.00000000000E+00 -0.98396298268E+03  0.34092659575E+04  0.32641861494E+04 0.  0.
        4    1    3    3  502    0  0.56314316186E+03  0.13241746530E+04 -0.12963794548E+04  0.19367937516E+04  0.12699999809E+01 0. -1.
       -4    1    3    3    0  502 -0.56314316186E+03 -0.13241746530E+04  0.31241647216E+03  0.14724722060E+04  0.12699999809E+01 0.  1.
</event>
<event>
 5   0  0.7079223E-06  0.3020469E+04  0.7818609E-02  0.8237910E-01
        2   -1    0    0  501    0  0.00000000000E+00  0.00000000000E+00  0.15444236166E+04  0.15444236166E+04  0.25500000920E-02 0. -1.
       -2   -1    0    0    0  501  0.00000000000E+00  0.00000000000E+00 -0.14768018147E+04  0.14768018147E+04  0.25500000920E-02 0.  1.
    10030    2    1    2    0    0  0.00000000000E+00  0.00000000000E+00  0.67621801887E+02  0.30212254313E+04  0.30204685727E+04 0.  0.
        5    1    3    3  502    0 -0.93310884059E+03 -0.65361898500E+03 -0.95783835992E+03  0.14884173809E+04  0.46999998093E+01 0.  1.
       -5    1    3    3    0  502  0.93310884059E+03  0.65361898500E+03  0.10254601618E+04  0.15328080504E+04  0.46999998093E+01 0. -1.
</event>
<event>
 5   0  0.2393250E-06  0.1898169E+04  0.7818609E-02  0.8655769E-01
        4   -1    0    0  501    0  0.00000000000E+00  0.00000000000E+00  0.71450427703E+03  0.71450540571E+03  0.12699999809E+01 0.  1.
       -4   -1    0    0    0  501  0.00000000000E+00  0.00000000000E+00 -0.12606772342E+04  0.12606778739E+04  0.12699999809E+01 0. -1.
    10030    2    1    2    0    0  0.00000000000E+00  0.00000000000E+00 -0.54617295719E+03  0.19751832796E+04  0.18981686145E+04 0.  0.
        4    1    3    3  502    0  0.35704706161E+03  0.24140090886E+03  0.60679943307E+03  0.74428769161E+03  0.12699999809E+01 0.  1.
       -4    1    3    3    0  502 -0.35704706161E+03 -0.24140090886E+03 -0.11529723903E+04  0.12308955880E+04  0.12699999809E+01 0. -1.
</event>
<event>
 5   0  0.2674441E-06  0.3097476E+04  0.7818609E-02  0.8216431E-01
       -1   -1    0    0    0  501  0.00000000000E+00  0.00000000000E+00  0.11872918605E+04  0.11872918605E+04  0.50400001928E-02 0. -1.
        1   -1    0    0  501    0  0.00000000000E+00  0.00000000000E+00 -0.20202186050E+04  0.20202186050E+04  0.50400001928E-02 0.  1.
    10030    2    1    2    0    0  0.00000000000E+00  0.00000000000E+00 -0.83292674445E+03  0.32075104655E+04  0.30974758151E+04 0.  0.
        5    1    3    3  502    0  0.93584840707E+03 -0.11036932557E+04  0.15506328799E+03  0.14553411136E+04  0.46999998093E+01 0. -1.
       -5    1    3    3    0  502 -0.93584840707E+03  0.11036932557E+04 -0.98799003244E+03  0.17521693519E+04  0.46999998093E+01 0.  1.
</event>
<event>
 5   0  0.2612331E-06  0.3113929E+04  0.7818609E-02  0.8211926E-01
       -1   -1    0    0    0  501  0.00000000000E+00  0.00000000000E+00  0.11719593975E+04  0.11719593976E+04  0.50400001928E-02 0. -1.
        1   -1    0    0  501    0  0.00000000000E+00  0.00000000000E+00 -0.20684488135E+04  0.20684488135E+04  0.50400001928E-02 0.  1.
    10030    2    1    2    0    0  0.00000000000E+00  0.00000000000E+00 -0.89648941596E+03  0.32404082111E+04  0.31139287245E+04 0.  0.
        4    1    3    3  502    0  0.90983842689E+03  0.52123758266E+03 -0.16459233067E+04  0.19515531571E+04  0.12699999809E+01 0.  1.
       -4    1    3    3    0  502 -0.90983842689E+03 -0.52123758266E+03  0.74943389073E+03  0.12888550540E+04  0.12699999809E+01 0. -1.
</event>
<event>
 5   0  0.2517725E-06  0.3333691E+04  0.7818609E-02  0.8154375E-01
       -1   -1    0    0    0  501  0.00000000000E+00  0.00000000000E+00  0.11876022897E+04  0.11876022897E+04  0.50400001928E-02 0.  1.
        1   -1    0    0  501    0  0.00000000000E+00  0.00000000000E+00 -0.23394812983E+04  0.23394812984E+04  0.50400001928E-02 0. -1.
    10030    2    1    2    0    0  0.00000000000E+00  0.00000000000E+00 -0.11518790087E+04  0.35270835880E+04  0.33336906554E+04 0.  0.
        3    1    3    3  502    0 -0.85921972345E+03  0.13657220223E+04 -0.13344497505E+03  0.16190314225E+04  0.10100000352E+00 0. -1.
       -3    1    3    3    0  502  0.85921972345E+03 -0.13657220223E+04 -0.10184340336E+04  0.19080521655E+04  0.10100000352E+00 0.  1.
</event>
<event>
 5   0  0.2674441E-06  0.3080491E+04  0.7818609E-02  0.8221113E-01
       -1   -1    0    0    0  501  0.00000000000E+00  0.00000000000E+00  0.11290615988E+04  0.11290615988E+04  0.50400001928E-02 0. -1.
        1   -1    0    0  501    0  0.00000000000E+00  0.00000000000E+00 -0.21011745533E+04  0.21011745533E+04  0.50400001928E-02 0.  1.
    10030    2    1    2    0    0  0.00000000000E+00  0.00000000000E+00 -0.97211295451E+03  0.32302361521E+04  0.30804905457E+04 0.  0.
        5    1    3    3  502    0 -0.14803057111E+04 -0.54626826916E+01 -0.39936196712E+02  0.14808618534E+04  0.46999998093E+01 0. -1.
       -5    1    3    3    0  502  0.14803057111E+04  0.54626826916E+01 -0.93217675779E+03  0.17493742987E+04  0.46999998093E+01 0.  1.
</event>
<event>
 5   0  0.2624011E-06  0.2638586E+04  0.7818609E-02  0.8355211E-01
       -1   -1    0    0    0  501  0.00000000000E+00  0.00000000000E+00  0.17210139820E+04  0.17210139820E+04  0.50400001928E-02 0.  1.
        1   -1    0    0  501    0  0.00000000000E+00  0.00000000000E+00 -0.10113423159E+04  0.10113423159E+04  0.50400001928E-02 0. -1.
    10030    2    1    2    0    0  0.00000000000E+00  0.00000000000E+00  0.70967166617E+03  0.27323562979E+04  0.26385861868E+04 0.  0.
        1    1    3    3  502    0  0.34207960334E+03  0.12657011639E+04  0.50673332275E+03  0.14056303041E+04  0.50400001928E-02 0.  1.
       -1    1    3    3    0  502 -0.34207960334E+03 -0.12657011639E+04  0.20293834342E+03  0.13267259938E+04  0.50400001928E-02 0. -1.
</event>
<event>
 5   0  0.2393250E-06  0.3097073E+04  0.7818609E-02  0.8216542E-01
        3   -1    0    0  501    0  0.00000000000E+00  0.00000000000E+00  0.15099704572E+04  0.15099704606E+04  0.10100000352E+00 0. -1.
       -3   -1    0    0    0  501  0.00000000000E+00  0.00000000000E+00 -0.15880870634E+04  0.15880870666E+04  0.10100000352E+00 0.  1.
    10030    2    1    2    0    0  0.00000000000E+00  0.00000000000E+00 -0.78116606129E+02  0.30980575272E+04  0.30970725270E+04 0.  0.
        4    1    3    3  502    0  0.35282133531E+03  0.23550213752E+03  0.14507168032E+04  0.15114645240E+04  0.12699999809E+01 0. -1.
       -4    1    3    3    0  502 -0.35282133531E+03 -0.23550213752E+03 -0.15288334093E+04  0.15865930032E+04  0.12699999809E+01 0.  1.
</event>
<event>
 5   0  0.7071012E-06  0.3067329E+04  0.7818609E-02  0.8224762E-01
        2   -1    0    0  501    0  0.00000000000E+00  0.00000000000E+00  0.13942400927E+04  0.13942400927E+04  0.25500000920E-02 0.  1.
       -2   -1    0    0    0  501  0.00000000000E+00  0.00000000000E+00 -0.16870316154E+04  0.16870316154E+04  0.25500000920E-02 0. -1.
    10030    2    1    2    0    0  0.00000000000E+00  0.00000000000E+00 -0.29279152271E+03  0.30812717081E+04  0.30673292069E+04 0.  0.
        1    1    3    3  502    0 -0.14396498437E+04  0.31471074247E+03 -0.57317108203E+03  0.15811893034E+04  0.50400001928E-02 0.  1.
       -1    1    3    3    0  502  0.14396498437E+04 -0.31471074247E+03  0.28037955932E+03  0.15000824048E+04  0.50400001928E-02 0. -1.
</event>
<event>
 5   0  0.2624011E-06  0.3061444E+04  0.7818609E-02  0.8226400E-01
       -1   -1    0    0    0  501  0.00000000000E+00  0.00000000000E+00  0.15575545627E+04  0.15575545627E+04  0.50400001928E-02 0. -1.
        1   -1    0    0  501    0  0.00000000000E+00  0.00000000000E+00 -0.15043519838E+04  0.15043519838E+04  0.50400001928E-02 0.  1.
    10030    2    1    2    0    0  0.00000000000E+00  0.00000000000E+00  0.53202578958E+02  0.30619065465E+04  0.30614442972E+04 0.  0.
        1    1    3    3  502    0 -0.34268942717E+03 -0.14505748220E+04  0.37523237539E+03  0.15370109607E+04  0.50400001928E-02 0.  1.
       -1    1    3    3    0  502  0.34268942717E+03  0.14505748220E+04 -0.32202979643E+03  0.15248955858E+04  0.50400001928E-02 0. -1.
</event>
<event>
 5   0  0.7363513E-06  0.3068770E+04  0.7818609E-02  0.8224361E-01
        2   -1    0    0  501    0  0.00000000000E+00  0.00000000000E+00  0.92146988347E+03  0.92146988347E+03  0.25500000920E-02 0. -1.
       -2   -1    0    0    0  501  0.00000000000E+00  0.00000000000E+00 -0.25549796920E+04  0.25549796920E+04  0.25500000920E-02 0.  1.
    10030    2    1    2    0    0  0.00000000000E+00  0.00000000000E+00 -0.16335098086E+04  0.34764495755E+04  0.30687696812E+04 0.  0.
        4    1    3    3  502    0  0.14499994013E+04 -0.42003475730E+03 -0.50566947149E+03  0.15920523510E+04  0.12699999809E+01 0.  1.
       -4    1    3    3    0  502 -0.14499994013E+04  0.42003475730E+03 -0.11278403371E+04  0.18843972245E+04  0.12699999809E+01 0. -1.
</event>
<event>
 5   0  0.7079223E-06  0.3037723E+04  0.7818609E-02  0.8233040E-01
        2   -1    0    0  501    0  0.00000000000E+00  0.00000000000E+00  0.11810827196E+04  0.11810827196E+04  0.25500000920E-02 0.  1.
       -2   -1    0    0    0  501  0.00000000000E+00  0.00000000000E+00 -0.19532413683E+04  0.19532413683E+04  0.25500000920E-02 0. -1.
    10030    2    1    2    0    0  0.00000000000E+00  0.00000000000E+00 -0.77215864863E+03  0.31343240879E+04  0.30377225860E+04 0.  0.
        5    1    3    3  502    0  0.87204492769E+03 -0.94645880493E+03 -0.12183727922E+04  0.17722022955E+04  0.46999998093E+01 0. -1.
       -5    1    3    3    0  502 -0.87204492769E+03  0.94645880493E+03  0.44621414359E+03  0.13621217924E+04  0.46999998093E+01 0.  1.
</event>
<event>
 5   0  0.2598987E-06  0.3099408E+04  0.7818609E-02  0.8215900E-01
       -1   -1    0    0    0  501  0.00000000000E+00  0.00000000000E+00  0.21673754086E+04  0.21673754086E+04  0.50400001928E-02 0. -1.
        1   -1    0    0  501    0  0.00000000000E+00  0.00000000000E+00 -0.11080602963E+04  0.11080602963E+04  0.50400001928E-02 0.  1.
    10030    2    1    2    0    0  0.00000000000E+00  0.00000000000E+00  0.10593151122E+04  0.32754357049E+04  0.30994080967E+04 0.  0.
        2    1    3    3  502    0 -0.14377497166E+04  0.42861771617E+02  0.11391457770E+04  0.18348336383E+04  0.25500000920E-02 0. -1.
       -2    1    3    3    0  502  0.14377497166E+04 -0.42861771617E+02 -0.79830664748E+02  0.14406020666E+04  0.25500000920E-02 0.  1.
</event>
<event>
 5   0  0.2624011E-06  0.3152645E+04  0.7818609E-02  0.8201437E-01
       -1   -1    0    0    0  501  0.00000000000E+00  0.00000000000E+00  0.15391246742E+04  0.15391246742E+04  0.50400001928E-02 0. -1.
        1   -1    0    0  501    0  0.00000000000E+00  0.00000000000E+00 -0.16144191261E+04  0.16144191261E+04  0.50400001928E-02 0.  1.
    10030    2    1    2    0    0  0.00000000000E+00  0.00000000000E+00 -0.75294451863E+02  0.31535438003E+04  0.31526448018E+04 0.  0.
        1    1    3    3  502    0  0.15434140374E+04  0.31629241161E+03  0.13597559237E+02  0.15755483725E+04  0.50400001928E-02 0. -1.
       -1    1    3    3    0  502 -0.15434140374E+04 -0.31629241161E+03 -0.88892011100E+02  0.15779954278E+04  0.50400001928E-02 0.  1.
</event>
<event>
 5   0  0.7414808E-06  0.3027345E+04  0.7818609E-02  0.8235965E-01
        2   -1    0    0  501    0  0.00000000000E+00  0.00000000000E+00  0.19214964931E+04  0.19214964931E+04  0.25500000920E-02 0.  1.
       -2   -1    0    0    0  501  0.00000000000E+00  0.00000000000E+00 -0.11924066454E+04  0.11924066454E+04  0.25500000920E-02 0. -1.
    10030    2    1    2    0    0  0.00000000000E+00  0.00000000000E+00  0.72908984767E+03  0.31139031385E+04  0.30273454956E+04 0.  0.
        2    1    3    3  502    0  0.11801933990E+04 -0.93194906367E+03  0.54216601580E+03  0.15985398040E+04  0.25500000920E-02 0.  1.
       -2    1    3    3    0  502 -0.11801933990E+04  0.93194906367E+03  0.18692383186E+03  0.15153633344E+04  0.25500000920E-02 0. -1.
</event>
<event>
 5   0  0.2517725E-06  0.3015213E+04  0.7818609E-02  0.8239400E-01
       -1   -1    0    0    0  501  0.00000000000E+00  0.00000000000E+00  0.17656376026E+04  0.17656376026E+04  0.50400001928E-02 0. -1.
        1   -1    0    0  501    0  0.00000000000E+00  0.00000000000E+00 -0.12872839259E+04  0.12872839259E+04  0.50400001928E-02 0.  1.
    10030    2    1    2    0    0  0.00000000000E+00  0.00000000000E+00  0.47835367676E+03  0.30529215285E+04  0.30152126988E+04 0.  0.
        3    1    3    3  502    0  0.15026544716E+04  0.10489028082E+03  0.30244399636E+03  0.15363739171E+04  0.10100000352E+00 0. -1.
       -3    1    3    3    0  502 -0.15026544716E+04 -0.10489028082E+03  0.17590968040E+03  0.15165476114E+04  0.10100000352E+00 0.  1.
</event>
<event>
 5   0  0.2517725E-06  0.3118630E+04  0.7818609E-02  0.8210644E-01
       -1   -1    0    0    0  501  0.00000000000E+00  0.00000000000E+00  0.11370536018E+04  0.11370536018E+04  0.50400001928E-02 0.  1.
        1   -1    0    0  501    0  0.00000000000E+00  0.00000000000E+00 -0.21383886969E+04  0.21383886970E+04  0.50400001928E-02 0. -1.
    10030    2    1    2    0    0  0.00000000000E+00  0.00000000000E+00 -0.10013350952E+04  0.32754422987E+04  0.31186295515E+04 0.  0.
        3    1    3    3  502    0  0.52338528386E+03  0.10214949481E+04  0.60790483511E+03  0.12988196115E+04  0.10100000352E+00 0.  1.
       -3    1    3    3    0  502 -0.52338528386E+03 -0.10214949481E+04 -0.16092399303E+04  0.19766226873E+04  0.10100000352E+00 0. -1.
</event>
<event>
 5   0  0.7414808E-06  0.3125331E+04  0.7818609E-02  0.8208820E-01
        2   -1    0    0  501    0  0.00000000000E+00  0.00000000000E+00  0.25558088272E+04  0.25558088272E+04  0.25500000920E-02 0. -1.
       -2   -1    0    0    0  501  0.00000000000E+00  0.00000000000E+00 -0.95544052285E+03  0.95544052285E+03  0.25500000920E-02 0.  1.
    10030    2    1    2    0    0  0.00000000000E+00  0.00000000000E+00  0.16003683044E+04  0.35112493501E+04  0.31253309087E+04 0.  0.
        2    1    3    3  502    0  0.11931874082E+04 -0.69825072772E+03 -0.18241403788E+02  0.13826000936E+04  0.25500000920E-02 0.  1.
       -2    1    3    3    0  502 -0.11931874082E+04  0.69825072772E+03  0.16186097082E+04  0.21286492565E+04  0.25500000920E-02 0. -1.
</event>
<event>
 5   0  0.2674441E-06  0.3088293E+04  0.7818609E-02  0.8218958E-01
       -1   -1    0    0    0  501  0.00000000000E+00  0.00000000000E+00  0.10862776525E+04  0.10862776525E+04  0.50400001928E-02 0.  1.
        1   -1    0    0  501    0  0.00000000000E+00  0.00000000000E+00 -0.21950075989E+04  0.21950075989E+04  0.50400001928E-02 0. -1.
    10030    2    1    2    0    0  0.00000000000E+00  0.00000000000E+00 -0.11087299464E+04  0.32812852515E+04  0.30882925392E+04 0.  0.
        5    1    3    3  502    0 -0.16144266040E+03  0.30127368594E+03  0.10455711868E+04  0.11000321646E+04  0.46999998093E+01 0.  1.
       -5    1    3    3    0  502  0.16144266040E+03 -0.30127368594E+03 -0.21543011332E+04  0.21812530869E+04  0.46999998093E+01 0. -1.
</event>
<event>
 5   0  0.7094341E-06  0.3158525E+04  0.7818609E-02  0.8199857E-01
        2   -1    0    0  501    0  0.00000000000E+00  0.00000000000E+00  0.22749652304E+04  0.22749652304E+04  0.25500000920E-02 0. -1.
       -2   -1    0    0    0  501  0.00000000000E+00  0.00000000000E+00 -0.10963110426E+04  0.10963110427E+04  0.25500000920E-02 0.  1.
    10030    2    1    2    0    0  0.00000000000E+00  0.00000000000E+00  0.11786541878E+04  0.33712762731E+04  0.31585246580E+04 0.  0.
        3    1    3    3  502    0 -0.28636762713E+03  0.83866627606E+03 -0.80589463179E+03  0.11978454442E+04  0.10100000352E+00 0.  1.
       -3    1    3    3    0  502  0.28636762713E+03 -0.83866627606E+03  0.19845488196E+04  0.21734308289E+04  0.10100000352E+00 0. -1.
</event>
<event>
 5   0  0.7094341E-06  0.3089093E+04  0.7818609E-02  0.8218737E-01
        2   -1    0    0  501    0  0.00000000000E+00  0.00000000000E+00  0.23182033150E+04  0.23182033150E+04  0.25500000920E-02 0.  1.
       -2   -1    0    0    0  501  0.00000000000E+00  0.00000000000E+00 -0.10290834115E+04  0.10290834115E+04  0.25500000920E-02 0. -1.
    10030    2    1    2    0    0  0.00000000000E+00  0.00000000000E+00  0.12891199035E+04  0.33472867265E+04  0.30890934437E+04 0.  0.
        3    1    3    3  502    0 -0.12904244980E+04  0.32537064834E+03 -0.20490432082E+03  0.13464944243E+04  0.10100000352E+00 0. -1.
       -3    1    3    3    0  502  0.12904244980E+04 -0.32537064834E+03  0.14940242243E+04  0.20007923023E+04  0.10100000352E+00 0.  1.
</event>
<event>
 5   0  0.7414808E-06  0.3108313E+04  0.7818609E-02  0.8213460E-01
       -2   -1    0    0    0  501  0.00000000000E+00  0.00000000000E+00  0.88499590014E+03  0.88499590014E+03  0.25500000920E-02 0.  1.
        2   -1    0    0  501    0  0.00000000000E+00  0.00000000000E+00 -0.27292802510E+04  0.27292802510E+04  0.25500000920E-02 0. -1.
    10030    2    1    2    0    0  0.00000000000E+00  0.00000000000E+00 -0.18442843508E+04  0.36142761511E+04  0.31083126178E+04 0.  0.
        2    1    3    3  502    0 -0.67653088307E+03  0.12406290425E+04 -0.16744038775E+04  0.21910004111E+04  0.25500000920E-02 0. -1.
       -2    1    3    3    0  502  0.67653088307E+03 -0.12406290425E+04 -0.16988047336E+03  0.14232757400E+04  0.25500000920E-02 0.  1.
</event>
<event>
 5   0  0.2612331E-06  0.3016777E+04  0.7818609E-02  0.8238956E-01
       -1   -1    0    0    0  501  0.00000000000E+00  0.00000000000E+00  0.11721062878E+04  0.11721062878E+04  0.50400001928E-02 0.  1.
        1   -1    0    0  501    0  0.00000000000E+00  0.00000000000E+00 -0.19411511644E+04  0.19411511644E+04  0.50400001928E-02 0. -1.
    10030    2    1    2    0    0  0.00000000000E+00  0.00000000000E+00 -0.76904487666E+03  0.31132574522E+04  0.30167767470E+04 0.  0.
        4    1    3    3  502    0  0.42942484468E+03  0.47446076837E+03 -0.17941180337E+04  0.19048306617E+04  0.12699999809E+01 0. -1.
       -4    1    3    3    0  502 -0.42942484468E+03 -0.47446076837E+03  0.10250731570E+04  0.12084267905E+04  0.12699999809E+01 0.  1.
</event>
<event>
 5   0  0.7071012E-06  0.3131263E+04  0.7818609E-02  0.8207210E-01
        2   -1    0    0  501    0  0.00000000000E+00  0.00000000000E+00  0.19429350117E+04  0.19429350117E+04  0.25500000920E-02 0.  1.
       -2   -1    0    0    0  501  0.00000000000E+00  0.00000000000E+00 -0.12615977795E+04  0.12615977795E+04  0.25500000920E-02 0. -1.
    10030    2    1    2    0    0  0.00000000000E+00  0.00000000000E+00  0.68133723221E+03  0.32045327912E+04  0.31312633211E+04 0.  0.
        1    1    3    3  502    0  0.15605671406E+04 -0.10254053721E+03  0.41530056552E+03  0.16181343955E+04  0.50400001928E-02 0. -1.
       -1    1    3    3    0  502 -0.15605671406E+04  0.10254053721E+03  0.26603666669E+03  0.15863983958E+04  0.50400001928E-02 0.  1.
</event>
<event>
 5   0  0.7414808E-06  0.3065675E+04  0.7818609E-02  0.8225222E-01
        2   -1    0    0  501    0  0.00000000000E+00  0.00000000000E+00  0.11485727937E+04  0.11485727937E+04  0.25500000920E-02 0. -1.
       -2   -1    0    0    0  501  0.00000000000E+00  0.00000000000E+00 -0.20456611227E+04  0.20456611227E+04  0.25500000920E-02 0.  1.
    10030    2    1    2    0    0  0.00000000000E+00  0.00000000000E+00 -0.89708832899E+03  0.31942339164E+04  0.30656749408E+04 0.  0.
        2    1    3    3  502    0  0.82796326149E+02  0.13654848670E+04  0.27196464340E+03  0.13947648264E+04  0.25500000920E-02 0. -1.
       -2    1    3    3    0  502 -0.82796326149E+02 -0.13654848670E+04 -0.11690529724E+04  0.17994690900E+04  0.25500000920E-02 0.  1.
</event>
<event>
 5   0  0.7071012E-06  0.3119367E+04  0.7818609E-02  0.8210443E-01
       -2   -1    0    0    0  501  0.00000000000E+00  0.00000000000E+00  0.14448822644E+04  0.14448822644E+04  0.25500000920E-02 0. -1.
        2   -1    0    0  501    0  0.00000000000E+00  0.00000000000E+00 -0.16836056897E+04  0.16836056897E+04  0.25500000920E-02 0.  1.
    10030    2    1    2    0    0  0.00000000000E+00  0.00000000000E+00 -0.23872342530E+03  0.31284879541E+04  0.31193666032E+04 0.  0.
        1    1    3    3  502    0 -0.14316894694E+04  0.42362516569E+03  0.33297705315E+03  0.15297276672E+04  0.50400001928E-02 0. -1.
       -1    1    3    3    0  502  0.14316894694E+04 -0.42362516569E+03 -0.57170047845E+03  0.15987602869E+04  0.50400001928E-02 0.  1.
</event>
<event>
 5   0  0.7094341E-06  0.3087983E+04  0.7818609E-02  0.8219043E-01
        2   -1    0    0  501    0  0.00000000000E+00  0.00000000000E+00  0.18577485582E+04  0.18577485582E+04  0.25500000920E-02 0.  1.
       -2   -1    0    0    0  501  0.00000000000E+00  0.00000000000E+00 -0.12832256010E+04  0.12832256010E+04  0.25500000920E-02 0. -1.
    10030    2    1    2    0    0  0.00000000000E+00  0.00000000000E+00  0.57452295721E+03  0.31409741593E+04  0.30879834910E+04 0.  0.
        3    1    3    3  502    0  0.12824395635E+04  0.59072282918E+02  0.11597512665E+04  0.17300762350E+04  0.10100000352E+00 0. -1.
       -3    1    3    3    0  502 -0.12824395635E+04 -0.59072282918E+02 -0.58522830929E+03  0.14108979243E+04  0.10100000352E+00 0.  1.
</event>
<event>
 5   0  0.2598987E-06  0.3311075E+04  0.7818609E-02  0.8160083E-01
        1   -1    0    0  501    0  0.00000000000E+00  0.00000000000E+00  0.26814516788E+04  0.26814516788E+04  0.50400001928E-02 0.  1.
       -1   -1    0    0    0  501  0.00000000000E+00  0.00000000000E+00 -0.10221345288E+04  0.10221345288E+04  0.50400001928E-02 0. -1.
    10030    2    1    2    0    0  0.00000000000E+00  0.00000000000E+00  0.16593171500E+04  0.37035862076E+04  0.33110749603E+04 0.  0.
        2    1    3    3  502    0  0.58469670936E+03 -0.63167088227E+03  0.24114907633E+04  0.25605011320E+04  0.25500000920E-02 0.  1.
       -2    1    3    3    0  502 -0.58469670936E+03  0.63167088227E+03 -0.75217361330E+03  0.11430850756E+04  0.25500000920E-02 0. -1.
</event>
<event>
 5   0  0.7071012E-06  0.3269322E+04  0.7818609E-02  0.8170746E-01
        2   -1    0    0  501    0  0.00000000000E+00  0.00000000000E+00  0.17989948771E+04  0.17989948771E+04  0.25500000920E-02 0. -1.
       -2   -1    0    0    0  501  0.00000000000E+00  0.00000000000E+00 -0.14853382738E+04  0.14853382738E+04  0.25500000920E-02 0.  1.
    10030    2    1    2    0    0  0.00000000000E+00  0.00000000000E+00  0.31365660332E+03  0.32843331509E+04  0.32693216088E+04 0.  0.
        1    1    3    3  502    0 -0.42127163247E+03  0.15743074244E+04  0.28955622035E+02  0.16299546260E+04  0.50400001928E-02 0. -1.
       -1    1    3    3    0  502  0.42127163247E+03 -0.15743074244E+04  0.28470098129E+03  0.16543785249E+04  0.50400001928E-02 0.  1.
</event>
<event>
 5   0  0.7363513E-06  0.3059609E+04  0.7818609E-02  0.8226911E-01
        2   -1    0    0  501    0  0.00000000000E+00  0.00000000000E+00  0.18174116508E+04  0.18174116508E+04  0.25500000920E-02 0. -1.
       -2   -1    0    0    0  501  0.00000000000E+00  0.00000000000E+00 -0.12877118086E+04  0.12877118086E+04  0.25500000920E-02 0.  1.
    10030    2    1    2    0    0  0.00000000000E+00  0.00000000000E+00  0.52969984225E+03  0.31051234594E+04  0.30596094155E+04 0.  0.
        4    1    3    3  502    0  0.53865601620E+02 -0.37338341287E+03 -0.12397642999E+04  0.12958911252E+04  0.12699999809E+01 0.  1.
       -4    1    3    3    0  502 -0.53865601620E+02  0.37338341287E+03  0.17694641422E+04  0.18092323343E+04  0.12699999809E+01 0. -1.
</event>
<event>
 5   0  0.2624011E-06  0.3118835E+04  0.7818609E-02  0.8210588E-01
       -1   -1    0    0    0  501  0.00000000000E+00  0.00000000000E+00  0.92100090490E+03  0.92100090491E+03  0.50400001928E-02 0. -1.
        1   -1    0    0  501    0  0.00000000000E+00  0.00000000000E+00 -0.26403690652E+04  0.26403690652E+04  0.50400001928E-02 0.  1.
    10030    2    1    2    0    0  0.00000000000E+00  0.00000000000E+00 -0.17193681603E+04  0.35613699701E+04  0.31188345890E+04 0.  0.
        1    1    3    3  502    0  0.73448177115E+03  0.11966213177E+04 -0.16345027398E+04  0.21547541058E+04  0.50400001928E-02 0.  1.
       -1    1    3    3    0  502 -0.73448177115E+03 -0.11966213177E+04 -0.84865420494E+02  0.14066158643E+04  0.50400001928E-02 0. -1.
</event>
<event>
 5   0  0.2598987E-06  0.3128354E+04  0.7818609E-02  0.8207999E-01
        1   -1    0    0  501    0  0.00000000000E+00  0.00000000000E+00  0.27127798415E+04  0.27127798415E+04  0.50400001928E-02 0. -1.
       -1   -1    0    0    0  501  0.00000000000E+00  0.00000000000E+00 -0.90189746858E+03  0.90189746859E+03  0.50400001928E-02 0.  1.
    10030    2    1    2    0    0  0.00000000000E+00  0.00000000000E+00  0.18108823729E+04  0.36146773101E+04  0.31283537344E+04 0.  0.
        2    1    3    3  502    0  0.49509852568E+02  0.51317503392E+03 -0.80090253847E+03  0.95249394595E+03  0.25500000920E-02 0.  1.
       -2    1    3    3    0  502 -0.49509852568E+02 -0.51317503392E+03  0.26117849114E+04  0.26621833641E+04  0.25500000920E-02 0. -1.
</event>
<event>
 5   0  0.2674441E-06  0.2800162E+04  0.7818609E-02  0.8303218E-01
        1   -1    0    0  501    0  0.00000000000E+00  0.00000000000E+00  0.13773996802E+04  0.13773996802E+04  0.50400001928E-02 0.  1.
       -1   -1    0    0    0  501  0.00000000000E+00  0.00000000000E+00 -0.14231357296E+04  0.14231357296E+04  0.50400001928E-02 0. -1.
    10030    2    1    2    0    0  0.00000000000E+00  0.00000000000E+00 -0.45736049364E+02  0.28005354099E+04  0.28001619231E+04 0.  0.
        5    1    3    3  502    0 -0.94473874096E+03 -0.17128909782E+03  0.99625432830E+03  0.13836242338E+04  0.46999998093E+01 0.  1.
       -5    1    3    3    0  502  0.94473874096E+03  0.17128909782E+03 -0.10419903777E+04  0.14169111761E+04  0.46999998093E+01 0. -1.
</event>
<event>
 5   0  0.2393250E-06  0.2205049E+04  0.7818609E-02  0.8516329E-01
        3   -1    0    0  501    0  0.00000000000E+00  0.00000000000E+00  0.19345494795E+04  0.19345494821E+04  0.10100000352E+00 0.  1.
       -3   -1    0    0    0  501  0.00000000000E+00  0.00000000000E+00 -0.62834305179E+03  0.62834305991E+03  0.10100000352E+00 0. -1.
    10030    2    1    2    0    0  0.00000000000E+00  0.00000000000E+00  0.13062064277E+04  0.25628925420E+04  0.22050494213E+04 0.  0.
        2    1    3    3  502    0  0.87699132354E+03 -0.50273561851E+03  0.14156132787E+03  0.10207333115E+04  0.25500000920E-02 0. -1.
       -2    1    3    3    0  502 -0.87699132354E+03  0.50273561851E+03  0.11646450998E+04  0.15421592305E+04  0.25500000920E-02 0.  1.
</event>
<event>
 5   0  0.2517725E-06  0.3099529E+04  0.7818609E-02  0.8215867E-01
       -1   -1    0    0    0  501  0.00000000000E+00  0.00000000000E+00  0.14008492809E+04  0.14008492809E+04  0.50400001928E-02 0. -1.
        1   -1    0    0  501    0  0.00000000000E+00  0.00000000000E+00 -0.17145101254E+04  0.17145101254E+04  0.50400001928E-02 0.  1.
    10030    2    1    2    0    0  0.00000000000E+00  0.00000000000E+00 -0.31366084449E+03  0.31153594063E+04  0.30995291748E+04 0.  0.
        3    1    3    3  502    0 -0.55631802741E+03 -0.87321626253E+03  0.10022173237E+04  0.14409843729E+04  0.10100000352E+00 0. -1.
       -3    1    3    3    0  502  0.55631802741E+03  0.87321626253E+03 -0.13158781682E+04  0.16743750334E+04  0.10100000352E+00 0.  1.
</event>
<event>
 5   0  0.7363513E-06  0.2328701E+04  0.7818609E-02  0.8466690E-01
        2   -1    0    0  501    0  0.00000000000E+00  0.00000000000E+00  0.12725855708E+04  0.12725855708E+04  0.25500000920E-02 0. -1.
       -2   -1    0    0    0  501  0.00000000000E+00  0.00000000000E+00 -0.10653209241E+04  0.10653209241E+04  0.25500000920E-02 0.  1.
    10030    2    1    2    0    0  0.00000000000E+00  0.00000000000E+00  0.20726464668E+03  0.23379064949E+04  0.23287009566E+04 0.  0.
        4    1    3    3  502    0 -0.87659050455E+03 -0.26153645640E+02  0.87256830185E+03  0.12371224596E+04  0.12699999809E+01 0. -1.
       -4    1    3    3    0  502  0.87659050455E+03  0.26153645640E+02 -0.66530365517E+03  0.11007840353E+04  0.12699999809E+01 0.  1.
</event>
<event>
 5   0  0.2624011E-06  0.3191039E+04  0.7818609E-02  0.8191188E-01
       -1   -1    0    0    0  501  0.00000000000E+00  0.00000000000E+00  0.13959023942E+04  0.13959023942E+04  0.50400001928E-02 0.  1.
        1   -1    0    0  501    0  0.00000000000E+00  0.00000000000E+00 -0.18236823390E+04  0.18236823390E+04  0.50400001928E-02 0. -1.
    10030    2    1    2    0    0  0.00000000000E+00  0.00000000000E+00 -0.42777994484E+03  0.32195847332E+04  0.31910390429E+04 0.  0.
        1    1    3    3  502    0 -0.13170108563E+04  0.81856875097E+03 -0.59289665230E+03  0.16601502450E+04  0.50400001928E-02 0. -1.
       -1    1    3    3    0  502  0.13170108563E+04 -0.81856875097E+03  0.16511670746E+03  0.15594344882E+04  0.50400001928E-02 0.  1.
</event>
<event>
 5   0  0.7079223E-06  0.3101704E+04  0.7818609E-02  0.8215270E-01
       -2   -1    0    0    0  501  0.00000000000E+00  0.00000000000E+00  0.98141889329E+03  0.98141889329E+03  0.25500000920E-02 0.  1.
        2   -1    0    0  501    0  0.00000000000E+00  0.00000000000E+00 -0.24506781950E+04  0.24506781950E+04  0.25500000920E-02 0. -1.
    10030    2    1    2    0    0  0.00000000000E+00  0.00000000000E+00 -0.14692593017E+04  0.34320970883E+04  0.31017039717E+04 0.  0.
        5    1    3    3  502    0  0.16962778598E+03 -0.96144781248E+03  0.59869893218E+03  0.11452589154E+04  0.46999998093E+01 0.  1.
       -5    1    3    3    0  502 -0.16962778598E+03  0.96144781248E+03 -0.20679582339E+04  0.22868381729E+04  0.46999998093E+01 0. -1.
</event>
<event>
 5   0  0.7079223E-06  0.3149274E+04  0.7818609E-02  0.8202344E-01
       -2   -1    0    0    0  501  0.00000000000E+00  0.00000000000E+00  0.11947513890E+04  0.11947513890E+04  0.25500000920E-02 0.  1.
        2   -1    0    0  501    0  0.00000000000E+00  0.00000000000E+00 -0.20753121638E+04  0.20753121638E+04  0.25500000920E-02 0. -1.
    10030    2    1    2    0    0  0.00000000000E+00  0.00000000000E+00 -0.88056077474E+03  0.32700635528E+04  0.31492742595E+04 0.  0.
        5    1    3    3  502    0 -0.24984140606E+03  0.12192484965E+04 -0.14418876197E+04  0.19047439781E+04  0.46999998093E+01 0. -1.
       -5    1    3    3    0  502  0.24984140606E+03 -0.12192484965E+04  0.56132684493E+03  0.13653195747E+04  0.46999998093E+01 0.  1.
</event>
<event>
 5   0  0.7079223E-06  0.3406734E+04  0.7818609E-02  0.8136256E-01
        2   -1    0    0  501    0  0.00000000000E+00  0.00000000000E+00  0.12237271750E+04  0.12237271750E+04  0.25500000920E-02 0.  1.
       -2   -1    0    0    0  501  0.00000000000E+00  0.00000000000E+00 -0.23710010981E+04  0.23710010981E+04  0.25500000920E-02 0. -1.
    10030    2    1    2    0    0  0.00000000000E+00  0.00000000000E+00 -0.11472739232E+04  0.35947282731E+04  0.34067336119E+04 0.  0.
        5    1    3    3  502    0 -0.45671355395E+03  0.58328135001E+03 -0.21921078434E+04  0.23139065000E+04  0.46999998093E+01 0. -1.
       -5    1    3    3    0  502  0.45671355395E+03 -0.58328135001E+03  0.10448339202E+04  0.12808217731E+04  0.46999998093E+01 0.  1.
</event>
<event>
 5   0  0.7414808E-06  0.2310514E+04  0.7818609E-02  0.8473787E-01
       -2   -1    0    0    0  501  0.00000000000E+00  0.00000000000E+00  0.89309919417E+03  0.89309919417E+03  0.25500000920E-02 0. -1.
        2   -1    0    0  501    0  0.00000000000E+00  0.00000000000E+00 -0.14943679632E+04  0.14943679632E+04  0.25500000920E-02 0.  1.
    10030    2    1    2    0    0  0.00000000000E+00  0.00000000000E+00 -0.60126876906E+03  0.23874671574E+04  0.23105140759E+04 0.  0.
        2    1    3    3  502    0 -0.39491026876E+03  0.68796024194E+03 -0.11684729486E+04  0.14122933287E+04  0.25500000920E-02 0.  1.
       -2    1    3    3    0  502  0.39491026876E+03 -0.68796024194E+03  0.56720417950E+03  0.97517382867E+03  0.25500000920E-02 0. -1.
</event>
<event>
 5   0  0.2612331E-06  0.3087447E+04  0.7818609E-02  0.8219191E-01
        1   -1    0    0  501    0  0.00000000000E+00  0.00000000000E+00  0.19669720034E+04  0.19669720034E+04  0.50400001928E-02 0. -1.
       -1   -1    0    0    0  501  0.00000000000E+00  0.00000000000E+00 -0.12115489585E+04  0.12115489585E+04  0.50400001928E-02 0.  1.
    10030    2    1    2    0    0  0.00000000000E+00  0.00000000000E+00  0.75542304492E+03  0.31785209619E+04  0.30874474130E+04 0.  0.
        4    1    3    3  502    0  0.98711309141E+02 -0.44629447288E+03  0.18957092469E+04  0.19500353435E+04  0.12699999809E+01 0. -1.
       -4    1    3    3    0  502 -0.98711309141E+02  0.44629447288E+03 -0.11402862020E+04  0.12284856184E+04  0.12699999809E+01 0.  1.
</event>
<event>
 5   0  0.7071012E-06  0.3059557E+04  0.7818609E-02  0.8226925E-01
       -2   -1    0    0    0  501  0.00000000000E+00  0.00000000000E+00  0.11600276369E+04  0.11600276369E+04  0.25500000920E-02 0.  1.
        2   -1    0    0  501    0  0.00000000000E+00  0.00000000000E+00 -0.20173854838E+04  0.20173854838E+04  0.25500000920E-02 0. -1.
    10030    2    1    2    0    0  0.00000000000E+00  0.00000000000E+00 -0.85735784694E+03  0.31774131207E+04  0.30595574291E+04 0.  0.
        1    1    3    3  502    0  0.11543526454E+04 -0.63359975543E+03  0.37993066362E+03  0.13705203352E+04  0.50400001928E-02 0.  1.
       -1    1    3    3    0  502 -0.11543526454E+04  0.63359975543E+03 -0.12372885106E+04  0.18068927855E+04  0.50400001928E-02 0. -1.
</event>
<event>
 5   0  0.7079223E-06  0.2433755E+04  0.7818609E-02  0.8426973E-01
       -2   -1    0    0    0  501  0.00000000000E+00  0.00000000000E+00  0.60295664884E+03  0.60295664885E+03  0.25500000920E-02 0.  1.
        2   -1    0    0  501    0  0.00000000000E+00  0.00000000000E+00 -0.24558817762E+04  0.24558817762E+04  0.25500000920E-02 0. -1.
    10030    2    1    2    0    0  0.00000000000E+00  0.00000000000E+00 -0.18529251274E+04  0.30588384251E+04  0.24337545034E+04 0.  0.
        5    1    3    3  502    0  0.96978452493E+03  0.68177036485E+03 -0.58117399977E+03  0.13202568550E+04  0.46999998093E+01 0. -1.
       -5    1    3    3    0  502 -0.96978452493E+03 -0.68177036485E+03 -0.12717511276E+04  0.17385815701E+04  0.46999998093E+01 0.  1.
</event>
<event>
 5   0  0.7363513E-06  0.3070627E+04  0.7818609E-02  0.8223846E-01
        2   -1    0    0  501    0  0.00000000000E+00  0.00000000000E+00  0.18333718270E+04  0.18333718270E+04  0.25500000920E-02 0. -1.
       -2   -1    0    0    0  501  0.00000000000E+00  0.00000000000E+00 -0.12857118497E+04  0.12857118497E+04  0.25500000920E-02 0.  1.
    10030    2    1    2    0    0  0.00000000000E+00  0.00000000000E+00  0.54765997723E+03  0.31190836767E+04  0.30706272212E+04 0.  0.
        4    1    3    3  502    0 -0.11750644711E+04 -0.63296447772E+03  0.10445964977E+04  0.16948758058E+04  0.12699999809E+01 0. -1.
       -4    1    3    3    0  502  0.11750644711E+04  0.63296447772E+03 -0.49693652049E+03  0.14242078709E+04  0.12699999809E+01 0.  1.
</event>
<event>
 5   0  0.7094341E-06  0.3097679E+04  0.7818609E-02  0.8216375E-01
       -2   -1    0    0    0  501  0.00000000000E+00  0.00000000000E+00  0.13484902661E+04  0.13484902661E+04  0.25500000920E-02 0. -1.
        2   -1    0    0  501    0  0.00000000000E+00  0.00000000000E+00 -0.17789552441E+04  0.17789552441E+04  0.25500000920E-02 0.  1.
    10030    2    1    2    0    0  0.00000000000E+00  0.00000000000E+00 -0.43046497805E+03  0.31274455102E+04  0.30976790218E+04 0.  0.
        3    1    3    3  502    0  0.15397151982E+04  0.11854067192E+03 -0.95224645502E+02  0.15472047459E+04  0.10100000352E+00 0.  1.
       -3    1    3    3    0  502 -0.15397151982E+04 -0.11854067192E+03 -0.33524033255E+03  0.15802407643E+04  0.10100000352E+00 0. -1.
</event>
<event>
 5   0  0.7079223E-06  0.3069919E+04  0.7818609E-02  0.8224042E-01
        2   -1    0    0  501    0  0.00000000000E+00  0.00000000000E+00  0.23550011479E+04  0.23550011479E+04  0.25500000920E-02 0. -1.
       -2   -1    0    0    0  501  0.00000000000E+00  0.00000000000E+00 -0.10004666496E+04  0.10004666496E+04  0.25500000920E-02 0.  1.
    10030    2    1    2    0    0  0.00000000000E+00  0.00000000000E+00  0.13545344984E+04  0.33554677975E+04  0.30699186362E+04 0.  0.
        5    1    3    3  502    0 -0.11824078831E+04  0.97796889364E+03  0.72052717483E+03  0.16951970560E+04  0.46999998093E+01 0. -1.
       -5    1    3    3    0  502  0.11824078831E+04 -0.97796889364E+03  0.63400732353E+03  0.16602707415E+04  0.46999998093E+01 0.  1.
</event>
<event>
 5   0  0.2612331E-06  0.3201483E+04  0.7818609E-02  0.8188426E-01
        1   -1    0    0  501    0  0.00000000000E+00  0.00000000000E+00  0.20786734808E+04  0.20786734808E+04  0.50400001928E-02 0.  1.
       -1   -1    0    0    0  501  0.00000000000E+00  0.00000000000E+00 -0.12326961483E+04  0.12326961483E+04  0.50400001928E-02 0. -1.
    10030    2    1    2    0    0  0.00000000000E+00  0.00000000000E+00  0.84597733256E+03  0.33113696291E+04  0.32014826524E+04 0.  0.
        4    1    3    3  502    0  0.51426775515E+03  0.43238018730E+03 -0.10797906079E+04  0.12717599302E+04  0.12699999809E+01 0. -1.
       -4    1    3    3    0  502 -0.51426775515E+03 -0.43238018730E+03  0.19257679404E+04  0.20396096989E+04  0.12699999809E+01 0.  1.
</event>
<event>
 5   0  0.2517725E-06  0.2337981E+04  0.7818609E-02  0.8463094E-01
       -1   -1    0    0    0  501  0.00000000000E+00  0.00000000000E+00  0.10756313804E+04  0.10756313804E+04  0.50400001928E-02 0.  1.
        1   -1    0    0  501    0  0.00000000000E+00  0.00000000000E+00 -0.12704530864E+04  0.12704530865E+04  0.50400001928E-02 0. -1.
    10030    2    1    2    0    0  0.00000000000E+00  0.00000000000E+00 -0.19482170609E+03  0.23460844668E+04  0.23379813576E+04 0.  0.
        3    1    3    3  502    0  0.46374377329E+03  0.77898949138E+03  0.64315529936E+03  0.11115447199E+04  0.10100000352E+00 0.  1.
       -3    1    3    3    0  502 -0.46374377329E+03 -0.77898949138E+03 -0.83797700545E+03  0.12345397470E+04  0.10100000352E+00 0. -1.
</event>
<event>
 5   0  0.2674441E-06  0.3136153E+04  0.7818609E-02  0.8205885E-01
       -1   -1    0    0    0  501  0.00000000000E+00  0.00000000000E+00  0.16256766904E+04  0.16256766904E+04  0.50400001928E-02 0.  1.
        1   -1    0    0  501    0  0.00000000000E+00  0.00000000000E+00 -0.15125173479E+04  0.15125173479E+04  0.50400001928E-02 0. -1.
    10030    2    1    2    0    0  0.00000000000E+00  0.00000000000E+00  0.11315934251E+03  0.31381940384E+04  0.31361531828E+04 0.  0.
        5    1    3    3  502    0 -0.97979230988E+03  0.70519812170E+03 -0.94484365692E+03  0.15329869495E+04  0.46999998093E+01 0. -1.
       -5    1    3    3    0  502  0.97979230988E+03 -0.70519812170E+03  0.10580029994E+04  0.16052070889E+04  0.46999998093E+01 0.  1.
</event>
<event>
 5   0  0.7071012E-06  0.3068210E+04  0.7818609E-02  0.8224517E-01
       -2   -1    0    0    0  501  0.00000000000E+00  0.00000000000E+00  0.12335500747E+04  0.12335500747E+04  0.25500000920E-02 0.  1.
        2   -1    0    0  501    0  0.00000000000E+00  0.00000000000E+00 -0.19078908308E+04  0.19078908308E+04  0.25500000920E-02 0. -1.
    10030    2    1    2    0    0  0.00000000000E+00  0.00000000000E+00 -0.67434075605E+03  0.31414409055E+04  0.30682104731E+04 0.  0.
        1    1    3    3  502    0 -0.67074039478E+02 -0.14856059534E+04 -0.72293193195E+03  0.16535279114E+04  0.50400001928E-02 0. -1.
       -1    1    3    3    0  502  0.67074039478E+02  0.14856059534E+04  0.48591175894E+02  0.14879129941E+04  0.50400001928E-02 0.  1.
</event>
<event>
 5   0  0.7079223E-06  0.2535845E+04  0.7818609E-02  0.8390326E-01
       -2   -1    0    0    0  501  0.00000000000E+00  0.00000000000E+00  0.12609805338E+04  0.12609805338E+04  0.25500000920E-02 0.  1.
        2   -1    0    0  501    0  0.00000000000E+00  0.00000000000E+00 -0.12749022155E+04  0.12749022155E+04  0.25500000920E-02 0. -1.
    10030    2    1    2    0    0  0.00000000000E+00  0.00000000000E+00 -0.13921681767E+02  0.25358827493E+04  0.25358445349E+04 0.  0.
        5    1    3    3  502    0 -0.97227055450E+03  0.65195779569E+03 -0.49404701214E+03  0.12706154173E+04  0.46999998093E+01 0.  1.
       -5    1    3    3    0  502  0.97227055450E+03 -0.65195779569E+03  0.48012533037E+03  0.12652673320E+04  0.46999998093E+01 0. -1.
</event>
<event>
 5   0  0.2674441E-06  0.4113012E+04  0.7818609E-02  0.7982129E-01
        1   -1    0    0  501    0  0.00000000000E+00  0.00000000000E+00  0.18053232927E+04  0.18053232927E+04  0.50400001928E-02 0. -1.
       -1   -1    0    0    0  501  0.00000000000E+00  0.00000000000E+00 -0.23426363634E+04  0.23426363635E+04  0.50400001928E-02 0.  1.
    10030    2    1    2    0    0  0.00000000000E+00  0.00000000000E+00 -0.53731307078E+03  0.41479596561E+04  0.41130115454E+04 0.  0.
        5    1    3    3  502    0 -0.83949864443E+02 -0.19696554557E+04 -0.85895360239E+03  0.21504449714E+04  0.46999998093E+01 0.  1.
       -5    1    3    3    0  502  0.83949864443E+02  0.19696554557E+04  0.32164053161E+03  0.19975146847E+04  0.46999998093E+01 0. -1.
</event>
<event>
 5   0  0.2624011E-06  0.2850908E+04  0.7818609E-02  0.8287636E-01
        1   -1    0    0  501    0  0.00000000000E+00  0.00000000000E+00  0.14038219683E+04  0.14038219683E+04  0.50400001928E-02 0. -1.
       -1   -1    0    0    0  501  0.00000000000E+00  0.00000000000E+00 -0.14474191025E+04  0.14474191025E+04  0.50400001928E-02 0.  1.
    10030    2    1    2    0    0  0.00000000000E+00  0.00000000000E+00 -0.43597134159E+02  0.28512410708E+04  0.28509077386E+04 0.  0.
        1    1    3    3  502    0 -0.80347668699E+03 -0.44413444277E+03 -0.11123794306E+04  0.14422961511E+04  0.50400001928E-02 0.  1.
       -1    1    3    3    0  502  0.80347668699E+03  0.44413444277E+03  0.10687822964E+04  0.14089449198E+04  0.50400001928E-02 0. -1.
</event>
<event>
 5   0  0.7363513E-06  0.3087167E+04  0.7818609E-02  0.8219269E-01
       -2   -1    0    0    0  501  0.00000000000E+00  0.00000000000E+00  0.95402312595E+03  0.95402312596E+03  0.25500000920E-02 0.  1.
        2   -1    0    0  501    0  0.00000000000E+00  0.00000000000E+00 -0.24974766358E+04  0.24974766358E+04  0.25500000920E-02 0. -1.
    10030    2    1    2    0    0  0.00000000000E+00  0.00000000000E+00 -0.15434535098E+04  0.34514997617E+04  0.30871672887E+04 0.  0.
        4    1    3    3  502    0  0.96152880385E+03 -0.56400484614E+03  0.42199185958E+03  0.11919386937E+04  0.12699999809E+01 0.  1.
       -4    1    3    3    0  502 -0.96152880385E+03  0.56400484614E+03 -0.19654453694E+04  0.22595610680E+04  0.12699999809E+01 0. -1.
</event>
<event>
 5   0  0.2624011E-06  0.3112053E+04  0.7818609E-02  0.8212438E-01
        1   -1    0    0  501    0  0.00000000000E+00  0.00000000000E+00  0.19566486138E+04  0.19566486138E+04  0.50400001928E-02 0. -1.
       -1   -1    0    0    0  501  0.00000000000E+00  0.00000000000E+00 -0.12374317202E+04  0.12374317202E+04  0.50400001928E-02 0.  1.
    10030    2    1    2    0    0  0.00000000000E+00  0.00000000000E+00  0.71921689359E+03  0.31940803339E+04  0.31120533799E+04 0.  0.
        1    1    3    3  502    0  0.38028607192E+03 -0.12664429339E+04 -0.48220762391E+03  0.14074869072E+04  0.50400001928E-02 0.  1.
       -1    1    3    3    0  502 -0.38028607192E+03  0.12664429339E+04  0.12014245175E+04  0.17865934268E+04  0.50400001928E-02 0. -1.
</event>
<event>
 5   0  0.7363513E-06  0.2879834E+04  0.7818609E-02  0.8278903E-01
       -2   -1    0    0    0  501  0.00000000000E+00  0.00000000000E+00  0.96635773335E+03  0.96635773335E+03  0.25500000920E-02 0. -1.
        2   -1    0    0  501    0  0.00000000000E+00  0.00000000000E+00 -0.21455417418E+04  0.21455417418E+04  0.25500000920E-02 0.  1.
    10030    2    1    2    0    0  0.00000000000E+00  0.00000000000E+00 -0.11791840084E+04  0.31118994751E+04  0.28798339219E+04 0.  0.
        4    1    3    3  502    0  0.37502756831E+03 -0.13893232712E+04 -0.53562326749E+03  0.15354995039E+04  0.12699999809E+01 0. -1.
       -4    1    3    3    0  502 -0.37502756831E+03  0.13893232712E+04 -0.64356074091E+03  0.15763999712E+04  0.12699999809E+01 0.  1.
</event>
<event>
 5   0  0.7071012E-06  0.3415315E+04  0.7818609E-02  0.8134158E-01
       -2   -1    0    0    0  501  0.00000000000E+00  0.00000000000E+00  0.11427277687E+04  0.11427277687E+04  0.25500000920E-02 0.  1.
        2   -1    0    0  501    0  0.00000000000E+00  0.00000000000E+00 -0.25518713629E+04  0.25518713629E+04  0.25500000920E-02 0. -1.
    10030    2    1    2    0    0  0.00000000000E+00  0.00000000000E+00 -0.14091435942E+04  0.36945991316E+04  0.34153150769E+04 0.  0.
        1    1    3    3  502    0 -0.46727271604E+02 -0.11294640524E+04  0.68002364270E+03  0.13192060636E+04  0.50400001928E-02 0.  1.
       -1    1    3    3    0  502  0.46727271604E+02  0.11294640524E+04 -0.20891672369E+04  0.23753930680E+04  0.50400001928E-02 0. -1.
</event>
<event>
 5   0  0.7079223E-06  0.2963390E+04  0.7818609E-02  0.8254263E-01
        2   -1    0    0  501    0  0.00000000000E+00  0.00000000000E+00  0.14852798912E+04  0.14852798912E+04  0.25500000920E-02 0.  1.
       -2   -1    0    0    0  501  0.00000000000E+00  0.00000000000E+00 -0.14781189986E+04  0.14781189986E+04  0.25500000920E-02 0. -1.
    10030    2    1    2    0    0  0.00000000000E+00  0.00000000000E+00  0.71608925873E+01  0.29633988898E+04  0.29633902378E+04 0.  0.
        5    1    3    3  502    0  0.46330410898E+03  0.53652580606E+03  0.13046944239E+04  0.14848435162E+04  0.46999998093E+01 0.  1.
       -5    1    3    3    0  502 -0.46330410898E+03 -0.53652580606E+03 -0.12975335313E+04  0.14785553736E+04  0.46999998093E+01 0. -1.
</event>
<event>
 5   0  0.2624011E-06  0.3118742E+04  0.7818609E-02  0.8210613E-01
        1   -1    0    0  501    0  0.00000000000E+00  0.00000000000E+00  0.13482121086E+04  0.13482121086E+04  0.50400001928E-02 0. -1.
       -1   -1    0    0    0  501  0.00000000000E+00  0.00000000000E+00 -0.18036019912E+04  0.18036019912E+04  0.50400001928E-02 0.  1.
    10030    2    1    2    0    0  0.00000000000E+00  0.00000000000E+00 -0.45538988264E+03  0.31518140999E+04  0.31187420821E+04 0.  0.
        1    1    3    3  502    0  0.61232422441E+03 -0.91809450987E+03  0.88571378641E+03  0.14150361820E+04  0.50400001928E-02 0. -1.
       -1    1    3    3    0  502 -0.61232422441E+03  0.91809450987E+03 -0.13411036691E+04  0.17367779179E+04  0.50400001928E-02 0.  1.
</event>
<event>
 5   0  0.2674441E-06  0.2576064E+04  0.7818609E-02  0.8376378E-01
        1   -1    0    0  501    0  0.00000000000E+00  0.00000000000E+00  0.15470356793E+04  0.15470356793E+04  0.50400001928E-02 0. -1.
       -1   -1    0    0    0  501  0.00000000000E+00  0.00000000000E+00 -0.10723901396E+04  0.10723901396E+04  0.50400001928E-02 0.  1.
    10030    2    1    2    0    0  0.00000000000E+00  0.00000000000E+00  0.47464553976E+03  0.26194258189E+04  0.25760635148E+04 0.  0.
        5    1    3    3  502    0 -0.27198262619E+03  0.66564827267E+03 -0.84928166722E+03  0.11128178702E+04  0.46999998093E+01 0.  1.
       -5    1    3    3    0  502  0.27198262619E+03 -0.66564827267E+03  0.13239272070E+04  0.15066079488E+04  0.46999998093E+01 0. -1.
</event>
<event>
 5   0  0.7363513E-06  0.3071031E+04  0.7818609E-02  0.8223733E-01
        2   -1    0    0  501    0  0.00000000000E+00  0.00000000000E+00  0.21759084151E+04  0.21759084151E+04  0.25500000920E-02 0. -1.
       -2   -1    0    0    0  501  0.00000000000E+00  0.00000000000E+00 -0.10835970863E+04  0.10835970863E+04  0.25500000920E-02 0.  1.
    10030    2    1    2    0    0  0.00000000000E+00  0.00000000000E+00  0.10923113288E+04  0.32595055014E+04  0.30710311093E+04 0.  0.
        4    1    3    3  502    0  0.13050338235E+04  0.72675216507E+03  0.92368845044E+03  0.17562698985E+04  0.12699999809E+01 0.  1.
       -4    1    3    3    0  502 -0.13050338235E+04 -0.72675216507E+03  0.16862287840E+03  0.15032356029E+04  0.12699999809E+01 0. -1.
</event>
<event>
 5   0  0.2612331E-06  0.2691297E+04  0.7818609E-02  0.8337834E-01
        1   -1    0    0  501    0  0.00000000000E+00  0.00000000000E+00  0.17517290085E+04  0.17517290085E+04  0.50400001928E-02 0. -1.
       -1   -1    0    0    0  501  0.00000000000E+00  0.00000000000E+00 -0.10337042396E+04  0.10337042397E+04  0.50400001928E-02 0.  1.
    10030    2    1    2    0    0  0.00000000000E+00  0.00000000000E+00  0.71802476887E+03  0.27854332482E+04  0.26912968642E+04 0.  0.
        4    1    3    3  502    0  0.86303840236E+03  0.17997576709E+03  0.14112046760E+04  0.16639491612E+04  0.12699999809E+01 0. -1.
       -4    1    3    3    0  502 -0.86303840236E+03 -0.17997576709E+03 -0.69317990714E+03  0.11214840869E+04  0.12699999809E+01 0.  1.
</event>
<event>
 5   0  0.7363513E-06  0.3023832E+04  0.7818609E-02  0.8236958E-01
        2   -1    0    0  501    0  0.00000000000E+00  0.00000000000E+00  0.15792434694E+04  0.15792434694E+04  0.25500000920E-02 0. -1.
       -2   -1    0    0    0  501  0.00000000000E+00  0.00000000000E+00 -0.14474585750E+04  0.14474585750E+04  0.25500000920E-02 0.  1.
    10030    2    1    2    0    0  0.00000000000E+00  0.00000000000E+00  0.13178489439E+03  0.30267020443E+04  0.30238316763E+04 0.  0.
        4    1    3    3  502    0  0.52159726833E+03  0.29655417763E+03  0.14549704907E+04  0.15738325300E+04  0.12699999809E+01 0. -1.
       -4    1    3    3    0  502 -0.52159726833E+03 -0.29655417763E+03 -0.13231855963E+04  0.14528695144E+04  0.12699999809E+01 0.  1.
</event>
<event>
 5   0  0.2598987E-06  0.3072601E+04  0.7818609E-02  0.8223298E-01
        1   -1    0    0  501    0  0.00000000000E+00  0.00000000000E+00  0.11938412304E+04  0.11938412304E+04  0.50400001928E-02 0.  1.
       -1   -1    0    0    0  501  0.00000000000E+00  0.00000000000E+00 -0.19769960273E+04  0.19769960273E+04  0.50400001928E-02 0. -1.
    10030    2    1    2    0    0  0.00000000000E+00  0.00000000000E+00 -0.78315479686E+03  0.31708372577E+04  0.30726010934E+04 0.  0.
        2    1    3    3  502    0 -0.80857145669E+03  0.12852218032E+04 -0.63279508655E+03  0.16449962023E+04  0.25500000920E-02 0. -1.
       -2    1    3    3    0  502  0.80857145669E+03 -0.12852218032E+04 -0.15035971031E+03  0.15258410554E+04  0.25500000920E-02 0.  1.
</event>
<event>
 5   0  0.7071012E-06  0.3055582E+04  0.7818609E-02  0.8228035E-01
       -2   -1    0    0    0  501  0.00000000000E+00  0.00000000000E+00  0.10398003964E+04  0.10398003964E+04  0.25500000920E-02 0. -1.
        2   -1    0    0  501    0  0.00000000000E+00  0.00000000000E+00 -0.22448010230E+04  0.22448010231E+04  0.25500000920E-02 0.  1.
    10030    2    1    2    0    0  0.00000000000E+00  0.00000000000E+00 -0.12050006266E+04  0.32846014195E+04  0.30555817735E+04 0.  0.
        1    1    3    3  502    0  0.10105047771E+04 -0.89199159049E+03  0.17069986102E+03  0.13586417279E+04  0.50400001928E-02 0. -1.
       -1    1    3    3    0  502 -0.10105047771E+04  0.89199159049E+03 -0.13757004876E+04  0.19259596916E+04  0.50400001928E-02 0.  1.
</event>
<event>
 5   0  0.2624011E-06  0.3005225E+04  0.7818609E-02  0.8242241E-01
       -1   -1    0    0    0  501  0.00000000000E+00  0.00000000000E+00  0.14713497745E+04  0.14713497745E+04  0.50400001928E-02 0. -1.
        1   -1    0    0  501    0  0.00000000000E+00  0.00000000000E+00 -0.15345391975E+04  0.15345391975E+04  0.50400001928E-02 0.  1.
    10030    2    1    2    0    0  0.00000000000E+00  0.00000000000E+00 -0.63189423071E+02  0.30058889720E+04  0.30052247185E+04 0.  0.
        1    1    3    3  502    0  0.51573867289E+03 -0.81884970372E+03 -0.11813454981E+04  0.15271144036E+04  0.50400001928E-02 0.  1.
       -1    1    3    3    0  502 -0.51573867289E+03  0.81884970372E+03  0.11181560750E+04  0.14787745684E+04  0.50400001928E-02 0. -1.
</event>
<event>
 5   0  0.2624011E-06  0.2791056E+04  0.7818609E-02  0.8306051E-01
        1   -1    0    0  501    0  0.00000000000E+00  0.00000000000E+00  0.15174168067E+04  0.15174168067E+04  0.50400001928E-02 0.  1.
       -1   -1    0    0    0  501  0.00000000000E+00  0.00000000000E+00 -0.12834299015E+04  0.12834299015E+04  0.50400001928E-02 0. -1.
    10030    2    1    2    0    0  0.00000000000E+00  0.00000000000E+00  0.23398690517E+03  0.28008467082E+04  0.27910557879E+04 0.  0.
        1    1    3    3  502    0  0.10218441331E+04 -0.63261610993E+03 -0.59481104228E+03  0.13409581466E+04  0.50400001928E-02 0. -1.
       -1    1    3    3    0  502 -0.10218441331E+04  0.63261610993E+03  0.82879794744E+03  0.14598885617E+04  0.50400001928E-02 0.  1.
</event>
<event>
 5   0  0.2517725E-06  0.3103003E+04  0.7818609E-02  0.8214914E-01
       -1   -1    0    0    0  501  0.00000000000E+00  0.00000000000E+00  0.29783250532E+04  0.29783250532E+04  0.50400001928E-02 0. -1.
        1   -1    0    0  501    0  0.00000000000E+00  0.00000000000E+00 -0.80822486253E+03  0.80822486255E+03  0.50400001928E-02 0.  1.
    10030    2    1    2    0    0  0.00000000000E+00  0.00000000000E+00  0.21701001907E+04  0.37865499158E+04  0.31030026470E+04 0.  0.
        3    1    3    3  502    0 -0.21971887405E+03  0.13117632699E+04  0.20598721325E+04  0.24519527875E+04  0.10100000352E+00 0. -1.
       -3    1    3    3    0  502  0.21971887405E+03 -0.13117632699E+04  0.11022805822E+03  0.13345971283E+04  0.10100000352E+00 0.  1.
</event>
<event>
 5   0  0.7094341E-06  0.3036960E+04  0.7818609E-02  0.8233255E-01
        2   -1    0    0  501    0  0.00000000000E+00  0.00000000000E+00  0.29998489297E+04  0.29998489297E+04  0.25500000920E-02 0.  1.
       -2   -1    0    0    0  501  0.00000000000E+00  0.00000000000E+00 -0.76863267523E+03  0.76863267523E+03  0.25500000920E-02 0. -1.
    10030    2    1    2    0    0  0.00000000000E+00  0.00000000000E+00  0.22312162544E+04  0.37684816049E+04  0.30369602619E+04 0.  0.
        3    1    3    3  502    0 -0.96263503007E+03  0.51725223407E+03  0.24238705972E+04  0.26588277035E+04  0.10100000352E+00 0.  1.
       -3    1    3    3    0  502  0.96263503007E+03 -0.51725223407E+03 -0.19265434281E+03  0.11096539013E+04  0.10100000352E+00 0. -1.
</event>
<event>
 5   0  0.7414808E-06  0.3103159E+04  0.7818609E-02  0.8214871E-01
       -2   -1    0    0    0  501  0.00000000000E+00  0.00000000000E+00  0.10115818348E+04  0.10115818348E+04  0.25500000920E-02 0. -1.
        2   -1    0    0  501    0  0.00000000000E+00  0.00000000000E+00 -0.23798361352E+04  0.23798361352E+04  0.25500000920E-02 0.  1.
    10030    2    1    2    0    0  0.00000000000E+00  0.00000000000E+00 -0.13682543004E+04  0.33914179700E+04  0.31031590383E+04 0.  0.
        2    1    3    3  502    0  0.33728593578E+03 -0.12427353855E+04 -0.16301235617E+04  0.20773675330E+04  0.25500000920E-02 0. -1.
       -2    1    3    3    0  502 -0.33728593578E+03  0.12427353855E+04  0.26186926133E+03  0.13140504370E+04  0.25500000920E-02 0.  1.
</event>
<event>
 5   0  0.2612331E-06  0.3111137E+04  0.7818609E-02  0.8212688E-01
        1   -1    0    0  501    0  0.00000000000E+00  0.00000000000E+00  0.16641877286E+04  0.16641877286E+04  0.50400001928E-02 0.  1.
       -1   -1    0    0    0  501  0.00000000000E+00  0.00000000000E+00 -0.14540388124E+04  0.14540388124E+04  0.50400001928E-02 0. -1.
    10030    2    1    2    0    0  0.00000000000E+00  0.00000000000E+00  0.21014891624E+03  0.31182265411E+04  0.31111371224E+04 0.  0.
        4    1    3    3  502    0  0.14105830454E+04  0.60310179922E+03 -0.15303056255E+03  0.15417186106E+04  0.12699999809E+01 0. -1.
       -4    1    3    3    0  502 -0.14105830454E+04 -0.60310179922E+03  0.36317947879E+03  0.15765079305E+04  0.12699999809E+01 0.  1.
</event>
<event>
 5   0  0.7071012E-06  0.2871875E+04  0.7818609E-02  0.8281295E-01
       -2   -1    0    0    0  501  0.00000000000E+00  0.00000000000E+00  0.11611163433E+04  0.11611163433E+04  0.25500000920E-02 0.  1.
        2   -1    0    0  501    0  0.00000000000E+00  0.00000000000E+00 -0.17758049416E+04  0.17758049416E+04  0.25500000920E-02 0. -1.
    10030    2    1    2    0    0  0.00000000000E+00  0.00000000000E+00 -0.61468859828E+03  0.29369212850E+04  0.28718747468E+04 0.  0.
        1    1    3    3  502    0  0.10341652312E+04 -0.78608744374E+03 -0.93315645376E+03  0.15994412030E+04  0.50400001928E-02 0. -1.
       -1    1    3    3    0  502 -0.10341652312E+04  0.78608744374E+03  0.31846785547E+03  0.13374800820E+04  0.50400001928E-02 0.  1.
</event>
<event>
 5   0  0.7079223E-06  0.3021503E+04  0.7818609E-02  0.8237617E-01
       -2   -1    0    0    0  501  0.00000000000E+00  0.00000000000E+00  0.10222001531E+04  0.10222001531E+04  0.25500000920E-02 0. -1.
        2   -1    0    0  501    0  0.00000000000E+00  0.00000000000E+00 -0.22328016340E+04  0.22328016340E+04  0.25500000920E-02 0.  1.
    10030    2    1    2    0    0  0.00000000000E+00  0.00000000000E+00 -0.12106014809E+04  0.32550017870E+04  0.30215030511E+04 0.  0.
        5    1    3    3  502    0  0.27712161926E+02 -0.84874325648E+03 -0.19513456570E+04  0.21281224218E+04  0.46999998093E+01 0.  1.
       -5    1    3    3    0  502 -0.27712161926E+02  0.84874325648E+03  0.74074417607E+03  0.11268793652E+04  0.46999998093E+01 0. -1.
</event>
<event>
 5   0  0.2612331E-06  0.3172196E+04  0.7818609E-02  0.8196199E-01
        1   -1    0    0  501    0  0.00000000000E+00  0.00000000000E+00  0.19128355452E+04  0.19128355452E+04  0.50400001928E-02 0.  1.
       -1   -1    0    0    0  501  0.00000000000E+00  0.00000000000E+00 -0.13151715324E+04  0.13151715324E+04  0.50400001928E-02 0. -1.
    10030    2    1    2    0    0  0.00000000000E+00  0.00000000000E+00  0.59766401279E+03  0.32280070776E+04  0.31721959935E+04 0.  0.
        4    1    3    3  502    0 -0.59187105343E+03  0.13021326906E+04 -0.39867965453E+03  0.14848595784E+04  0.12699999809E+01 0. -1.
       -4    1    3    3    0  502  0.59187105343E+03 -0.13021326906E+04  0.99634366732E+03  0.17431474992E+04  0.12699999809E+01 0.  1.
</event>
<event>
 5   0  0.7071012E-06  0.2970635E+04  0.7818609E-02  0.8252166E-01
        2   -1    0    0  501    0  0.00000000000E+00  0.00000000000E+00  0.22906887685E+04  0.22906887685E+04  0.25500000920E-02 0. -1.
       -2   -1    0    0    0  501  0.00000000000E+00  0.00000000000E+00 -0.96310224807E+03  0.96310224807E+03  0.25500000920E-02 0.  1.
    10030    2    1    2    0    0  0.00000000000E+00  0.00000000000E+00  0.13275865204E+04  0.32537910166E+04  0.29706346141E+04 0.  0.
        1    1    3    3  502    0 -0.12450864381E+04 -0.44772410621E+03  0.14030077863E+04  0.19285040737E+04  0.50400001928E-02 0. -1.
       -1    1    3    3    0  502  0.12450864381E+04  0.44772410621E+03 -0.75421265889E+02  0.13252869429E+04  0.50400001928E-02 0.  1.
</event>
<event>
 5   0  0.2624011E-06  0.3005904E+04  0.7818609E-02  0.8242047E-01
        1   -1    0    0  501    0  0.00000000000E+00  0.00000000000E+00  0.19607192496E+04  0.19607192496E+04  0.50400001928E-02 0.  1.
       -1   -1    0    0    0  501  0.00000000000E+00  0.00000000000E+00 -0.11520593310E+04  0.11520593310E+04  0.50400001928E-02 0. -1.
    10030    2    1    2    0    0  0.00000000000E+00  0.00000000000E+00  0.80865991866E+03  0.31127785806E+04  0.30059041282E+04 0.  0.
        1    1    3    3  502    0  0.96509118606E+03  0.72193015062E+03 -0.52552723314E+03  0.13148243276E+04  0.50400001928E-02 0. -1.
       -1    1    3    3    0  502 -0.96509118606E+03 -0.72193015062E+03  0.13341871518E+04  0.17979542530E+04  0.50400001928E-02 0.  1.
</event>
<event>
 5   0  0.7071012E-06  0.2952079E+04  0.7818609E-02  0.8257549E-01
        2   -1    0    0  501    0  0.00000000000E+00  0.00000000000E+00  0.10388581041E+04  0.10388581041E+04  0.25500000920E-02 0. -1.
       -2   -1    0    0    0  501  0.00000000000E+00  0.00000000000E+00 -0.20971998974E+04  0.20971998974E+04  0.25500000920E-02 0.  1.
    10030    2    1    2    0    0  0.00000000000E+00  0.00000000000E+00 -0.10583417933E+04  0.31360580015E+04  0.29520793413E+04 0.  0.
        1    1    3    3  502    0  0.37431594509E+03 -0.13005055269E+03  0.98129501822E+03  0.10582842179E+04  0.50400001928E-02 0. -1.
       -1    1    3    3    0  502 -0.37431594509E+03  0.13005055269E+03 -0.20396368115E+04  0.20777737836E+04  0.50400001928E-02 0.  1.
</event>
<event>
 5   0  0.2612331E-06  0.2328202E+04  0.7818609E-02  0.8466884E-01
       -1   -1    0    0    0  501  0.00000000000E+00  0.00000000000E+00  0.12859185998E+04  0.12859185998E+04  0.50400001928E-02 0.  1.
        1   -1    0    0  501    0  0.00000000000E+00  0.00000000000E+00 -0.10538232262E+04  0.10538232262E+04  0.50400001928E-02 0. -1.
    10030    2    1    2    0    0  0.00000000000E+00  0.00000000000E+00  0.23209537364E+03  0.23397418260E+04  0.23282017846E+04 0.  0.
        4    1    3    3  502    0  0.75081691288E+03  0.94680638387E+02  0.10049878207E+04  0.12580511089E+04  0.12699999809E+01 0.  1.
       -4    1    3    3    0  502 -0.75081691288E+03 -0.94680638387E+02 -0.77289244705E+03  0.10816907171E+04  0.12699999809E+01 0. -1.
</event>
<event>
 5   0  0.7414808E-06  0.3105489E+04  0.7818609E-02  0.8214233E-01
       -2   -1    0    0    0  501  0.00000000000E+00  0.00000000000E+00  0.11935279046E+04  0.11935279046E+04  0.25500000920E-02 0.  1.
        2   -1    0    0  501    0  0.00000000000E+00  0.00000000000E+00 -0.20200749344E+04  0.20200749344E+04  0.25500000920E-02 0. -1.
    10030    2    1    2    0    0  0.00000000000E+00  0.00000000000E+00 -0.82654702979E+03  0.32136028391E+04  0.31054892070E+04 0.  0.
        2    1    3    3  502    0 -0.41679685693E+02  0.10632076465E+03  0.11891763789E+04  0.11946471284E+04  0.25500000920E-02 0.  1.
       -2    1    3    3    0  502  0.41679685693E+02 -0.10632076465E+03 -0.20157234087E+04  0.20189557107E+04  0.25500000920E-02 0. -1.
</event>
<event>
 5   0  0.7414808E-06  0.2424553E+04  0.7818609E-02  0.8430368E-01
        2   -1    0    0  501    0  0.00000000000E+00  0.00000000000E+00  0.14780772776E+04  0.14780772776E+04  0.25500000920E-02 0. -1.
       -2   -1    0    0    0  501  0.00000000000E+00  0.00000000000E+00 -0.99427465742E+03  0.99427465742E+03  0.25500000920E-02 0.  1.
    10030    2    1    2    0    0  0.00000000000E+00  0.00000000000E+00  0.48380262014E+03  0.24723519350E+04  0.24245533847E+04 0.  0.
        2    1    3    3  502    0 -0.40414488974E+03  0.10665733168E+04  0.66073345296E+03  0.13181352085E+04  0.25500000920E-02 0. -1.
       -2    1    3    3    0  502  0.40414488974E+03 -0.10665733168E+04 -0.17693083282E+03  0.11542167265E+04  0.25500000920E-02 0.  1.
</event>
<event>
 5   0  0.2612331E-06  0.2088006E+04  0.7818609E-02  0.8566545E-01
       -1   -1    0    0    0  501  0.00000000000E+00  0.00000000000E+00  0.15083615049E+04  0.15083615049E+04  0.50400001928E-02 0.  1.
        1   -1    0    0  501    0  0.00000000000E+00  0.00000000000E+00 -0.72260045514E+03  0.72260045516E+03  0.50400001928E-02 0. -1.
    10030    2    1    2    0    0  0.00000000000E+00  0.00000000000E+00  0.78576104973E+03  0.22309619600E+04  0.20880064272E+04 0.  0.
        4    1    3    3  502    0  0.86510377461E+03 -0.43469172767E+03  0.81023843862E+03  0.12624774767E+04  0.12699999809E+01 0.  1.
       -4    1    3    3    0  502 -0.86510377461E+03  0.43469172767E+03 -0.24477388890E+02  0.96848448331E+03  0.12699999809E+01 0. -1.
</event>
<event>
 5   0  0.2674441E-06  0.3162764E+04  0.7818609E-02  0.8198721E-01
       -1   -1    0    0    0  501  0.00000000000E+00  0.00000000000E+00  0.15139764897E+04  0.15139764897E+04  0.50400001928E-02 0. -1.
        1   -1    0    0  501    0  0.00000000000E+00  0.00000000000E+00 -0.16517880424E+04  0.16517880424E+04  0.50400001928E-02 0.  1.
    10030    2    1    2    0    0  0.00000000000E+00  0.00000000000E+00 -0.13781155271E+03  0.31657645321E+04  0.31627635145E+04 0.  0.
        5    1    3    3  502    0  0.15739150911E+04 -0.12726385588E+03 -0.15466886648E+03  0.15866156911E+04  0.46999998093E+01 0. -1.
       -5    1    3    3    0  502 -0.15739150911E+04  0.12726385588E+03  0.16857313772E+02  0.15791488410E+04  0.46999998093E+01 0.  1.
</event>
<event>
 5   0  0.2598987E-06  0.3002878E+04  0.7818609E-02  0.8242910E-01
       -1   -1    0    0    0  501  0.00000000000E+00  0.00000000000E+00  0.17361131131E+04  0.17361131131E+04  0.50400001928E-02 0. -1.
        1   -1    0    0  501    0  0.00000000000E+00  0.00000000000E+00 -0.12984862075E+04  0.12984862075E+04  0.50400001928E-02 0.  1.
    10030    2    1    2    0    0  0.00000000000E+00  0.00000000000E+00  0.43762690563E+03  0.30345993207E+04  0.30028779077E+04 0.  0.
        2    1    3    3  502    0 -0.21464541170E+01 -0.32036425204E+03  0.17011698470E+04  0.17310738602E+04  0.25500000920E-02 0. -1.
       -2    1    3    3    0  502  0.21464541170E+01  0.32036425204E+03 -0.12635429414E+04  0.13035254604E+04  0.25500000920E-02 0.  1.
</event>
<event>
 5   0  0.7094341E-06  0.3089566E+04  0.7818609E-02  0.8218607E-01
       -2   -1    0    0    0  501  0.00000000000E+00  0.00000000000E+00  0.22882262687E+04  0.22882262687E+04  0.25500000920E-02 0. -1.
        2   -1    0    0  501    0  0.00000000000E+00  0.00000000000E+00 -0.10428840193E+04  0.10428840193E+04  0.25500000920E-02 0.  1.
    10030    2    1    2    0    0  0.00000000000E+00  0.00000000000E+00  0.12453422495E+04  0.33311102880E+04  0.30895660589E+04 0.  0.
        3    1    3    3  502    0 -0.42948703373E+02  0.10141362083E+04  0.18782020589E+04  0.21349378971E+04  0.10100000352E+00 0. -1.
       -3    1    3    3    0  502  0.42948703373E+02 -0.10141362083E+04 -0.63285980945E+03  0.11961723909E+04  0.10100000352E+00 0.  1.
</event>
<event>
 5   0  0.2598987E-06  0.2727965E+04  0.7818609E-02  0.8325988E-01
        1   -1    0    0  501    0  0.00000000000E+00  0.00000000000E+00  0.10563020520E+04  0.10563020520E+04  0.50400001928E-02 0.  1.
       -1   -1    0    0    0  501  0.00000000000E+00  0.00000000000E+00 -0.17612841491E+04  0.17612841491E+04  0.50400001928E-02 0. -1.
    10030    2    1    2    0    0  0.00000000000E+00  0.00000000000E+00 -0.70498209713E+03  0.28175862011E+04  0.27279648537E+04 0.  0.
        2    1    3    3  502    0 -0.12797292014E+03 -0.67941169873E+03  0.86192197076E+03  0.11049374681E+04  0.25500000920E-02 0.  1.
       -2    1    3    3    0  502  0.12797292014E+03  0.67941169873E+03 -0.15669040679E+04  0.17126487330E+04  0.25500000920E-02 0. -1.
</event>
<event>
 5   0  0.2624011E-06  0.2289422E+04  0.7818609E-02  0.8482104E-01
        1   -1    0    0  501    0  0.00000000000E+00  0.00000000000E+00  0.11581766700E+04  0.11581766700E+04  0.50400001928E-02 0.  1.
       -1   -1    0    0    0  501  0.00000000000E+00  0.00000000000E+00 -0.11314019660E+04  0.11314019660E+04  0.50400001928E-02 0. -1.
    10030    2    1    2    0    0  0.00000000000E+00  0.00000000000E+00  0.26774704005E+02  0.22895786360E+04  0.22894220768E+04 0.  0.
        1    1    3    3  502    0  0.10573989554E+04  0.36116777561E+03  0.26205802766E+03  0.11476973132E+04  0.50400001928E-02 0. -1.
       -1    1    3    3    0  502 -0.10573989554E+04 -0.36116777561E+03 -0.23528332365E+03  0.11418813228E+04  0.50400001928E-02 0.  1.
</event>
<event>
 5   0  0.7071012E-06  0.3587915E+04  0.7818609E-02  0.8093265E-01
        2   -1    0    0  501    0  0.00000000000E+00  0.00000000000E+00  0.18754851670E+04  0.18754851670E+04  0.25500000920E-02 0. -1.
       -2   -1    0    0    0  501  0.00000000000E+00  0.00000000000E+00 -0.17159739524E+04  0.17159739524E+04  0.25500000920E-02 0.  1.
    10030    2    1    2    0    0  0.00000000000E+00  0.00000000000E+00  0.15951121456E+03  0.35914591193E+04  0.35879151019E+04 0.  0.
        1    1    3    3  502    0  0.16184274294E+03  0.11729864298E+03 -0.17047929746E+04  0.17164705448E+04  0.50400001928E-02 0.  1.
       -1    1    3    3    0  502 -0.16184274294E+03 -0.11729864298E+03  0.18643041891E+04  0.18749885745E+04  0.50400001928E-02 0. -1.
</event>
<event>
 5   0  0.2674441E-06  0.2993573E+04  0.7818609E-02  0.8245569E-01
        1   -1    0    0  501    0  0.00000000000E+00  0.00000000000E+00  0.16460884467E+04  0.16460884467E+04  0.50400001928E-02 0. -1.
       -1   -1    0    0    0  501  0.00000000000E+00  0.00000000000E+00 -0.13610261153E+04  0.13610261153E+04  0.50400001928E-02 0.  1.
    10030    2    1    2    0    0  0.00000000000E+00  0.00000000000E+00  0.28506233132E+03  0.30071145620E+04  0.29935726910E+04 0.  0.
        5    1    3    3  502    0  0.11153087819E+04 -0.85710434566E+03 -0.37145300488E+03  0.14548336548E+04  0.46999998093E+01 0.  1.
       -5    1    3    3    0  502 -0.11153087819E+04  0.85710434566E+03  0.65651533620E+03  0.15522809072E+04  0.46999998093E+01 0. -1.
</event>
<event>
 5   0  0.2674441E-06  0.3138771E+04  0.7818609E-02  0.8205177E-01
       -1   -1    0    0    0  501  0.00000000000E+00  0.00000000000E+00  0.15550831003E+04  0.15550831003E+04  0.50400001928E-02 0.  1.
        1   -1    0    0  501    0  0.00000000000E+00  0.00000000000E+00 -0.15838194098E+04  0.15838194098E+04  0.50400001928E-02 0. -1.
    10030    2    1    2    0    0  0.00000000000E+00  0.00000000000E+00 -0.28736309500E+02  0.31389025101E+04  0.31387709685E+04 0.  0.
        5    1    3    3  502    0  0.70511807759E+03  0.59918787254E+03  0.12532539391E+04  0.15578463133E+04  0.46999998093E+01 0.  1.
       -5    1    3    3    0  502 -0.70511807759E+03 -0.59918787254E+03 -0.12819902486E+04  0.15810561968E+04  0.46999998093E+01 0. -1.
</event>
<event>
 5   0  0.7414808E-06  0.3060799E+04  0.7818609E-02  0.8226579E-01
       -2   -1    0    0    0  501  0.00000000000E+00  0.00000000000E+00  0.11008518055E+04  0.11008518055E+04  0.25500000920E-02 0.  1.
        2   -1    0    0  501    0  0.00000000000E+00  0.00000000000E+00 -0.21275552347E+04  0.21275552347E+04  0.25500000920E-02 0. -1.
    10030    2    1    2    0    0  0.00000000000E+00  0.00000000000E+00 -0.10267034292E+04  0.32284070402E+04  0.30607992560E+04 0.  0.
        2    1    3    3  502    0  0.37958382680E+03 -0.14717681031E+04 -0.32485409371E+03  0.15542571901E+04  0.25500000920E-02 0. -1.
       -2    1    3    3    0  502 -0.37958382680E+03  0.14717681031E+04 -0.70184933551E+03  0.16741498501E+04  0.25500000920E-02 0.  1.
</event>
<event>
 5   0  0.7414808E-06  0.2169130E+04  0.7818609E-02  0.8531388E-01
        2   -1    0    0  501    0  0.00000000000E+00  0.00000000000E+00  0.22698682549E+04  0.22698682549E+04  0.25500000920E-02 0.  1.
       -2   -1    0    0    0  501  0.00000000000E+00  0.00000000000E+00 -0.51821561060E+03  0.51821561061E+03  0.25500000920E-02 0. -1.
    10030    2    1    2    0    0  0.00000000000E+00  0.00000000000E+00  0.17516526443E+04  0.27880838655E+04  0.21691299304E+04 0.  0.
        2    1    3    3  502    0  0.10142264120E+03  0.25666135719E+03 -0.47232986553E+03  0.54704397108E+03  0.25500000920E-02 0. -1.
       -2    1    3    3    0  502 -0.10142264120E+03 -0.25666135719E+03  0.22239825098E+04  0.22410398944E+04  0.25500000920E-02 0.  1.
</event>
<event>
 5   0  0.2517725E-06  0.3108605E+04  0.7818609E-02  0.8213380E-01
       -1   -1    0    0    0  501  0.00000000000E+00  0.00000000000E+00  0.13894922039E+04  0.13894922039E+04  0.50400001928E-02 0. -1.
        1   -1    0    0  501    0  0.00000000000E+00  0.00000000000E+00 -0.17386608293E+04  0.17386608293E+04  0.50400001928E-02 0.  1.
    10030    2    1    2    0    0  0.00000000000E+00  0.00000000000E+00 -0.34916862544E+03  0.31281530332E+04  0.31086046178E+04 0.  0.
        3    1    3    3  502    0 -0.97373585576E+03  0.96996156413E+03  0.55583745050E+03  0.14825458625E+04  0.10100000352E+00 0. -1.
       -3    1    3    3    0  502  0.97373585576E+03 -0.96996156413E+03 -0.90500607594E+03  0.16456071707E+04  0.10100000352E+00 0.  1.
</event>
<event>
 5   0  0.7079223E-06  0.3241523E+04  0.7818609E-02  0.8177936E-01
        2   -1    0    0  501    0  0.00000000000E+00  0.00000000000E+00  0.16956410904E+04  0.16956410904E+04  0.25500000920E-02 0.  1.
       -2   -1    0    0    0  501  0.00000000000E+00  0.00000000000E+00 -0.15491889861E+04  0.15491889861E+04  0.25500000920E-02 0. -1.
    10030    2    1    2    0    0  0.00000000000E+00  0.00000000000E+00  0.14645210429E+03  0.32448300766E+04  0.32415234084E+04 0.  0.
        5    1    3    3  502    0 -0.39986658108E+03 -0.37963984425E+03 -0.14524109138E+04  0.15535569660E+04  0.46999998093E+01 0. -1.
       -5    1    3    3    0  502  0.39986658108E+03  0.37963984425E+03  0.15988630181E+04  0.16912731106E+04  0.46999998093E+01 0.  1.
</event>
<event>
 5   0  0.2612331E-06  0.3074218E+04  0.7818609E-02  0.8222849E-01
       -1   -1    0    0    0  501  0.00000000000E+00  0.00000000000E+00  0.87299197282E+03  0.87299197284E+03  0.50400001928E-02 0. -1.
        1   -1    0    0  501    0  0.00000000000E+00  0.00000000000E+00 -0.27064446839E+04  0.27064446839E+04  0.50400001928E-02 0.  1.
    10030    2    1    2    0    0  0.00000000000E+00  0.00000000000E+00 -0.18334527111E+04  0.35794366567E+04  0.30742182642E+04 0.  0.
        4    1    3    3  502    0  0.69593644176E+03 -0.73938813353E+00  0.67904663014E+03  0.97233431312E+03  0.12699999809E+01 0. -1.
       -4    1    3    3    0  502 -0.69593644176E+03  0.73938813353E+00 -0.25124993412E+04  0.26071023436E+04  0.12699999809E+01 0.  1.
</event>
<event>
 5   0  0.7414808E-06  0.3113184E+04  0.7818609E-02  0.8212129E-01
        2   -1    0    0  501    0  0.00000000000E+00  0.00000000000E+00  0.27045674036E+04  0.27045674036E+04  0.25500000920E-02 0. -1.
       -2   -1    0    0    0  501  0.00000000000E+00  0.00000000000E+00 -0.89588400152E+03  0.89588400153E+03  0.25500000920E-02 0.  1.
    10030    2    1    2    0    0  0.00000000000E+00  0.00000000000E+00  0.18086834021E+04  0.36004514052E+04  0.31131840087E+04 0.  0.
        2    1    3    3  502    0  0.56095697036E+03 -0.68862048865E+01 -0.77490342068E+03  0.95665848337E+03  0.25500000920E-02 0.  1.
       -2    1    3    3    0  502 -0.56095697036E+03  0.68862048865E+01  0.25835868228E+04  0.26437929218E+04  0.25500000920E-02 0. -1.
</event>
<event>
 5   0  0.2517725E-06  0.3093921E+04  0.7818609E-02  0.8217408E-01
       -1   -1    0    0    0  501  0.00000000000E+00  0.00000000000E+00  0.19607758740E+04  0.19607758740E+04  0.50400001928E-02 0.  1.
        1   -1    0    0  501    0  0.00000000000E+00  0.00000000000E+00 -0.12204798694E+04  0.12204798694E+04  0.50400001928E-02 0. -1.
    10030    2    1    2    0    0  0.00000000000E+00  0.00000000000E+00  0.74029600466E+03  0.31812557434E+04  0.30939214487E+04 0.  0.
        3    1    3    3  502    0  0.13297259967E+04 -0.30151935896E+02 -0.44209142785E+03  0.14016152133E+04  0.10100000352E+00 0. -1.
       -3    1    3    3    0  502 -0.13297259967E+04  0.30151935896E+02  0.11823874325E+04  0.17796405301E+04  0.10100000352E+00 0.  1.
</event>
<event>
 5   0  0.2674441E-06  0.2429978E+04  0.7818609E-02  0.8428365E-01
        1   -1    0    0  501    0  0.00000000000E+00  0.00000000000E+00  0.13518483449E+04  0.13518483449E+04  0.50400001928E-02 0.  1.
       -1   -1    0    0    0  501  0.00000000000E+00  0.00000000000E+00 -0.10919850896E+04  0.10919850896E+04  0.50400001928E-02 0. -1.
    10030    2    1    2    0    0  0.00000000000E+00  0.00000000000E+00  0.25986325527E+03  0.24438334345E+04  0.24299779720E+04 0.  0.
        5    1    3    3  502    0 -0.27903088089E+03  0.56829538779E+03 -0.91297602522E+03  0.11110198886E+04  0.46999998093E+01 0. -1.
       -5    1    3    3    0  502  0.27903088089E+03 -0.56829538779E+03  0.11728392805E+04  0.13328135459E+04  0.46999998093E+01 0.  1.
</event>
<event>
 5   0  0.2598987E-06  0.2840363E+04  0.7818609E-02  0.8290846E-01
       -1   -1    0    0    0  501  0.00000000000E+00  0.00000000000E+00  0.98760185114E+03  0.98760185115E+03  0.50400001928E-02 0. -1.
        1   -1    0    0  501    0  0.00000000000E+00  0.00000000000E+00 -0.20422352149E+04  0.20422352149E+04  0.50400001928E-02 0.  1.
    10030    2    1    2    0    0  0.00000000000E+00  0.00000000000E+00 -0.10546333638E+04  0.30298370661E+04  0.28403628492E+04 0.  0.
        2    1    3    3  502    0  0.13378302085E+04 -0.46787936520E+03 -0.43063675302E+03  0.14812659384E+04  0.25500000920E-02 0. -1.
       -2    1    3    3    0  502 -0.13378302085E+04  0.46787936520E+03 -0.62399661074E+03  0.15485711277E+04  0.25500000920E-02 0.  1.
</event>
<event>
 5   0  0.2674441E-06  0.3001587E+04  0.7818609E-02  0.8243278E-01
        1   -1    0    0  501    0  0.00000000000E+00  0.00000000000E+00  0.19964388564E+04  0.19964388564E+04  0.50400001928E-02 0. -1.
       -1   -1    0    0    0  501  0.00000000000E+00  0.00000000000E+00 -0.11281990944E+04  0.11281990944E+04  0.50400001928E-02 0.  1.
    10030    2    1    2    0    0  0.00000000000E+00  0.00000000000E+00  0.86823976206E+03  0.31246379508E+04  0.30015865870E+04 0.  0.
        5    1    3    3  502    0  0.11275096446E+04  0.70304644353E+03 -0.29219817667E+03  0.13604977636E+04  0.46999998093E+01 0.  1.
       -5    1    3    3    0  502 -0.11275096446E+04 -0.70304644353E+03  0.11604379387E+04  0.17641401872E+04  0.46999998093E+01 0. -1.
</event>
<event>
 5   0  0.7414808E-06  0.2609084E+04  0.7818609E-02  0.8365122E-01
       -2   -1    0    0    0  501  0.00000000000E+00  0.00000000000E+00  0.84509162684E+03  0.84509162684E+03  0.25500000920E-02 0.  1.
        2   -1    0    0  501    0  0.00000000000E+00  0.00000000000E+00 -0.20137819448E+04  0.20137819448E+04  0.25500000920E-02 0. -1.
    10030    2    1    2    0    0  0.00000000000E+00  0.00000000000E+00 -0.11686903180E+04  0.28588735717E+04  0.26090843297E+04 0.  0.
        2    1    3    3  502    0  0.47617897399E+03  0.11993063906E+04 -0.79439571800E+03  0.15153041908E+04  0.25500000920E-02 0. -1.
       -2    1    3    3    0  502 -0.47617897399E+03 -0.11993063906E+04 -0.37429459998E+03  0.13435693809E+04  0.25500000920E-02 0.  1.
</event>
<event>
 5   0  0.7414808E-06  0.2992090E+04  0.7818609E-02  0.8245993E-01
        2   -1    0    0  501    0  0.00000000000E+00  0.00000000000E+00  0.13846875492E+04  0.13846875492E+04  0.25500000920E-02 0. -1.
       -2   -1    0    0    0  501  0.00000000000E+00  0.00000000000E+00 -0.16163575953E+04  0.16163575953E+04  0.25500000920E-02 0.  1.
    10030    2    1    2    0    0  0.00000000000E+00  0.00000000000E+00 -0.23167004612E+03  0.30010451444E+04  0.29920897294E+04 0.  0.
        2    1    3    3  502    0 -0.79055400046E+03 -0.12498454486E+04 -0.34247808050E+03  0.15180186128E+04  0.25500000920E-02 0.  1.
       -2    1    3    3    0  502  0.79055400046E+03  0.12498454486E+04  0.11080803438E+03  0.14830265317E+04  0.25500000920E-02 0. -1.
</event>
<event>
 5   0  0.2612331E-06  0.3166767E+04  0.7818609E-02  0.8197649E-01
        1   -1    0    0  501    0  0.00000000000E+00  0.00000000000E+00  0.12519739880E+04  0.12519739880E+04  0.50400001928E-02 0.  1.
       -1   -1    0    0    0  501  0.00000000000E+00  0.00000000000E+00 -0.20025208817E+04  0.20025208817E+04  0.50400001928E-02 0. -1.
    10030    2    1    2    0    0  0.00000000000E+00  0.00000000000E+00 -0.75054689366E+03  0.32544948697E+04  0.31667674714E+04 0.  0.
        4    1    3    3  502    0 -0.11016109166E+04  0.28585789027E+03 -0.15066059230E+04  0.18881536921E+04  0.12699999809E+01 0. -1.
       -4    1    3    3    0  502  0.11016109166E+04 -0.28585789027E+03  0.75605902933E+03  0.13663411776E+04  0.12699999809E+01 0.  1.
</event>
<event>
 5   0  0.7363513E-06  0.3070189E+04  0.7818609E-02  0.8223967E-01
       -2   -1    0    0    0  501  0.00000000000E+00  0.00000000000E+00  0.12671150779E+04  0.12671150779E+04  0.25500000920E-02 0.  1.
        2   -1    0    0  501    0  0.00000000000E+00  0.00000000000E+00 -0.18597482706E+04  0.18597482706E+04  0.25500000920E-02 0. -1.
    10030    2    1    2    0    0  0.00000000000E+00  0.00000000000E+00 -0.59263319273E+03  0.31268633485E+04  0.30701889680E+04 0.  0.
        4    1    3    3  502    0 -0.48594502501E+03  0.90113402603E+03  0.86861968977E+03  0.13426417536E+04  0.12699999809E+01 0.  1.
       -4    1    3    3    0  502  0.48594502501E+03 -0.90113402603E+03 -0.14612528825E+04  0.17842215949E+04  0.12699999809E+01 0. -1.
</event>
<event>
 5   0  0.2393250E-06  0.3082348E+04  0.7818609E-02  0.8220599E-01
        3   -1    0    0  501    0  0.00000000000E+00  0.00000000000E+00  0.18568503653E+04  0.18568503681E+04  0.10100000352E+00 0. -1.
       -3   -1    0    0    0  501  0.00000000000E+00  0.00000000000E+00 -0.12791642094E+04  0.12791642134E+04  0.10100000352E+00 0.  1.
    10030    2    1    2    0    0  0.00000000000E+00  0.00000000000E+00  0.57768615592E+03  0.31360145815E+04  0.30823475081E+04 0.  0.
        2    1    3    3  502    0  0.56464823898E+03  0.14257805510E+04  0.44493770557E+03  0.15967615274E+04  0.25500000920E-02 0.  1.
       -2    1    3    3    0  502 -0.56464823898E+03 -0.14257805510E+04  0.13274845034E+03  0.15392530541E+04  0.25500000920E-02 0. -1.
</event>
<event>
 5   0  0.2674441E-06  0.3177137E+04  0.7818609E-02  0.8194882E-01
       -1   -1    0    0    0  501  0.00000000000E+00  0.00000000000E+00  0.16298525717E+04  0.16298525717E+04  0.50400001928E-02 0. -1.
        1   -1    0    0  501    0  0.00000000000E+00  0.00000000000E+00 -0.15483297449E+04  0.15483297449E+04  0.50400001928E-02 0.  1.
    10030    2    1    2    0    0  0.00000000000E+00  0.00000000000E+00  0.81522826740E+02  0.31781823166E+04  0.31771365829E+04 0.  0.
        5    1    3    3  502    0 -0.89376508512E+03 -0.13089075790E+04  0.14790431817E+03  0.15918394564E+04  0.46999998093E+01 0. -1.
       -5    1    3    3    0  502  0.89376508512E+03  0.13089075790E+04 -0.66381491427E+02  0.15863428602E+04  0.46999998093E+01 0.  1.
</event>
<event>
 5   0  0.2517725E-06  0.3127835E+04  0.7818609E-02  0.8208140E-01
        1   -1    0    0  501    0  0.00000000000E+00  0.00000000000E+00  0.19783311523E+04  0.19783311523E+04  0.50400001928E-02 0. -1.
       -1   -1    0    0    0  501  0.00000000000E+00  0.00000000000E+00 -0.12363139977E+04  0.12363139977E+04  0.50400001928E-02 0.  1.
    10030    2    1    2    0    0  0.00000000000E+00  0.00000000000E+00  0.74201715460E+03  0.32146451500E+04  0.31278353510E+04 0.  0.
        3    1    3    3  502    0 -0.66759586891E+03 -0.77349457463E+03 -0.84585400734E+03  0.13264415227E+04  0.10100000352E+00 0.  1.
       -3    1    3    3    0  502  0.66759586891E+03  0.77349457463E+03  0.15878711619E+04  0.18882036273E+04  0.10100000352E+00 0. -1.
</event>
<event>
 5   0  0.7414808E-06  0.3085956E+04  0.7818609E-02  0.8219603E-01
       -2   -1    0    0    0  501  0.00000000000E+00  0.00000000000E+00  0.13203301592E+04  0.13203301592E+04  0.25500000920E-02 0. -1.
        2   -1    0    0  501    0  0.00000000000E+00  0.00000000000E+00 -0.18031715662E+04  0.18031715662E+04  0.25500000920E-02 0.  1.
    10030    2    1    2    0    0  0.00000000000E+00  0.00000000000E+00 -0.48284140695E+03  0.31235017254E+04  0.30859564489E+04 0.  0.
        2    1    3    3  502    0 -0.48787370000E+03 -0.97884277767E+03  0.86022749979E+03  0.13914543765E+04  0.25500000920E-02 0. -1.
       -2    1    3    3    0  502  0.48787370000E+03  0.97884277767E+03 -0.13430689067E+04  0.17320473489E+04  0.25500000920E-02 0.  1.
</event>
<event>
 5   0  0.2624011E-06  0.2980145E+04  0.7818609E-02  0.8249423E-01
       -1   -1    0    0    0  501  0.00000000000E+00  0.00000000000E+00  0.18574193879E+04  0.18574193879E+04  0.50400001928E-02 0.  1.
        1   -1    0    0  501    0  0.00000000000E+00  0.00000000000E+00 -0.11953769490E+04  0.11953769490E+04  0.50400001928E-02 0. -1.
    10030    2    1    2    0    0  0.00000000000E+00  0.00000000000E+00  0.66204243888E+03  0.30527963369E+04  0.29801451783E+04 0.  0.
        1    1    3    3  502    0  0.14139171740E+04  0.52253588870E+02  0.80977332429E+03  0.16302223926E+04  0.50400001928E-02 0.  1.
       -1    1    3    3    0  502 -0.14139171740E+04 -0.52253588870E+02 -0.14773088541E+03  0.14225739443E+04  0.50400001928E-02 0. -1.
</event>
<event>
 5   0  0.7414808E-06  0.2954443E+04  0.7818609E-02  0.8256861E-01
       -2   -1    0    0    0  501  0.00000000000E+00  0.00000000000E+00  0.19715214112E+04  0.19715214112E+04  0.25500000920E-02 0. -1.
        2   -1    0    0  501    0  0.00000000000E+00  0.00000000000E+00 -0.11068521390E+04  0.11068521390E+04  0.25500000920E-02 0.  1.
    10030    2    1    2    0    0  0.00000000000E+00  0.00000000000E+00  0.86466927227E+03  0.30783735502E+04  0.29544425471E+04 0.  0.
        2    1    3    3  502    0  0.52465462540E+03 -0.42602785557E+03 -0.93631801928E+03  0.11547526328E+04  0.25500000920E-02 0.  1.
       -2    1    3    3    0  502 -0.52465462540E+03  0.42602785557E+03  0.18009872916E+04  0.19236209174E+04  0.25500000920E-02 0. -1.
</event>
<event>
 5   0  0.7414808E-06  0.3135415E+04  0.7818609E-02  0.8206085E-01
       -2   -1    0    0    0  501  0.00000000000E+00  0.00000000000E+00  0.22803544402E+04  0.22803544402E+04  0.25500000920E-02 0. -1.
        2   -1    0    0  501    0  0.00000000000E+00  0.00000000000E+00 -0.10777739448E+04  0.10777739448E+04  0.25500000920E-02 0.  1.
    10030    2    1    2    0    0  0.00000000000E+00  0.00000000000E+00  0.12025804954E+04  0.33581283849E+04  0.31354148692E+04 0.  0.
        2    1    3    3  502    0 -0.85116734432E+03  0.70917140834E+02 -0.80669536134E+03  0.11748499883E+04  0.25500000920E-02 0.  1.
       -2    1    3    3    0  502  0.85116734432E+03 -0.70917140834E+02  0.20092758567E+04  0.21832783967E+04  0.25500000920E-02 0. -1.
</event>
<event>
 5   0  0.2517725E-06  0.3103519E+04  0.7818609E-02  0.8214773E-01
        1   -1    0    0  501    0  0.00000000000E+00  0.00000000000E+00  0.27640137584E+04  0.27640137585E+04  0.50400001928E-02 0.  1.
       -1   -1    0    0    0  501  0.00000000000E+00  0.00000000000E+00 -0.87118154929E+03  0.87118154931E+03  0.50400001928E-02 0. -1.
    10030    2    1    2    0    0  0.00000000000E+00  0.00000000000E+00  0.18928322092E+04  0.36351953078E+04  0.31035191563E+04 0.  0.
        3    1    3    3  502    0 -0.46869922038E+03  0.10959699441E+04  0.21101674827E+04  0.24235585186E+04  0.10100000352E+00 0.  1.
       -3    1    3    3    0  502  0.46869922038E+03 -0.10959699441E+04 -0.21733527354E+03  0.12116367892E+04  0.10100000352E+00 0. -1.
</event>
<event>
 5   0  0.2624011E-06  0.2946243E+04  0.7818609E-02  0.8259250E-01
        1   -1    0    0  501    0  0.00000000000E+00  0.00000000000E+00  0.25228471712E+04  0.25228471712E+04  0.50400001928E-02 0. -1.
       -1   -1    0    0    0  501  0.00000000000E+00  0.00000000000E+00 -0.86017360855E+03  0.86017360856E+03  0.50400001928E-02 0.  1.
    10030    2    1    2    0    0  0.00000000000E+00  0.00000000000E+00  0.16626735626E+04  0.33830207798E+04  0.29462427294E+04 0.  0.
        1    1    3    3  502    0 -0.13446651449E+03 -0.82007261075E+03 -0.56532614286E+03  0.10050840653E+04  0.50400001928E-02 0.  1.
       -1    1    3    3    0  502  0.13446651449E+03  0.82007261075E+03  0.22279997055E+04  0.23779367145E+04  0.50400001928E-02 0. -1.
</event>
<event>
 5   0  0.2517725E-06  0.3107779E+04  0.7818609E-02  0.8213606E-01
        1   -1    0    0  501    0  0.00000000000E+00  0.00000000000E+00  0.21890786148E+04  0.21890786148E+04  0.50400001928E-02 0. -1.
       -1   -1    0    0    0  501  0.00000000000E+00  0.00000000000E+00 -0.11030083664E+04  0.11030083664E+04  0.50400001928E-02 0.  1.
    10030    2    1    2    0    0  0.00000000000E+00  0.00000000000E+00  0.10860702485E+04  0.32920869812E+04  0.31077786451E+04 0.  0.
        3    1    3    3  502    0  0.85401239314E+03 -0.11545459261E+04 -0.85677233647E+02  0.14386292301E+04  0.10100000352E+00 0.  1.
       -3    1    3    3    0  502 -0.85401239314E+03  0.11545459261E+04  0.11717474821E+04  0.18534577511E+04  0.10100000352E+00 0. -1.
</event>
<event>
 5   0  0.2674441E-06  0.3103879E+04  0.7818609E-02  0.8214674E-01
        1   -1    0    0  501    0  0.00000000000E+00  0.00000000000E+00  0.84212522813E+03  0.84212522814E+03  0.50400001928E-02 0.  1.
       -1   -1    0    0    0  501  0.00000000000E+00  0.00000000000E+00 -0.28600455144E+04  0.28600455144E+04  0.50400001928E-02 0. -1.
    10030    2    1    2    0    0  0.00000000000E+00  0.00000000000E+00 -0.20179202863E+04  0.37021707425E+04  0.31038791737E+04 0.  0.
        5    1    3    3  502    0  0.40038686469E+03 -0.55337073284E+03  0.65319822996E+03  0.94510254841E+03  0.46999998093E+01 0.  1.
       -5    1    3    3    0  502 -0.40038686469E+03  0.55337073284E+03 -0.26711185162E+04  0.27570681941E+04  0.46999998093E+01 0. -1.
</event>
<event>
 5   0  0.2612331E-06  0.3116538E+04  0.7818609E-02  0.8211214E-01
       -1   -1    0    0    0  501  0.00000000000E+00  0.00000000000E+00  0.84745407646E+03  0.84745407648E+03  0.50400001928E-02 0.  1.
        1   -1    0    0  501    0  0.00000000000E+00  0.00000000000E+00 -0.28652902265E+04  0.28652902265E+04  0.50400001928E-02 0. -1.
    10030    2    1    2    0    0  0.00000000000E+00  0.00000000000E+00 -0.20178361501E+04  0.37127443030E+04  0.31165377474E+04 0.  0.
        4    1    3    3  502    0 -0.40817868415E+03  0.10689959498E+04  0.25118557842E+03  0.11715195203E+04  0.12699999809E+01 0.  1.
       -4    1    3    3    0  502  0.40817868415E+03 -0.10689959498E+04 -0.22690217285E+04  0.25412247827E+04  0.12699999809E+01 0. -1.
</event>
<event>
 5   0  0.2612331E-06  0.3035489E+04  0.7818609E-02  0.8233669E-01
        1   -1    0    0  501    0  0.00000000000E+00  0.00000000000E+00  0.10664883204E+04  0.10664883204E+04  0.50400001928E-02 0.  1.
       -1   -1    0    0    0  501  0.00000000000E+00  0.00000000000E+00 -0.21599377227E+04  0.21599377227E+04  0.50400001928E-02 0. -1.
    10030    2    1    2    0    0  0.00000000000E+00  0.00000000000E+00 -0.10934494023E+04  0.32264260432E+04  0.30354889914E+04 0.  0.
        4    1    3    3  502    0 -0.14512990067E+04  0.30256331637E+03 -0.89234488573E+03  0.17303451607E+04  0.12699999809E+01 0. -1.
       -4    1    3    3    0  502  0.14512990067E+04 -0.30256331637E+03 -0.20110451655E+03  0.14960808824E+04  0.12699999809E+01 0.  1.
</event>
<event>
 5   0  0.7071012E-06  0.3102926E+04  0.7818609E-02  0.8214935E-01
        2   -1    0    0  501    0  0.00000000000E+00  0.00000000000E+00  0.13283258955E+04  0.13283258955E+04  0.25500000920E-02 0.  1.
       -2   -1    0    0    0  501  0.00000000000E+00  0.00000000000E+00 -0.18120830356E+04  0.18120830356E+04  0.25500000920E-02 0. -1.
    10030    2    1    2    0    0  0.00000000000E+00  0.00000000000E+00 -0.48375714014E+03  0.31404089311E+04  0.31029256008E+04 0.  0.
        1    1    3    3  502    0 -0.67147622297E+03 -0.77099103334E+03 -0.14229066868E+04  0.17521332515E+04  0.50400001928E-02 0. -1.
       -1    1    3    3    0  502  0.67147622297E+03  0.77099103334E+03  0.93914954671E+03  0.13882756796E+04  0.50400001928E-02 0.  1.
</event>
<event>
 5   0  0.7094341E-06  0.2567569E+04  0.7818609E-02  0.8379302E-01
       -2   -1    0    0    0  501  0.00000000000E+00  0.00000000000E+00  0.13021443016E+04  0.13021443016E+04  0.25500000920E-02 0. -1.
        2   -1    0    0  501    0  0.00000000000E+00  0.00000000000E+00 -0.12656831395E+04  0.12656831395E+04  0.25500000920E-02 0.  1.
    10030    2    1    2    0    0  0.00000000000E+00  0.00000000000E+00  0.36461162065E+02  0.25678274411E+04  0.25675685679E+04 0.  0.
        3    1    3    3  502    0 -0.98991620243E+03 -0.82454488116E+02 -0.79509753104E+03  0.12723650909E+04  0.10100000352E+00 0.  1.
       -3    1    3    3    0  502  0.98991620243E+03  0.82454488116E+02  0.83155869310E+03  0.12954623502E+04  0.10100000352E+00 0. -1.
</event>
<event>
 5   0  0.2674441E-06  0.3126610E+04  0.7818609E-02  0.8208473E-01
        1   -1    0    0  501    0  0.00000000000E+00  0.00000000000E+00  0.18405201074E+04  0.18405201074E+04  0.50400001928E-02 0.  1.
       -1   -1    0    0    0  501  0.00000000000E+00  0.00000000000E+00 -0.13278433127E+04  0.13278433127E+04  0.50400001928E-02 0. -1.
    10030    2    1    2    0    0  0.00000000000E+00  0.00000000000E+00  0.51267679470E+03  0.31683634201E+04  0.31266098679E+04 0.  0.
        5    1    3    3  502    0 -0.86671251605E+03 -0.52936825891E+03  0.14606871825E+04  0.17790588731E+04  0.46999998093E+01 0.  1.
       -5    1    3    3    0  502  0.86671251605E+03  0.52936825891E+03 -0.94801038778E+03  0.13893045470E+04  0.46999998093E+01 0. -1.
</event>
<event>
 5   0  0.7414808E-06  0.3089533E+04  0.7818609E-02  0.8218616E-01
       -2   -1    0    0    0  501  0.00000000000E+00  0.00000000000E+00  0.71876930726E+03  0.71876930727E+03  0.25500000920E-02 0.  1.
        2   -1    0    0  501    0  0.00000000000E+00  0.00000000000E+00 -0.33199853957E+04  0.33199853957E+04  0.25500000920E-02 0. -1.
    10030    2    1    2    0    0  0.00000000000E+00  0.00000000000E+00 -0.26012160885E+04  0.40387547030E+04  0.30895330411E+04 0.  0.
        2    1    3    3  502    0  0.14011275135E+04  0.58587565707E+03 -0.93110803287E+03  0.17813957347E+04  0.25500000920E-02 0.  1.
       -2    1    3    3    0  502 -0.14011275135E+04 -0.58587565707E+03 -0.16701080556E+04  0.22573589684E+04  0.25500000920E-02 0. -1.
</event>
<event>
 5   0  0.7363513E-06  0.3016113E+04  0.7818609E-02  0.8239145E-01
       -2   -1    0    0    0  501  0.00000000000E+00  0.00000000000E+00  0.96024024795E+03  0.96024024795E+03  0.25500000920E-02 0.  1.
        2   -1    0    0  501    0  0.00000000000E+00  0.00000000000E+00 -0.23684009915E+04  0.23684009915E+04  0.25500000920E-02 0. -1.
    10030    2    1    2    0    0  0.00000000000E+00  0.00000000000E+00 -0.14081607436E+04  0.33286412395E+04  0.30161127004E+04 0.  0.
        4    1    3    3  502    0  0.64388058288E+03  0.25236312785E+03  0.77491942854E+03  0.10386390552E+04  0.12699999809E+01 0.  1.
       -4    1    3    3    0  502 -0.64388058288E+03 -0.25236312785E+03 -0.21830801721E+04  0.22900021843E+04  0.12699999809E+01 0. -1.
</event>
<event>
 5   0  0.2612331E-06  0.2860211E+04  0.7818609E-02  0.8284815E-01
       -1   -1    0    0    0  501  0.00000000000E+00  0.00000000000E+00  0.11556905424E+04  0.11556905424E+04  0.50400001928E-02 0.  1.
        1   -1    0    0  501    0  0.00000000000E+00  0.00000000000E+00 -0.17696792840E+04  0.17696792840E+04  0.50400001928E-02 0. -1.
    10030    2    1    2    0    0  0.00000000000E+00  0.00000000000E+00 -0.61398874155E+03  0.29253698264E+04  0.28602109094E+04 0.  0.
        4    1    3    3  502    0  0.11630565140E+04 -0.28530674060E+03  0.49254291447E+03  0.12948747146E+04  0.12699999809E+01 0.  1.
       -4    1    3    3    0  502 -0.11630565140E+04  0.28530674060E+03 -0.11065316560E+04  0.16304951118E+04  0.12699999809E+01 0. -1.
</event>
<event>
 5   0  0.7079223E-06  0.3072832E+04  0.7818609E-02  0.8223234E-01
       -2   -1    0    0    0  501  0.00000000000E+00  0.00000000000E+00  0.13480387471E+04  0.13480387471E+04  0.25500000920E-02 0. -1.
        2   -1    0    0  501    0  0.00000000000E+00  0.00000000000E+00 -0.17511172781E+04  0.17511172781E+04  0.25500000920E-02 0.  1.
    10030    2    1    2    0    0  0.00000000000E+00  0.00000000000E+00 -0.40307853105E+03  0.30991560252E+04  0.30728318806E+04 0.  0.
        5    1    3    3  502    0 -0.13752856130E+04 -0.12140582065E+03 -0.88140748361E+03  0.16380021773E+04  0.46999998093E+01 0.  1.
       -5    1    3    3    0  502  0.13752856130E+04  0.12140582065E+03  0.47832895256E+03  0.14611538480E+04  0.46999998093E+01 0. -1.
</event>
<event>
 5   0  0.7094341E-06  0.3053177E+04  0.7818609E-02  0.8228707E-01
        2   -1    0    0  501    0  0.00000000000E+00  0.00000000000E+00  0.31453301755E+04  0.31453301755E+04  0.25500000920E-02 0. -1.
       -2   -1    0    0    0  501  0.00000000000E+00  0.00000000000E+00 -0.74093071564E+03  0.74093071564E+03  0.25500000920E-02 0.  1.
    10030    2    1    2    0    0  0.00000000000E+00  0.00000000000E+00  0.24043994599E+04  0.38862608912E+04  0.30531765346E+04 0.  0.
        3    1    3    3  502    0  0.60899131180E+02 -0.90745467337E+03 -0.35843505158E+03  0.97757781522E+03  0.10100000352E+00 0.  1.
       -3    1    3    3    0  502 -0.60899131180E+02  0.90745467337E+03  0.27628345115E+04  0.29086830760E+04  0.10100000352E+00 0. -1.
</event>
<event>
 5   0  0.2612331E-06  0.3081735E+04  0.7818609E-02  0.8220769E-01
       -1   -1    0    0    0  501  0.00000000000E+00  0.00000000000E+00  0.19754807593E+04  0.19754807593E+04  0.50400001928E-02 0.  1.
        1   -1    0    0  501    0  0.00000000000E+00  0.00000000000E+00 -0.12018704983E+04  0.12018704983E+04  0.50400001928E-02 0. -1.
    10030    2    1    2    0    0  0.00000000000E+00  0.00000000000E+00  0.77361026102E+03  0.31773512576E+04  0.30817346055E+04 0.  0.
        4    1    3    3  502    0 -0.10158017053E+04 -0.11529570720E+04  0.26876575626E+03  0.15599358189E+04  0.12699999809E+01 0. -1.
       -4    1    3    3    0  502  0.10158017053E+04  0.11529570720E+04  0.50484450476E+03  0.16174154387E+04  0.12699999809E+01 0.  1.
</event>
<event>
 5   0  0.2517725E-06  0.3116726E+04  0.7818609E-02  0.8211163E-01
       -1   -1    0    0    0  501  0.00000000000E+00  0.00000000000E+00  0.12501990350E+04  0.12501990350E+04  0.50400001928E-02 0.  1.
        1   -1    0    0  501    0  0.00000000000E+00  0.00000000000E+00 -0.19424865302E+04  0.19424865302E+04  0.50400001928E-02 0. -1.
    10030    2    1    2    0    0  0.00000000000E+00  0.00000000000E+00 -0.69228749516E+03  0.31926855652E+04  0.31167257085E+04 0.  0.
        3    1    3    3  502    0 -0.74352813071E+03 -0.37138958607E+03 -0.16965012868E+04  0.18891482028E+04  0.10100000352E+00 0. -1.
       -3    1    3    3    0  502  0.74352813071E+03  0.37138958607E+03  0.10042137916E+04  0.13035373624E+04  0.10100000352E+00 0.  1.
</event>
<event>
 5   0  0.7363513E-06  0.3127582E+04  0.7818609E-02  0.8208209E-01
       -2   -1    0    0    0  501  0.00000000000E+00  0.00000000000E+00  0.18763171749E+04  0.18763171749E+04  0.25500000920E-02 0.  1.
        2   -1    0    0  501    0  0.00000000000E+00  0.00000000000E+00 -0.13033203482E+04  0.13033203482E+04  0.25500000920E-02 0. -1.
    10030    2    1    2    0    0  0.00000000000E+00  0.00000000000E+00  0.57299682670E+03  0.31796375231E+04  0.31275820397E+04 0.  0.
        4    1    3    3  502    0  0.11517727218E+04 -0.10308593649E+04  0.52748659459E+03  0.16332468134E+04  0.12699999809E+01 0.  1.
       -4    1    3    3    0  502 -0.11517727218E+04  0.10308593649E+04  0.45510232108E+02  0.15463907097E+04  0.12699999809E+01 0. -1.
</event>
<event>
 5   0  0.7094341E-06  0.3118532E+04  0.7818609E-02  0.8210670E-01
        2   -1    0    0  501    0  0.00000000000E+00  0.00000000000E+00  0.99568441331E+03  0.99568441331E+03  0.25500000920E-02 0. -1.
       -2   -1    0    0    0  501  0.00000000000E+00  0.00000000000E+00 -0.24418490869E+04  0.24418490869E+04  0.25500000920E-02 0.  1.
    10030    2    1    2    0    0  0.00000000000E+00  0.00000000000E+00 -0.14461646736E+04  0.34375335002E+04  0.31185323955E+04 0.  0.
        3    1    3    3  502    0  0.10771890078E+03  0.69247847513E+03  0.81230456957E+03  0.10728320111E+04  0.10100000352E+00 0. -1.
       -3    1    3    3    0  502 -0.10771890078E+03 -0.69247847513E+03 -0.22584692431E+04  0.23647014891E+04  0.10100000352E+00 0.  1.
</event>
<event>
 5   0  0.7414808E-06  0.3088992E+04  0.7818609E-02  0.8218765E-01
       -2   -1    0    0    0  501  0.00000000000E+00  0.00000000000E+00  0.11156187079E+04  0.11156187079E+04  0.25500000920E-02 0. -1.
        2   -1    0    0  501    0  0.00000000000E+00  0.00000000000E+00 -0.21382468696E+04  0.21382468696E+04  0.25500000920E-02 0.  1.
    10030    2    1    2    0    0  0.00000000000E+00  0.00000000000E+00 -0.10226281618E+04  0.32538655775E+04  0.30889922045E+04 0.  0.
        2    1    3    3  502    0 -0.79263141408E+02 -0.14276592082E+04 -0.11264115000E+04  0.18202462272E+04  0.25500000920E-02 0.  1.
       -2    1    3    3    0  502  0.79263141408E+02  0.14276592082E+04  0.10378333824E+03  0.14336193503E+04  0.25500000920E-02 0. -1.
</event>
<event>
 5   0  0.7414808E-06  0.2982303E+04  0.7818609E-02  0.8248802E-01
       -2   -1    0    0    0  501  0.00000000000E+00  0.00000000000E+00  0.83775542023E+03  0.83775542023E+03  0.25500000920E-02 0. -1.
        2   -1    0    0  501    0  0.00000000000E+00  0.00000000000E+00 -0.26541552617E+04  0.26541552617E+04  0.25500000920E-02 0.  1.
    10030    2    1    2    0    0  0.00000000000E+00  0.00000000000E+00 -0.18163998415E+04  0.34919106820E+04  0.29823031078E+04 0.  0.
        2    1    3    3  502    0 -0.37565221508E+02 -0.38577239604E+03 -0.25941417007E+04  0.26229377901E+04  0.25500000920E-02 0.  1.
       -2    1    3    3    0  502  0.37565221508E+02  0.38577239604E+03  0.77774185914E+03  0.86897289192E+03  0.25500000920E-02 0. -1.
</event>
<event>
 5   0  0.7363513E-06  0.3036893E+04  0.7818609E-02  0.8233274E-01
       -2   -1    0    0    0  501  0.00000000000E+00  0.00000000000E+00  0.83183313211E+03  0.83183313211E+03  0.25500000920E-02 0.  1.
        2   -1    0    0  501    0  0.00000000000E+00  0.00000000000E+00 -0.27718055805E+04  0.27718055805E+04  0.25500000920E-02 0. -1.
    10030    2    1    2    0    0  0.00000000000E+00  0.00000000000E+00 -0.19399724484E+04  0.36036387126E+04  0.30368929633E+04 0.  0.
        4    1    3    3  502    0  0.10166286568E+03 -0.58654625260E+03  0.68759369712E+03  0.90948257262E+03  0.12699999809E+01 0.  1.
       -4    1    3    3    0  502 -0.10166286568E+03  0.58654625260E+03 -0.26275661455E+04  0.26941561400E+04  0.12699999809E+01 0. -1.
</event>
<event>
 5   0  0.7079223E-06  0.2980683E+04  0.7818609E-02  0.8249269E-01
       -2   -1    0    0    0  501  0.00000000000E+00  0.00000000000E+00  0.14353298279E+04  0.14353298279E+04  0.25500000920E-02 0. -1.
        2   -1    0    0  501    0  0.00000000000E+00  0.00000000000E+00 -0.15474612582E+04  0.15474612582E+04  0.25500000920E-02 0.  1.
    10030    2    1    2    0    0  0.00000000000E+00  0.00000000000E+00 -0.11213143034E+03  0.29827910861E+04  0.29806826744E+04 0.  0.
        5    1    3    3  502    0  0.21017700361E+03  0.68398078676E+02 -0.15309612157E+04  0.15468409756E+04  0.46999998093E+01 0.  1.
       -5    1    3    3    0  502 -0.21017700361E+03 -0.68398078676E+02  0.14188297853E+04  0.14359501105E+04  0.46999998093E+01 0. -1.
</event>
<event>
 5   0  0.7079223E-06  0.2699686E+04  0.7818609E-02  0.8335107E-01
        2   -1    0    0  501    0  0.00000000000E+00  0.00000000000E+00  0.17003993616E+04  0.17003993616E+04  0.25500000920E-02 0. -1.
       -2   -1    0    0    0  501  0.00000000000E+00  0.00000000000E+00 -0.10715576733E+04  0.10715576733E+04  0.25500000920E-02 0.  1.
    10030    2    1    2    0    0  0.00000000000E+00  0.00000000000E+00  0.62884168837E+03  0.27719570349E+04  0.26996858955E+04 0.  0.
        5    1    3    3  502    0  0.71352627454E+03 -0.62917116066E+03  0.12976989002E+04  0.16090433864E+04  0.46999998093E+01 0. -1.
       -5    1    3    3    0  502 -0.71352627454E+03  0.62917116066E+03 -0.66885721185E+03  0.11629136484E+04  0.46999998093E+01 0.  1.
</event>
<event>
 5   0  0.7094341E-06  0.3016489E+04  0.7818609E-02  0.8239038E-01
        2   -1    0    0  501    0  0.00000000000E+00  0.00000000000E+00  0.21094520894E+04  0.21094520894E+04  0.25500000920E-02 0. -1.
       -2   -1    0    0    0  501  0.00000000000E+00  0.00000000000E+00 -0.10783849236E+04  0.10783849236E+04  0.25500000920E-02 0.  1.
    10030    2    1    2    0    0  0.00000000000E+00  0.00000000000E+00  0.10310671658E+04  0.31878370129E+04  0.30164889061E+04 0.  0.
        3    1    3    3  502    0 -0.13922436103E+04 -0.45721676710E+03  0.13830956731E+03  0.14719099800E+04  0.10100000352E+00 0.  1.
       -3    1    3    3    0  502  0.13922436103E+04  0.45721676710E+03  0.89275759845E+03  0.17159270329E+04  0.10100000352E+00 0. -1.
</event>
<event>
 5   0  0.2624011E-06  0.3067638E+04  0.7818609E-02  0.8224676E-01
        1   -1    0    0  501    0  0.00000000000E+00  0.00000000000E+00  0.15436876879E+04  0.15436876879E+04  0.50400001928E-02 0. -1.
       -1   -1    0    0    0  501  0.00000000000E+00  0.00000000000E+00 -0.15240134877E+04  0.15240134877E+04  0.50400001928E-02 0.  1.
    10030    2    1    2    0    0  0.00000000000E+00  0.00000000000E+00  0.19674200173E+02  0.30677011757E+04  0.30676380864E+04 0.  0.
        1    1    3    3  502    0  0.80014960251E+03 -0.78456014137E+03 -0.10374794570E+04  0.15271337942E+04  0.50400001928E-02 0.  1.
       -1    1    3    3    0  502 -0.80014960251E+03  0.78456014137E+03  0.10571536572E+04  0.15405673814E+04  0.50400001928E-02 0. -1.
</event>
<event>
 5   0  0.2624011E-06  0.2564086E+04  0.7818609E-02  0.8380504E-01
       -1   -1    0    0    0  501  0.00000000000E+00  0.00000000000E+00  0.12936714606E+04  0.12936714606E+04  0.50400001928E-02 0. -1.
        1   -1    0    0  501    0  0.00000000000E+00  0.00000000000E+00 -0.12705191427E+04  0.12705191427E+04  0.50400001928E-02 0.  1.
    10030    2    1    2    0    0  0.00000000000E+00  0.00000000000E+00  0.23152317962E+02  0.25641906033E+04  0.25640860789E+04 0.  0.
        1    1    3    3  502    0 -0.11070350890E+04 -0.20946284011E+03 -0.60019462899E+03  0.12765715657E+04  0.50400001928E-02 0.  1.
       -1    1    3    3    0  502  0.11070350890E+04  0.20946284011E+03  0.62334694696E+03  0.12876190376E+04  0.50400001928E-02 0. -1.
</event>
<event>
 5   0  0.7414808E-06  0.3095895E+04  0.7818609E-02  0.8216865E-01
       -2   -1    0    0    0  501  0.00000000000E+00  0.00000000000E+00  0.11257359857E+04  0.11257359857E+04  0.25500000920E-02 0.  1.
        2   -1    0    0  501    0  0.00000000000E+00  0.00000000000E+00 -0.21285111068E+04  0.21285111068E+04  0.25500000920E-02 0. -1.
    10030    2    1    2    0    0  0.00000000000E+00  0.00000000000E+00 -0.10027751212E+04  0.32542470925E+04  0.30958950556E+04 0.  0.
        2    1    3    3  502    0 -0.85754526683E+03 -0.76945906880E+03 -0.15880389763E+04  0.19619681275E+04  0.25500000920E-02 0. -1.
       -2    1    3    3    0  502  0.85754526683E+03  0.76945906880E+03  0.58526385510E+03  0.12922789650E+04  0.25500000920E-02 0.  1.
</event>
<event>
 5   0  0.7363513E-06  0.3190782E+04  0.7818609E-02  0.8191256E-01
        2   -1    0    0  501    0  0.00000000000E+00  0.00000000000E+00  0.24080563653E+04  0.24080563653E+04  0.25500000920E-02 0.  1.
       -2   -1    0    0    0  501  0.00000000000E+00  0.00000000000E+00 -0.10569821239E+04  0.10569821239E+04  0.25500000920E-02 0. -1.
    10030    2    1    2    0    0  0.00000000000E+00  0.00000000000E+00  0.13510742414E+04  0.34650384892E+04  0.31907820556E+04 0.  0.
        4    1    3    3  502    0  0.89921680766E+03 -0.41405240665E+03 -0.68309376136E+03  0.12027672104E+04  0.12699999809E+01 0. -1.
       -4    1    3    3    0  502 -0.89921680766E+03  0.41405240665E+03  0.20341680028E+04  0.22622712789E+04  0.12699999809E+01 0.  1.
</event>
<event>
 5   0  0.2674441E-06  0.3112862E+04  0.7818609E-02  0.8212217E-01
       -1   -1    0    0    0  501  0.00000000000E+00  0.00000000000E+00  0.13044191020E+04  0.13044191020E+04  0.50400001928E-02 0.  1.
        1   -1    0    0  501    0  0.00000000000E+00  0.00000000000E+00 -0.18571308177E+04  0.18571308177E+04  0.50400001928E-02 0. -1.
    10030    2    1    2    0    0  0.00000000000E+00  0.00000000000E+00 -0.55271171571E+03  0.31615499198E+04  0.31128616504E+04 0.  0.
        5    1    3    3  502    0  0.10691735151E+04  0.50493832948E+03  0.75158126807E+03  0.14010678836E+04  0.46999998093E+01 0.  1.
       -5    1    3    3    0  502 -0.10691735151E+04 -0.50493832948E+03 -0.13042929838E+04  0.17604820361E+04  0.46999998093E+01 0. -1.
</event>
<event>
 5   0  0.2393250E-06  0.3116289E+04  0.7818609E-02  0.8211282E-01
        3   -1    0    0  501    0  0.00000000000E+00  0.00000000000E+00  0.14391843989E+04  0.14391844024E+04  0.10100000352E+00 0.  1.
       -3   -1    0    0    0  501  0.00000000000E+00  0.00000000000E+00 -0.16869376627E+04  0.16869376658E+04  0.10100000352E+00 0. -1.
    10030    2    1    2    0    0  0.00000000000E+00  0.00000000000E+00 -0.24775326385E+03  0.31261220682E+04  0.31162890600E+04 0.  0.
        3    1    3    3  502    0 -0.37991876374E+02  0.11683274899E+04  0.90960801096E+03  0.14811547016E+04  0.10100000352E+00 0.  1.
       -3    1    3    3    0  502  0.37991876374E+02 -0.11683274899E+04 -0.11573612748E+04  0.16449673665E+04  0.10100000352E+00 0. -1.
</event>
<event>
 5   0  0.7071012E-06  0.3094275E+04  0.7818609E-02  0.8217311E-01
        2   -1    0    0  501    0  0.00000000000E+00  0.00000000000E+00  0.19921118242E+04  0.19921118242E+04  0.25500000920E-02 0.  1.
       -2   -1    0    0    0  501  0.00000000000E+00  0.00000000000E+00 -0.12015564717E+04  0.12015564718E+04  0.25500000920E-02 0. -1.
    10030    2    1    2    0    0  0.00000000000E+00  0.00000000000E+00  0.79055535243E+03  0.31936682959E+04  0.30942752656E+04 0.  0.
        1    1    3    3  502    0  0.13162212414E+04  0.62906488909E+03  0.92706961121E+03  0.17284730414E+04  0.50400001928E-02 0.  1.
       -1    1    3    3    0  502 -0.13162212414E+04 -0.62906488909E+03 -0.13651425878E+03  0.14651952545E+04  0.50400001928E-02 0. -1.
</event>
<event>
 5   0  0.2674441E-06  0.3098944E+04  0.7818609E-02  0.8216028E-01
        1   -1    0    0  501    0  0.00000000000E+00  0.00000000000E+00  0.11292076623E+04  0.11292076623E+04  0.50400001928E-02 0.  1.
       -1   -1    0    0    0  501  0.00000000000E+00  0.00000000000E+00 -0.21261491039E+04  0.21261491039E+04  0.50400001928E-02 0. -1.
    10030    2    1    2    0    0  0.00000000000E+00  0.00000000000E+00 -0.99694144152E+03  0.32553567662E+04  0.30989442456E+04 0.  0.
        5    1    3    3  502    0  0.75104831636E+03 -0.12608310673E+04  0.23682140693E+02  0.14677709248E+04  0.46999998093E+01 0.  1.
       -5    1    3    3    0  502 -0.75104831636E+03  0.12608310673E+04 -0.10206235822E+04  0.17875858414E+04  0.46999998093E+01 0. -1.
</event>
<event>
 5   0  0.2612331E-06  0.2009519E+04  0.7818609E-02  0.8602183E-01
       -1   -1    0    0    0  501  0.00000000000E+00  0.00000000000E+00  0.73641280618E+03  0.73641280620E+03  0.50400001928E-02 0. -1.
        1   -1    0    0  501    0  0.00000000000E+00  0.00000000000E+00 -0.13708914733E+04  0.13708914733E+04  0.50400001928E-02 0.  1.
    10030    2    1    2    0    0  0.00000000000E+00  0.00000000000E+00 -0.63447866709E+03  0.21073042795E+04  0.20095193822E+04 0.  0.
        4    1    3    3  502    0 -0.53723191013E+03  0.36746148403E+03 -0.11199235200E+04  0.12953286730E+04  0.12699999809E+01 0.  1.
       -4    1    3    3    0  502  0.53723191013E+03 -0.36746148403E+03  0.48544485287E+03  0.81197560653E+03  0.12699999809E+01 0. -1.
</event>
<event>
 5   0  0.2624011E-06  0.2631529E+04  0.7818609E-02  0.8357570E-01
       -1   -1    0    0    0  501  0.00000000000E+00  0.00000000000E+00  0.13450644492E+04  0.13450644492E+04  0.50400001928E-02 0.  1.
        1   -1    0    0  501    0  0.00000000000E+00  0.00000000000E+00 -0.12871030698E+04  0.12871030698E+04  0.50400001928E-02 0. -1.
    10030    2    1    2    0    0  0.00000000000E+00  0.00000000000E+00  0.57961379408E+02  0.26321675189E+04  0.26315292752E+04 0.  0.
        1    1    3    3  502    0  0.20573094607E+03 -0.49406834538E+02  0.13279373814E+04  0.13446873043E+04  0.50400001928E-02 0.  1.
       -1    1    3    3    0  502 -0.20573094607E+03  0.49406834538E+02 -0.12699760020E+04  0.12874802146E+04  0.50400001928E-02 0. -1.
</event>
<event>
 5   0  0.2624011E-06  0.2389982E+04  0.7818609E-02  0.8443263E-01
        1   -1    0    0  501    0  0.00000000000E+00  0.00000000000E+00  0.10979620968E+04  0.10979620968E+04  0.50400001928E-02 0. -1.
       -1   -1    0    0    0  501  0.00000000000E+00  0.00000000000E+00 -0.13005950493E+04  0.13005950493E+04  0.50400001928E-02 0.  1.
    10030    2    1    2    0    0  0.00000000000E+00  0.00000000000E+00 -0.20263295244E+03  0.23985571461E+04  0.23899824832E+04 0.  0.
        1    1    3    3  502    0  0.88765561017E+03  0.81618403030E+02 -0.90004246806E+03  0.12667558922E+04  0.50400001928E-02 0.  1.
       -1    1    3    3    0  502 -0.88765561017E+03 -0.81618403030E+02  0.69740951562E+03  0.11318012540E+04  0.50400001928E-02 0. -1.
</event>
<event>
 5   0  0.2624011E-06  0.3037575E+04  0.7818609E-02  0.8233082E-01
       -1   -1    0    0    0  501  0.00000000000E+00  0.00000000000E+00  0.16666666626E+04  0.16666666626E+04  0.50400001928E-02 0.  1.
        1   -1    0    0  501    0  0.00000000000E+00  0.00000000000E+00 -0.13840294128E+04  0.13840294128E+04  0.50400001928E-02 0. -1.
    10030    2    1    2    0    0  0.00000000000E+00  0.00000000000E+00  0.28263724976E+03  0.30506960754E+04  0.30375751398E+04 0.  0.
        1    1    3    3  502    0  0.44279928568E+03 -0.41564292420E+03 -0.12567740582E+04  0.13958192151E+04  0.50400001928E-02 0. -1.
       -1    1    3    3    0  502 -0.44279928568E+03  0.41564292420E+03  0.15394113080E+04  0.16548768604E+04  0.50400001928E-02 0.  1.
</event>
<event>
 5   0  0.2598987E-06  0.3122523E+04  0.7818609E-02  0.8209584E-01
       -1   -1    0    0    0  501  0.00000000000E+00  0.00000000000E+00  0.12606067291E+04  0.12606067291E+04  0.50400001928E-02 0.  1.
        1   -1    0    0  501    0  0.00000000000E+00  0.00000000000E+00 -0.19336230464E+04  0.19336230464E+04  0.50400001928E-02 0. -1.
    10030    2    1    2    0    0  0.00000000000E+00  0.00000000000E+00 -0.67301631737E+03  0.31942297755E+04  0.31225234819E+04 0.  0.
        2    1    3    3  502    0 -0.38101735974E+03  0.95404646527E+03 -0.15391588263E+04  0.18505104104E+04  0.25500000920E-02 0. -1.
       -2    1    3    3    0  502  0.38101735974E+03 -0.95404646527E+03  0.86614250897E+03  0.13437193651E+04  0.25500000920E-02 0.  1.
</event>
<event>
 5   0  0.2674441E-06  0.3063437E+04  0.7818609E-02  0.8225845E-01
        1   -1    0    0  501    0  0.00000000000E+00  0.00000000000E+00  0.21528802847E+04  0.21528802847E+04  0.50400001928E-02 0. -1.
       -1   -1    0    0    0  501  0.00000000000E+00  0.00000000000E+00 -0.10897777410E+04  0.10897777410E+04  0.50400001928E-02 0.  1.
    10030    2    1    2    0    0  0.00000000000E+00  0.00000000000E+00  0.10631025437E+04  0.32426580257E+04  0.30634366410E+04 0.  0.
        5    1    3    3  502    0 -0.10169669412E+04 -0.36970907918E+03  0.16790550341E+04  0.19975370986E+04  0.46999998093E+01 0. -1.
       -5    1    3    3    0  502  0.10169669412E+04  0.36970907918E+03 -0.61595249036E+03  0.12451209271E+04  0.46999998093E+01 0.  1.
</event>
<event>
 5   0  0.7094341E-06  0.2090137E+04  0.7818609E-02  0.8565601E-01
       -2   -1    0    0    0  501  0.00000000000E+00  0.00000000000E+00  0.83331813023E+03  0.83331813024E+03  0.25500000920E-02 0.  1.
        2   -1    0    0  501    0  0.00000000000E+00  0.00000000000E+00 -0.13106256726E+04  0.13106256726E+04  0.25500000920E-02 0. -1.
    10030    2    1    2    0    0  0.00000000000E+00  0.00000000000E+00 -0.47730754239E+03  0.21439438029E+04  0.20901369668E+04 0.  0.
        3    1    3    3  502    0  0.21425047520E+03  0.92678251438E+03 -0.68262291183E+03  0.11708130274E+04  0.10100000352E+00 0. -1.
       -3    1    3    3    0  502 -0.21425047520E+03 -0.92678251438E+03  0.20531536944E+03  0.97313077550E+03  0.10100000352E+00 0.  1.
</event>
<event>
 5   0  0.2517725E-06  0.3001761E+04  0.7818609E-02  0.8243228E-01
       -1   -1    0    0    0  501  0.00000000000E+00  0.00000000000E+00  0.22592986285E+04  0.22592986285E+04  0.50400001928E-02 0. -1.
        1   -1    0    0  501    0  0.00000000000E+00  0.00000000000E+00 -0.99705401872E+03  0.99705401874E+03  0.50400001928E-02 0.  1.
    10030    2    1    2    0    0  0.00000000000E+00  0.00000000000E+00  0.12622446098E+04  0.32563526473E+04  0.30017613344E+04 0.  0.
        3    1    3    3  502    0  0.49497097113E+02  0.14973078752E+04  0.53251795875E+03  0.15899547863E+04  0.10100000352E+00 0. -1.
       -3    1    3    3    0  502 -0.49497097113E+02 -0.14973078752E+04  0.72972665106E+03  0.16663978610E+04  0.10100000352E+00 0.  1.
</event>
<event>
 5   0  0.2598987E-06  0.3115152E+04  0.7818609E-02  0.8211592E-01
       -1   -1    0    0    0  501  0.00000000000E+00  0.00000000000E+00  0.10891151338E+04  0.10891151338E+04  0.50400001928E-02 0. -1.
        1   -1    0    0  501    0  0.00000000000E+00  0.00000000000E+00 -0.22275365082E+04  0.22275365082E+04  0.50400001928E-02 0.  1.
    10030    2    1    2    0    0  0.00000000000E+00  0.00000000000E+00 -0.11384213744E+04  0.33166516420E+04  0.31151524664E+04 0.  0.
        2    1    3    3  502    0  0.93449488269E+03  0.11345412276E+04 -0.11178887701E+04  0.18466563798E+04  0.25500000920E-02 0. -1.
       -2    1    3    3    0  502 -0.93449488269E+03 -0.11345412276E+04 -0.20532604300E+02  0.14699952622E+04  0.25500000920E-02 0.  1.
</event>
<event>
 5   0  0.7079223E-06  0.3123746E+04  0.7818609E-02  0.8209251E-01
       -2   -1    0    0    0  501  0.00000000000E+00  0.00000000000E+00  0.11775411548E+04  0.11775411549E+04  0.25500000920E-02 0.  1.
        2   -1    0    0  501    0  0.00000000000E+00  0.00000000000E+00 -0.20716449904E+04  0.20716449904E+04  0.25500000920E-02 0. -1.
    10030    2    1    2    0    0  0.00000000000E+00  0.00000000000E+00 -0.89410383558E+03  0.32491861453E+04  0.31237459785E+04 0.  0.
        5    1    3    3  502    0  0.11564026926E+04  0.61303208213E+03  0.43943379485E+03  0.13806519008E+04  0.46999998093E+01 0.  1.
       -5    1    3    3    0  502 -0.11564026926E+04 -0.61303208213E+03 -0.13335376304E+04  0.18685342445E+04  0.46999998093E+01 0. -1.
</event>
<event>
 5   0  0.7094341E-06  0.3170434E+04  0.7818609E-02  0.8196669E-01
        2   -1    0    0  501    0  0.00000000000E+00  0.00000000000E+00  0.23821304890E+04  0.23821304890E+04  0.25500000920E-02 0.  1.
       -2   -1    0    0    0  501  0.00000000000E+00  0.00000000000E+00 -0.10549017294E+04  0.10549017294E+04  0.25500000920E-02 0. -1.
    10030    2    1    2    0    0  0.00000000000E+00  0.00000000000E+00  0.13272287596E+04  0.34370322184E+04  0.31704344009E+04 0.  0.
        3    1    3    3  502    0  0.12186533167E+04 -0.33223604983E+03  0.17019749563E+04  0.21194847160E+04  0.10100000352E+00 0.  1.
       -3    1    3    3    0  502 -0.12186533167E+04  0.33223604983E+03 -0.37474619673E+03  0.13175475025E+04  0.10100000352E+00 0. -1.
</event>
<event>
 5   0  0.2624011E-06  0.3197104E+04  0.7818609E-02  0.8189582E-01
       -1   -1    0    0    0  501  0.00000000000E+00  0.00000000000E+00  0.13604175065E+04  0.13604175065E+04  0.50400001928E-02 0. -1.
        1   -1    0    0  501    0  0.00000000000E+00  0.00000000000E+00 -0.18783705724E+04  0.18783705724E+04  0.50400001928E-02 0.  1.
    10030    2    1    2    0    0  0.00000000000E+00  0.00000000000E+00 -0.51795306588E+03  0.32387880789E+04  0.31971038209E+04 0.  0.
        1    1    3    3  502    0  0.83387799670E+03  0.62262645017E+03 -0.14882021941E+04  0.18159741133E+04  0.50400001928E-02 0.  1.
       -1    1    3    3    0  502 -0.83387799670E+03 -0.62262645017E+03  0.97024912821E+03  0.14228139656E+04  0.50400001928E-02 0. -1.
</event>
<event>
 5   0  0.7363513E-06  0.3071014E+04  0.7818609E-02  0.8223738E-01
       -2   -1    0    0    0  501  0.00000000000E+00  0.00000000000E+00  0.10111834477E+04  0.10111834477E+04  0.25500000920E-02 0.  1.
        2   -1    0    0  501    0  0.00000000000E+00  0.00000000000E+00 -0.23317055340E+04  0.23317055340E+04  0.25500000920E-02 0. -1.
    10030    2    1    2    0    0  0.00000000000E+00  0.00000000000E+00 -0.13205220863E+04  0.33428889816E+04  0.30710141913E+04 0.  0.
        4    1    3    3  502    0  0.23053511984E+03 -0.12141082941E+04 -0.16523019197E+04  0.20633246565E+04  0.12699999809E+01 0. -1.
       -4    1    3    3    0  502 -0.23053511984E+03  0.12141082941E+04  0.33177983341E+03  0.12795643251E+04  0.12699999809E+01 0.  1.
</event>
<event>
 5   0  0.7071012E-06  0.2790695E+04  0.7818609E-02  0.8306163E-01
       -2   -1    0    0    0  501  0.00000000000E+00  0.00000000000E+00  0.73388657979E+03  0.73388657980E+03  0.25500000920E-02 0.  1.
        2   -1    0    0  501    0  0.00000000000E+00  0.00000000000E+00 -0.26529903403E+04  0.26529903403E+04  0.25500000920E-02 0. -1.
    10030    2    1    2    0    0  0.00000000000E+00  0.00000000000E+00 -0.19191037605E+04  0.33868769201E+04  0.27906945423E+04 0.  0.
        1    1    3    3  502    0  0.62436884728E+03 -0.47291620340E+02  0.55380474827E+03  0.83592622524E+03  0.50400001928E-02 0.  1.
       -1    1    3    3    0  502 -0.62436884728E+03  0.47291620340E+02 -0.24729085087E+04  0.25509506948E+04  0.50400001928E-02 0. -1.
</event>
<event>
 5   0  0.7094341E-06  0.3058776E+04  0.7818609E-02  0.8227144E-01
        2   -1    0    0  501    0  0.00000000000E+00  0.00000000000E+00  0.19057250855E+04  0.19057250855E+04  0.25500000920E-02 0.  1.
       -2   -1    0    0    0  501  0.00000000000E+00  0.00000000000E+00 -0.12273684980E+04  0.12273684980E+04  0.25500000920E-02 0. -1.
    10030    2    1    2    0    0  0.00000000000E+00  0.00000000000E+00  0.67835658754E+03  0.31330935835E+04  0.30587755300E+04 0.  0.
        3    1    3    3  502    0  0.92044674010E+02 -0.58029914338E+03 -0.11071516725E+04  0.12533970456E+04  0.10100000352E+00 0. -1.
       -3    1    3    3    0  502 -0.92044674010E+02  0.58029914338E+03  0.17855082600E+04  0.18796965379E+04  0.10100000352E+00 0.  1.
</event>
<event>
 5   0  0.2674441E-06  0.3114372E+04  0.7818609E-02  0.8211805E-01
        1   -1    0    0  501    0  0.00000000000E+00  0.00000000000E+00  0.17822543735E+04  0.17822543735E+04  0.50400001928E-02 0. -1.
       -1   -1    0    0    0  501  0.00000000000E+00  0.00000000000E+00 -0.13605401179E+04  0.13605401179E+04  0.50400001928E-02 0.  1.
    10030    2    1    2    0    0  0.00000000000E+00  0.00000000000E+00  0.42171425558E+03  0.31427944914E+04  0.31143722163E+04 0.  0.
        5    1    3    3  502    0  0.54822576840E+03 -0.49719458442E+03  0.15934161516E+04  0.17569152142E+04  0.46999998093E+01 0. -1.
       -5    1    3    3    0  502 -0.54822576840E+03  0.49719458442E+03 -0.11717018960E+04  0.13858792772E+04  0.46999998093E+01 0.  1.
</event>
<event>
 5   0  0.2598987E-06  0.3197628E+04  0.7818609E-02  0.8189444E-01
       -1   -1    0    0    0  501  0.00000000000E+00  0.00000000000E+00  0.11886253667E+04  0.11886253667E+04  0.50400001928E-02 0.  1.
        1   -1    0    0  501    0  0.00000000000E+00  0.00000000000E+00 -0.21505562338E+04  0.21505562338E+04  0.50400001928E-02 0. -1.
    10030    2    1    2    0    0  0.00000000000E+00  0.00000000000E+00 -0.96193086716E+03  0.33391816005E+04  0.31976276781E+04 0.  0.
        2    1    3    3  502    0 -0.12588816681E+04 -0.34620267181E+03 -0.14446200129E+04  0.19471944757E+04  0.25500000920E-02 0. -1.
       -2    1    3    3    0  502  0.12588816681E+04  0.34620267181E+03  0.48268914577E+03  0.13919871248E+04  0.25500000920E-02 0.  1.
</event>
<event>
 5   0  0.2624011E-06  0.3045391E+04  0.7818609E-02  0.8230887E-01
       -1   -1    0    0    0  501  0.00000000000E+00  0.00000000000E+00  0.89543809012E+03  0.89543809013E+03  0.50400001928E-02 0.  1.
        1   -1    0    0  501    0  0.00000000000E+00  0.00000000000E+00 -0.25893493259E+04  0.25893493259E+04  0.50400001928E-02 0. -1.
    10030    2    1    2    0    0  0.00000000000E+00  0.00000000000E+00 -0.16939112358E+04  0.34847874160E+04  0.30453912820E+04 0.  0.
        1    1    3    3  502    0 -0.88724445119E+03 -0.41567045976E+03  0.48681691856E+03  0.10940636908E+04  0.50400001928E-02 0.  1.
       -1    1    3    3    0  502  0.88724445119E+03  0.41567045976E+03 -0.21807281543E+04  0.23907237252E+04  0.50400001928E-02 0. -1.
</event>
<event>
 5   0  0.7414808E-06  0.3099281E+04  0.7818609E-02  0.8215935E-01
       -2   -1    0    0    0  501  0.00000000000E+00  0.00000000000E+00  0.74061423107E+03  0.74061423107E+03  0.25500000920E-02 0. -1.
        2   -1    0    0  501    0  0.00000000000E+00  0.00000000000E+00 -0.32424246308E+04  0.32424246308E+04  0.25500000920E-02 0.  1.
    10030    2    1    2    0    0  0.00000000000E+00  0.00000000000E+00 -0.25018103997E+04  0.39830388618E+04  0.30992810939E+04 0.  0.
        2    1    3    3  502    0 -0.10360667751E+04 -0.54329714299E+03  0.55137627311E+02  0.11711730470E+04  0.25500000920E-02 0. -1.
       -2    1    3    3    0  502  0.10360667751E+04  0.54329714299E+03 -0.25569480270E+04  0.28118658149E+04  0.25500000920E-02 0.  1.
</event>
<event>
 5   0  0.7363513E-06  0.3590462E+04  0.7818609E-02  0.8092680E-01
        2   -1    0    0  501    0  0.00000000000E+00  0.00000000000E+00  0.12555236609E+04  0.12555236609E+04  0.25500000920E-02 0.  1.
       -2   -1    0    0    0  501  0.00000000000E+00  0.00000000000E+00 -0.25669407893E+04  0.25669407893E+04  0.25500000920E-02 0. -1.
    10030    2    1    2    0    0  0.00000000000E+00  0.00000000000E+00 -0.13114171284E+04  0.38224644503E+04  0.35904623085E+04 0.  0.
        4    1    3    3  502    0 -0.50515043636E+03  0.12815186735E+04  0.56993533260E+03  0.14907363852E+04  0.12699999809E+01 0.  1.
       -4    1    3    3    0  502  0.50515043636E+03 -0.12815186735E+04 -0.18813524610E+04  0.23317280650E+04  0.12699999809E+01 0. -1.
</event>
<event>
 5   0  0.2598987E-06  0.3068107E+04  0.7818609E-02  0.8224545E-01
       -1   -1    0    0    0  501  0.00000000000E+00  0.00000000000E+00  0.18954306101E+04  0.18954306101E+04  0.50400001928E-02 0. -1.
        1   -1    0    0  501    0  0.00000000000E+00  0.00000000000E+00 -0.12415755932E+04  0.12415755932E+04  0.50400001928E-02 0.  1.
    10030    2    1    2    0    0  0.00000000000E+00  0.00000000000E+00  0.65385501696E+03  0.31370062033E+04  0.30681071585E+04 0.  0.
        2    1    3    3  502    0  0.15932242036E+03  0.14666929592E+04 -0.10292823995E+03  0.14789070602E+04  0.25500000920E-02 0.  1.
       -2    1    3    3    0  502 -0.15932242036E+03 -0.14666929592E+04  0.75678325691E+03  0.16580991430E+04  0.25500000920E-02 0. -1.
</event>
<event>
 5   0  0.2674441E-06  0.3147402E+04  0.7818609E-02  0.8202848E-01
        1   -1    0    0  501    0  0.00000000000E+00  0.00000000000E+00  0.83590095191E+03  0.83590095192E+03  0.50400001928E-02 0. -1.
       -1   -1    0    0    0  501  0.00000000000E+00  0.00000000000E+00 -0.29627129196E+04  0.29627129196E+04  0.50400001928E-02 0.  1.
    10030    2    1    2    0    0  0.00000000000E+00  0.00000000000E+00 -0.21268119677E+04  0.37986138716E+04  0.31474018172E+04 0.  0.
        5    1    3    3  502    0  0.99364230376E+03 -0.54222601131E+03 -0.23828450047E+04  0.26380497496E+04  0.46999998093E+01 0.  1.
       -5    1    3    3    0  502 -0.99364230376E+03  0.54222601131E+03  0.25603303694E+03  0.11605641220E+04  0.46999998093E+01 0. -1.
</event>
<event>
 5   0  0.2598987E-06  0.3156848E+04  0.7818609E-02  0.8200308E-01
       -1   -1    0    0    0  501  0.00000000000E+00  0.00000000000E+00  0.19461069139E+04  0.19461069139E+04  0.50400001928E-02 0. -1.
        1   -1    0    0  501    0  0.00000000000E+00  0.00000000000E+00 -0.12802079459E+04  0.12802079460E+04  0.50400001928E-02 0.  1.
    10030    2    1    2    0    0  0.00000000000E+00  0.00000000000E+00  0.66589896795E+03  0.32263148599E+04  0.31568475002E+04 0.  0.
        2    1    3    3  502    0  0.14779270649E+04  0.46234585368E+03  0.64527108692E+03  0.16776194066E+04  0.25500000920E-02 0. -1.
       -2    1    3    3    0  502 -0.14779270649E+04 -0.46234585368E+03  0.20627881035E+02  0.15486954533E+04  0.25500000920E-02 0.  1.
</event>
<event>
 5   0  0.2393250E-06  0.2940423E+04  0.7818609E-02  0.8260951E-01
        3   -1    0    0  501    0  0.00000000000E+00  0.00000000000E+00  0.13927378096E+04  0.13927378133E+04  0.10100000352E+00 0.  1.
       -3   -1    0    0    0  501  0.00000000000E+00  0.00000000000E+00 -0.15519949816E+04  0.15519949849E+04  0.10100000352E+00 0. -1.
    10030    2    1    2    0    0  0.00000000000E+00  0.00000000000E+00 -0.15925717202E+03  0.29447327982E+04  0.29404231679E+04 0.  0.
        1    1    3    3  502    0 -0.39696605167E+03  0.76367063679E+03  0.11140694081E+04  0.14078087703E+04  0.50400001928E-02 0.  1.
       -1    1    3    3    0  502  0.39696605167E+03 -0.76367063679E+03 -0.12733265802E+04  0.15369240279E+04  0.50400001928E-02 0. -1.
</event>
<event>
 5   0  0.7414808E-06  0.3042391E+04  0.7818609E-02  0.8231728E-01
       -2   -1    0    0    0  501  0.00000000000E+00  0.00000000000E+00  0.18343847283E+04  0.18343847284E+04  0.25500000920E-02 0. -1.
        2   -1    0    0  501    0  0.00000000000E+00  0.00000000000E+00 -0.12614779173E+04  0.12614779173E+04  0.25500000920E-02 0.  1.
    10030    2    1    2    0    0  0.00000000000E+00  0.00000000000E+00  0.57290681108E+03  0.30958626456E+04  0.30423910509E+04 0.  0.
        2    1    3    3  502    0 -0.32767461901E+03  0.18513924126E+03  0.17862605217E+04  0.18254790730E+04  0.25500000920E-02 0. -1.
       -2    1    3    3    0  502  0.32767461901E+03 -0.18513924126E+03 -0.12133537106E+04  0.12703835726E+04  0.25500000920E-02 0.  1.
</event>
<event>
 5   0  0.7094341E-06  0.2601169E+04  0.7818609E-02  0.8367804E-01
        2   -1    0    0  501    0  0.00000000000E+00  0.00000000000E+00  0.17253932178E+04  0.17253932178E+04  0.25500000920E-02 0. -1.
       -2   -1    0    0    0  501  0.00000000000E+00  0.00000000000E+00 -0.98036766646E+03  0.98036766646E+03  0.25500000920E-02 0.  1.
    10030    2    1    2    0    0  0.00000000000E+00  0.00000000000E+00  0.74502555135E+03  0.27057608843E+04  0.26011687548E+04 0.  0.
        3    1    3    3  502    0  0.65302888621E+03 -0.62988680500E+03 -0.59679051488E+03  0.10859848259E+04  0.10100000352E+00 0.  1.
       -3    1    3    3    0  502 -0.65302888621E+03  0.62988680500E+03  0.13418160662E+04  0.16197760583E+04  0.10100000352E+00 0. -1.
</event>
<event>
 5   0  0.7414808E-06  0.3102306E+04  0.7818609E-02  0.8215105E-01
       -2   -1    0    0    0  501  0.00000000000E+00  0.00000000000E+00  0.17985049077E+04  0.17985049077E+04  0.25500000920E-02 0. -1.
        2   -1    0    0  501    0  0.00000000000E+00  0.00000000000E+00 -0.13378202456E+04  0.13378202456E+04  0.25500000920E-02 0.  1.
    10030    2    1    2    0    0  0.00000000000E+00  0.00000000000E+00  0.46068466205E+03  0.31363251533E+04  0.31023064177E+04 0.  0.
        2    1    3    3  502    0  0.11348112635E+03 -0.11351771657E+04  0.12928528312E+04  0.17242313089E+04  0.25500000920E-02 0. -1.
       -2    1    3    3    0  502 -0.11348112635E+03  0.11351771657E+04 -0.83216816916E+03  0.14120938443E+04  0.25500000920E-02 0.  1.
</event>
<event>
 5   0  0.2517725E-06  0.1958320E+04  0.7818609E-02  0.8626359E-01
       -1   -1    0    0    0  501  0.00000000000E+00  0.00000000000E+00  0.58393162688E+03  0.58393162690E+03  0.50400001928E-02 0. -1.
        1   -1    0    0  501    0  0.00000000000E+00  0.00000000000E+00 -0.16418941486E+04  0.16418941486E+04  0.50400001928E-02 0.  1.
    10030    2    1    2    0    0  0.00000000000E+00  0.00000000000E+00 -0.10579625217E+04  0.22258257755E+04  0.19583196076E+04 0.  0.
        3    1    3    3  502    0  0.35779931252E+03 -0.91018382335E+03 -0.47448404345E+03  0.10870096863E+04  0.10100000352E+00 0. -1.
       -3    1    3    3    0  502 -0.35779931252E+03  0.91018382335E+03 -0.58347847827E+03  0.11388160892E+04  0.10100000352E+00 0.  1.
</event>
<event>
 5   0  0.2674441E-06  0.3139097E+04  0.7818609E-02  0.8205089E-01
       -1   -1    0    0    0  501  0.00000000000E+00  0.00000000000E+00  0.13287314752E+04  0.13287314752E+04  0.50400001928E-02 0. -1.
        1   -1    0    0  501    0  0.00000000000E+00  0.00000000000E+00 -0.18540113721E+04  0.18540113721E+04  0.50400001928E-02 0.  1.
    10030    2    1    2    0    0  0.00000000000E+00  0.00000000000E+00 -0.52527989685E+03  0.31827428473E+04  0.31390974916E+04 0.  0.
        5    1    3    3  502    0 -0.79822832480E+03  0.83033467034E+03  0.81841024006E+03  0.14129548947E+04  0.46999998093E+01 0. -1.
       -5    1    3    3    0  502  0.79822832480E+03 -0.83033467034E+03 -0.13436901369E+04  0.17697879526E+04  0.46999998093E+01 0.  1.
</event>
<event>
 5   0  0.7079223E-06  0.3110174E+04  0.7818609E-02  0.8212951E-01
       -2   -1    0    0    0  501  0.00000000000E+00  0.00000000000E+00  0.15310055692E+04  0.15310055692E+04  0.25500000920E-02 0.  1.
        2   -1    0    0  501    0  0.00000000000E+00  0.00000000000E+00 -0.15795470851E+04  0.15795470851E+04  0.25500000920E-02 0. -1.
    10030    2    1    2    0    0  0.00000000000E+00  0.00000000000E+00 -0.48541515807E+02  0.31105526543E+04  0.31101738756E+04 0.  0.
        5    1    3    3  502    0  0.58926618079E+03 -0.12677293459E+04  0.65691495023E+03  0.15446461304E+04  0.46999998093E+01 0. -1.
       -5    1    3    3    0  502 -0.58926618079E+03  0.12677293459E+04 -0.70545646604E+03  0.15659065239E+04  0.46999998093E+01 0.  1.
</event>
<event>
 5   0  0.2674441E-06  0.3127523E+04  0.7818609E-02  0.8208225E-01
       -1   -1    0    0    0  501  0.00000000000E+00  0.00000000000E+00  0.23496456109E+04  0.23496456109E+04  0.50400001928E-02 0.  1.
        1   -1    0    0  501    0  0.00000000000E+00  0.00000000000E+00 -0.10407317196E+04  0.10407317196E+04  0.50400001928E-02 0. -1.
    10030    2    1    2    0    0  0.00000000000E+00  0.00000000000E+00  0.13089138913E+04  0.33903773305E+04  0.31275234401E+04 0.  0.
        5    1    3    3  502    0 -0.11640818889E+04 -0.40004044224E+03 -0.39107637282E+03  0.12915424185E+04  0.46999998093E+01 0. -1.
       -5    1    3    3    0  502  0.11640818889E+04  0.40004044224E+03  0.16999902642E+04  0.20988349120E+04  0.46999998093E+01 0.  1.
</event>
<event>
 5   0  0.2598987E-06  0.3137856E+04  0.7818609E-02  0.8205425E-01
       -1   -1    0    0    0  501  0.00000000000E+00  0.00000000000E+00  0.14201663632E+04  0.14201663632E+04  0.50400001928E-02 0. -1.
        1   -1    0    0  501    0  0.00000000000E+00  0.00000000000E+00 -0.17332721240E+04  0.17332721240E+04  0.50400001928E-02 0.  1.
    10030    2    1    2    0    0  0.00000000000E+00  0.00000000000E+00 -0.31310576076E+03  0.31534384872E+04  0.31378558085E+04 0.  0.
        2    1    3    3  502    0  0.18923298695E+03  0.14396333203E+04 -0.75379493941E+03  0.16360195692E+04  0.25500000920E-02 0. -1.
       -2    1    3    3    0  502 -0.18923298695E+03 -0.14396333203E+04  0.44068917865E+03  0.15174189179E+04  0.25500000920E-02 0.  1.
</event>
<event>
 5   0  0.7079223E-06  0.2990484E+04  0.7818609E-02  0.8246453E-01
       -2   -1    0    0    0  501  0.00000000000E+00  0.00000000000E+00  0.21359927657E+04  0.21359927657E+04  0.25500000920E-02 0.  1.
        2   -1    0    0  501    0  0.00000000000E+00  0.00000000000E+00 -0.10467023848E+04  0.10467023848E+04  0.25500000920E-02 0. -1.
    10030    2    1    2    0    0  0.00000000000E+00  0.00000000000E+00  0.10892903809E+04  0.31826951506E+04  0.29904840557E+04 0.  0.
        5    1    3    3  502    0  0.56886036441E+03 -0.11592652011E+04 -0.25761480740E+03  0.13167708228E+04  0.46999998093E+01 0. -1.
       -5    1    3    3    0  502 -0.56886036441E+03  0.11592652011E+04  0.13469051883E+04  0.18659243278E+04  0.46999998093E+01 0.  1.
</event>
<event>
 5   0  0.2624011E-06  0.2863983E+04  0.7818609E-02  0.8283675E-01
       -1   -1    0    0    0  501  0.00000000000E+00  0.00000000000E+00  0.97243498434E+03  0.97243498435E+03  0.50400001928E-02 0.  1.
        1   -1    0    0  501    0  0.00000000000E+00  0.00000000000E+00 -0.21087265849E+04  0.21087265849E+04  0.50400001928E-02 0. -1.
    10030    2    1    2    0    0  0.00000000000E+00  0.00000000000E+00 -0.11362916006E+04  0.30811615693E+04  0.28639828935E+04 0.  0.
        1    1    3    3  502    0  0.95518622245E+03  0.61115867762E+03 -0.15089314677E+04  0.18875300853E+04  0.50400001928E-02 0. -1.
       -1    1    3    3    0  502 -0.95518622245E+03 -0.61115867762E+03  0.37263986715E+03  0.11936314839E+04  0.50400001928E-02 0.  1.
</event>
<event>
 5   0  0.7094341E-06  0.3146500E+04  0.7818609E-02  0.8203091E-01
        2   -1    0    0  501    0  0.00000000000E+00  0.00000000000E+00  0.17333481042E+04  0.17333481042E+04  0.25500000920E-02 0.  1.
       -2   -1    0    0    0  501  0.00000000000E+00  0.00000000000E+00 -0.14279388224E+04  0.14279388224E+04  0.25500000920E-02 0. -1.
    10030    2    1    2    0    0  0.00000000000E+00  0.00000000000E+00  0.30540928176E+03  0.31612869266E+04  0.31464996747E+04 0.  0.
        3    1    3    3  502    0  0.40707767021E+03  0.76364919002E+03  0.14727448336E+04  0.17081714405E+04  0.10100000352E+00 0.  1.
       -3    1    3    3    0  502 -0.40707767021E+03 -0.76364919002E+03 -0.11673355519E+04  0.14531154861E+04  0.10100000352E+00 0. -1.
</event>
<event>
 5   0  0.7071012E-06  0.3021277E+04  0.7818609E-02  0.8237681E-01
        2   -1    0    0  501    0  0.00000000000E+00  0.00000000000E+00  0.17698420956E+04  0.17698420956E+04  0.25500000920E-02 0. -1.
       -2   -1    0    0    0  501  0.00000000000E+00  0.00000000000E+00 -0.12893968350E+04  0.12893968350E+04  0.25500000920E-02 0.  1.
    10030    2    1    2    0    0  0.00000000000E+00  0.00000000000E+00  0.48044526062E+03  0.30592389306E+04  0.30212770787E+04 0.  0.
        1    1    3    3  502    0 -0.11697640968E+03 -0.97202712575E+03  0.14051161316E+04  0.17125628622E+04  0.50400001928E-02 0. -1.
       -1    1    3    3    0  502  0.11697640968E+03  0.97202712575E+03 -0.92467087100E+03  0.13466760684E+04  0.50400001928E-02 0.  1.
</event>
<event>
 5   0  0.7094341E-06  0.3067752E+04  0.7818609E-02  0.8224644E-01
       -2   -1    0    0    0  501  0.00000000000E+00  0.00000000000E+00  0.11408390387E+04  0.11408390387E+04  0.25500000920E-02 0.  1.
        2   -1    0    0  501    0  0.00000000000E+00  0.00000000000E+00 -0.20623198164E+04  0.20623198164E+04  0.25500000920E-02 0. -1.
    10030    2    1    2    0    0  0.00000000000E+00  0.00000000000E+00 -0.92148077768E+03  0.32031588551E+04  0.30677515915E+04 0.  0.
        3    1    3    3  502    0 -0.11715434137E+04  0.30826674259E+03 -0.14431372919E+04  0.18841941536E+04  0.10100000352E+00 0. -1.
       -3    1    3    3    0  502  0.11715434137E+04 -0.30826674259E+03  0.52165651422E+03  0.13189647015E+04  0.10100000352E+00 0.  1.
</event>
<event>
 5   0  0.2598987E-06  0.2999105E+04  0.7818609E-02  0.8243987E-01
       -1   -1    0    0    0  501  0.00000000000E+00  0.00000000000E+00  0.92203627221E+03  0.92203627223E+03  0.50400001928E-02 0. -1.
        1   -1    0    0  501    0  0.00000000000E+00  0.00000000000E+00 -0.24387949600E+04  0.24387949600E+04  0.50400001928E-02 0.  1.
    10030    2    1    2    0    0  0.00000000000E+00  0.00000000000E+00 -0.15167586878E+04  0.33608312322E+04  0.29991048089E+04 0.  0.
        2    1    3    3  502    0 -0.97052130801E+03  0.48576566900E+03 -0.19179699370E+04  0.22037442169E+04  0.25500000920E-02 0.  1.
       -2    1    3    3    0  502  0.97052130801E+03 -0.48576566900E+03  0.40121124920E+03  0.11570870153E+04  0.25500000920E-02 0. -1.
</event>
<event>
 5   0  0.7363513E-06  0.3000108E+04  0.7818609E-02  0.8243700E-01
        2   -1    0    0  501    0  0.00000000000E+00  0.00000000000E+00  0.18151848779E+04  0.18151848779E+04  0.25500000920E-02 0. -1.
       -2   -1    0    0    0  501  0.00000000000E+00  0.00000000000E+00 -0.12396320546E+04  0.12396320546E+04  0.25500000920E-02 0.  1.
    10030    2    1    2    0    0  0.00000000000E+00  0.00000000000E+00  0.57555282336E+03  0.30548169325E+04  0.30001075712E+04 0.  0.
        4    1    3    3  502    0 -0.87424157438E+03  0.26904583727E+03 -0.92280093789E+03  0.12993256623E+04  0.12699999809E+01 0.  1.
       -4    1    3    3    0  502  0.87424157438E+03 -0.26904583727E+03  0.14983537612E+04  0.17554912702E+04  0.12699999809E+01 0. -1.
</event>
<event>
 5   0  0.2674441E-06  0.3122778E+04  0.7818609E-02  0.8209514E-01
        1   -1    0    0  501    0  0.00000000000E+00  0.00000000000E+00  0.17031934199E+04  0.17031934199E+04  0.50400001928E-02 0.  1.
       -1   -1    0    0    0  501  0.00000000000E+00  0.00000000000E+00 -0.14313907468E+04  0.14313907468E+04  0.50400001928E-02 0. -1.
    10030    2    1    2    0    0  0.00000000000E+00  0.00000000000E+00  0.27180267303E+03  0.31345841667E+04  0.31227778027E+04 0.  0.
        5    1    3    3  502    0 -0.94012700713E+03  0.11662529926E+04 -0.30613659260E+03  0.15289625684E+04  0.46999998093E+01 0.  1.
       -5    1    3    3    0  502  0.94012700713E+03 -0.11662529926E+04  0.57793926564E+03  0.16056215983E+04  0.46999998093E+01 0. -1.
</event>
<event>
 5   0  0.2393250E-06  0.2781080E+04  0.7818609E-02  0.8309166E-01
       -4   -1    0    0    0  501  0.00000000000E+00  0.00000000000E+00  0.16954343376E+04  0.16954348133E+04  0.12699999809E+01 0. -1.
        4   -1    0    0  501    0  0.00000000000E+00  0.00000000000E+00 -0.11404745858E+04  0.11404752929E+04  0.12699999809E+01 0.  1.
    10030    2    1    2    0    0  0.00000000000E+00  0.00000000000E+00  0.55495975185E+03  0.28359101062E+04  0.27810799708E+04 0.  0.
        3    1    3    3  502    0 -0.12841778059E+04  0.52682991444E+03  0.36242311825E+03  0.14345776112E+04  0.10100000352E+00 0.  1.
       -3    1    3    3    0  502  0.12841778059E+04 -0.52682991444E+03  0.19253663360E+03  0.14013324949E+04  0.10100000352E+00 0. -1.
</event>
<event>
 5   0  0.2393250E-06  0.3058979E+04  0.7818609E-02  0.8227087E-01
       -3   -1    0    0    0  501  0.00000000000E+00  0.00000000000E+00  0.17587292531E+04  0.17587292560E+04  0.10100000352E+00 0.  1.
        3   -1    0    0  501    0  0.00000000000E+00  0.00000000000E+00 -0.13301293706E+04  0.13301293744E+04  0.10100000352E+00 0. -1.
    10030    2    1    2    0    0  0.00000000000E+00  0.00000000000E+00  0.42859988252E+03  0.30888586305E+04  0.30589785517E+04 0.  0.
        4    1    3    3  502    0  0.12278779842E+04  0.12452826900E+03  0.11265314085E+04  0.16710075587E+04  0.12699999809E+01 0.  1.
       -4    1    3    3    0  502 -0.12278779842E+04 -0.12452826900E+03 -0.69793152599E+03  0.14178510718E+04  0.12699999809E+01 0. -1.
</event>
<event>
 5   0  0.2598987E-06  0.2628703E+04  0.7818609E-02  0.8358516E-01
       -1   -1    0    0    0  501  0.00000000000E+00  0.00000000000E+00  0.14496184556E+04  0.14496184556E+04  0.50400001928E-02 0.  1.
        1   -1    0    0  501    0  0.00000000000E+00  0.00000000000E+00 -0.11917069496E+04  0.11917069496E+04  0.50400001928E-02 0. -1.
    10030    2    1    2    0    0  0.00000000000E+00  0.00000000000E+00  0.25791150605E+03  0.26413254052E+04  0.26287033973E+04 0.  0.
        2    1    3    3  502    0 -0.52189267641E+03 -0.59902288355E+03 -0.92312479755E+03  0.12179325813E+04  0.25500000920E-02 0. -1.
       -2    1    3    3    0  502  0.52189267641E+03  0.59902288355E+03  0.11810363036E+04  0.14233928239E+04  0.25500000920E-02 0.  1.
</event>
<event>
 5   0  0.2517725E-06  0.2757985E+04  0.7818609E-02  0.8316432E-01
        1   -1    0    0  501    0  0.00000000000E+00  0.00000000000E+00  0.15844880110E+04  0.15844880110E+04  0.50400001928E-02 0. -1.
       -1   -1    0    0    0  501  0.00000000000E+00  0.00000000000E+00 -0.12001480047E+04  0.12001480047E+04  0.50400001928E-02 0.  1.
    10030    2    1    2    0    0  0.00000000000E+00  0.00000000000E+00  0.38434000636E+03  0.27846360157E+04  0.27579848621E+04 0.  0.
        3    1    3    3  502    0  0.11826659129E+04  0.38192987362E+03  0.79548163665E+03  0.14755880639E+04  0.10100000352E+00 0. -1.
       -3    1    3    3    0  502 -0.11826659129E+04 -0.38192987362E+03 -0.41114163029E+03  0.13090479518E+04  0.10100000352E+00 0.  1.
</event>
<event>
 5   0  0.2674441E-06  0.3003710E+04  0.7818609E-02  0.8242672E-01
       -1   -1    0    0    0  501  0.00000000000E+00  0.00000000000E+00  0.17432141961E+04  0.17432141961E+04  0.50400001928E-02 0.  1.
        1   -1    0    0  501    0  0.00000000000E+00  0.00000000000E+00 -0.12939135676E+04  0.12939135676E+04  0.50400001928E-02 0. -1.
    10030    2    1    2    0    0  0.00000000000E+00  0.00000000000E+00  0.44930062851E+03  0.30371277637E+04  0.30037100390E+04 0.  0.
        5    1    3    3  502    0 -0.81776861969E+02  0.10577917084E+03  0.17371770097E+04  0.17423210787E+04  0.46999998093E+01 0.  1.
       -5    1    3    3    0  502  0.81776861969E+02 -0.10577917084E+03 -0.12878763812E+04  0.12948066850E+04  0.46999998093E+01 0. -1.
</event>
<event>
 5   0  0.7079223E-06  0.1946701E+04  0.7818609E-02  0.8631953E-01
       -2   -1    0    0    0  501  0.00000000000E+00  0.00000000000E+00  0.99558127305E+03  0.99558127305E+03  0.25500000920E-02 0.  1.
        2   -1    0    0  501    0  0.00000000000E+00  0.00000000000E+00 -0.95161567021E+03  0.95161567021E+03  0.25500000920E-02 0. -1.
    10030    2    1    2    0    0  0.00000000000E+00  0.00000000000E+00  0.43965602839E+02  0.19471969433E+04  0.19467005321E+04 0.  0.
        5    1    3    3  502    0  0.28889209394E+03 -0.24685812620E+03  0.91830899972E+03  0.99383654862E+03  0.46999998093E+01 0.  1.
       -5    1    3    3    0  502 -0.28889209394E+03  0.24685812620E+03 -0.87434339688E+03  0.95336039464E+03  0.46999998093E+01 0. -1.
</event>
<event>
 5   0  0.2624011E-06  0.3015698E+04  0.7818609E-02  0.8239263E-01
        1   -1    0    0  501    0  0.00000000000E+00  0.00000000000E+00  0.13531214808E+04  0.13531214808E+04  0.50400001928E-02 0.  1.
       -1   -1    0    0    0  501  0.00000000000E+00  0.00000000000E+00 -0.16802689316E+04  0.16802689316E+04  0.50400001928E-02 0. -1.
    10030    2    1    2    0    0  0.00000000000E+00  0.00000000000E+00 -0.32714745086E+03  0.30333904124E+04  0.30156975875E+04 0.  0.
        1    1    3    3  502    0  0.94067473993E+03  0.68223576008E+03 -0.11300926978E+04  0.16209330968E+04  0.50400001928E-02 0. -1.
       -1    1    3    3    0  502 -0.94067473993E+03 -0.68223576008E+03  0.80294524696E+03  0.14124573156E+04  0.50400001928E-02 0.  1.
</event>
<event>
 5   0  0.2674441E-06  0.3157907E+04  0.7818609E-02  0.8200023E-01
        1   -1    0    0  501    0  0.00000000000E+00  0.00000000000E+00  0.16368405066E+04  0.16368405066E+04  0.50400001928E-02 0.  1.
       -1   -1    0    0    0  501  0.00000000000E+00  0.00000000000E+00 -0.15231140310E+04  0.15231140310E+04  0.50400001928E-02 0. -1.
    10030    2    1    2    0    0  0.00000000000E+00  0.00000000000E+00  0.11372647563E+03  0.31599545376E+04  0.31579073717E+04 0.  0.
        5    1    3    3  502    0  0.51187128577E+03  0.14633293643E+04  0.35660309659E+03  0.15907648790E+04  0.46999998093E+01 0.  1.
       -5    1    3    3    0  502 -0.51187128577E+03 -0.14633293643E+04 -0.24287662095E+03  0.15691896586E+04  0.46999998093E+01 0. -1.
</event>
<event>
 5   0  0.2612331E-06  0.2932023E+04  0.7818609E-02  0.8263413E-01
        1   -1    0    0  501    0  0.00000000000E+00  0.00000000000E+00  0.24990041129E+04  0.24990041129E+04  0.50400001928E-02 0. -1.
       -1   -1    0    0    0  501  0.00000000000E+00  0.00000000000E+00 -0.86001824792E+03  0.86001824793E+03  0.50400001928E-02 0.  1.
    10030    2    1    2    0    0  0.00000000000E+00  0.00000000000E+00  0.16389858649E+04  0.33590223608E+04  0.29320226048E+04 0.  0.
        4    1    3    3  502    0 -0.87576249615E+03 -0.97436512340E+03  0.65774100532E+02  0.13117450928E+04  0.12699999809E+01 0.  1.
       -4    1    3    3    0  502  0.87576249615E+03  0.97436512340E+03  0.15732117644E+04  0.20472772680E+04  0.12699999809E+01 0. -1.
</event>
<event>
 5   0  0.2598987E-06  0.3017353E+04  0.7818609E-02  0.8238793E-01
       -1   -1    0    0    0  501  0.00000000000E+00  0.00000000000E+00  0.20833191646E+04  0.20833191646E+04  0.50400001928E-02 0.  1.
        1   -1    0    0  501    0  0.00000000000E+00  0.00000000000E+00 -0.10925378559E+04  0.10925378559E+04  0.50400001928E-02 0. -1.
    10030    2    1    2    0    0  0.00000000000E+00  0.00000000000E+00  0.99078130869E+03  0.31758570206E+04  0.30173531801E+04 0.  0.
        2    1    3    3  502    0 -0.79953959285E+03 -0.72392069278E+02 -0.84905038324E+03  0.11684993477E+04  0.25500000920E-02 0. -1.
       -2    1    3    3    0  502  0.79953959285E+03  0.72392069278E+02  0.18398316919E+04  0.20073576729E+04  0.25500000920E-02 0.  1.
</event>
<event>
 5   0  0.7414808E-06  0.3099521E+04  0.7818609E-02  0.8215869E-01
        2   -1    0    0  501    0  0.00000000000E+00  0.00000000000E+00  0.16241434603E+04  0.16241434603E+04  0.25500000920E-02 0. -1.
       -2   -1    0    0    0  501  0.00000000000E+00  0.00000000000E+00 -0.14787840355E+04  0.14787840355E+04  0.25500000920E-02 0.  1.
    10030    2    1    2    0    0  0.00000000000E+00  0.00000000000E+00  0.14535942479E+03  0.31029274959E+04  0.30995208795E+04 0.  0.
        2    1    3    3  502    0  0.19225329983E+03 -0.68916451500E+03 -0.13035487666E+04  0.14869930891E+04  0.25500000920E-02 0.  1.
       -2    1    3    3    0  502 -0.19225329983E+03  0.68916451500E+03  0.14489081914E+04  0.16159344068E+04  0.25500000920E-02 0. -1.
</event>
<event>
 5   0  0.7094341E-06  0.3087731E+04  0.7818609E-02  0.8219113E-01
        2   -1    0    0  501    0  0.00000000000E+00  0.00000000000E+00  0.22301510375E+04  0.22301510375E+04  0.25500000920E-02 0.  1.
       -2   -1    0    0    0  501  0.00000000000E+00  0.00000000000E+00 -0.10687709625E+04  0.10687709625E+04  0.25500000920E-02 0. -1.
    10030    2    1    2    0    0  0.00000000000E+00  0.00000000000E+00  0.11613800750E+04  0.32989220000E+04  0.30877309928E+04 0.  0.
        3    1    3    3  502    0  0.54124744550E+03 -0.10142175382E+02  0.21254267066E+04  0.21932830087E+04  0.10100000352E+00 0.  1.
       -3    1    3    3    0  502 -0.54124744550E+03  0.10142175382E+02 -0.96404663160E+03  0.11056389913E+04  0.10100000352E+00 0. -1.
</event>
<event>
 5   0  0.7363513E-06  0.3563320E+04  0.7818609E-02  0.8098946E-01
       -2   -1    0    0    0  501  0.00000000000E+00  0.00000000000E+00  0.12469257476E+04  0.12469257476E+04  0.25500000920E-02 0. -1.
        2   -1    0    0  501    0  0.00000000000E+00  0.00000000000E+00 -0.25457110103E+04  0.25457110103E+04  0.25500000920E-02 0.  1.
    10030    2    1    2    0    0  0.00000000000E+00  0.00000000000E+00 -0.12987852627E+04  0.37926367579E+04  0.35633201398E+04 0.  0.
        4    1    3    3  502    0  0.14120583772E+04 -0.10743199511E+04 -0.82180093329E+03  0.19553594567E+04  0.12699999809E+01 0.  1.
       -4    1    3    3    0  502 -0.14120583772E+04  0.10743199511E+04 -0.47698432946E+03  0.18372773012E+04  0.12699999809E+01 0. -1.
</event>
<event>
 5   0  0.2674441E-06  0.2459732E+04  0.7818609E-02  0.8417473E-01
       -1   -1    0    0    0  501  0.00000000000E+00  0.00000000000E+00  0.77649746127E+03  0.77649746129E+03  0.50400001928E-02 0. -1.
        1   -1    0    0  501    0  0.00000000000E+00  0.00000000000E+00 -0.19479397341E+04  0.19479397341E+04  0.50400001928E-02 0.  1.
    10030    2    1    2    0    0  0.00000000000E+00  0.00000000000E+00 -0.11714422728E+04  0.27244371954E+04  0.24597319027E+04 0.  0.
        5    1    3    3  502    0  0.63826924641E+03  0.65883205034E+03 -0.14930880244E+04  0.17523644712E+04  0.46999998093E+01 0.  1.
       -5    1    3    3    0  502 -0.63826924641E+03 -0.65883205034E+03  0.32164575160E+03  0.97207272413E+03  0.46999998093E+01 0. -1.
</event>
<event>
 5   0  0.7071012E-06  0.2337533E+04  0.7818609E-02  0.8463268E-01
       -2   -1    0    0    0  501  0.00000000000E+00  0.00000000000E+00  0.92708948075E+03  0.92708948075E+03  0.25500000920E-02 0. -1.
        2   -1    0    0  501    0  0.00000000000E+00  0.00000000000E+00 -0.14734442305E+04  0.14734442305E+04  0.25500000920E-02 0.  1.
    10030    2    1    2    0    0  0.00000000000E+00  0.00000000000E+00 -0.54635474980E+03  0.24005337113E+04  0.23375325851E+04 0.  0.
        1    1    3    3  502    0 -0.88127831589E+03  0.42258396851E+03  0.38502271108E+03  0.10504623594E+04  0.50400001928E-02 0. -1.
       -1    1    3    3    0  502  0.88127831589E+03 -0.42258396851E+03 -0.93137746088E+03  0.13500713519E+04  0.50400001928E-02 0.  1.
</event>
<event>
 5   0  0.7079223E-06  0.2165395E+04  0.7818609E-02  0.8532971E-01
        2   -1    0    0  501    0  0.00000000000E+00  0.00000000000E+00  0.17600194875E+04  0.17600194875E+04  0.25500000920E-02 0.  1.
       -2   -1    0    0    0  501  0.00000000000E+00  0.00000000000E+00 -0.66603465968E+03  0.66603465969E+03  0.25500000920E-02 0. -1.
    10030    2    1    2    0    0  0.00000000000E+00  0.00000000000E+00  0.10939848278E+04  0.24260541472E+04  0.21653950960E+04 0.  0.
        5    1    3    3  502    0  0.72996608028E+03  0.10756240379E+03 -0.34071764268E+03  0.81273042954E+03  0.46999998093E+01 0. -1.
       -5    1    3    3    0  502 -0.72996608028E+03 -0.10756240379E+03  0.14347024705E+04  0.16133237177E+04  0.46999998093E+01 0.  1.
</event>
<event>
 5   0  0.2612331E-06  0.3118747E+04  0.7818609E-02  0.8210612E-01
        1   -1    0    0  501    0  0.00000000000E+00  0.00000000000E+00  0.21789439858E+04  0.21789439858E+04  0.50400001928E-02 0. -1.
       -1   -1    0    0    0  501  0.00000000000E+00  0.00000000000E+00 -0.11159742526E+04  0.11159742526E+04  0.50400001928E-02 0.  1.
    10030    2    1    2    0    0  0.00000000000E+00  0.00000000000E+00  0.10629697332E+04  0.32949182383E+04  0.31187467906E+04 0.  0.
        4    1    3    3  502    0  0.39338996825E+03 -0.12835752051E+04 -0.30662558954E+03  0.13770772816E+04  0.12699999809E+01 0.  1.
       -4    1    3    3    0  502 -0.39338996825E+03  0.12835752051E+04  0.13695953228E+04  0.19178409568E+04  0.12699999809E+01 0. -1.
</event>
<event>
 5   0  0.2598987E-06  0.3044005E+04  0.7818609E-02  0.8231276E-01
        1   -1    0    0  501    0  0.00000000000E+00  0.00000000000E+00  0.18113577385E+04  0.18113577385E+04  0.50400001928E-02 0. -1.
       -1   -1    0    0    0  501  0.00000000000E+00  0.00000000000E+00 -0.12788701358E+04  0.12788701358E+04  0.50400001928E-02 0.  1.
    10030    2    1    2    0    0  0.00000000000E+00  0.00000000000E+00  0.53248760272E+03  0.30902278743E+04  0.30440048075E+04 0.  0.
        2    1    3    3  502    0 -0.10578496495E+04 -0.36435166524E+03  0.13137520034E+04  0.17256136136E+04  0.25500000920E-02 0. -1.
       -2    1    3    3    0  502  0.10578496495E+04  0.36435166524E+03 -0.78126440066E+03  0.13646142608E+04  0.25500000920E-02 0.  1.
</event>
<event>
 5   0  0.2598987E-06  0.2462519E+04  0.7818609E-02  0.8416461E-01
        1   -1    0    0  501    0  0.00000000000E+00  0.00000000000E+00  0.22334140085E+04  0.22334140085E+04  0.50400001928E-02 0.  1.
       -1   -1    0    0    0  501  0.00000000000E+00  0.00000000000E+00 -0.67878148087E+03  0.67878148089E+03  0.50400001928E-02 0. -1.
    10030    2    1    2    0    0  0.00000000000E+00  0.00000000000E+00  0.15546325277E+04  0.29121954894E+04  0.24625190908E+04 0.  0.
        2    1    3    3  502    0  0.50115218543E+03  0.56967928223E+03  0.19240878515E+04  0.20682848106E+04  0.25500000920E-02 0.  1.
       -2    1    3    3    0  502 -0.50115218543E+03 -0.56967928223E+03 -0.36945532380E+03  0.84391067883E+03  0.25500000920E-02 0. -1.
</event>
<event>
 5   0  0.2517725E-06  0.3085264E+04  0.7818609E-02  0.8219794E-01
       -1   -1    0    0    0  501  0.00000000000E+00  0.00000000000E+00  0.11830719623E+04  0.11830719623E+04  0.50400001928E-02 0.  1.
        1   -1    0    0  501    0  0.00000000000E+00  0.00000000000E+00 -0.20114703315E+04  0.20114703315E+04  0.50400001928E-02 0. -1.
    10030    2    1    2    0    0  0.00000000000E+00  0.00000000000E+00 -0.82839836920E+03  0.31945422937E+04  0.30852644309E+04 0.  0.
        3    1    3    3  502    0  0.18128750991E+03 -0.14963147202E+04 -0.75430130506E+03  0.16854653281E+04  0.10100000352E+00 0.  1.
       -3    1    3    3    0  502 -0.18128750991E+03  0.14963147202E+04 -0.74097064135E+02  0.15090769656E+04  0.10100000352E+00 0. -1.
</event>
<event>
 5   0  0.2598987E-06  0.3311367E+04  0.7818609E-02  0.8160009E-01
        1   -1    0    0  501    0  0.00000000000E+00  0.00000000000E+00  0.86959489872E+03  0.86959489874E+03  0.50400001928E-02 0. -1.
       -1   -1    0    0    0  501  0.00000000000E+00  0.00000000000E+00 -0.31523742122E+04  0.31523742122E+04  0.50400001928E-02 0.  1.
    10030    2    1    2    0    0  0.00000000000E+00  0.00000000000E+00 -0.22827793135E+04  0.40219691110E+04  0.33113674117E+04 0.  0.
        2    1    3    3  502    0 -0.13042406896E+04  0.95680648787E+03 -0.15704117568E+04  0.22544878614E+04  0.25500000920E-02 0.  1.
       -2    1    3    3    0  502  0.13042406896E+04 -0.95680648787E+03 -0.71236755674E+03  0.17674812495E+04  0.25500000920E-02 0. -1.
</event>
<event>
 5   0  0.7414808E-06  0.3109794E+04  0.7818609E-02  0.8213055E-01
       -2   -1    0    0    0  501  0.00000000000E+00  0.00000000000E+00  0.11124094175E+04  0.11124094175E+04  0.25500000920E-02 0. -1.
        2   -1    0    0  501    0  0.00000000000E+00  0.00000000000E+00 -0.21733952428E+04  0.21733952428E+04  0.25500000920E-02 0.  1.
    10030    2    1    2    0    0  0.00000000000E+00  0.00000000000E+00 -0.10609858253E+04  0.32858046604E+04  0.31097944216E+04 0.  0.
        2    1    3    3  502    0 -0.16204058511E+03 -0.45062667827E+03  0.10325532510E+04  0.11381949616E+04  0.25500000920E-02 0. -1.
       -2    1    3    3    0  502  0.16204058511E+03  0.45062667827E+03 -0.20935390763E+04  0.21476096988E+04  0.25500000920E-02 0.  1.
</event>
<event>
 5   0  0.7414808E-06  0.3017749E+04  0.7818609E-02  0.8238681E-01
       -2   -1    0    0    0  501  0.00000000000E+00  0.00000000000E+00  0.14139038827E+04  0.14139038827E+04  0.25500000920E-02 0.  1.
        2   -1    0    0  501    0  0.00000000000E+00  0.00000000000E+00 -0.16102240709E+04  0.16102240709E+04  0.25500000920E-02 0. -1.
    10030    2    1    2    0    0  0.00000000000E+00  0.00000000000E+00 -0.19632018825E+03  0.30241279536E+04  0.30177488735E+04 0.  0.
        2    1    3    3  502    0 -0.38161765494E+03  0.48430740044E+03 -0.14782118194E+04  0.16016541062E+04  0.25500000920E-02 0. -1.
       -2    1    3    3    0  502  0.38161765494E+03 -0.48430740044E+03  0.12818916312E+04  0.14224738475E+04  0.25500000920E-02 0.  1.
</event>
<event>
 5   0  0.7094341E-06  0.2976093E+04  0.7818609E-02  0.8250591E-01
        2   -1    0    0  501    0  0.00000000000E+00  0.00000000000E+00  0.11807137175E+04  0.11807137175E+04  0.25500000920E-02 0.  1.
       -2   -1    0    0    0  501  0.00000000000E+00  0.00000000000E+00 -0.18753761790E+04  0.18753761790E+04  0.25500000920E-02 0. -1.
    10030    2    1    2    0    0  0.00000000000E+00  0.00000000000E+00 -0.69466246150E+03  0.30560898965E+04  0.29760929958E+04 0.  0.
        3    1    3    3  502    0 -0.78363267248E+03 -0.66381114287E+03  0.75844098367E+03  0.12766981376E+04  0.10100000352E+00 0.  1.
       -3    1    3    3    0  502  0.78363267248E+03  0.66381114287E+03 -0.14531034452E+04  0.17793917588E+04  0.10100000352E+00 0. -1.
</event>
<event>
 5   0  0.2624011E-06  0.3089028E+04  0.7818609E-02  0.8218755E-01
        1   -1    0    0  501    0  0.00000000000E+00  0.00000000000E+00  0.24327350095E+04  0.24327350095E+04  0.50400001928E-02 0.  1.
       -1   -1    0    0    0  501  0.00000000000E+00  0.00000000000E+00 -0.98059339429E+03  0.98059339430E+03  0.50400001928E-02 0. -1.
    10030    2    1    2    0    0  0.00000000000E+00  0.00000000000E+00  0.14521416152E+04  0.34133284038E+04  0.30890282487E+04 0.  0.
        1    1    3    3  502    0 -0.36799559365E+03  0.15910607810E+03  0.23742352808E+04  0.24078473103E+04  0.50400001928E-02 0.  1.
       -1    1    3    3    0  502  0.36799559365E+03 -0.15910607810E+03 -0.92209366565E+03  0.10054810935E+04  0.50400001928E-02 0. -1.
</event>
<event>
 5   0  0.2598987E-06  0.3148460E+04  0.7818609E-02  0.8202563E-01
        1   -1    0    0  501    0  0.00000000000E+00  0.00000000000E+00  0.26638923713E+04  0.26638923713E+04  0.50400001928E-02 0.  1.
       -1   -1    0    0    0  501  0.00000000000E+00  0.00000000000E+00 -0.93029295935E+03  0.93029295936E+03  0.50400001928E-02 0. -1.
    10030    2    1    2    0    0  0.00000000000E+00  0.00000000000E+00  0.17335994120E+04  0.35941853307E+04  0.31484601427E+04 0.  0.
        2    1    3    3  502    0  0.62564314005E+03 -0.11907846419E+04  0.18003792912E+04  0.22473902630E+04  0.25500000920E-02 0.  1.
       -2    1    3    3    0  502 -0.62564314005E+03  0.11907846419E+04 -0.66779879262E+02  0.13467950677E+04  0.25500000920E-02 0. -1.
</event>
<event>
 5   0  0.2598987E-06  0.2761492E+04  0.7818609E-02  0.8315324E-01
        1   -1    0    0  501    0  0.00000000000E+00  0.00000000000E+00  0.14844646503E+04  0.14844646503E+04  0.50400001928E-02 0. -1.
       -1   -1    0    0    0  501  0.00000000000E+00  0.00000000000E+00 -0.12842737782E+04  0.12842737782E+04  0.50400001928E-02 0.  1.
    10030    2    1    2    0    0  0.00000000000E+00  0.00000000000E+00  0.20019087213E+03  0.27687384285E+04  0.27614916441E+04 0.  0.
        2    1    3    3  502    0  0.13586070225E+04  0.23998230302E+03  0.15550780045E+03  0.13883757500E+04  0.25500000920E-02 0. -1.
       -2    1    3    3    0  502 -0.13586070225E+04 -0.23998230302E+03  0.44683071684E+02  0.13803626785E+04  0.25500000920E-02 0.  1.
</event>
<event>
 5   0  0.7094341E-06  0.3136987E+04  0.7818609E-02  0.8205660E-01
        2   -1    0    0  501    0  0.00000000000E+00  0.00000000000E+00  0.19508464144E+04  0.19508464144E+04  0.25500000920E-02 0. -1.
       -2   -1    0    0    0  501  0.00000000000E+00  0.00000000000E+00 -0.12610793802E+04  0.12610793802E+04  0.25500000920E-02 0.  1.
    10030    2    1    2    0    0  0.00000000000E+00  0.00000000000E+00  0.68976703422E+03  0.32119257946E+04  0.31369872088E+04 0.  0.
        3    1    3    3  502    0  0.83597581713E+03  0.10379364400E+04 -0.50191921926E+03  0.14241104357E+04  0.10100000352E+00 0.  1.
       -3    1    3    3    0  502 -0.83597581713E+03 -0.10379364400E+04  0.11916862535E+04  0.17878153588E+04  0.10100000352E+00 0. -1.
</event>
<event>
 5   0  0.7414808E-06  0.3096907E+04  0.7818609E-02  0.8216587E-01
        2   -1    0    0  501    0  0.00000000000E+00  0.00000000000E+00  0.19248107615E+04  0.19248107615E+04  0.25500000920E-02 0.  1.
       -2   -1    0    0    0  501  0.00000000000E+00  0.00000000000E+00 -0.12456854767E+04  0.12456854767E+04  0.25500000920E-02 0. -1.
    10030    2    1    2    0    0  0.00000000000E+00  0.00000000000E+00  0.67912528485E+03  0.31704962382E+04  0.30969073677E+04 0.  0.
        2    1    3    3  502    0 -0.23246675032E+02  0.87560569851E+03 -0.96768291023E+03  0.13052340640E+04  0.25500000920E-02 0. -1.
       -2    1    3    3    0  502  0.23246675032E+02 -0.87560569851E+03  0.16468081951E+04  0.18652621742E+04  0.25500000920E-02 0.  1.
</event>
<event>
 5   0  0.7414808E-06  0.3040915E+04  0.7818609E-02  0.8232143E-01
       -2   -1    0    0    0  501  0.00000000000E+00  0.00000000000E+00  0.12985417053E+04  0.12985417053E+04  0.25500000920E-02 0. -1.
        2   -1    0    0  501    0  0.00000000000E+00  0.00000000000E+00 -0.17802977063E+04  0.17802977063E+04  0.25500000920E-02 0.  1.
    10030    2    1    2    0    0  0.00000000000E+00  0.00000000000E+00 -0.48175600095E+03  0.30788394116E+04  0.30409148751E+04 0.  0.
        2    1    3    3  502    0  0.70873478124E+03 -0.12983061562E+04 -0.59724342580E+03  0.15951813611E+04  0.25500000920E-02 0. -1.
       -2    1    3    3    0  502 -0.70873478124E+03  0.12983061562E+04  0.11548742484E+03  0.14836580504E+04  0.25500000920E-02 0.  1.
</event>
<event>
 5   0  0.2612331E-06  0.3107567E+04  0.7818609E-02  0.8213664E-01
        1   -1    0    0  501    0  0.00000000000E+00  0.00000000000E+00  0.24090183625E+04  0.24090183625E+04  0.50400001928E-02 0. -1.
       -1   -1    0    0    0  501  0.00000000000E+00  0.00000000000E+00 -0.10021686695E+04  0.10021686695E+04  0.50400001928E-02 0.  1.
    10030    2    1    2    0    0  0.00000000000E+00  0.00000000000E+00  0.14068496929E+04  0.34111870320E+04  0.31075667183E+04 0.  0.
        4    1    3    3  502    0  0.14412051051E+04 -0.96471091365E+02  0.13319617809E+04  0.19648161810E+04  0.12699999809E+01 0. -1.
       -4    1    3    3    0  502 -0.14412051051E+04  0.96471091365E+02  0.74887911991E+02  0.14463708510E+04  0.12699999809E+01 0.  1.
</event>
<event>
 5   0  0.2674441E-06  0.3335538E+04  0.7818609E-02  0.8153911E-01
       -1   -1    0    0    0  501  0.00000000000E+00  0.00000000000E+00  0.16958236377E+04  0.16958236377E+04  0.50400001928E-02 0.  1.
        1   -1    0    0  501    0  0.00000000000E+00  0.00000000000E+00 -0.16401781376E+04  0.16401781376E+04  0.50400001928E-02 0. -1.
    10030    2    1    2    0    0  0.00000000000E+00  0.00000000000E+00  0.55645500115E+02  0.33360017752E+04  0.33355376512E+04 0.  0.
        5    1    3    3  502    0  0.13708585614E+04 -0.67918729838E+03 -0.63625923714E+03  0.16569238029E+04  0.46999998093E+01 0. -1.
       -5    1    3    3    0  502 -0.13708585614E+04  0.67918729838E+03  0.69190473726E+03  0.16790779723E+04  0.46999998093E+01 0.  1.
</event>
<event>
 5   0  0.7071012E-06  0.3034622E+04  0.7818609E-02  0.8233913E-01
       -2   -1    0    0    0  501  0.00000000000E+00  0.00000000000E+00  0.16529335500E+04  0.16529335500E+04  0.25500000920E-02 0. -1.
        2   -1    0    0  501    0  0.00000000000E+00  0.00000000000E+00 -0.13928159684E+04  0.13928159684E+04  0.25500000920E-02 0.  1.
    10030    2    1    2    0    0  0.00000000000E+00  0.00000000000E+00  0.26011758156E+03  0.30457495184E+04  0.30346217182E+04 0.  0.
        1    1    3    3  502    0  0.19513841539E+03 -0.14836560180E+04  0.38181331944E+03  0.15443754699E+04  0.50400001928E-02 0.  1.
       -1    1    3    3    0  502 -0.19513841539E+03  0.14836560180E+04 -0.12169573789E+03  0.15013740485E+04  0.50400001928E-02 0. -1.
</event>
<event>
 5   0  0.7094341E-06  0.2915493E+04  0.7818609E-02  0.8268283E-01
        2   -1    0    0  501    0  0.00000000000E+00  0.00000000000E+00  0.29615655087E+04  0.29615655087E+04  0.25500000920E-02 0.  1.
       -2   -1    0    0    0  501  0.00000000000E+00  0.00000000000E+00 -0.71753428371E+03  0.71753428371E+03  0.25500000920E-02 0. -1.
    10030    2    1    2    0    0  0.00000000000E+00  0.00000000000E+00  0.22440312250E+04  0.36790997925E+04  0.29154929504E+04 0.  0.
        3    1    3    3  502    0  0.13588634153E+04  0.39472587021E+03  0.67997382730E+03  0.15699307979E+04  0.10100000352E+00 0. -1.
       -3    1    3    3    0  502 -0.13588634153E+04 -0.39472587021E+03  0.15640573977E+04  0.21091689946E+04  0.10100000352E+00 0.  1.
</event>
<event>
 5   0  0.2598987E-06  0.3055549E+04  0.7818609E-02  0.8228044E-01
       -1   -1    0    0    0  501  0.00000000000E+00  0.00000000000E+00  0.14606668509E+04  0.14606668509E+04  0.50400001928E-02 0. -1.
        1   -1    0    0  501    0  0.00000000000E+00  0.00000000000E+00 -0.15979655152E+04  0.15979655152E+04  0.50400001928E-02 0.  1.
    10030    2    1    2    0    0  0.00000000000E+00  0.00000000000E+00 -0.13729866429E+03  0.30586323661E+04  0.30555492187E+04 0.  0.
        2    1    3    3  502    0 -0.11467317461E+04 -0.49609504015E+03  0.81143702928E+03  0.14898100681E+04  0.25500000920E-02 0. -1.
       -2    1    3    3    0  502  0.11467317461E+04  0.49609504015E+03 -0.94873569357E+03  0.15688222980E+04  0.25500000920E-02 0.  1.
</event>
<event>
 5   0  0.7094341E-06  0.3065241E+04  0.7818609E-02  0.8225342E-01
        2   -1    0    0  501    0  0.00000000000E+00  0.00000000000E+00  0.23915378707E+04  0.23915378707E+04  0.25500000920E-02 0. -1.
       -2   -1    0    0    0  501  0.00000000000E+00  0.00000000000E+00 -0.98218195492E+03  0.98218195492E+03  0.25500000920E-02 0.  1.
    10030    2    1    2    0    0  0.00000000000E+00  0.00000000000E+00  0.14093559157E+04  0.33737198256E+04  0.30652408330E+04 0.  0.
        3    1    3    3  502    0 -0.24476202186E+03 -0.68542630876E+03 -0.77984031895E+03  0.10667092412E+04  0.10100000352E+00 0.  1.
       -3    1    3    3    0  502  0.24476202186E+03  0.68542630876E+03  0.21891962347E+04  0.23070105843E+04  0.10100000352E+00 0. -1.
</event>
<event>
 5   0  0.7414808E-06  0.2817821E+04  0.7818609E-02  0.8297757E-01
       -2   -1    0    0    0  501  0.00000000000E+00  0.00000000000E+00  0.18172891884E+04  0.18172891884E+04  0.25500000920E-02 0.  1.
        2   -1    0    0  501    0  0.00000000000E+00  0.00000000000E+00 -0.10923017680E+04  0.10923017680E+04  0.25500000920E-02 0. -1.
    10030    2    1    2    0    0  0.00000000000E+00  0.00000000000E+00  0.72498742042E+03  0.29095909564E+04  0.28178205716E+04 0.  0.
        2    1    3    3  502    0 -0.10389237370E+04 -0.55886403431E+02 -0.61846878348E+03  0.12103674887E+04  0.25500000920E-02 0. -1.
       -2    1    3    3    0  502  0.10389237370E+04  0.55886403431E+02  0.13434562039E+04  0.16992234677E+04  0.25500000920E-02 0.  1.
</event>
<event>
 5   0  0.7094341E-06  0.3095547E+04  0.7818609E-02  0.8216961E-01
       -2   -1    0    0    0  501  0.00000000000E+00  0.00000000000E+00  0.12477918557E+04  0.12477918557E+04  0.25500000920E-02 0. -1.
        2   -1    0    0  501    0  0.00000000000E+00  0.00000000000E+00 -0.19198736676E+04  0.19198736676E+04  0.25500000920E-02 0.  1.
    10030    2    1    2    0    0  0.00000000000E+00  0.00000000000E+00 -0.67208181183E+03  0.31676655233E+04  0.30955469477E+04 0.  0.
        3    1    3    3  502    0  0.11718804908E+04 -0.61663447872E+03  0.48391402897E+03  0.14098633844E+04  0.10100000352E+00 0.  1.
       -3    1    3    3    0  502 -0.11718804908E+04  0.61663447872E+03 -0.11559958408E+04  0.17578021388E+04  0.10100000352E+00 0. -1.
</event>
<event>
 5   0  0.2517725E-06  0.2751756E+04  0.7818609E-02  0.8318405E-01
       -1   -1    0    0    0  501  0.00000000000E+00  0.00000000000E+00  0.93637177013E+03  0.93637177015E+03  0.50400001928E-02 0.  1.
        1   -1    0    0  501    0  0.00000000000E+00  0.00000000000E+00 -0.20216763292E+04  0.20216763292E+04  0.50400001928E-02 0. -1.
    10030    2    1    2    0    0  0.00000000000E+00  0.00000000000E+00 -0.10853045591E+04  0.29580480994E+04  0.27517562705E+04 0.  0.
        3    1    3    3  502    0 -0.41026911422E+02  0.26832945860E+03 -0.19926061889E+04  0.20110105271E+04  0.10100000352E+00 0. -1.
       -3    1    3    3    0  502  0.41026911422E+02 -0.26832945860E+03  0.90730162977E+03  0.94703757233E+03  0.10100000352E+00 0.  1.
</event>
<event>
 5   0  0.2674441E-06  0.2123866E+04  0.7818609E-02  0.8550802E-01
       -1   -1    0    0    0  501  0.00000000000E+00  0.00000000000E+00  0.64337761543E+03  0.64337761545E+03  0.50400001928E-02 0.  1.
        1   -1    0    0  501    0  0.00000000000E+00  0.00000000000E+00 -0.17527842428E+04  0.17527842428E+04  0.50400001928E-02 0. -1.
    10030    2    1    2    0    0  0.00000000000E+00  0.00000000000E+00 -0.11094066274E+04  0.23961618583E+04  0.21238664238E+04 0.  0.
        5    1    3    3  502    0 -0.61523476309E+03 -0.52464313405E+03 -0.13313787266E+04  0.15576763577E+04  0.46999998093E+01 0. -1.
       -5    1    3    3    0  502  0.61523476309E+03  0.52464313405E+03  0.22197209920E+03  0.83848550055E+03  0.46999998093E+01 0.  1.
</event>
<event>
 5   0  0.7071012E-06  0.3113999E+04  0.7818609E-02  0.8211906E-01
        2   -1    0    0  501    0  0.00000000000E+00  0.00000000000E+00  0.18974357114E+04  0.18974357114E+04  0.25500000920E-02 0.  1.
       -2   -1    0    0    0  501  0.00000000000E+00  0.00000000000E+00 -0.12776441946E+04  0.12776441946E+04  0.25500000920E-02 0. -1.
    10030    2    1    2    0    0  0.00000000000E+00  0.00000000000E+00  0.61979151675E+03  0.31750799060E+04  0.31139991787E+04 0.  0.
        1    1    3    3  502    0  0.75682678326E+02  0.85943133406E+03 -0.10116359113E+04  0.13295703452E+04  0.50400001928E-02 0. -1.
       -1    1    3    3    0  502 -0.75682678326E+02 -0.85943133406E+03  0.16314274281E+04  0.18455095608E+04  0.50400001928E-02 0.  1.
</event>
<event>
 5   0  0.2598987E-06  0.3134679E+04  0.7818609E-02  0.8206285E-01
        1   -1    0    0  501    0  0.00000000000E+00  0.00000000000E+00  0.10653779631E+04  0.10653779632E+04  0.50400001928E-02 0. -1.
       -1   -1    0    0    0  501  0.00000000000E+00  0.00000000000E+00 -0.23058038796E+04  0.23058038796E+04  0.50400001928E-02 0.  1.
    10030    2    1    2    0    0  0.00000000000E+00  0.00000000000E+00 -0.12404259164E+04  0.33711818427E+04  0.31346787017E+04 0.  0.
        2    1    3    3  502    0 -0.61106205501E+03 -0.10187378493E+04  0.47933871942E+03  0.12810110259E+04  0.25500000920E-02 0. -1.
       -2    1    3    3    0  502  0.61106205501E+03  0.10187378493E+04 -0.17197646359E+04  0.20901708168E+04  0.25500000920E-02 0.  1.
</event>
<event>
 5   0  0.7414808E-06  0.3006356E+04  0.7818609E-02  0.8241918E-01
       -2   -1    0    0    0  501  0.00000000000E+00  0.00000000000E+00  0.16988548656E+04  0.16988548656E+04  0.25500000920E-02 0. -1.
        2   -1    0    0  501    0  0.00000000000E+00  0.00000000000E+00 -0.13300394065E+04  0.13300394065E+04  0.25500000920E-02 0.  1.
    10030    2    1    2    0    0  0.00000000000E+00  0.00000000000E+00  0.36881545913E+03  0.30288942720E+04  0.30063558785E+04 0.  0.
        2    1    3    3  502    0 -0.87972008330E+03  0.94637893771E+03 -0.58946756339E+03  0.14202156621E+04  0.25500000920E-02 0.  1.
       -2    1    3    3    0  502  0.87972008330E+03 -0.94637893771E+03  0.95828302251E+03  0.16086786099E+04  0.25500000920E-02 0. -1.
</event>
<event>
 5   0  0.2624011E-06  0.3108109E+04  0.7818609E-02  0.8213516E-01
        1   -1    0    0  501    0  0.00000000000E+00  0.00000000000E+00  0.13924631979E+04  0.13924631979E+04  0.50400001928E-02 0.  1.
       -1   -1    0    0    0  501  0.00000000000E+00  0.00000000000E+00 -0.17343974785E+04  0.17343974785E+04  0.50400001928E-02 0. -1.
    10030    2    1    2    0    0  0.00000000000E+00  0.00000000000E+00 -0.34193428063E+03  0.31268606763E+04  0.31081085304E+04 0.  0.
        1    1    3    3  502    0  0.45763076606E+03  0.14691449551E+04  0.47765511727E+02  0.15395110786E+04  0.50400001928E-02 0.  1.
       -1    1    3    3    0  502 -0.45763076606E+03 -0.14691449551E+04 -0.38969979235E+03  0.15873495977E+04  0.50400001928E-02 0. -1.
</event>
<event>
 5   0  0.7363513E-06  0.3249034E+04  0.7818609E-02  0.8175986E-01
        2   -1    0    0  501    0  0.00000000000E+00  0.00000000000E+00  0.25364999451E+04  0.25364999451E+04  0.25500000920E-02 0.  1.
       -2   -1    0    0    0  501  0.00000000000E+00  0.00000000000E+00 -0.10404318533E+04  0.10404318533E+04  0.25500000920E-02 0. -1.
    10030    2    1    2    0    0  0.00000000000E+00  0.00000000000E+00  0.14960680918E+04  0.35769317984E+04  0.32490339110E+04 0.  0.
        4    1    3    3  502    0  0.13725692386E+04  0.86420807346E+03  0.84804123093E+03  0.18302943619E+04  0.12699999809E+01 0. -1.
       -4    1    3    3    0  502 -0.13725692386E+04 -0.86420807346E+03  0.64802686090E+03  0.17466374364E+04  0.12699999809E+01 0.  1.
</event>
<event>
 5   0  0.2612331E-06  0.3017829E+04  0.7818609E-02  0.8238658E-01
        1   -1    0    0  501    0  0.00000000000E+00  0.00000000000E+00  0.22009933800E+04  0.22009933800E+04  0.50400001928E-02 0. -1.
       -1   -1    0    0    0  501  0.00000000000E+00  0.00000000000E+00 -0.10344527164E+04  0.10344527164E+04  0.50400001928E-02 0.  1.
    10030    2    1    2    0    0  0.00000000000E+00  0.00000000000E+00  0.11665406636E+04  0.32354460964E+04  0.30178294058E+04 0.  0.
        4    1    3    3  502    0 -0.14197618251E+04  0.14929364716E+03  0.11071909570E+04  0.18066227225E+04  0.12699999809E+01 0.  1.
       -4    1    3    3    0  502  0.14197618251E+04 -0.14929364716E+03  0.59349706648E+02  0.14288233739E+04  0.12699999809E+01 0. -1.
</event>
<event>
 5   0  0.7079223E-06  0.3008500E+04  0.7818609E-02  0.8241308E-01
       -2   -1    0    0    0  501  0.00000000000E+00  0.00000000000E+00  0.10287378033E+04  0.10287378033E+04  0.25500000920E-02 0. -1.
        2   -1    0    0  501    0  0.00000000000E+00  0.00000000000E+00 -0.21995575847E+04  0.21995575847E+04  0.25500000920E-02 0.  1.
    10030    2    1    2    0    0  0.00000000000E+00  0.00000000000E+00 -0.11708197814E+04  0.32282953881E+04  0.30084999837E+04 0.  0.
        5    1    3    3  502    0 -0.10553369091E+04  0.68035464320E+03  0.30343436555E+03  0.12917867225E+04  0.46999998093E+01 0. -1.
       -5    1    3    3    0  502  0.10553369091E+04 -0.68035464320E+03 -0.14742541469E+04  0.19365086656E+04  0.46999998093E+01 0.  1.
</event>
<event>
 5   0  0.2612331E-06  0.2833720E+04  0.7818609E-02  0.8292875E-01
        1   -1    0    0  501    0  0.00000000000E+00  0.00000000000E+00  0.16454821472E+04  0.16454821472E+04  0.50400001928E-02 0.  1.
       -1   -1    0    0    0  501  0.00000000000E+00  0.00000000000E+00 -0.12200026398E+04  0.12200026398E+04  0.50400001928E-02 0. -1.
    10030    2    1    2    0    0  0.00000000000E+00  0.00000000000E+00  0.42547950743E+03  0.28654847870E+04  0.28337202144E+04 0.  0.
        4    1    3    3  502    0 -0.57020741980E+03 -0.12757070209E+04  0.44972990933E+03  0.14679317113E+04  0.12699999809E+01 0.  1.
       -4    1    3    3    0  502  0.57020741980E+03  0.12757070209E+04 -0.24250401901E+02  0.13975530758E+04  0.12699999809E+01 0. -1.
</event>
<event>
 5   0  0.2517725E-06  0.3233421E+04  0.7818609E-02  0.8180046E-01
       -1   -1    0    0    0  501  0.00000000000E+00  0.00000000000E+00  0.15611309534E+04  0.15611309534E+04  0.50400001928E-02 0.  1.
        1   -1    0    0  501    0  0.00000000000E+00  0.00000000000E+00 -0.16742684856E+04  0.16742684856E+04  0.50400001928E-02 0. -1.
    10030    2    1    2    0    0  0.00000000000E+00  0.00000000000E+00 -0.11313753217E+03  0.32353994391E+04  0.32334207009E+04 0.  0.
        3    1    3    3  502    0  0.11161148588E+04  0.50552889211E+03 -0.11119561460E+04  0.16546051854E+04  0.10100000352E+00 0. -1.
       -3    1    3    3    0  502 -0.11161148588E+04 -0.50552889211E+03  0.99881861383E+03  0.15807942536E+04  0.10100000352E+00 0.  1.
</event>
<event>
 5   0  0.7071012E-06  0.3102029E+04  0.7818609E-02  0.8215181E-01
        2   -1    0    0  501    0  0.00000000000E+00  0.00000000000E+00  0.17981254139E+04  0.17981254139E+04  0.25500000920E-02 0. -1.
       -2   -1    0    0    0  501  0.00000000000E+00  0.00000000000E+00 -0.13378630189E+04  0.13378630189E+04  0.25500000920E-02 0.  1.
    10030    2    1    2    0    0  0.00000000000E+00  0.00000000000E+00  0.46026239498E+03  0.31359884329E+04  0.31020286876E+04 0.  0.
        1    1    3    3  502    0  0.12405788538E+04  0.39169554990E+02  0.11704077588E+04  0.17059966202E+04  0.50400001928E-02 0. -1.
       -1    1    3    3    0  502 -0.12405788538E+04 -0.39169554990E+02 -0.71014536377E+03  0.14299918126E+04  0.50400001928E-02 0.  1.
</event>
<event>
 5   0  0.2517725E-06  0.2070501E+04  0.7818609E-02  0.8574350E-01
       -1   -1    0    0    0  501  0.00000000000E+00  0.00000000000E+00  0.78447951760E+03  0.78447951762E+03  0.50400001928E-02 0.  1.
        1   -1    0    0  501    0  0.00000000000E+00  0.00000000000E+00 -0.13661846762E+04  0.13661846762E+04  0.50400001928E-02 0. -1.
    10030    2    1    2    0    0  0.00000000000E+00  0.00000000000E+00 -0.58170515861E+03  0.21506641938E+04  0.20705012879E+04 0.  0.
        3    1    3    3  502    0  0.49045927130E+03  0.91042482966E+03 -0.34088615307E+03  0.10888650269E+04  0.10100000352E+00 0. -1.
       -3    1    3    3    0  502 -0.49045927130E+03 -0.91042482966E+03 -0.24081900554E+03  0.10617991669E+04  0.10100000352E+00 0.  1.
</event>
<event>
 5   0  0.7071012E-06  0.2503436E+04  0.7818609E-02  0.8401762E-01
        2   -1    0    0  501    0  0.00000000000E+00  0.00000000000E+00  0.83660658034E+03  0.83660658035E+03  0.25500000920E-02 0. -1.
       -2   -1    0    0    0  501  0.00000000000E+00  0.00000000000E+00 -0.18728016760E+04  0.18728016760E+04  0.25500000920E-02 0.  1.
    10030    2    1    2    0    0  0.00000000000E+00  0.00000000000E+00 -0.10361950956E+04  0.27094082563E+04  0.25034362031E+04 0.  0.
        1    1    3    3  502    0 -0.64723614819E+03  0.13697314320E+03  0.63193026351E+03  0.91488367100E+03  0.50400001928E-02 0. -1.
       -1    1    3    3    0  502  0.64723614819E+03 -0.13697314320E+03 -0.16681253592E+04  0.17945245853E+04  0.50400001928E-02 0.  1.
</event>
<event>
 5   0  0.2517725E-06  0.2960077E+04  0.7818609E-02  0.8255224E-01
        1   -1    0    0  501    0  0.00000000000E+00  0.00000000000E+00  0.14088340874E+04  0.14088340874E+04  0.50400001928E-02 0. -1.
       -1   -1    0    0    0  501  0.00000000000E+00  0.00000000000E+00 -0.15548415488E+04  0.15548415488E+04  0.50400001928E-02 0.  1.
    10030    2    1    2    0    0  0.00000000000E+00  0.00000000000E+00 -0.14600746141E+03  0.29636756363E+04  0.29600768737E+04 0.  0.
        3    1    3    3  502    0 -0.78926974467E+03  0.91296218085E+03  0.78481506388E+03  0.14395768018E+04  0.10100000352E+00 0. -1.
       -3    1    3    3    0  502  0.78926974467E+03 -0.91296218085E+03 -0.93082252530E+03  0.15240988345E+04  0.10100000352E+00 0.  1.
</event>
<event>
 5   0  0.2674441E-06  0.3084337E+04  0.7818609E-02  0.8220050E-01
       -1   -1    0    0    0  501  0.00000000000E+00  0.00000000000E+00  0.13663387360E+04  0.13663387360E+04  0.50400001928E-02 0. -1.
        1   -1    0    0  501    0  0.00000000000E+00  0.00000000000E+00 -0.17406246702E+04  0.17406246702E+04  0.50400001928E-02 0.  1.
    10030    2    1    2    0    0  0.00000000000E+00  0.00000000000E+00 -0.37428593421E+03  0.31069634062E+04  0.30843365003E+04 0.  0.
        5    1    3    3  502    0 -0.51185137354E+03 -0.70782888492E+03  0.10931044009E+04  0.13992544016E+04  0.46999998093E+01 0. -1.
       -5    1    3    3    0  502  0.51185137354E+03  0.70782888492E+03 -0.14673903352E+04  0.17077090047E+04  0.46999998093E+01 0.  1.
</event>
<event>
 5   0  0.7363513E-06  0.3139440E+04  0.7818609E-02  0.8204997E-01
       -2   -1    0    0    0  501  0.00000000000E+00  0.00000000000E+00  0.10171456803E+04  0.10171456803E+04  0.25500000920E-02 0. -1.
        2   -1    0    0  501    0  0.00000000000E+00  0.00000000000E+00 -0.24224852209E+04  0.24224852209E+04  0.25500000920E-02 0.  1.
    10030    2    1    2    0    0  0.00000000000E+00  0.00000000000E+00 -0.14053395406E+04  0.34396309011E+04  0.31394396812E+04 0.  0.
        4    1    3    3  502    0  0.57342271470E+03  0.14610982454E+04 -0.72450182728E+03  0.17287354347E+04  0.12699999809E+01 0. -1.
       -4    1    3    3    0  502 -0.57342271470E+03 -0.14610982454E+04 -0.68083771334E+03  0.17108954665E+04  0.12699999809E+01 0.  1.
</event>
<event>
 5   0  0.7414808E-06  0.3068133E+04  0.7818609E-02  0.8224538E-01
        2   -1    0    0  501    0  0.00000000000E+00  0.00000000000E+00  0.14872639257E+04  0.14872639257E+04  0.25500000920E-02 0.  1.
       -2   -1    0    0    0  501  0.00000000000E+00  0.00000000000E+00 -0.15823416037E+04  0.15823416037E+04  0.25500000920E-02 0. -1.
    10030    2    1    2    0    0  0.00000000000E+00  0.00000000000E+00 -0.95077677991E+02  0.30696055294E+04  0.30681327125E+04 0.  0.
        2    1    3    3  502    0  0.19339936365E+03  0.11165607881E+04 -0.10820798395E+04  0.15668465421E+04  0.25500000920E-02 0. -1.
       -2    1    3    3    0  502 -0.19339936365E+03 -0.11165607881E+04  0.98700216149E+03  0.15027589874E+04  0.25500000920E-02 0.  1.
</event>
<event>
 5   0  0.2612331E-06  0.3190457E+04  0.7818609E-02  0.8191342E-01
        1   -1    0    0  501    0  0.00000000000E+00  0.00000000000E+00  0.16999638519E+04  0.16999638519E+04  0.50400001928E-02 0. -1.
       -1   -1    0    0    0  501  0.00000000000E+00  0.00000000000E+00 -0.14969458357E+04  0.14969458357E+04  0.50400001928E-02 0.  1.
    10030    2    1    2    0    0  0.00000000000E+00  0.00000000000E+00  0.20301801615E+03  0.31969096876E+04  0.31904569008E+04 0.  0.
        4    1    3    3  502    0  0.14175153424E+04 -0.72132836690E+03 -0.21571981038E+02  0.15906386523E+04  0.12699999809E+01 0. -1.
       -4    1    3    3    0  502 -0.14175153424E+04  0.72132836690E+03  0.22458999719E+03  0.16062710353E+04  0.12699999809E+01 0.  1.
</event>
<event>
 5   0  0.7079223E-06  0.3100049E+04  0.7818609E-02  0.8215724E-01
       -2   -1    0    0    0  501  0.00000000000E+00  0.00000000000E+00  0.14042511472E+04  0.14042511472E+04  0.25500000920E-02 0. -1.
        2   -1    0    0  501    0  0.00000000000E+00  0.00000000000E+00 -0.17109308829E+04  0.17109308829E+04  0.25500000920E-02 0.  1.
    10030    2    1    2    0    0  0.00000000000E+00  0.00000000000E+00 -0.30667973563E+03  0.31151820301E+04  0.31000494545E+04 0.  0.
        5    1    3    3  502    0 -0.24348828315E+02 -0.84497678965E+02 -0.17084151276E+04  0.17106832148E+04  0.46999998093E+01 0.  1.
       -5    1    3    3    0  502  0.24348828315E+02  0.84497678965E+02  0.14017353920E+04  0.14044988153E+04  0.46999998093E+01 0. -1.
</event>
<event>
 5   0  0.2624011E-06  0.3104808E+04  0.7818609E-02  0.8214420E-01
        1   -1    0    0  501    0  0.00000000000E+00  0.00000000000E+00  0.24413360728E+04  0.24413360728E+04  0.50400001928E-02 0.  1.
       -1   -1    0    0    0  501  0.00000000000E+00  0.00000000000E+00 -0.98714723822E+03  0.98714723824E+03  0.50400001928E-02 0. -1.
    10030    2    1    2    0    0  0.00000000000E+00  0.00000000000E+00  0.14541888346E+04  0.34284833111E+04  0.31048079888E+04 0.  0.
        1    1    3    3  502    0  0.43705627525E+03  0.46077443522E+03 -0.83713556838E+03  0.10507745847E+04  0.50400001928E-02 0. -1.
       -1    1    3    3    0  502 -0.43705627525E+03 -0.46077443522E+03  0.22913244030E+04  0.23777087264E+04  0.50400001928E-02 0.  1.
</event>
<event>
 5   0  0.7363513E-06  0.3151011E+04  0.7818609E-02  0.8201876E-01
       -2   -1    0    0    0  501  0.00000000000E+00  0.00000000000E+00  0.32336487076E+04  0.32336487076E+04  0.25500000920E-02 0. -1.
        2   -1    0    0  501    0  0.00000000000E+00  0.00000000000E+00 -0.76762150077E+03  0.76762150078E+03  0.25500000920E-02 0.  1.
    10030    2    1    2    0    0  0.00000000000E+00  0.00000000000E+00  0.24660272068E+04  0.40012702084E+04  0.31510114401E+04 0.  0.
        4    1    3    3  502    0  0.57047829521E+03 -0.14496799783E+04  0.15313553591E+04  0.21845064371E+04  0.12699999809E+01 0. -1.
       -4    1    3    3    0  502 -0.57047829521E+03  0.14496799783E+04  0.93467184768E+03  0.18167637713E+04  0.12699999809E+01 0.  1.
</event>
<event>
 5   0  0.2598987E-06  0.3191850E+04  0.7818609E-02  0.8190973E-01
        1   -1    0    0  501    0  0.00000000000E+00  0.00000000000E+00  0.20159116336E+04  0.20159116336E+04  0.50400001928E-02 0.  1.
       -1   -1    0    0    0  501  0.00000000000E+00  0.00000000000E+00 -0.12634366259E+04  0.12634366260E+04  0.50400001928E-02 0. -1.
    10030    2    1    2    0    0  0.00000000000E+00  0.00000000000E+00  0.75247500760E+03  0.32793482595E+04  0.31918499918E+04 0.  0.
        2    1    3    3  502    0  0.12526309058E+04 -0.45087622640E+03  0.12804794823E+04  0.18471603239E+04  0.25500000920E-02 0.  1.
       -2    1    3    3    0  502 -0.12526309058E+04  0.45087622640E+03 -0.52800447465E+03  0.14321879356E+04  0.25500000920E-02 0. -1.
</event>
<event>
 5   0  0.2598987E-06  0.2847076E+04  0.7818609E-02  0.8288800E-01
       -1   -1    0    0    0  501  0.00000000000E+00  0.00000000000E+00  0.99029005721E+03  0.99029005722E+03  0.50400001928E-02 0. -1.
        1   -1    0    0  501    0  0.00000000000E+00  0.00000000000E+00 -0.20463308826E+04  0.20463308826E+04  0.50400001928E-02 0.  1.
    10030    2    1    2    0    0  0.00000000000E+00  0.00000000000E+00 -0.10560408254E+04  0.30366209398E+04  0.28470764843E+04 0.  0.
        2    1    3    3  502    0 -0.56544547427E+03  0.63977366562E+03  0.68685602901E+03  0.10958148257E+04  0.25500000920E-02 0. -1.
       -2    1    3    3    0  502  0.56544547427E+03 -0.63977366562E+03 -0.17428968544E+04  0.19408061141E+04  0.25500000920E-02 0.  1.
</event>
<event>
 5   0  0.7414808E-06  0.3014051E+04  0.7818609E-02  0.8239730E-01
       -2   -1    0    0    0  501  0.00000000000E+00  0.00000000000E+00  0.12172602646E+04  0.12172602646E+04  0.25500000920E-02 0.  1.
        2   -1    0    0  501    0  0.00000000000E+00  0.00000000000E+00 -0.18657684486E+04  0.18657684486E+04  0.25500000920E-02 0. -1.
    10030    2    1    2    0    0  0.00000000000E+00  0.00000000000E+00 -0.64850818401E+03  0.30830287132E+04  0.30140509587E+04 0.  0.
        2    1    3    3  502    0  0.75020129724E+03  0.13048575565E+04 -0.24722758717E+03  0.15253120039E+04  0.25500000920E-02 0.  1.
       -2    1    3    3    0  502 -0.75020129724E+03 -0.13048575565E+04 -0.40128059684E+03  0.15577167094E+04  0.25500000920E-02 0. -1.
</event>
<event>
 5   0  0.2674441E-06  0.3108897E+04  0.7818609E-02  0.8213300E-01
        1   -1    0    0  501    0  0.00000000000E+00  0.00000000000E+00  0.15546242563E+04  0.15546242563E+04  0.50400001928E-02 0.  1.
       -1   -1    0    0    0  501  0.00000000000E+00  0.00000000000E+00 -0.15542731834E+04  0.15542731834E+04  0.50400001928E-02 0. -1.
    10030    2    1    2    0    0  0.00000000000E+00  0.00000000000E+00  0.35107285543E+00  0.31088974397E+04  0.31088974198E+04 0.  0.
        5    1    3    3  502    0 -0.49151923896E+03 -0.12929018868E+04 -0.70912147974E+03  0.15543686223E+04  0.46999998093E+01 0. -1.
       -5    1    3    3    0  502  0.49151923896E+03  0.12929018868E+04  0.70947255259E+03  0.15545288173E+04  0.46999998093E+01 0.  1.
</event>
<event>
 5   0  0.2612331E-06  0.3088930E+04  0.7818609E-02  0.8218783E-01
       -1   -1    0    0    0  501  0.00000000000E+00  0.00000000000E+00  0.16484186855E+04  0.16484186855E+04  0.50400001928E-02 0.  1.
        1   -1    0    0  501    0  0.00000000000E+00  0.00000000000E+00 -0.14470668393E+04  0.14470668394E+04  0.50400001928E-02 0. -1.
    10030    2    1    2    0    0  0.00000000000E+00  0.00000000000E+00  0.20135184616E+03  0.30954855249E+04  0.30889299229E+04 0.  0.
        4    1    3    3  502    0  0.14937042483E+04 -0.13342600020E+03  0.47080450376E+03  0.15718184922E+04  0.12699999809E+01 0.  1.
       -4    1    3    3    0  502 -0.14937042483E+04  0.13342600020E+03 -0.26945265761E+03  0.15236670326E+04  0.12699999809E+01 0. -1.
</event>
<event>
 5   0  0.2674441E-06  0.3138067E+04  0.7818609E-02  0.8205368E-01
       -1   -1    0    0    0  501  0.00000000000E+00  0.00000000000E+00  0.10489066378E+04  0.10489066378E+04  0.50400001928E-02 0. -1.
        1   -1    0    0  501    0  0.00000000000E+00  0.00000000000E+00 -0.23470776812E+04  0.23470776812E+04  0.50400001928E-02 0.  1.
    10030    2    1    2    0    0  0.00000000000E+00  0.00000000000E+00 -0.12981710434E+04  0.33959843190E+04  0.31380665125E+04 0.  0.
        5    1    3    3  502    0  0.92598164126E+03  0.87472072332E+03 -0.16404950044E+04  0.20769747936E+04  0.46999998093E+01 0.  1.
       -5    1    3    3    0  502 -0.92598164126E+03 -0.87472072332E+03  0.34232396102E+03  0.13190095254E+04  0.46999998093E+01 0. -1.
</event>
<event>
 5   0  0.7414808E-06  0.3034431E+04  0.7818609E-02  0.8233967E-01
        2   -1    0    0  501    0  0.00000000000E+00  0.00000000000E+00  0.15918713198E+04  0.15918713199E+04  0.25500000920E-02 0.  1.
       -2   -1    0    0    0  501  0.00000000000E+00  0.00000000000E+00 -0.14460610919E+04  0.14460610919E+04  0.25500000920E-02 0. -1.
    10030    2    1    2    0    0  0.00000000000E+00  0.00000000000E+00  0.14581022795E+03  0.30379324118E+04  0.30344312014E+04 0.  0.
        2    1    3    3  502    0 -0.31293464463E+03 -0.54302478490E+03  0.14562153997E+04  0.15853603058E+04  0.25500000920E-02 0.  1.
       -2    1    3    3    0  502  0.31293464463E+03  0.54302478490E+03 -0.13104051718E+04  0.14525721060E+04  0.25500000920E-02 0. -1.
</event>
<event>
 5   0  0.7414808E-06  0.3053907E+04  0.7818609E-02  0.8228503E-01
        2   -1    0    0  501    0  0.00000000000E+00  0.00000000000E+00  0.21166854151E+04  0.21166854151E+04  0.25500000920E-02 0.  1.
       -2   -1    0    0    0  501  0.00000000000E+00  0.00000000000E+00 -0.11015273769E+04  0.11015273769E+04  0.25500000920E-02 0. -1.
    10030    2    1    2    0    0  0.00000000000E+00  0.00000000000E+00  0.10151580382E+04  0.32182127921E+04  0.30539069620E+04 0.  0.
        2    1    3    3  502    0  0.60270294477E+02 -0.15251165801E+04  0.46076077503E+03  0.15943379765E+04  0.25500000920E-02 0. -1.
       -2    1    3    3    0  502 -0.60270294477E+02  0.15251165801E+04  0.55439726319E+03  0.16238748156E+04  0.25500000920E-02 0.  1.
</event>
<event>
 5   0  0.2624011E-06  0.3062233E+04  0.7818609E-02  0.8226180E-01
        1   -1    0    0  501    0  0.00000000000E+00  0.00000000000E+00  0.12084267257E+04  0.12084267257E+04  0.50400001928E-02 0.  1.
       -1   -1    0    0    0  501  0.00000000000E+00  0.00000000000E+00 -0.19399745368E+04  0.19399745368E+04  0.50400001928E-02 0. -1.
    10030    2    1    2    0    0  0.00000000000E+00  0.00000000000E+00 -0.73154781110E+03  0.31484012625E+04  0.30622325695E+04 0.  0.
        1    1    3    3  502    0  0.14275223458E+02  0.27340257473E+03  0.11830570446E+04  0.12143215063E+04  0.50400001928E-02 0.  1.
       -1    1    3    3    0  502 -0.14275223458E+02 -0.27340257473E+03 -0.19146048557E+04  0.19340797562E+04  0.50400001928E-02 0. -1.
</event>
<event>
 5   0  0.7094341E-06  0.2505388E+04  0.7818609E-02  0.8401069E-01
        2   -1    0    0  501    0  0.00000000000E+00  0.00000000000E+00  0.20586005816E+04  0.20586005816E+04  0.25500000920E-02 0. -1.
       -2   -1    0    0    0  501  0.00000000000E+00  0.00000000000E+00 -0.76228594216E+03  0.76228594216E+03  0.25500000920E-02 0.  1.
    10030    2    1    2    0    0  0.00000000000E+00  0.00000000000E+00  0.12963146394E+04  0.28208865237E+04  0.25053880209E+04 0.  0.
        3    1    3    3  502    0 -0.77652001335E+03  0.97906531088E+03  0.54942133288E+03  0.13650699709E+04  0.10100000352E+00 0. -1.
       -3    1    3    3    0  502  0.77652001335E+03 -0.97906531088E+03  0.74689330653E+03  0.14558165529E+04  0.10100000352E+00 0.  1.
</event>
<event>
 5   0  0.7094341E-06  0.3229003E+04  0.7818609E-02  0.8181199E-01
        2   -1    0    0  501    0  0.00000000000E+00  0.00000000000E+00  0.14673610014E+04  0.14673610014E+04  0.25500000920E-02 0. -1.
       -2   -1    0    0    0  501  0.00000000000E+00  0.00000000000E+00 -0.17763966695E+04  0.17763966695E+04  0.25500000920E-02 0.  1.
    10030    2    1    2    0    0  0.00000000000E+00  0.00000000000E+00 -0.30903566811E+03  0.32437576709E+04  0.32290030634E+04 0.  0.
        3    1    3    3  502    0  0.13902642328E+04  0.79055122750E+03  0.67419956343E+02  0.16007346254E+04  0.10100000352E+00 0.  1.
       -3    1    3    3    0  502 -0.13902642328E+04 -0.79055122750E+03 -0.37645562445E+03  0.16430230454E+04  0.10100000352E+00 0. -1.
</event>
<event>
 5   0  0.7363513E-06  0.3097749E+04  0.7818609E-02  0.8216356E-01
        2   -1    0    0  501    0  0.00000000000E+00  0.00000000000E+00  0.16691255864E+04  0.16691255864E+04  0.25500000920E-02 0. -1.
       -2   -1    0    0    0  501  0.00000000000E+00  0.00000000000E+00 -0.14372871303E+04  0.14372871303E+04  0.25500000920E-02 0.  1.
    10030    2    1    2    0    0  0.00000000000E+00  0.00000000000E+00  0.23183845608E+03  0.31064127166E+04  0.30977493276E+04 0.  0.
        4    1    3    3  502    0 -0.81586593538E+03 -0.52133273054E+02  0.14351423704E+04  0.16516629011E+04  0.12699999809E+01 0. -1.
       -4    1    3    3    0  502  0.81586593538E+03  0.52133273054E+02 -0.12033039143E+04  0.14547498155E+04  0.12699999809E+01 0.  1.
</event>
<event>
 5   0  0.2612331E-06  0.3091025E+04  0.7818609E-02  0.8218205E-01
        1   -1    0    0  501    0  0.00000000000E+00  0.00000000000E+00  0.14572861035E+04  0.14572861035E+04  0.50400001928E-02 0.  1.
       -1   -1    0    0    0  501  0.00000000000E+00  0.00000000000E+00 -0.16390799461E+04  0.16390799461E+04  0.50400001928E-02 0. -1.
    10030    2    1    2    0    0  0.00000000000E+00  0.00000000000E+00 -0.18179384256E+03  0.30963660496E+04  0.30910247026E+04 0.  0.
        4    1    3    3  502    0  0.62992325454E+03  0.71286142223E+03  0.11292522573E+04  0.14765456266E+04  0.12699999809E+01 0.  1.
       -4    1    3    3    0  502 -0.62992325454E+03 -0.71286142223E+03 -0.13110460999E+04  0.16198204230E+04  0.12699999809E+01 0. -1.
</event>
<event>
 5   0  0.2612331E-06  0.2204154E+04  0.7818609E-02  0.8516701E-01
       -1   -1    0    0    0  501  0.00000000000E+00  0.00000000000E+00  0.19925680422E+04  0.19925680422E+04  0.50400001928E-02 0.  1.
        1   -1    0    0  501    0  0.00000000000E+00  0.00000000000E+00 -0.60955186337E+03  0.60955186340E+03  0.50400001928E-02 0. -1.
    10030    2    1    2    0    0  0.00000000000E+00  0.00000000000E+00  0.13830161788E+04  0.26021199056E+04  0.22041538631E+04 0.  0.
        4    1    3    3  502    0  0.66753647708E+03 -0.72846530133E+03  0.12678129124E+04  0.16073636294E+04  0.12699999809E+01 0.  1.
       -4    1    3    3    0  502 -0.66753647708E+03  0.72846530133E+03  0.11520326644E+03  0.99475627617E+03  0.12699999809E+01 0. -1.
</event>
<event>
 5   0  0.7079223E-06  0.3100238E+04  0.7818609E-02  0.8215673E-01
        2   -1    0    0  501    0  0.00000000000E+00  0.00000000000E+00  0.12693575513E+04  0.12693575513E+04  0.25500000920E-02 0.  1.
       -2   -1    0    0    0  501  0.00000000000E+00  0.00000000000E+00 -0.18929798340E+04  0.18929798340E+04  0.25500000920E-02 0. -1.
    10030    2    1    2    0    0  0.00000000000E+00  0.00000000000E+00 -0.62362228272E+03  0.31623373852E+04  0.31002375694E+04 0.  0.
        5    1    3    3  502    0 -0.30493306009E+03 -0.85369673609E+03 -0.15944013922E+04  0.18340992824E+04  0.46999998093E+01 0. -1.
       -5    1    3    3    0  502  0.30493306009E+03  0.85369673609E+03  0.97077910949E+03  0.13282381028E+04  0.46999998093E+01 0.  1.
</event>
<event>
 5   0  0.2612331E-06  0.3076635E+04  0.7818609E-02  0.8222180E-01
        1   -1    0    0  501    0  0.00000000000E+00  0.00000000000E+00  0.21660679522E+04  0.21660679522E+04  0.50400001928E-02 0. -1.
       -1   -1    0    0    0  501  0.00000000000E+00  0.00000000000E+00 -0.10924958633E+04  0.10924958633E+04  0.50400001928E-02 0.  1.
    10030    2    1    2    0    0  0.00000000000E+00  0.00000000000E+00  0.10735720889E+04  0.32585638155E+04  0.30766347052E+04 0.  0.
        4    1    3    3  502    0 -0.35679875500E+03 -0.41195471605E+03 -0.98682184715E+03  0.11273114080E+04  0.12699999809E+01 0.  1.
       -4    1    3    3    0  502  0.35679875500E+03  0.41195471605E+03  0.20603939361E+04  0.21312524075E+04  0.12699999809E+01 0. -1.
</event>
<event>
 5   0  0.7094341E-06  0.3097415E+04  0.7818609E-02  0.8216448E-01
       -2   -1    0    0    0  501  0.00000000000E+00  0.00000000000E+00  0.16234631393E+04  0.16234631393E+04  0.25500000920E-02 0.  1.
        2   -1    0    0  501    0  0.00000000000E+00  0.00000000000E+00 -0.14773938168E+04  0.14773938168E+04  0.25500000920E-02 0. -1.
    10030    2    1    2    0    0  0.00000000000E+00  0.00000000000E+00  0.14606932246E+03  0.31008569562E+04  0.30974146664E+04 0.  0.
        3    1    3    3  502    0 -0.59238760876E+02 -0.12811204285E+04 -0.79609813331E+03  0.15094870092E+04  0.10100000352E+00 0. -1.
       -3    1    3    3    0  502  0.59238760876E+02  0.12811204285E+04  0.94216745577E+03  0.15913699469E+04  0.10100000352E+00 0.  1.
</event>
<event>
 5   0  0.7094341E-06  0.3278148E+04  0.7818609E-02  0.8168478E-01
       -2   -1    0    0    0  501  0.00000000000E+00  0.00000000000E+00  0.15866221617E+04  0.15866221617E+04  0.25500000920E-02 0.  1.
        2   -1    0    0  501    0  0.00000000000E+00  0.00000000000E+00 -0.16932602960E+04  0.16932602960E+04  0.25500000920E-02 0. -1.
    10030    2    1    2    0    0  0.00000000000E+00  0.00000000000E+00 -0.10663813426E+03  0.32798824577E+04  0.32781484476E+04 0.  0.
        3    1    3    3  502    0 -0.12606707589E+04 -0.20001539679E+03  0.97545990832E+03  0.16064927526E+04  0.10100000352E+00 0.  1.
       -3    1    3    3    0  502  0.12606707589E+04  0.20001539679E+03 -0.10820980426E+04  0.16733897051E+04  0.10100000352E+00 0. -1.
</event>
<event>
 5   0  0.2612331E-06  0.3156177E+04  0.7818609E-02  0.8200488E-01
        1   -1    0    0  501    0  0.00000000000E+00  0.00000000000E+00  0.17551191921E+04  0.17551191921E+04  0.50400001928E-02 0.  1.
       -1   -1    0    0    0  501  0.00000000000E+00  0.00000000000E+00 -0.14189139962E+04  0.14189139962E+04  0.50400001928E-02 0. -1.
    10030    2    1    2    0    0  0.00000000000E+00  0.00000000000E+00  0.33620519587E+03  0.31740331883E+04  0.31561769194E+04 0.  0.
        4    1    3    3  502    0  0.80619004534E+03 -0.12878501397E+04 -0.26076195591E+03  0.15415896932E+04  0.12699999809E+01 0. -1.
       -4    1    3    3    0  502 -0.80619004534E+03  0.12878501397E+04  0.59696715178E+03  0.16324434951E+04  0.12699999809E+01 0.  1.
</event>
<event>
 5   0  0.2517725E-06  0.3100273E+04  0.7818609E-02  0.8215663E-01
       -1   -1    0    0    0  501  0.00000000000E+00  0.00000000000E+00  0.98384157205E+03  0.98384157206E+03  0.50400001928E-02 0. -1.
        1   -1    0    0  501    0  0.00000000000E+00  0.00000000000E+00 -0.24423886640E+04  0.24423886640E+04  0.50400001928E-02 0.  1.
    10030    2    1    2    0    0  0.00000000000E+00  0.00000000000E+00 -0.14585470919E+04  0.34262302361E+04  0.31002732156E+04 0.  0.
        3    1    3    3  502    0  0.12227151419E+02 -0.14250126822E+04 -0.14034194589E+04  0.20000992064E+04  0.10100000352E+00 0.  1.
       -3    1    3    3    0  502 -0.12227151419E+02  0.14250126822E+04 -0.55127633072E+02  0.14261310297E+04  0.10100000352E+00 0. -1.
</event>
<event>
 5   0  0.2612331E-06  0.3047681E+04  0.7818609E-02  0.8230245E-01
        1   -1    0    0  501    0  0.00000000000E+00  0.00000000000E+00  0.22935408751E+04  0.22935408751E+04  0.50400001928E-02 0. -1.
       -1   -1    0    0    0  501  0.00000000000E+00  0.00000000000E+00 -0.10124474132E+04  0.10124474132E+04  0.50400001928E-02 0.  1.
    10030    2    1    2    0    0  0.00000000000E+00  0.00000000000E+00  0.12810934619E+04  0.33059882884E+04  0.30476807747E+04 0.  0.
        4    1    3    3  502    0 -0.62701360058E+03  0.15168302518E+03  0.21381120618E+04  0.22333111286E+04  0.12699999809E+01 0. -1.
       -4    1    3    3    0  502  0.62701360058E+03 -0.15168302518E+03 -0.85701859994E+03  0.10726771597E+04  0.12699999809E+01 0.  1.
</event>
<event>
 5   0  0.7079223E-06  0.2982278E+04  0.7818609E-02  0.8248810E-01
        2   -1    0    0  501    0  0.00000000000E+00  0.00000000000E+00  0.18791094588E+04  0.18791094589E+04  0.25500000920E-02 0. -1.
       -2   -1    0    0    0  501  0.00000000000E+00  0.00000000000E+00 -0.11832712170E+04  0.11832712170E+04  0.25500000920E-02 0.  1.
    10030    2    1    2    0    0  0.00000000000E+00  0.00000000000E+00  0.69583824188E+03  0.30623806758E+04  0.29822784150E+04 0.  0.
        5    1    3    3  502    0 -0.30633054674E+03 -0.12209328662E+04  0.11687380118E+04  0.17176979065E+04  0.46999998093E+01 0. -1.
       -5    1    3    3    0  502  0.30633054674E+03  0.12209328662E+04 -0.47289976995E+03  0.13446827693E+04  0.46999998093E+01 0.  1.
</event>
<event>
 5   0  0.2612331E-06  0.3131029E+04  0.7818609E-02  0.8207273E-01
        1   -1    0    0  501    0  0.00000000000E+00  0.00000000000E+00  0.18398307732E+04  0.18398307732E+04  0.50400001928E-02 0. -1.
       -1   -1    0    0    0  501  0.00000000000E+00  0.00000000000E+00 -0.13320987604E+04  0.13320987604E+04  0.50400001928E-02 0.  1.
    10030    2    1    2    0    0  0.00000000000E+00  0.00000000000E+00  0.50773201284E+03  0.31719295336E+04  0.31310294105E+04 0.  0.
        4    1    3    3  502    0  0.73550690444E+03 -0.11258498662E+04  0.10657879018E+04  0.17159294252E+04  0.12699999809E+01 0. -1.
       -4    1    3    3    0  502 -0.73550690444E+03  0.11258498662E+04 -0.55805588900E+03  0.14560001084E+04  0.12699999809E+01 0.  1.
</event>
<event>
 5   0  0.2393250E-06  0.3108989E+04  0.7818609E-02  0.8213275E-01
       -3   -1    0    0    0  501  0.00000000000E+00  0.00000000000E+00  0.13304074930E+04  0.13304074968E+04  0.10100000352E+00 0. -1.
        3   -1    0    0  501    0  0.00000000000E+00  0.00000000000E+00 -0.18163261403E+04  0.18163261431E+04  0.10100000352E+00 0.  1.
    10030    2    1    2    0    0  0.00000000000E+00  0.00000000000E+00 -0.48591864733E+03  0.31467336400E+04  0.31089894932E+04 0.  0.
        3    1    3    3  502    0 -0.48908322278E+03  0.14548916880E+04 -0.49199867600E+03  0.16118234798E+04  0.10100000352E+00 0.  1.
       -3    1    3    3    0  502  0.48908322278E+03 -0.14548916880E+04  0.60800286687E+01  0.15349101601E+04  0.10100000352E+00 0. -1.
</event>
<event>
 5   0  0.2598987E-06  0.3130975E+04  0.7818609E-02  0.8207288E-01
        1   -1    0    0  501    0  0.00000000000E+00  0.00000000000E+00  0.13497414434E+04  0.13497414434E+04  0.50400001928E-02 0.  1.
       -1   -1    0    0    0  501  0.00000000000E+00  0.00000000000E+00 -0.18157190258E+04  0.18157190258E+04  0.50400001928E-02 0. -1.
    10030    2    1    2    0    0  0.00000000000E+00  0.00000000000E+00 -0.46597758242E+03  0.31654604692E+04  0.31309750677E+04 0.  0.
        2    1    3    3  502    0  0.45351323966E+03  0.86946424656E+03 -0.14667198905E+04  0.17643439494E+04  0.25500000920E-02 0. -1.
       -2    1    3    3    0  502 -0.45351323966E+03 -0.86946424656E+03  0.10007423081E+04  0.14011165197E+04  0.25500000920E-02 0.  1.
</event>
<event>
 5   0  0.2674441E-06  0.3153887E+04  0.7818609E-02  0.8201103E-01
        1   -1    0    0  501    0  0.00000000000E+00  0.00000000000E+00  0.21149853732E+04  0.21149853732E+04  0.50400001928E-02 0. -1.
       -1   -1    0    0    0  501  0.00000000000E+00  0.00000000000E+00 -0.11757770958E+04  0.11757770958E+04  0.50400001928E-02 0.  1.
    10030    2    1    2    0    0  0.00000000000E+00  0.00000000000E+00  0.93920827745E+03  0.32907624690E+04  0.31538873535E+04 0.  0.
        5    1    3    3  502    0 -0.11862166292E+04 -0.40963163060E+03  0.14659387691E+04  0.19297426069E+04  0.46999998093E+01 0. -1.
       -5    1    3    3    0  502  0.11862166292E+04  0.40963163060E+03 -0.52673049160E+03  0.13610198621E+04  0.46999998093E+01 0.  1.
</event>
<event>
 5   0  0.7414808E-06  0.2982038E+04  0.7818609E-02  0.8248879E-01
        2   -1    0    0  501    0  0.00000000000E+00  0.00000000000E+00  0.17636958295E+04  0.17636958295E+04  0.25500000920E-02 0. -1.
       -2   -1    0    0    0  501  0.00000000000E+00  0.00000000000E+00 -0.12604997257E+04  0.12604997257E+04  0.25500000920E-02 0.  1.
    10030    2    1    2    0    0  0.00000000000E+00  0.00000000000E+00  0.50319610388E+03  0.30241955552E+04  0.29820383024E+04 0.  0.
        2    1    3    3  502    0 -0.26530872571E+03 -0.16911302514E+03 -0.12264524119E+04  0.12661648605E+04  0.25500000920E-02 0.  1.
       -2    1    3    3    0  502  0.26530872571E+03  0.16911302514E+03  0.17296485158E+04  0.17580306947E+04  0.25500000920E-02 0. -1.
</event>
<event>
 5   0  0.7363513E-06  0.3134158E+04  0.7818609E-02  0.8206426E-01
       -2   -1    0    0    0  501  0.00000000000E+00  0.00000000000E+00  0.20603364383E+04  0.20603364383E+04  0.25500000920E-02 0.  1.
        2   -1    0    0  501    0  0.00000000000E+00  0.00000000000E+00 -0.11919103789E+04  0.11919103790E+04  0.25500000920E-02 0. -1.
    10030    2    1    2    0    0  0.00000000000E+00  0.00000000000E+00  0.86842605937E+03  0.32522468173E+04  0.31341578677E+04 0.  0.
        4    1    3    3  502    0 -0.10185052648E+04 -0.85425403597E+03 -0.42689210454E+03  0.13961881730E+04  0.12699999809E+01 0. -1.
       -4    1    3    3    0  502  0.10185052648E+04  0.85425403597E+03  0.12953181639E+04  0.18560586443E+04  0.12699999809E+01 0.  1.
</event>
<event>
 5   0  0.7094341E-06  0.2971218E+04  0.7818609E-02  0.8251998E-01
       -2   -1    0    0    0  501  0.00000000000E+00  0.00000000000E+00  0.11783931526E+04  0.11783931527E+04  0.25500000920E-02 0.  1.
        2   -1    0    0  501    0  0.00000000000E+00  0.00000000000E+00 -0.18729183808E+04  0.18729183808E+04  0.25500000920E-02 0. -1.
    10030    2    1    2    0    0  0.00000000000E+00  0.00000000000E+00 -0.69452522820E+03  0.30513115335E+04  0.29712180637E+04 0.  0.
        3    1    3    3  502    0 -0.69554700109E+03  0.82301549198E+03  0.70299507798E+03  0.12866010340E+04  0.10100000352E+00 0.  1.
       -3    1    3    3    0  502  0.69554700109E+03 -0.82301549198E+03 -0.13975203062E+04  0.17647104995E+04  0.10100000352E+00 0. -1.
</event>
<event>
 5   0  0.2612331E-06  0.3121386E+04  0.7818609E-02  0.8209893E-01
        1   -1    0    0  501    0  0.00000000000E+00  0.00000000000E+00  0.18983286007E+04  0.18983286007E+04  0.50400001928E-02 0.  1.
       -1   -1    0    0    0  501  0.00000000000E+00  0.00000000000E+00 -0.12831089102E+04  0.12831089102E+04  0.50400001928E-02 0. -1.
    10030    2    1    2    0    0  0.00000000000E+00  0.00000000000E+00  0.61521969053E+03  0.31814375109E+04  0.31213858089E+04 0.  0.
        4    1    3    3  502    0 -0.12614947820E+04 -0.77664627685E+03  0.80819225552E+03  0.16875203285E+04  0.12699999809E+01 0. -1.
       -4    1    3    3    0  502  0.12614947820E+04  0.77664627685E+03 -0.19297256499E+03  0.14939171824E+04  0.12699999809E+01 0.  1.
</event>
<event>
 5   0  0.2517725E-06  0.2635407E+04  0.7818609E-02  0.8356273E-01
        1   -1    0    0  501    0  0.00000000000E+00  0.00000000000E+00  0.18061601703E+04  0.18061601703E+04  0.50400001928E-02 0. -1.
       -1   -1    0    0    0  501  0.00000000000E+00  0.00000000000E+00 -0.96134478785E+03  0.96134478786E+03  0.50400001928E-02 0.  1.
    10030    2    1    2    0    0  0.00000000000E+00  0.00000000000E+00  0.84481538244E+03  0.27675049581E+04  0.26354071152E+04 0.  0.
        3    1    3    3  502    0 -0.13153800428E+04  0.64270653608E+02  0.37559426901E+03  0.13694620985E+04  0.10100000352E+00 0.  1.
       -3    1    3    3    0  502  0.13153800428E+04 -0.64270653608E+02  0.46922111343E+03  0.13980428597E+04  0.10100000352E+00 0. -1.
</event>
<event>
 5   0  0.2674441E-06  0.2428796E+04  0.7818609E-02  0.8428801E-01
        1   -1    0    0  501    0  0.00000000000E+00  0.00000000000E+00  0.12534326331E+04  0.12534326331E+04  0.50400001928E-02 0.  1.
       -1   -1    0    0    0  501  0.00000000000E+00  0.00000000000E+00 -0.11765787036E+04  0.11765787036E+04  0.50400001928E-02 0. -1.
    10030    2    1    2    0    0  0.00000000000E+00  0.00000000000E+00  0.76853929473E+02  0.24300113368E+04  0.24287957037E+04 0.  0.
        5    1    3    3  502    0 -0.21143894494E+03 -0.11419910856E+04 -0.31656040859E+03  0.12037784884E+04  0.46999998093E+01 0. -1.
       -5    1    3    3    0  502  0.21143894494E+03  0.11419910856E+04  0.39341433807E+03  0.12262328483E+04  0.46999998093E+01 0.  1.
</event>
<event>
 5   0  0.2674441E-06  0.3171915E+04  0.7818609E-02  0.8196274E-01
       -1   -1    0    0    0  501  0.00000000000E+00  0.00000000000E+00  0.12044225091E+04  0.12044225091E+04  0.50400001928E-02 0.  1.
        1   -1    0    0  501    0  0.00000000000E+00  0.00000000000E+00 -0.20883543368E+04  0.20883543368E+04  0.50400001928E-02 0. -1.
    10030    2    1    2    0    0  0.00000000000E+00  0.00000000000E+00 -0.88393182766E+03  0.32927768459E+04  0.31719148603E+04 0.  0.
        5    1    3    3  502    0 -0.43041556242E+03  0.12984069492E+04  0.39118641363E+03  0.14227322525E+04  0.46999998093E+01 0.  1.
       -5    1    3    3    0  502  0.43041556242E+03 -0.12984069492E+04 -0.12751182413E+04  0.18700445934E+04  0.46999998093E+01 0. -1.
</event>
<event>
 5   0  0.7414808E-06  0.2813572E+04  0.7818609E-02  0.8299067E-01
       -2   -1    0    0    0  501  0.00000000000E+00  0.00000000000E+00  0.11984737544E+04  0.11984737544E+04  0.25500000920E-02 0.  1.
        2   -1    0    0  501    0  0.00000000000E+00  0.00000000000E+00 -0.16513058842E+04  0.16513058842E+04  0.25500000920E-02 0. -1.
    10030    2    1    2    0    0  0.00000000000E+00  0.00000000000E+00 -0.45283212982E+03  0.28497796387E+04  0.28135719382E+04 0.  0.
        2    1    3    3  502    0 -0.58022762893E+03  0.59409397432E+03 -0.13765620942E+04  0.16076488892E+04  0.25500000920E-02 0. -1.
       -2    1    3    3    0  502  0.58022762893E+03 -0.59409397432E+03  0.92372996438E+03  0.12421307495E+04  0.25500000920E-02 0.  1.
</event>
<event>
 5   0  0.7414808E-06  0.3112337E+04  0.7818609E-02  0.8212360E-01
       -2   -1    0    0    0  501  0.00000000000E+00  0.00000000000E+00  0.10414754189E+04  0.10414754189E+04  0.25500000920E-02 0. -1.
        2   -1    0    0  501    0  0.00000000000E+00  0.00000000000E+00 -0.23252205005E+04  0.23252205005E+04  0.25500000920E-02 0.  1.
    10030    2    1    2    0    0  0.00000000000E+00  0.00000000000E+00 -0.12837450816E+04  0.33666959194E+04  0.31123367393E+04 0.  0.
        2    1    3    3  502    0 -0.47842719599E+03 -0.58118980353E+03 -0.21151604030E+04  0.22451230924E+04  0.25500000920E-02 0.  1.
       -2    1    3    3    0  502  0.47842719599E+03  0.58118980353E+03  0.83141532139E+03  0.11215728270E+04  0.25500000920E-02 0. -1.
</event>
<event>
 5   0  0.2517725E-06  0.3094577E+04  0.7818609E-02  0.8217228E-01
       -1   -1    0    0    0  501  0.00000000000E+00  0.00000000000E+00  0.21059420419E+04  0.21059420419E+04  0.50400001928E-02 0.  1.
        1   -1    0    0  501    0  0.00000000000E+00  0.00000000000E+00 -0.11368316225E+04  0.11368316225E+04  0.50400001928E-02 0. -1.
    10030    2    1    2    0    0  0.00000000000E+00  0.00000000000E+00  0.96911041938E+03  0.32427736644E+04  0.30945768747E+04 0.  0.
        3    1    3    3  502    0 -0.89162694465E+03 -0.12506814384E+04  0.28879663597E+03  0.15628839291E+04  0.10100000352E+00 0.  1.
       -3    1    3    3    0  502  0.89162694465E+03  0.12506814384E+04  0.68031378340E+03  0.16798897353E+04  0.10100000352E+00 0. -1.
</event>
<event>
 5   0  0.2624011E-06  0.3108930E+04  0.7818609E-02  0.8213291E-01
        1   -1    0    0  501    0  0.00000000000E+00  0.00000000000E+00  0.21476317858E+04  0.21476317858E+04  0.50400001928E-02 0.  1.
       -1   -1    0    0    0  501  0.00000000000E+00  0.00000000000E+00 -0.11251287219E+04  0.11251287219E+04  0.50400001928E-02 0. -1.
    10030    2    1    2    0    0  0.00000000000E+00  0.00000000000E+00  0.10225030639E+04  0.32727605077E+04  0.31089304954E+04 0.  0.
        1    1    3    3  502    0  0.19670597193E+03 -0.21259487086E+03 -0.10964723707E+04  0.11340817775E+04  0.50400001928E-02 0. -1.
       -1    1    3    3    0  502 -0.19670597193E+03  0.21259487086E+03  0.21189754346E+04  0.21386787302E+04  0.50400001928E-02 0.  1.
</event>
<event>
 5   0  0.7071012E-06  0.3052701E+04  0.7818609E-02  0.8228840E-01
        2   -1    0    0  501    0  0.00000000000E+00  0.00000000000E+00  0.17171265254E+04  0.17171265254E+04  0.25500000920E-02 0.  1.
       -2   -1    0    0    0  501  0.00000000000E+00  0.00000000000E+00 -0.13567699779E+04  0.13567699779E+04  0.25500000920E-02 0. -1.
    10030    2    1    2    0    0  0.00000000000E+00  0.00000000000E+00  0.36035654746E+03  0.30738965033E+04  0.30527009142E+04 0.  0.
        1    1    3    3  502    0 -0.37366604134E+03 -0.78295796437E+00 -0.13100020346E+04  0.13622526396E+04  0.50400001928E-02 0. -1.
       -1    1    3    3    0  502  0.37366604134E+03  0.78295796437E+00  0.16703585820E+04  0.17116438637E+04  0.50400001928E-02 0.  1.
</event>
<event>
 5   0  0.7079223E-06  0.3028789E+04  0.7818609E-02  0.8235558E-01
       -2   -1    0    0    0  501  0.00000000000E+00  0.00000000000E+00  0.13530170239E+04  0.13530170239E+04  0.25500000920E-02 0.  1.
        2   -1    0    0  501    0  0.00000000000E+00  0.00000000000E+00 -0.16950196585E+04  0.16950196585E+04  0.25500000920E-02 0. -1.
    10030    2    1    2    0    0  0.00000000000E+00  0.00000000000E+00 -0.34200263457E+03  0.30480366824E+04  0.30287888364E+04 0.  0.
        5    1    3    3  502    0 -0.67351299577E+03  0.62207309459E+03 -0.13839716364E+04  0.16601187521E+04  0.46999998093E+01 0. -1.
       -5    1    3    3    0  502  0.67351299577E+03 -0.62207309459E+03  0.10419690019E+04  0.13879179303E+04  0.46999998093E+01 0.  1.
</event>
<event>
 5   0  0.2598987E-06  0.3125539E+04  0.7818609E-02  0.8208764E-01
       -1   -1    0    0    0  501  0.00000000000E+00  0.00000000000E+00  0.16219210890E+04  0.16219210890E+04  0.50400001928E-02 0. -1.
        1   -1    0    0  501    0  0.00000000000E+00  0.00000000000E+00 -0.15057753629E+04  0.15057753629E+04  0.50400001928E-02 0.  1.
    10030    2    1    2    0    0  0.00000000000E+00  0.00000000000E+00  0.11614572608E+03  0.31276964519E+04  0.31255391960E+04 0.  0.
        2    1    3    3  502    0 -0.44055175349E+03 -0.14954890135E+04 -0.50055310469E+02  0.15598329306E+04  0.25500000920E-02 0.  1.
       -2    1    3    3    0  502  0.44055175349E+03  0.14954890135E+04  0.16620103655E+03  0.15678635214E+04  0.25500000920E-02 0. -1.
</event>
<event>
 5   0  0.2598987E-06  0.3254455E+04  0.7818609E-02  0.8174582E-01
       -1   -1    0    0    0  501  0.00000000000E+00  0.00000000000E+00  0.12886162950E+04  0.12886162950E+04  0.50400001928E-02 0. -1.
        1   -1    0    0  501    0  0.00000000000E+00  0.00000000000E+00 -0.20548162450E+04  0.20548162450E+04  0.50400001928E-02 0.  1.
    10030    2    1    2    0    0  0.00000000000E+00  0.00000000000E+00 -0.76619995006E+03  0.33434325400E+04  0.32544552211E+04 0.  0.
        2    1    3    3  502    0 -0.89558200138E+03  0.13088585696E+04 -0.88719221230E+01  0.15859560484E+04  0.25500000920E-02 0. -1.
       -2    1    3    3    0  502  0.89558200138E+03 -0.13088585696E+04 -0.75732802794E+03  0.17574764916E+04  0.25500000920E-02 0.  1.
</event>
<event>
 5   0  0.2517725E-06  0.3159049E+04  0.7818609E-02  0.8199717E-01
        1   -1    0    0  501    0  0.00000000000E+00  0.00000000000E+00  0.22003602827E+04  0.22003602827E+04  0.50400001928E-02 0. -1.
       -1   -1    0    0    0  501  0.00000000000E+00  0.00000000000E+00 -0.11338588376E+04  0.11338588376E+04  0.50400001928E-02 0.  1.
    10030    2    1    2    0    0  0.00000000000E+00  0.00000000000E+00  0.10665014452E+04  0.33342191203E+04  0.31590491939E+04 0.  0.
        3    1    3    3  502    0  0.90486456394E+03  0.10884712325E+04  0.12730817468E+04  0.19037559316E+04  0.10100000352E+00 0. -1.
       -3    1    3    3    0  502 -0.90486456394E+03 -0.10884712325E+04 -0.20658030163E+03  0.14304631887E+04  0.10100000352E+00 0.  1.
</event>
<event>
 5   0  0.7094341E-06  0.3049269E+04  0.7818609E-02  0.8229800E-01
        2   -1    0    0  501    0  0.00000000000E+00  0.00000000000E+00  0.15570382989E+04  0.15570382989E+04  0.25500000920E-02 0. -1.
       -2   -1    0    0    0  501  0.00000000000E+00  0.00000000000E+00 -0.14929051677E+04  0.14929051677E+04  0.25500000920E-02 0.  1.
    10030    2    1    2    0    0  0.00000000000E+00  0.00000000000E+00  0.64133131163E+02  0.30499434666E+04  0.30492691077E+04 0.  0.
        3    1    3    3  502    0 -0.66918966592E+03 -0.12528584968E+04 -0.52216904558E+03  0.15133174632E+04  0.10100000352E+00 0. -1.
       -3    1    3    3    0  502  0.66918966592E+03  0.12528584968E+04  0.58630217674E+03  0.15366260035E+04  0.10100000352E+00 0.  1.
</event>
<event>
 5   0  0.2674441E-06  0.3110711E+04  0.7818609E-02  0.8212804E-01
       -1   -1    0    0    0  501  0.00000000000E+00  0.00000000000E+00  0.80873714372E+03  0.80873714373E+03  0.50400001928E-02 0.  1.
        1   -1    0    0  501    0  0.00000000000E+00  0.00000000000E+00 -0.29912454721E+04  0.29912454721E+04  0.50400001928E-02 0. -1.
    10030    2    1    2    0    0  0.00000000000E+00  0.00000000000E+00 -0.21825083284E+04  0.37999826159E+04  0.31107113780E+04 0.  0.
        5    1    3    3  502    0  0.10171108058E+04 -0.11756452190E+04 -0.10307500954E+04  0.18652409821E+04  0.46999998093E+01 0. -1.
       -5    1    3    3    0  502 -0.10171108058E+04  0.11756452190E+04 -0.11517582330E+04  0.19347416338E+04  0.46999998093E+01 0.  1.
</event>
<event>
 5   0  0.2598987E-06  0.3060389E+04  0.7818609E-02  0.8226694E-01
       -1   -1    0    0    0  501  0.00000000000E+00  0.00000000000E+00  0.12228089064E+04  0.12228089064E+04  0.50400001928E-02 0.  1.
        1   -1    0    0  501    0  0.00000000000E+00  0.00000000000E+00 -0.19148497868E+04  0.19148497868E+04  0.50400001928E-02 0. -1.
    10030    2    1    2    0    0  0.00000000000E+00  0.00000000000E+00 -0.69204088036E+03  0.31376586932E+04  0.30603891084E+04 0.  0.
        2    1    3    3  502    0 -0.84013420700E+03 -0.29976456766E+03 -0.16207183165E+04  0.18499762548E+04  0.25500000920E-02 0. -1.
       -2    1    3    3    0  502  0.84013420700E+03  0.29976456766E+03  0.92867743613E+03  0.12876824384E+04  0.25500000920E-02 0.  1.
</event>
<event>
 5   0  0.7094341E-06  0.3112883E+04  0.7818609E-02  0.8212211E-01
        2   -1    0    0  501    0  0.00000000000E+00  0.00000000000E+00  0.10483703141E+04  0.10483703141E+04  0.25500000920E-02 0. -1.
       -2   -1    0    0    0  501  0.00000000000E+00  0.00000000000E+00 -0.23107391140E+04  0.23107391140E+04  0.25500000920E-02 0.  1.
    10030    2    1    2    0    0  0.00000000000E+00  0.00000000000E+00 -0.12623687999E+04  0.33591094281E+04  0.31128830950E+04 0.  0.
        3    1    3    3  502    0  0.11079848929E+04  0.38284997103E+03 -0.17360394516E+04  0.20947643330E+04  0.10100000352E+00 0.  1.
       -3    1    3    3    0  502 -0.11079848929E+04 -0.38284997103E+03  0.47367065168E+03  0.12643450951E+04  0.10100000352E+00 0. -1.
</event>
<event>
 5   0  0.7079223E-06  0.3135997E+04  0.7818609E-02  0.8205928E-01
       -2   -1    0    0    0  501  0.00000000000E+00  0.00000000000E+00  0.14564069993E+04  0.14564069993E+04  0.25500000920E-02 0. -1.
        2   -1    0    0  501    0  0.00000000000E+00  0.00000000000E+00 -0.16881406355E+04  0.16881406355E+04  0.25500000920E-02 0.  1.
    10030    2    1    2    0    0  0.00000000000E+00  0.00000000000E+00 -0.23173363616E+03  0.31445476347E+04  0.31359973452E+04 0.  0.
        5    1    3    3  502    0 -0.13744678253E+04  0.63864341946E+03 -0.51892112175E+03  0.16019764170E+04  0.46999998093E+01 0.  1.
       -5    1    3    3    0  502  0.13744678253E+04 -0.63864341946E+03  0.28718748559E+03  0.15425712178E+04  0.46999998093E+01 0. -1.
</event>
<event>
 5   0  0.7079223E-06  0.3107814E+04  0.7818609E-02  0.8213597E-01
       -2   -1    0    0    0  501  0.00000000000E+00  0.00000000000E+00  0.21285607123E+04  0.21285607123E+04  0.25500000920E-02 0.  1.
        2   -1    0    0  501    0  0.00000000000E+00  0.00000000000E+00 -0.11343939532E+04  0.11343939532E+04  0.25500000920E-02 0. -1.
    10030    2    1    2    0    0  0.00000000000E+00  0.00000000000E+00  0.99416675912E+03  0.32629546655E+04  0.31078136373E+04 0.  0.
        5    1    3    3  502    0  0.13939163437E+04 -0.34104873907E+02 -0.22304089673E+03  0.14120677205E+04  0.46999998093E+01 0.  1.
       -5    1    3    3    0  502 -0.13939163437E+04  0.34104873907E+02  0.12172076559E+04  0.18508869450E+04  0.46999998093E+01 0. -1.
</event>
<event>
 5   0  0.7079223E-06  0.3167390E+04  0.7818609E-02  0.8197483E-01
       -2   -1    0    0    0  501  0.00000000000E+00  0.00000000000E+00  0.13472819119E+04  0.13472819119E+04  0.25500000920E-02 0.  1.
        2   -1    0    0  501    0  0.00000000000E+00  0.00000000000E+00 -0.18615924485E+04  0.18615924485E+04  0.25500000920E-02 0. -1.
    10030    2    1    2    0    0  0.00000000000E+00  0.00000000000E+00 -0.51431053660E+03  0.32088743605E+04  0.31673899876E+04 0.  0.
        5    1    3    3  502    0  0.71842241918E+03  0.38714506876E+03  0.11178442589E+04  0.13840556180E+04  0.46999998093E+01 0.  1.
       -5    1    3    3    0  502 -0.71842241918E+03 -0.38714506876E+03 -0.16321547955E+04  0.18248187425E+04  0.46999998093E+01 0. -1.
</event>
<event>
 5   0  0.7414808E-06  0.3121086E+04  0.7818609E-02  0.8209975E-01
        2   -1    0    0  501    0  0.00000000000E+00  0.00000000000E+00  0.16340468838E+04  0.16340468838E+04  0.25500000920E-02 0.  1.
       -2   -1    0    0    0  501  0.00000000000E+00  0.00000000000E+00 -0.14903455247E+04  0.14903455247E+04  0.25500000920E-02 0. -1.
    10030    2    1    2    0    0  0.00000000000E+00  0.00000000000E+00  0.14370135905E+03  0.31243924085E+04  0.31210860036E+04 0.  0.
        2    1    3    3  502    0 -0.45740104574E+01 -0.15257757748E+04 -0.25603534955E+03  0.15471156184E+04  0.25500000920E-02 0.  1.
       -2    1    3    3    0  502  0.45740104574E+01  0.15257757748E+04  0.39973670860E+03  0.15772767901E+04  0.25500000920E-02 0. -1.
</event>
<event>
 5   0  0.7363513E-06  0.3097806E+04  0.7818609E-02  0.8216340E-01
        2   -1    0    0  501    0  0.00000000000E+00  0.00000000000E+00  0.20156911477E+04  0.20156911477E+04  0.25500000920E-02 0.  1.
       -2   -1    0    0    0  501  0.00000000000E+00  0.00000000000E+00 -0.11902121340E+04  0.11902121340E+04  0.25500000920E-02 0. -1.
    10030    2    1    2    0    0  0.00000000000E+00  0.00000000000E+00  0.82547901369E+03  0.32059032816E+04  0.30978057152E+04 0.  0.
        4    1    3    3  502    0  0.45957797360E+03  0.14790191409E+04  0.39233038259E+03  0.15976965528E+04  0.12699999809E+01 0.  1.
       -4    1    3    3    0  502 -0.45957797360E+03 -0.14790191409E+04  0.43314863110E+03  0.16082067288E+04  0.12699999809E+01 0. -1.
</event>
<event>
 5   0  0.7094341E-06  0.2392777E+04  0.7818609E-02  0.8442213E-01
        2   -1    0    0  501    0  0.00000000000E+00  0.00000000000E+00  0.19713119470E+04  0.19713119470E+04  0.25500000920E-02 0. -1.
       -2   -1    0    0    0  501  0.00000000000E+00  0.00000000000E+00 -0.72608760344E+03  0.72608760344E+03  0.25500000920E-02 0.  1.
    10030    2    1    2    0    0  0.00000000000E+00  0.00000000000E+00  0.12452243436E+04  0.26973995505E+04  0.23927767696E+04 0.  0.
        3    1    3    3  502    0  0.18625365715E+03 -0.48330485424E+03  0.18383676599E+04  0.19099397033E+04  0.10100000352E+00 0. -1.
       -3    1    3    3    0  502 -0.18625365715E+03  0.48330485424E+03 -0.59314331636E+03  0.78745984716E+03  0.10100000352E+00 0.  1.
</event>
<event>
 5   0  0.7079223E-06  0.2800237E+04  0.7818609E-02  0.8303195E-01
        2   -1    0    0  501    0  0.00000000000E+00  0.00000000000E+00  0.20876933748E+04  0.20876933748E+04  0.25500000920E-02 0.  1.
       -2   -1    0    0    0  501  0.00000000000E+00  0.00000000000E+00 -0.93899416908E+03  0.93899416908E+03  0.25500000920E-02 0. -1.
    10030    2    1    2    0    0  0.00000000000E+00  0.00000000000E+00  0.11486992057E+04  0.30266875439E+04  0.28002370655E+04 0.  0.
        5    1    3    3  502    0  0.63340041036E+02 -0.40841118743E+03 -0.87155092841E+03  0.96459046731E+03  0.46999998093E+01 0. -1.
       -5    1    3    3    0  502 -0.63340041036E+02  0.40841118743E+03  0.20202501341E+04  0.20620970765E+04  0.46999998093E+01 0.  1.
</event>
<event>
 5   0  0.7071012E-06  0.3191754E+04  0.7818609E-02  0.8190998E-01
        2   -1    0    0  501    0  0.00000000000E+00  0.00000000000E+00  0.23383801972E+04  0.23383801972E+04  0.25500000920E-02 0.  1.
       -2   -1    0    0    0  501  0.00000000000E+00  0.00000000000E+00 -0.10891397556E+04  0.10891397556E+04  0.25500000920E-02 0. -1.
    10030    2    1    2    0    0  0.00000000000E+00  0.00000000000E+00  0.12492404416E+04  0.34275199528E+04  0.31917536474E+04 0.  0.
        1    1    3    3  502    0  0.35815763795E+01 -0.13742591880E+04 -0.24661760759E+03  0.13962168127E+04  0.50400001928E-02 0. -1.
       -1    1    3    3    0  502 -0.35815763795E+01  0.13742591880E+04  0.14958580492E+04  0.20313031401E+04  0.50400001928E-02 0.  1.
</event>
<event>
 5   0  0.2393250E-06  0.2943300E+04  0.7818609E-02  0.8260110E-01
        3   -1    0    0  501    0  0.00000000000E+00  0.00000000000E+00  0.28549584527E+04  0.28549584545E+04  0.10100000352E+00 0. -1.
       -3   -1    0    0    0  501  0.00000000000E+00  0.00000000000E+00 -0.75859398719E+03  0.75859399392E+03  0.10100000352E+00 0.  1.
    10030    2    1    2    0    0  0.00000000000E+00  0.00000000000E+00  0.20963644655E+04  0.36135524484E+04  0.29433004137E+04 0.  0.
        4    1    3    3  502    0 -0.33522862152E+03 -0.14077734182E+04  0.13765798642E+04  0.19972926578E+04  0.12699999809E+01 0.  1.
       -4    1    3    3    0  502  0.33522862152E+03  0.14077734182E+04  0.71978460135E+03  0.16162597906E+04  0.12699999809E+01 0. -1.
</event>
<event>
 5   0  0.7071012E-06  0.3027077E+04  0.7818609E-02  0.8236041E-01
       -2   -1    0    0    0  501  0.00000000000E+00  0.00000000000E+00  0.12411291345E+04  0.12411291345E+04  0.25500000920E-02 0.  1.
        2   -1    0    0  501    0  0.00000000000E+00  0.00000000000E+00 -0.18457379089E+04  0.18457379089E+04  0.25500000920E-02 0. -1.
    10030    2    1    2    0    0  0.00000000000E+00  0.00000000000E+00 -0.60460877434E+03  0.30868670434E+04  0.30270771998E+04 0.  0.
        1    1    3    3  502    0  0.73626226851E+03 -0.70823793395E+03 -0.14411054182E+04  0.17664846237E+04  0.50400001928E-02 0. -1.
       -1    1    3    3    0  502 -0.73626226851E+03  0.70823793395E+03  0.83649664391E+03  0.13203824198E+04  0.50400001928E-02 0.  1.
</event>
<event>
 5   0  0.2598987E-06  0.3165053E+04  0.7818609E-02  0.8198108E-01
        1   -1    0    0  501    0  0.00000000000E+00  0.00000000000E+00  0.23346971426E+04  0.23346971426E+04  0.50400001928E-02 0.  1.
       -1   -1    0    0    0  501  0.00000000000E+00  0.00000000000E+00 -0.10726833512E+04  0.10726833512E+04  0.50400001928E-02 0. -1.
    10030    2    1    2    0    0  0.00000000000E+00  0.00000000000E+00  0.12620137914E+04  0.34073804939E+04  0.31650533993E+04 0.  0.
        2    1    3    3  502    0  0.19815138111E+03 -0.10643344053E+04 -0.61162847552E+03  0.12434472600E+04  0.25500000920E-02 0. -1.
       -2    1    3    3    0  502 -0.19815138111E+03  0.10643344053E+04  0.18736422670E+04  0.21639332339E+04  0.25500000920E-02 0.  1.
</event>
<event>
 5   0  0.7094341E-06  0.3059495E+04  0.7818609E-02  0.8226943E-01
        2   -1    0    0  501    0  0.00000000000E+00  0.00000000000E+00  0.17250431981E+04  0.17250431981E+04  0.25500000920E-02 0. -1.
       -2   -1    0    0    0  501  0.00000000000E+00  0.00000000000E+00 -0.13565612857E+04  0.13565612857E+04  0.25500000920E-02 0.  1.
    10030    2    1    2    0    0  0.00000000000E+00  0.00000000000E+00  0.36848191233E+03  0.30816044838E+04  0.30594946110E+04 0.  0.
        3    1    3    3  502    0  0.10985873885E+04 -0.78812338204E+03  0.90501989475E+03  0.16269891627E+04  0.10100000352E+00 0. -1.
       -3    1    3    3    0  502 -0.10985873885E+04  0.78812338204E+03 -0.53653798243E+03  0.14546153211E+04  0.10100000352E+00 0.  1.
</event>
<event>
 5   0  0.2612331E-06  0.3111894E+04  0.7818609E-02  0.8212481E-01
        1   -1    0    0  501    0  0.00000000000E+00  0.00000000000E+00  0.24642824145E+04  0.24642824145E+04  0.50400001928E-02 0. -1.
       -1   -1    0    0    0  501  0.00000000000E+00  0.00000000000E+00 -0.98242463457E+03  0.98242463458E+03  0.50400001928E-02 0.  1.
    10030    2    1    2    0    0  0.00000000000E+00  0.00000000000E+00  0.14818577799E+04  0.34467070490E+04  0.31118944394E+04 0.  0.
        4    1    3    3  502    0 -0.20258645605E+03  0.12329368314E+04  0.17679447107E+04  0.21649029114E+04  0.12699999809E+01 0. -1.
       -4    1    3    3    0  502  0.20258645605E+03 -0.12329368314E+04 -0.28608693084E+03  0.12818041377E+04  0.12699999809E+01 0.  1.
</event>
<event>
 5   0  0.2624011E-06  0.2993063E+04  0.7818609E-02  0.8245715E-01
       -1   -1    0    0    0  501  0.00000000000E+00  0.00000000000E+00  0.81822853053E+03  0.81822853055E+03  0.50400001928E-02 0. -1.
        1   -1    0    0  501    0  0.00000000000E+00  0.00000000000E+00 -0.27371403793E+04  0.27371403793E+04  0.50400001928E-02 0.  1.
    10030    2    1    2    0    0  0.00000000000E+00  0.00000000000E+00 -0.19189118487E+04  0.35553689098E+04  0.29930628797E+04 0.  0.
        1    1    3    3  502    0 -0.25514180941E+03 -0.91335140936E+03  0.41575574357E+03  0.10354520647E+04  0.50400001928E-02 0. -1.
       -1    1    3    3    0  502  0.25514180941E+03  0.91335140936E+03 -0.23346675923E+04  0.25199168451E+04  0.50400001928E-02 0.  1.
</event>
<event>
 5   0  0.2674441E-06  0.3055188E+04  0.7818609E-02  0.8228145E-01
       -1   -1    0    0    0  501  0.00000000000E+00  0.00000000000E+00  0.12273417293E+04  0.12273417293E+04  0.50400001928E-02 0. -1.
        1   -1    0    0  501    0  0.00000000000E+00  0.00000000000E+00 -0.19012994188E+04  0.19012994188E+04  0.50400001928E-02 0.  1.
    10030    2    1    2    0    0  0.00000000000E+00  0.00000000000E+00 -0.67395768952E+03  0.31286411482E+04  0.30551884503E+04 0.  0.
        5    1    3    3  502    0  0.53320827009E+03  0.10067873336E+03  0.11253138951E+04  0.12493201027E+04  0.46999998093E+01 0. -1.
       -5    1    3    3    0  502 -0.53320827009E+03 -0.10067873336E+03 -0.17992715846E+04  0.18793210454E+04  0.46999998093E+01 0.  1.
</event>
<event>
 5   0  0.7363513E-06  0.3115789E+04  0.7818609E-02  0.8211418E-01
        2   -1    0    0  501    0  0.00000000000E+00  0.00000000000E+00  0.26361742965E+04  0.26361742965E+04  0.25500000920E-02 0.  1.
       -2   -1    0    0    0  501  0.00000000000E+00  0.00000000000E+00 -0.92066566375E+03  0.92066566375E+03  0.25500000920E-02 0. -1.
    10030    2    1    2    0    0  0.00000000000E+00  0.00000000000E+00  0.17155086328E+04  0.35568399603E+04  0.31157889264E+04 0.  0.
        4    1    3    3  502    0 -0.65710775737E+03 -0.11810704888E+04  0.17422303149E+04  0.22050138747E+04  0.12699999809E+01 0. -1.
       -4    1    3    3    0  502  0.65710775737E+03  0.11810704888E+04 -0.26721682179E+02  0.13518260856E+04  0.12699999809E+01 0.  1.
</event>
<event>
 5   0  0.2598987E-06  0.3110602E+04  0.7818609E-02  0.8212834E-01
       -1   -1    0    0    0  501  0.00000000000E+00  0.00000000000E+00  0.17414209735E+04  0.17414209735E+04  0.50400001928E-02 0.  1.
        1   -1    0    0  501    0  0.00000000000E+00  0.00000000000E+00 -0.13890735496E+04  0.13890735496E+04  0.50400001928E-02 0. -1.
    10030    2    1    2    0    0  0.00000000000E+00  0.00000000000E+00  0.35234742387E+03  0.31304945231E+04  0.31106023938E+04 0.  0.
        2    1    3    3  502    0  0.10582804948E+04 -0.94041238641E+03 -0.47186082637E+03  0.14923088493E+04  0.25500000920E-02 0. -1.
       -2    1    3    3    0  502 -0.10582804948E+04  0.94041238641E+03  0.82420825025E+03  0.16381856738E+04  0.25500000920E-02 0.  1.
</event>
<event>
 5   0  0.7414808E-06  0.3042031E+04  0.7818609E-02  0.8231829E-01
        2   -1    0    0  501    0  0.00000000000E+00  0.00000000000E+00  0.17919696062E+04  0.17919696062E+04  0.25500000920E-02 0. -1.
       -2   -1    0    0    0  501  0.00000000000E+00  0.00000000000E+00 -0.12910310769E+04  0.12910310769E+04  0.25500000920E-02 0.  1.
    10030    2    1    2    0    0  0.00000000000E+00  0.00000000000E+00  0.50093852926E+03  0.30830006831E+04  0.30420311968E+04 0.  0.
        2    1    3    3  502    0 -0.91337889014E+03 -0.63974563041E+03  0.12987854815E+04  0.17118350375E+04  0.25500000920E-02 0. -1.
       -2    1    3    3    0  502  0.91337889014E+03  0.63974563041E+03 -0.79784695226E+03  0.13711656457E+04  0.25500000920E-02 0.  1.
</event>
<event>
 5   0  0.7071012E-06  0.3066388E+04  0.7818609E-02  0.8225023E-01
        2   -1    0    0  501    0  0.00000000000E+00  0.00000000000E+00  0.15633473935E+04  0.15633473935E+04  0.25500000920E-02 0.  1.
       -2   -1    0    0    0  501  0.00000000000E+00  0.00000000000E+00 -0.15036221190E+04  0.15036221190E+04  0.25500000920E-02 0. -1.
    10030    2    1    2    0    0  0.00000000000E+00  0.00000000000E+00  0.59725274503E+02  0.30669695125E+04  0.30663879211E+04 0.  0.
        1    1    3    3  502    0  0.86832595642E+02  0.24481753033E+03 -0.14814528086E+04  0.15040538377E+04  0.50400001928E-02 0. -1.
       -1    1    3    3    0  502 -0.86832595642E+02 -0.24481753033E+03  0.15411780831E+04  0.15629156748E+04  0.50400001928E-02 0.  1.
</event>
<event>
 5   0  0.7079223E-06  0.3056598E+04  0.7818609E-02  0.8227751E-01
        2   -1    0    0  501    0  0.00000000000E+00  0.00000000000E+00  0.17704598783E+04  0.17704598783E+04  0.25500000920E-02 0.  1.
       -2   -1    0    0    0  501  0.00000000000E+00  0.00000000000E+00 -0.13192605570E+04  0.13192605570E+04  0.25500000920E-02 0. -1.
    10030    2    1    2    0    0  0.00000000000E+00  0.00000000000E+00  0.45119932134E+03  0.30897204353E+04  0.30565980339E+04 0.  0.
        5    1    3    3  502    0 -0.14029921244E+04  0.90841793586E+02 -0.38009013214E+03  0.14564098775E+04  0.46999998093E+01 0.  1.
       -5    1    3    3    0  502  0.14029921244E+04 -0.90841793586E+02  0.83128945347E+03  0.16333105578E+04  0.46999998093E+01 0. -1.
</event>
<event>
 5   0  0.2598987E-06  0.3146494E+04  0.7818609E-02  0.8203093E-01
        1   -1    0    0  501    0  0.00000000000E+00  0.00000000000E+00  0.17478925729E+04  0.17478925729E+04  0.50400001928E-02 0.  1.
       -1   -1    0    0    0  501  0.00000000000E+00  0.00000000000E+00 -0.14160515586E+04  0.14160515586E+04  0.50400001928E-02 0. -1.
    10030    2    1    2    0    0  0.00000000000E+00  0.00000000000E+00  0.33184101427E+03  0.31639441315E+04  0.31464939231E+04 0.  0.
        2    1    3    3  502    0  0.63954470321E+03  0.14350962318E+04  0.24753330628E+03  0.15905317852E+04  0.25500000920E-02 0.  1.
       -2    1    3    3    0  502 -0.63954470321E+03 -0.14350962318E+04  0.84307707989E+02  0.15734123463E+04  0.25500000920E-02 0. -1.
</event>
<event>
 5   0  0.2612331E-06  0.2020081E+04  0.7818609E-02  0.8597289E-01
       -1   -1    0    0    0  501  0.00000000000E+00  0.00000000000E+00  0.15044059280E+04  0.15044059280E+04  0.50400001928E-02 0. -1.
        1   -1    0    0  501    0  0.00000000000E+00  0.00000000000E+00 -0.67812907443E+03  0.67812907445E+03  0.50400001928E-02 0.  1.
    10030    2    1    2    0    0  0.00000000000E+00  0.00000000000E+00  0.82627685357E+03  0.21825350025E+04  0.20200805920E+04 0.  0.
        4    1    3    3  502    0 -0.33942295428E+03  0.16392871981E+02  0.14407892275E+04  0.14803215458E+04  0.12699999809E+01 0. -1.
       -4    1    3    3    0  502  0.33942295428E+03 -0.16392871981E+02 -0.61451237388E+03  0.70221345665E+03  0.12699999809E+01 0.  1.
</event>
<event>
 5   0  0.7363513E-06  0.3025743E+04  0.7818609E-02  0.8236418E-01
        2   -1    0    0  501    0  0.00000000000E+00  0.00000000000E+00  0.14422343815E+04  0.14422343815E+04  0.25500000920E-02 0. -1.
       -2   -1    0    0    0  501  0.00000000000E+00  0.00000000000E+00 -0.15869685315E+04  0.15869685315E+04  0.25500000920E-02 0.  1.
    10030    2    1    2    0    0  0.00000000000E+00  0.00000000000E+00 -0.14473415001E+03  0.30292029130E+04  0.30257432663E+04 0.  0.
        4    1    3    3  502    0 -0.69669109950E+03 -0.53554984932E+03  0.11605388264E+04  0.14556936868E+04  0.12699999809E+01 0. -1.
       -4    1    3    3    0  502  0.69669109950E+03  0.53554984932E+03 -0.13052729764E+04  0.15735092262E+04  0.12699999809E+01 0.  1.
</event>
<event>
 5   0  0.7094341E-06  0.2087709E+04  0.7818609E-02  0.8566677E-01
       -2   -1    0    0    0  501  0.00000000000E+00  0.00000000000E+00  0.83454713337E+03  0.83454713337E+03  0.25500000920E-02 0. -1.
        2   -1    0    0  501    0  0.00000000000E+00  0.00000000000E+00 -0.13056566302E+04  0.13056566303E+04  0.25500000920E-02 0.  1.
    10030    2    1    2    0    0  0.00000000000E+00  0.00000000000E+00 -0.47110949688E+03  0.21402037636E+04  0.20877087900E+04 0.  0.
        3    1    3    3  502    0 -0.28041629345E+03 -0.46991035626E+03  0.67571935818E+03  0.86950888539E+03  0.10100000352E+00 0. -1.
       -3    1    3    3    0  502  0.28041629345E+03  0.46991035626E+03 -0.11468288551E+04  0.12706948782E+04  0.10100000352E+00 0.  1.
</event>
<event>
 5   0  0.2624011E-06  0.3010266E+04  0.7818609E-02  0.8240805E-01
       -1   -1    0    0    0  501  0.00000000000E+00  0.00000000000E+00  0.15644664727E+04  0.15644664727E+04  0.50400001928E-02 0.  1.
        1   -1    0    0  501    0  0.00000000000E+00  0.00000000000E+00 -0.14480498708E+04  0.14480498708E+04  0.50400001928E-02 0. -1.
    10030    2    1    2    0    0  0.00000000000E+00  0.00000000000E+00  0.11641660188E+03  0.30125163436E+04  0.30102660837E+04 0.  0.
        1    1    3    3  502    0  0.66677597439E+03 -0.61274741715E+03 -0.11449282680E+04  0.14597637947E+04  0.50400001928E-02 0. -1.
       -1    1    3    3    0  502 -0.66677597439E+03  0.61274741715E+03  0.12613448699E+04  0.15527525489E+04  0.50400001928E-02 0.  1.
</event>
<event>
 5   0  0.2624011E-06  0.2504327E+04  0.7818609E-02  0.8401446E-01
        1   -1    0    0  501    0  0.00000000000E+00  0.00000000000E+00  0.13836396279E+04  0.13836396279E+04  0.50400001928E-02 0.  1.
       -1   -1    0    0    0  501  0.00000000000E+00  0.00000000000E+00 -0.11331802754E+04  0.11331802754E+04  0.50400001928E-02 0. -1.
    10030    2    1    2    0    0  0.00000000000E+00  0.00000000000E+00  0.25045935252E+03  0.25168199033E+04  0.25043267635E+04 0.  0.
        1    1    3    3  502    0 -0.55403523776E+03  0.82575201193E+03  0.89000667352E+03  0.13345161328E+04  0.50400001928E-02 0.  1.
       -1    1    3    3    0  502  0.55403523776E+03 -0.82575201193E+03 -0.63954732101E+03  0.11823037705E+04  0.50400001928E-02 0. -1.
</event>
<event>
 5   0  0.2598987E-06  0.3082191E+04  0.7818609E-02  0.8220642E-01
        1   -1    0    0  501    0  0.00000000000E+00  0.00000000000E+00  0.16720140621E+04  0.16720140621E+04  0.50400001928E-02 0. -1.
       -1   -1    0    0    0  501  0.00000000000E+00  0.00000000000E+00 -0.14204281831E+04  0.14204281831E+04  0.50400001928E-02 0.  1.
    10030    2    1    2    0    0  0.00000000000E+00  0.00000000000E+00  0.25158587906E+03  0.30924422452E+04  0.30821913609E+04 0.  0.
        2    1    3    3  502    0 -0.84825027026E+03  0.11624212580E+04 -0.42760670196E+03  0.15011992518E+04  0.25500000920E-02 0.  1.
       -2    1    3    3    0  502  0.84825027026E+03 -0.11624212580E+04  0.67919258102E+03  0.15912429934E+04  0.25500000920E-02 0. -1.
</event>
<event>
 5   0  0.2598987E-06  0.2036120E+04  0.7818609E-02  0.8589917E-01
        1   -1    0    0  501    0  0.00000000000E+00  0.00000000000E+00  0.13186168257E+04  0.13186168257E+04  0.50400001928E-02 0.  1.
       -1   -1    0    0    0  501  0.00000000000E+00  0.00000000000E+00 -0.78601046134E+03  0.78601046135E+03  0.50400001928E-02 0. -1.
    10030    2    1    2    0    0  0.00000000000E+00  0.00000000000E+00  0.53260636432E+03  0.21046272870E+04  0.20361204478E+04 0.  0.
        2    1    3    3  502    0  0.64852745467E+02 -0.73425002778E+03 -0.45954701596E+03  0.86862675631E+03  0.25500000920E-02 0.  1.
       -2    1    3    3    0  502 -0.64852745467E+02  0.73425002778E+03  0.99215338029E+03  0.12360005307E+04  0.25500000920E-02 0. -1.
</event>
<event>
 5   0  0.7079223E-06  0.3005815E+04  0.7818609E-02  0.8242072E-01
       -2   -1    0    0    0  501  0.00000000000E+00  0.00000000000E+00  0.13868407653E+04  0.13868407653E+04  0.25500000920E-02 0.  1.
        2   -1    0    0  501    0  0.00000000000E+00  0.00000000000E+00 -0.16286879004E+04  0.16286879004E+04  0.25500000920E-02 0. -1.
    10030    2    1    2    0    0  0.00000000000E+00  0.00000000000E+00 -0.24184713512E+03  0.30155286656E+04  0.30058148806E+04 0.  0.
        5    1    3    3  502    0  0.49694183215E+03 -0.12774550590E+04 -0.73924810895E+03  0.15573543170E+04  0.46999998093E+01 0. -1.
       -5    1    3    3    0  502 -0.49694183215E+03  0.12774550590E+04  0.49740097383E+03  0.14581743486E+04  0.46999998093E+01 0.  1.
</event>
<event>
 5   0  0.2674441E-06  0.2758099E+04  0.7818609E-02  0.8316396E-01
        1   -1    0    0  501    0  0.00000000000E+00  0.00000000000E+00  0.18532378405E+04  0.18532378405E+04  0.50400001928E-02 0.  1.
       -1   -1    0    0    0  501  0.00000000000E+00  0.00000000000E+00 -0.10261919711E+04  0.10261919711E+04  0.50400001928E-02 0. -1.
    10030    2    1    2    0    0  0.00000000000E+00  0.00000000000E+00  0.82704586937E+03  0.28794298116E+04  0.27580991951E+04 0.  0.
        5    1    3    3  502    0  0.49642794792E+03 -0.12434215267E+04  0.68503523245E+02  0.13406165087E+04  0.46999998093E+01 0. -1.
       -5    1    3    3    0  502 -0.49642794792E+03  0.12434215267E+04  0.75854234612E+03  0.15388133030E+04  0.46999998093E+01 0.  1.
</event>
<event>
 5   0  0.2517725E-06  0.2148301E+04  0.7818609E-02  0.8540260E-01
       -1   -1    0    0    0  501  0.00000000000E+00  0.00000000000E+00  0.53658423417E+03  0.53658423419E+03  0.50400001928E-02 0.  1.
        1   -1    0    0  501    0  0.00000000000E+00  0.00000000000E+00 -0.21502675863E+04  0.21502675863E+04  0.50400001928E-02 0. -1.
    10030    2    1    2    0    0  0.00000000000E+00  0.00000000000E+00 -0.16136833521E+04  0.26868518205E+04  0.21483013625E+04 0.  0.
        3    1    3    3  502    0  0.95755559329E+02  0.15681919519E+03  0.51678327911E+03  0.54847639411E+03  0.10100000352E+00 0.  1.
       -3    1    3    3    0  502 -0.95755559329E+02 -0.15681919519E+03 -0.21304666312E+04  0.21383754264E+04  0.10100000352E+00 0. -1.
</event>
<event>
 5   0  0.2674441E-06  0.3101505E+04  0.7818609E-02  0.8215325E-01
        1   -1    0    0  501    0  0.00000000000E+00  0.00000000000E+00  0.11947784352E+04  0.11947784352E+04  0.50400001928E-02 0. -1.
       -1   -1    0    0    0  501  0.00000000000E+00  0.00000000000E+00 -0.20127857241E+04  0.20127857241E+04  0.50400001928E-02 0.  1.
    10030    2    1    2    0    0  0.00000000000E+00  0.00000000000E+00 -0.81800728890E+03  0.32075641593E+04  0.31015047818E+04 0.  0.
        5    1    3    3  502    0  0.54462282922E+03 -0.50158362536E+03  0.10001661480E+04  0.12444093269E+04  0.46999998093E+01 0. -1.
       -5    1    3    3    0  502 -0.54462282922E+03  0.50158362536E+03 -0.18181734369E+04  0.19631548324E+04  0.46999998093E+01 0.  1.
</event>
<event>
 5   0  0.2612331E-06  0.2703180E+04  0.7818609E-02  0.8333974E-01
        1   -1    0    0  501    0  0.00000000000E+00  0.00000000000E+00  0.12475019310E+04  0.12475019310E+04  0.50400001928E-02 0.  1.
       -1   -1    0    0    0  501  0.00000000000E+00  0.00000000000E+00 -0.14643630092E+04  0.14643630092E+04  0.50400001928E-02 0. -1.
    10030    2    1    2    0    0  0.00000000000E+00  0.00000000000E+00 -0.21686107819E+03  0.27118649403E+04  0.27031801137E+04 0.  0.
        4    1    3    3  502    0 -0.12971700659E+04  0.35074618932E+03 -0.25422811617E+03  0.13675915389E+04  0.12699999809E+01 0. -1.
       -4    1    3    3    0  502  0.12971700659E+04 -0.35074618932E+03  0.37367037976E+02  0.13442734014E+04  0.12699999809E+01 0.  1.
</event>
<event>
 5   0  0.7414808E-06  0.3051451E+04  0.7818609E-02  0.8229189E-01
       -2   -1    0    0    0  501  0.00000000000E+00  0.00000000000E+00  0.10044059807E+04  0.10044059807E+04  0.25500000920E-02 0.  1.
        2   -1    0    0  501    0  0.00000000000E+00  0.00000000000E+00 -0.23176268569E+04  0.23176268569E+04  0.25500000920E-02 0. -1.
    10030    2    1    2    0    0  0.00000000000E+00  0.00000000000E+00 -0.13132208763E+04  0.33220328376E+04  0.30514509835E+04 0.  0.
        2    1    3    3  502    0  0.57471202773E+03 -0.11664891300E+04 -0.15254012857E+04  0.20044550102E+04  0.25500000920E-02 0. -1.
       -2    1    3    3    0  502 -0.57471202773E+03  0.11664891300E+04  0.21218040946E+03  0.13175778275E+04  0.25500000920E-02 0.  1.
</event>
<event>
 5   0  0.7071012E-06  0.3107371E+04  0.7818609E-02  0.8213718E-01
        2   -1    0    0  501    0  0.00000000000E+00  0.00000000000E+00  0.19478279016E+04  0.19478279016E+04  0.25500000920E-02 0. -1.
       -2   -1    0    0    0  501  0.00000000000E+00  0.00000000000E+00 -0.12392976060E+04  0.12392976060E+04  0.25500000920E-02 0.  1.
    10030    2    1    2    0    0  0.00000000000E+00  0.00000000000E+00  0.70853029564E+03  0.31871255077E+04  0.31073708858E+04 0.  0.
        1    1    3    3  502    0 -0.11252308655E+04 -0.10700865067E+04  0.30088295847E+03  0.15816953522E+04  0.50400001928E-02 0.  1.
       -1    1    3    3    0  502  0.11252308655E+04  0.10700865067E+04  0.40764733717E+03  0.16054301554E+04  0.50400001928E-02 0. -1.
</event>
<event>
 5   0  0.2674441E-06  0.2118084E+04  0.7818609E-02  0.8553319E-01
        1   -1    0    0  501    0  0.00000000000E+00  0.00000000000E+00  0.20950990331E+04  0.20950990331E+04  0.50400001928E-02 0.  1.
       -1   -1    0    0    0  501  0.00000000000E+00  0.00000000000E+00 -0.53533005868E+03  0.53533005870E+03  0.50400001928E-02 0. -1.
    10030    2    1    2    0    0  0.00000000000E+00  0.00000000000E+00  0.15597689744E+04  0.26304290918E+04  0.21180835568E+04 0.  0.
        5    1    3    3  502    0  0.96417801276E+03 -0.38143094463E+03  0.10474496052E+04  0.14738729834E+04  0.46999998093E+01 0.  1.
       -5    1    3    3    0  502 -0.96417801276E+03  0.38143094463E+03  0.51231936927E+03  0.11565561084E+04  0.46999998093E+01 0. -1.
</event>
<event>
 5   0  0.2598987E-06  0.3035453E+04  0.7818609E-02  0.8233679E-01
       -1   -1    0    0    0  501  0.00000000000E+00  0.00000000000E+00  0.17106333616E+04  0.17106333616E+04  0.50400001928E-02 0. -1.
        1   -1    0    0  501    0  0.00000000000E+00  0.00000000000E+00 -0.13465732652E+04  0.13465732652E+04  0.50400001928E-02 0.  1.
    10030    2    1    2    0    0  0.00000000000E+00  0.00000000000E+00  0.36406009634E+03  0.30572066268E+04  0.30354526195E+04 0.  0.
        2    1    3    3  502    0 -0.10983422297E+04  0.10472773304E+04  0.16324994194E+03  0.15263669296E+04  0.25500000920E-02 0.  1.
       -2    1    3    3    0  502  0.10983422297E+04 -0.10472773304E+04  0.20081015439E+03  0.15308396972E+04  0.25500000920E-02 0. -1.
</event>
<event>
 5   0  0.2517725E-06  0.2806333E+04  0.7818609E-02  0.8301305E-01
        1   -1    0    0  501    0  0.00000000000E+00  0.00000000000E+00  0.15808280453E+04  0.15808280453E+04  0.50400001928E-02 0. -1.
       -1   -1    0    0    0  501  0.00000000000E+00  0.00000000000E+00 -0.12454715624E+04  0.12454715624E+04  0.50400001928E-02 0.  1.
    10030    2    1    2    0    0  0.00000000000E+00  0.00000000000E+00  0.33535648291E+03  0.28262996077E+04  0.28063331060E+04 0.  0.
        3    1    3    3  502    0  0.97130345957E+03  0.10059024524E+04  0.50202666687E+02  0.13992106604E+04  0.10100000352E+00 0.  1.
       -3    1    3    3    0  502 -0.97130345957E+03 -0.10059024524E+04  0.28515381622E+03  0.14270889473E+04  0.10100000352E+00 0. -1.
</event>
<event>
 5   0  0.7414808E-06  0.3145136E+04  0.7818609E-02  0.8203459E-01
        2   -1    0    0  501    0  0.00000000000E+00  0.00000000000E+00  0.23348928652E+04  0.23348928652E+04  0.25500000920E-02 0. -1.
       -2   -1    0    0    0  501  0.00000000000E+00  0.00000000000E+00 -0.10591364851E+04  0.10591364851E+04  0.25500000920E-02 0.  1.
    10030    2    1    2    0    0  0.00000000000E+00  0.00000000000E+00  0.12757563801E+04  0.33940293503E+04  0.31451360686E+04 0.  0.
        2    1    3    3  502    0  0.73123740712E+03 -0.13868864331E+04  0.76919665620E+03  0.17463749941E+04  0.25500000920E-02 0. -1.
       -2    1    3    3    0  502 -0.73123740712E+03  0.13868864331E+04  0.50655972387E+03  0.16476543563E+04  0.25500000920E-02 0.  1.
</event>
<event>
 5   0  0.7071012E-06  0.3110184E+04  0.7818609E-02  0.8212949E-01
       -2   -1    0    0    0  501  0.00000000000E+00  0.00000000000E+00  0.20281770709E+04  0.20281770709E+04  0.25500000920E-02 0. -1.
        2   -1    0    0  501    0  0.00000000000E+00  0.00000000000E+00 -0.11923568329E+04  0.11923568329E+04  0.25500000920E-02 0.  1.
    10030    2    1    2    0    0  0.00000000000E+00  0.00000000000E+00  0.83582023806E+03  0.32205339038E+04  0.31101837816E+04 0.  0.
        1    1    3    3  502    0 -0.29765515979E+01  0.93242078111E+03  0.17066123785E+04  0.19447218782E+04  0.50400001928E-02 0. -1.
       -1    1    3    3    0  502  0.29765515979E+01 -0.93242078111E+03 -0.87079214043E+03  0.12758120256E+04  0.50400001928E-02 0.  1.
</event>
<event>
 5   0  0.2624011E-06  0.2350787E+04  0.7818609E-02  0.8458162E-01
       -1   -1    0    0    0  501  0.00000000000E+00  0.00000000000E+00  0.15401635060E+04  0.15401635060E+04  0.50400001928E-02 0. -1.
        1   -1    0    0  501    0  0.00000000000E+00  0.00000000000E+00 -0.89701477469E+03  0.89701477471E+03  0.50400001928E-02 0.  1.
    10030    2    1    2    0    0  0.00000000000E+00  0.00000000000E+00  0.64314873127E+03  0.24371782807E+04  0.23507866091E+04 0.  0.
        1    1    3    3  502    0  0.22351975843E+03 -0.48135642264E+03 -0.76572115496E+03  0.93166194255E+03  0.50400001928E-02 0.  1.
       -1    1    3    3    0  502 -0.22351975843E+03  0.48135642264E+03  0.14088698862E+04  0.15055163381E+04  0.50400001928E-02 0. -1.
</event>
<event>
 5   0  0.7414808E-06  0.3094778E+04  0.7818609E-02  0.8217172E-01
       -2   -1    0    0    0  501  0.00000000000E+00  0.00000000000E+00  0.11393757386E+04  0.11393757386E+04  0.25500000920E-02 0.  1.
        2   -1    0    0  501    0  0.00000000000E+00  0.00000000000E+00 -0.21015129248E+04  0.21015129248E+04  0.25500000920E-02 0. -1.
    10030    2    1    2    0    0  0.00000000000E+00  0.00000000000E+00 -0.96213718614E+03  0.32408886634E+04  0.30947780799E+04 0.  0.
        2    1    3    3  502    0 -0.45257981612E+03 -0.29416794822E+03 -0.19997243966E+04  0.20712945068E+04  0.25500000920E-02 0. -1.
       -2    1    3    3    0  502  0.45257981612E+03  0.29416794822E+03  0.10375872105E+04  0.11695941566E+04  0.25500000920E-02 0.  1.
</event>
<event>
 5   0  0.2612331E-06  0.3105275E+04  0.7818609E-02  0.8214292E-01
       -1   -1    0    0    0  501  0.00000000000E+00  0.00000000000E+00  0.15593495265E+04  0.15593495265E+04  0.50400001928E-02 0. -1.
        1   -1    0    0  501    0  0.00000000000E+00  0.00000000000E+00 -0.15459544346E+04  0.15459544346E+04  0.50400001928E-02 0.  1.
    10030    2    1    2    0    0  0.00000000000E+00  0.00000000000E+00  0.13395091944E+02  0.31053039611E+04  0.31052750703E+04 0.  0.
        4    1    3    3  502    0  0.25930993002E+03 -0.11619086131E+04  0.10034055889E+04  0.15569513973E+04  0.12699999809E+01 0. -1.
       -4    1    3    3    0  502 -0.25930993002E+03  0.11619086131E+04 -0.99001049695E+03  0.15483525638E+04  0.12699999809E+01 0.  1.
</event>
<event>
 5   0  0.2517725E-06  0.3136301E+04  0.7818609E-02  0.8205845E-01
        1   -1    0    0  501    0  0.00000000000E+00  0.00000000000E+00  0.22142505715E+04  0.22142505715E+04  0.50400001928E-02 0.  1.
       -1   -1    0    0    0  501  0.00000000000E+00  0.00000000000E+00 -0.11105771743E+04  0.11105771743E+04  0.50400001928E-02 0. -1.
    10030    2    1    2    0    0  0.00000000000E+00  0.00000000000E+00  0.11036733972E+04  0.33248277458E+04  0.31363010971E+04 0.  0.
        3    1    3    3  502    0  0.50108583153E+03  0.78784065133E+03  0.18874573595E+04  0.21057718766E+04  0.10100000352E+00 0.  1.
       -3    1    3    3    0  502 -0.50108583153E+03 -0.78784065133E+03 -0.78378396225E+03  0.12190558692E+04  0.10100000352E+00 0. -1.
</event>
<event>
 5   0  0.7079223E-06  0.3123460E+04  0.7818609E-02  0.8209329E-01
       -2   -1    0    0    0  501  0.00000000000E+00  0.00000000000E+00  0.10297131741E+04  0.10297131741E+04  0.25500000920E-02 0. -1.
        2   -1    0    0  501    0  0.00000000000E+00  0.00000000000E+00 -0.23686208067E+04  0.23686208067E+04  0.25500000920E-02 0.  1.
    10030    2    1    2    0    0  0.00000000000E+00  0.00000000000E+00 -0.13389076326E+04  0.33983339808E+04  0.31234596518E+04 0.  0.
        5    1    3    3  502    0 -0.67902123341E+03  0.13574099062E+04 -0.10697243543E+04  0.18568693473E+04  0.46999998093E+01 0.  1.
       -5    1    3    3    0  502  0.67902123341E+03 -0.13574099062E+04 -0.26918327826E+03  0.15414646335E+04  0.46999998093E+01 0. -1.
</event>
<event>
 5   0  0.7414808E-06  0.3113995E+04  0.7818609E-02  0.8211908E-01
       -2   -1    0    0    0  501  0.00000000000E+00  0.00000000000E+00  0.18956385525E+04  0.18956385525E+04  0.25500000920E-02 0. -1.
        2   -1    0    0  501    0  0.00000000000E+00  0.00000000000E+00 -0.12788520900E+04  0.12788520900E+04  0.25500000920E-02 0.  1.
    10030    2    1    2    0    0  0.00000000000E+00  0.00000000000E+00  0.61678646251E+03  0.31744906424E+04  0.31139950704E+04 0.  0.
        2    1    3    3  502    0  0.47546790560E+03  0.10596306913E+04 -0.74874538479E+03  0.13818489724E+04  0.25500000920E-02 0.  1.
       -2    1    3    3    0  502 -0.47546790560E+03 -0.10596306913E+04  0.13655318473E+04  0.17926416701E+04  0.25500000920E-02 0. -1.
</event>
<event>
 5   0  0.2674441E-06  0.3104118E+04  0.7818609E-02  0.8214609E-01
       -1   -1    0    0    0  501  0.00000000000E+00  0.00000000000E+00  0.12535599017E+04  0.12535599017E+04  0.50400001928E-02 0.  1.
        1   -1    0    0  501    0  0.00000000000E+00  0.00000000000E+00 -0.19216371683E+04  0.19216371683E+04  0.50400001928E-02 0. -1.
    10030    2    1    2    0    0  0.00000000000E+00  0.00000000000E+00 -0.66807726656E+03  0.31751970700E+04  0.31041181033E+04 0.  0.
        5    1    3    3  502    0 -0.76059727353E+03  0.10644247347E+04  0.52016226759E+03  0.14078704141E+04  0.46999998093E+01 0.  1.
       -5    1    3    3    0  502  0.76059727353E+03 -0.10644247347E+04 -0.11882395342E+04  0.17673266559E+04  0.46999998093E+01 0. -1.
</event>
<event>
 5   0  0.2674441E-06  0.3016097E+04  0.7818609E-02  0.8239149E-01
        1   -1    0    0  501    0  0.00000000000E+00  0.00000000000E+00  0.19408943273E+04  0.19408943273E+04  0.50400001928E-02 0.  1.
       -1   -1    0    0    0  501  0.00000000000E+00  0.00000000000E+00 -0.11717329200E+04  0.11717329200E+04  0.50400001928E-02 0. -1.
    10030    2    1    2    0    0  0.00000000000E+00  0.00000000000E+00  0.76916140729E+03  0.31126272474E+04  0.30160966680E+04 0.  0.
        5    1    3    3  502    0  0.55921279876E+03  0.79274938972E+03 -0.80693487392E+03  0.12618781756E+04  0.46999998093E+01 0. -1.
       -5    1    3    3    0  502 -0.55921279876E+03 -0.79274938972E+03  0.15760962812E+04  0.18507490718E+04  0.46999998093E+01 0.  1.
</event>
<event>
 5   0  0.2598987E-06  0.2988371E+04  0.7818609E-02  0.8247060E-01
       -1   -1    0    0    0  501  0.00000000000E+00  0.00000000000E+00  0.12615177118E+04  0.12615177118E+04  0.50400001928E-02 0.  1.
        1   -1    0    0  501    0  0.00000000000E+00  0.00000000000E+00 -0.17697649490E+04  0.17697649490E+04  0.50400001928E-02 0. -1.
    10030    2    1    2    0    0  0.00000000000E+00  0.00000000000E+00 -0.50824723723E+03  0.30312826609E+04  0.29883706791E+04 0.  0.
        2    1    3    3  502    0  0.78066078451E+03  0.11993885936E+04 -0.68997446467E+03  0.15887193021E+04  0.25500000920E-02 0. -1.
       -2    1    3    3    0  502 -0.78066078451E+03 -0.11993885936E+04  0.18172722744E+03  0.14425633588E+04  0.25500000920E-02 0.  1.
</event>
<event>
 5   0  0.2624011E-06  0.3087309E+04  0.7818609E-02  0.8219229E-01
        1   -1    0    0  501    0  0.00000000000E+00  0.00000000000E+00  0.21647355877E+04  0.21647355877E+04  0.50400001928E-02 0. -1.
       -1   -1    0    0    0  501  0.00000000000E+00  0.00000000000E+00 -0.11007668873E+04  0.11007668873E+04  0.50400001928E-02 0.  1.
    10030    2    1    2    0    0  0.00000000000E+00  0.00000000000E+00  0.10639687004E+04  0.32655024750E+04  0.30873090255E+04 0.  0.
        1    1    3    3  502    0  0.14860118904E+04  0.30680404726E+03  0.83210276978E+03  0.17305360676E+04  0.50400001928E-02 0. -1.
       -1    1    3    3    0  502 -0.14860118904E+04 -0.30680404726E+03  0.23186593065E+03  0.15349664074E+04  0.50400001928E-02 0.  1.
</event>
<event>
 5   0  0.7414808E-06  0.3078561E+04  0.7818609E-02  0.8221646E-01
       -2   -1    0    0    0  501  0.00000000000E+00  0.00000000000E+00  0.13052796709E+04  0.13052796709E+04  0.25500000920E-02 0. -1.
        2   -1    0    0  501    0  0.00000000000E+00  0.00000000000E+00 -0.18152311901E+04  0.18152311901E+04  0.25500000920E-02 0.  1.
    10030    2    1    2    0    0  0.00000000000E+00  0.00000000000E+00 -0.50995151927E+03  0.31205108610E+04  0.30785609433E+04 0.  0.
        2    1    3    3  502    0  0.40506892499E+03 -0.24903085222E+03 -0.17389218550E+04  0.18027607764E+04  0.25500000920E-02 0.  1.
       -2    1    3    3    0  502 -0.40506892499E+03  0.24903085222E+03  0.12289703357E+04  0.13177500846E+04  0.25500000920E-02 0. -1.
</event>
<event>
 5   0  0.2624011E-06  0.3108141E+04  0.7818609E-02  0.8213507E-01
       -1   -1    0    0    0  501  0.00000000000E+00  0.00000000000E+00  0.17999535599E+04  0.17999535599E+04  0.50400001928E-02 0. -1.
        1   -1    0    0  501    0  0.00000000000E+00  0.00000000000E+00 -0.13417765351E+04  0.13417765351E+04  0.50400001928E-02 0.  1.
    10030    2    1    2    0    0  0.00000000000E+00  0.00000000000E+00  0.45817702472E+03  0.31417300950E+04  0.31081412136E+04 0.  0.
        1    1    3    3  502    0  0.12997565189E+04  0.85162560261E+03  0.20643481386E+03  0.15675613251E+04  0.50400001928E-02 0.  1.
       -1    1    3    3    0  502 -0.12997565189E+04 -0.85162560261E+03  0.25174221087E+03  0.15741687699E+04  0.50400001928E-02 0. -1.
</event>
<event>
 5   0  0.7079223E-06  0.3147794E+04  0.7818609E-02  0.8202742E-01
       -2   -1    0    0    0  501  0.00000000000E+00  0.00000000000E+00  0.10399597194E+04  0.10399597194E+04  0.25500000920E-02 0. -1.
        2   -1    0    0  501    0  0.00000000000E+00  0.00000000000E+00 -0.23819696151E+04  0.23819696151E+04  0.25500000920E-02 0.  1.
    10030    2    1    2    0    0  0.00000000000E+00  0.00000000000E+00 -0.13420098957E+04  0.34219293346E+04  0.31477944359E+04 0.  0.
        5    1    3    3  502    0  0.84005920538E+03 -0.67078963358E+03 -0.19206701672E+04  0.22010575146E+04  0.46999998093E+01 0.  1.
       -5    1    3    3    0  502 -0.84005920538E+03  0.67078963358E+03  0.57866027156E+03  0.12208718200E+04  0.46999998093E+01 0. -1.
</event>
<event>
 5   0  0.2517725E-06  0.2290819E+04  0.7818609E-02  0.8481550E-01
        1   -1    0    0  501    0  0.00000000000E+00  0.00000000000E+00  0.17292333022E+04  0.17292333022E+04  0.50400001928E-02 0.  1.
       -1   -1    0    0    0  501  0.00000000000E+00  0.00000000000E+00 -0.75869646869E+03  0.75869646870E+03  0.50400001928E-02 0. -1.
    10030    2    1    2    0    0  0.00000000000E+00  0.00000000000E+00  0.97053683355E+03  0.24879297709E+04  0.22908192421E+04 0.  0.
        3    1    3    3  502    0 -0.76284729087E+03 -0.85294261993E+03  0.43079179349E+03  0.12227136548E+04  0.10100000352E+00 0.  1.
       -3    1    3    3    0  502  0.76284729087E+03  0.85294261993E+03  0.53974504006E+03  0.12652161161E+04  0.10100000352E+00 0. -1.
</event>
<event>
 5   0  0.2674441E-06  0.3112693E+04  0.7818609E-02  0.8212263E-01
       -1   -1    0    0    0  501  0.00000000000E+00  0.00000000000E+00  0.15250414639E+04  0.15250414639E+04  0.50400001928E-02 0.  1.
        1   -1    0    0  501    0  0.00000000000E+00  0.00000000000E+00 -0.15882942018E+04  0.15882942018E+04  0.50400001928E-02 0. -1.
    10030    2    1    2    0    0  0.00000000000E+00  0.00000000000E+00 -0.63252737871E+02  0.31133356657E+04  0.31126930556E+04 0.  0.
        5    1    3    3  502    0 -0.54846096601E+03  0.11061970028E+04  0.91604545430E+03  0.15374142592E+04  0.46999998093E+01 0.  1.
       -5    1    3    3    0  502  0.54846096601E+03 -0.11061970028E+04 -0.97929819217E+03  0.15759214065E+04  0.46999998093E+01 0. -1.
</event>
<event>
 5   0  0.2674441E-06  0.2832103E+04  0.7818609E-02  0.8293370E-01
        1   -1    0    0  501    0  0.00000000000E+00  0.00000000000E+00  0.18872455195E+04  0.18872455195E+04  0.50400001928E-02 0.  1.
       -1   -1    0    0    0  501  0.00000000000E+00  0.00000000000E+00 -0.10625020955E+04  0.10625020955E+04  0.50400001928E-02 0. -1.
    10030    2    1    2    0    0  0.00000000000E+00  0.00000000000E+00  0.82474342404E+03  0.29497476150E+04  0.28321033309E+04 0.  0.
        5    1    3    3  502    0 -0.11255946860E+04 -0.85195309320E+03  0.52831877852E+03  0.15072923711E+04  0.46999998093E+01 0.  1.
       -5    1    3    3    0  502  0.11255946860E+04  0.85195309320E+03  0.29642464552E+03  0.14424552439E+04  0.46999998093E+01 0. -1.
</event>
<event>
 5   0  0.7414808E-06  0.2283002E+04  0.7818609E-02  0.8484653E-01
       -2   -1    0    0    0  501  0.00000000000E+00  0.00000000000E+00  0.13608897169E+04  0.13608897169E+04  0.25500000920E-02 0. -1.
        2   -1    0    0  501    0  0.00000000000E+00  0.00000000000E+00 -0.95748014740E+03  0.95748014741E+03  0.25500000920E-02 0.  1.
    10030    2    1    2    0    0  0.00000000000E+00  0.00000000000E+00  0.40340956949E+03  0.23183698643E+04  0.22830023099E+04 0.  0.
        2    1    3    3  502    0  0.77670430185E+03  0.34219717410E+03  0.97684922374E+03  0.12940644823E+04  0.25500000920E-02 0. -1.
       -2    1    3    3    0  502 -0.77670430185E+03 -0.34219717410E+03 -0.57343965425E+03  0.10243053820E+04  0.25500000920E-02 0.  1.
</event>
<event>
 5   0  0.2674441E-06  0.3136862E+04  0.7818609E-02  0.8205694E-01
       -1   -1    0    0    0  501  0.00000000000E+00  0.00000000000E+00  0.15788231080E+04  0.15788231080E+04  0.50400001928E-02 0.  1.
        1   -1    0    0  501    0  0.00000000000E+00  0.00000000000E+00 -0.15581069970E+04  0.15581069970E+04  0.50400001928E-02 0. -1.
    10030    2    1    2    0    0  0.00000000000E+00  0.00000000000E+00  0.20716111058E+02  0.31369301050E+04  0.31368617002E+04 0.  0.
        5    1    3    3  502    0 -0.99271530274E+03  0.52171187071E+03 -0.10861540191E+04  0.15612237481E+04  0.46999998093E+01 0. -1.
       -5    1    3    3    0  502  0.99271530274E+03 -0.52171187071E+03  0.11068701301E+04  0.15757063570E+04  0.46999998093E+01 0.  1.
</event>
<event>
 5   0  0.2624011E-06  0.2849526E+04  0.7818609E-02  0.8288055E-01
        1   -1    0    0  501    0  0.00000000000E+00  0.00000000000E+00  0.18742301019E+04  0.18742301019E+04  0.50400001928E-02 0. -1.
       -1   -1    0    0    0  501  0.00000000000E+00  0.00000000000E+00 -0.10830843363E+04  0.10830843363E+04  0.50400001928E-02 0.  1.
    10030    2    1    2    0    0  0.00000000000E+00  0.00000000000E+00  0.79114576559E+03  0.29573144383E+04  0.28495257613E+04 0.  0.
        1    1    3    3  502    0  0.14005779893E+04  0.12445359210E+03  0.15700389569E+03  0.14148348398E+04  0.50400001928E-02 0. -1.
       -1    1    3    3    0  502 -0.14005779893E+04 -0.12445359210E+03  0.63414186990E+03  0.15424795985E+04  0.50400001928E-02 0.  1.
</event>
<event>
 5   0  0.7414808E-06  0.3090028E+04  0.7818609E-02  0.8218480E-01
        2   -1    0    0  501    0  0.00000000000E+00  0.00000000000E+00  0.23575353447E+04  0.23575353447E+04  0.25500000920E-02 0.  1.
       -2   -1    0    0    0  501  0.00000000000E+00  0.00000000000E+00 -0.10125269641E+04  0.10125269641E+04  0.25500000920E-02 0. -1.
    10030    2    1    2    0    0  0.00000000000E+00  0.00000000000E+00  0.13450083806E+04  0.33700623087E+04  0.30900278997E+04 0.  0.
        2    1    3    3  502    0  0.67109859123E+03 -0.87048925833E+03 -0.51168741395E+03  0.12124144826E+04  0.25500000920E-02 0. -1.
       -2    1    3    3    0  502 -0.67109859123E+03  0.87048925833E+03  0.18566957945E+04  0.21576478261E+04  0.25500000920E-02 0.  1.
</event>
<event>
 5   0  0.2598987E-06  0.2948595E+04  0.7818609E-02  0.8258564E-01
        1   -1    0    0  501    0  0.00000000000E+00  0.00000000000E+00  0.78133100666E+03  0.78133100668E+03  0.50400001928E-02 0. -1.
       -1   -1    0    0    0  501  0.00000000000E+00  0.00000000000E+00 -0.27818590690E+04  0.27818590690E+04  0.50400001928E-02 0.  1.
    10030    2    1    2    0    0  0.00000000000E+00  0.00000000000E+00 -0.20005280623E+04  0.35631900757E+04  0.29485947479E+04 0.  0.
        2    1    3    3  502    0 -0.12115209379E+04  0.76529471380E+03 -0.58148576698E+03  0.15464749203E+04  0.25500000920E-02 0.  1.
       -2    1    3    3    0  502  0.12115209379E+04 -0.76529471380E+03 -0.14190422953E+04  0.20167151554E+04  0.25500000920E-02 0. -1.
</event>
<event>
 5   0  0.2598987E-06  0.2926538E+04  0.7818609E-02  0.8265025E-01
        1   -1    0    0  501    0  0.00000000000E+00  0.00000000000E+00  0.20046213404E+04  0.20046213404E+04  0.50400001928E-02 0. -1.
       -1   -1    0    0    0  501  0.00000000000E+00  0.00000000000E+00 -0.10681098386E+04  0.10681098387E+04  0.50400001928E-02 0.  1.
    10030    2    1    2    0    0  0.00000000000E+00  0.00000000000E+00  0.93651150171E+03  0.30727311790E+04  0.29265377335E+04 0.  0.
        2    1    3    3  502    0 -0.35411793331E+03  0.77534088780E+03  0.17170408034E+04  0.19169721238E+04  0.25500000920E-02 0. -1.
       -2    1    3    3    0  502  0.35411793331E+03 -0.77534088780E+03 -0.78052930165E+03  0.11557590552E+04  0.25500000920E-02 0.  1.
</event>
<event>
 5   0  0.2612331E-06  0.3186086E+04  0.7818609E-02  0.8192501E-01
       -1   -1    0    0    0  501  0.00000000000E+00  0.00000000000E+00  0.14517949010E+04  0.14517949010E+04  0.50400001928E-02 0. -1.
        1   -1    0    0  501    0  0.00000000000E+00  0.00000000000E+00 -0.17480339246E+04  0.17480339246E+04  0.50400001928E-02 0.  1.
    10030    2    1    2    0    0  0.00000000000E+00  0.00000000000E+00 -0.29623902356E+03  0.31998288256E+04  0.31860864636E+04 0.  0.
        4    1    3    3  502    0 -0.97282514379E+03  0.34690466690E+03  0.10699818405E+04  0.14871430194E+04  0.12699999809E+01 0. -1.
       -4    1    3    3    0  502  0.97282514379E+03 -0.34690466690E+03 -0.13662208641E+04  0.17126858061E+04  0.12699999809E+01 0.  1.
</event>
<event>
 5   0  0.2612331E-06  0.3149316E+04  0.7818609E-02  0.8202332E-01
       -1   -1    0    0    0  501  0.00000000000E+00  0.00000000000E+00  0.94766381479E+03  0.94766381480E+03  0.50400001928E-02 0.  1.
        1   -1    0    0  501    0  0.00000000000E+00  0.00000000000E+00 -0.26164847702E+04  0.26164847702E+04  0.50400001928E-02 0. -1.
    10030    2    1    2    0    0  0.00000000000E+00  0.00000000000E+00 -0.16688209554E+04  0.35641485850E+04  0.31493160773E+04 0.  0.
        4    1    3    3  502    0  0.36997960041E+03 -0.45859490349E+03 -0.24870152913E+04  0.25558640148E+04  0.12699999809E+01 0. -1.
       -4    1    3    3    0  502 -0.36997960041E+03  0.45859490349E+03  0.81819433590E+03  0.10082845702E+04  0.12699999809E+01 0.  1.
</event>
<event>
 5   0  0.2674441E-06  0.3123813E+04  0.7818609E-02  0.8209233E-01
        1   -1    0    0  501    0  0.00000000000E+00  0.00000000000E+00  0.17901494379E+04  0.17901494379E+04  0.50400001928E-02 0.  1.
       -1   -1    0    0    0  501  0.00000000000E+00  0.00000000000E+00 -0.13627640363E+04  0.13627640363E+04  0.50400001928E-02 0. -1.
    10030    2    1    2    0    0  0.00000000000E+00  0.00000000000E+00  0.42738540160E+03  0.31529134742E+04  0.31238125895E+04 0.  0.
        5    1    3    3  502    0  0.19852729932E+02 -0.42921569429E+03  0.17293170923E+04  0.17819034595E+04  0.46999998093E+01 0.  1.
       -5    1    3    3    0  502 -0.19852729932E+02  0.42921569429E+03 -0.13019316907E+04  0.13710100147E+04  0.46999998093E+01 0. -1.
</event>
<event>
 5   0  0.2517725E-06  0.3083615E+04  0.7818609E-02  0.8220249E-01
       -1   -1    0    0    0  501  0.00000000000E+00  0.00000000000E+00  0.11568660896E+04  0.11568660896E+04  0.50400001928E-02 0.  1.
        1   -1    0    0  501    0  0.00000000000E+00  0.00000000000E+00 -0.20548366826E+04  0.20548366826E+04  0.50400001928E-02 0. -1.
    10030    2    1    2    0    0  0.00000000000E+00  0.00000000000E+00 -0.89797059304E+03  0.32117027722E+04  0.30836153312E+04 0.  0.
        3    1    3    3  502    0 -0.14759034009E+04  0.44373108777E+03 -0.40260771771E+03  0.15928845255E+04  0.10100000352E+00 0.  1.
       -3    1    3    3    0  502  0.14759034009E+04 -0.44373108777E+03 -0.49536287532E+03  0.16188182466E+04  0.10100000352E+00 0. -1.
</event>
<event>
 5   0  0.7079223E-06  0.3121527E+04  0.7818609E-02  0.8209855E-01
       -2   -1    0    0    0  501  0.00000000000E+00  0.00000000000E+00  0.22681813442E+04  0.22681813442E+04  0.25500000920E-02 0. -1.
        2   -1    0    0  501    0  0.00000000000E+00  0.00000000000E+00 -0.10739802836E+04  0.10739802836E+04  0.25500000920E-02 0.  1.
    10030    2    1    2    0    0  0.00000000000E+00  0.00000000000E+00  0.11942010605E+04  0.33421616278E+04  0.31215265774E+04 0.  0.
        5    1    3    3  502    0  0.49991828051E+03 -0.43250377060E+03 -0.91668681454E+03  0.11301834385E+04  0.46999998093E+01 0.  1.
       -5    1    3    3    0  502 -0.49991828051E+03  0.43250377060E+03  0.21108878751E+04  0.22119781893E+04  0.46999998093E+01 0. -1.
</event>
<event>
 5   0  0.2674441E-06  0.2990163E+04  0.7818609E-02  0.8246545E-01
        1   -1    0    0  501    0  0.00000000000E+00  0.00000000000E+00  0.21176574536E+04  0.21176574536E+04  0.50400001928E-02 0.  1.
       -1   -1    0    0    0  501  0.00000000000E+00  0.00000000000E+00 -0.10555384234E+04  0.10555384234E+04  0.50400001928E-02 0. -1.
    10030    2    1    2    0    0  0.00000000000E+00  0.00000000000E+00  0.10621190302E+04  0.31731958770E+04  0.29901630791E+04 0.  0.
        5    1    3    3  502    0 -0.74898367958E+03 -0.27491872714E+03 -0.81072914412E+03  0.11374799752E+04  0.46999998093E+01 0. -1.
       -5    1    3    3    0  502  0.74898367958E+03  0.27491872714E+03  0.18728481743E+04  0.20357159018E+04  0.46999998093E+01 0.  1.
</event>
<event>
 5   0  0.7071012E-06  0.3052499E+04  0.7818609E-02  0.8228896E-01
       -2   -1    0    0    0  501  0.00000000000E+00  0.00000000000E+00  0.13793574812E+04  0.13793574812E+04  0.25500000920E-02 0. -1.
        2   -1    0    0  501    0  0.00000000000E+00  0.00000000000E+00 -0.16887844045E+04  0.16887844045E+04  0.25500000920E-02 0.  1.
    10030    2    1    2    0    0  0.00000000000E+00  0.00000000000E+00 -0.30942692330E+03  0.30681418857E+04  0.30524989124E+04 0.  0.
        1    1    3    3  502    0  0.14677871669E+04 -0.37566494238E+03 -0.33981498055E+03  0.15527387215E+04  0.50400001928E-02 0.  1.
       -1    1    3    3    0  502 -0.14677871669E+04  0.37566494238E+03  0.30388057257E+02  0.15154031642E+04  0.50400001928E-02 0. -1.
</event>
<event>
 5   0  0.2517725E-06  0.3143833E+04  0.7818609E-02  0.8203810E-01
       -1   -1    0    0    0  501  0.00000000000E+00  0.00000000000E+00  0.17890907163E+04  0.17890907163E+04  0.50400001928E-02 0.  1.
        1   -1    0    0  501    0  0.00000000000E+00  0.00000000000E+00 -0.13811044383E+04  0.13811044383E+04  0.50400001928E-02 0. -1.
    10030    2    1    2    0    0  0.00000000000E+00  0.00000000000E+00  0.40798627799E+03  0.31701951547E+04  0.31438327748E+04 0.  0.
        3    1    3    3  502    0  0.36989353672E+01  0.13138620568E+04  0.10741742189E+04  0.16970849859E+04  0.10100000352E+00 0.  1.
       -3    1    3    3    0  502 -0.36989353672E+01 -0.13138620568E+04 -0.66618794095E+03  0.14731101688E+04  0.10100000352E+00 0. -1.
</event>
<event>
 5   0  0.2598987E-06  0.3159998E+04  0.7818609E-02  0.8199462E-01
       -1   -1    0    0    0  501  0.00000000000E+00  0.00000000000E+00  0.11992701706E+04  0.11992701706E+04  0.50400001928E-02 0.  1.
        1   -1    0    0  501    0  0.00000000000E+00  0.00000000000E+00 -0.20815973652E+04  0.20815973652E+04  0.50400001928E-02 0. -1.
    10030    2    1    2    0    0  0.00000000000E+00  0.00000000000E+00 -0.88232719455E+03  0.32808675358E+04  0.31599984983E+04 0.  0.
        2    1    3    3  502    0  0.12702034185E+04 -0.32373532350E+03 -0.13570483561E+04  0.18867436298E+04  0.25500000920E-02 0. -1.
       -2    1    3    3    0  502 -0.12702034185E+04  0.32373532350E+03  0.47472116154E+03  0.13941239060E+04  0.25500000920E-02 0.  1.
</event>
<event>
 5   0  0.7071012E-06  0.3307554E+04  0.7818609E-02  0.8160976E-01
        2   -1    0    0  501    0  0.00000000000E+00  0.00000000000E+00  0.26169273656E+04  0.26169273656E+04  0.25500000920E-02 0.  1.
       -2   -1    0    0    0  501  0.00000000000E+00  0.00000000000E+00 -0.10451104131E+04  0.10451104131E+04  0.25500000920E-02 0. -1.
    10030    2    1    2    0    0  0.00000000000E+00  0.00000000000E+00  0.15718169525E+04  0.36620377786E+04  0.33075538031E+04 0.  0.
        1    1    3    3  502    0 -0.65569457037E+03  0.40170449302E+03  0.24069550514E+04  0.25268032153E+04  0.50400001928E-02 0.  1.
       -1    1    3    3    0  502  0.65569457037E+03 -0.40170449302E+03 -0.83513809899E+03  0.11352345633E+04  0.50400001928E-02 0. -1.
</event>
<event>
 5   0  0.7094341E-06  0.3061175E+04  0.7818609E-02  0.8226475E-01
       -2   -1    0    0    0  501  0.00000000000E+00  0.00000000000E+00  0.13228833665E+04  0.13228833665E+04  0.25500000920E-02 0. -1.
        2   -1    0    0  501    0  0.00000000000E+00  0.00000000000E+00 -0.17709031217E+04  0.17709031217E+04  0.25500000920E-02 0.  1.
    10030    2    1    2    0    0  0.00000000000E+00  0.00000000000E+00 -0.44801975523E+03  0.30937864882E+04  0.30611751230E+04 0.  0.
        3    1    3    3  502    0 -0.11733200128E+04 -0.78526966666E+02 -0.12141673875E+04  0.16902806844E+04  0.10100000352E+00 0.  1.
       -3    1    3    3    0  502  0.11733200128E+04  0.78526966666E+02  0.76614763226E+03  0.14035058039E+04  0.10100000352E+00 0. -1.
</event>
<event>
 5   0  0.7071012E-06  0.3079712E+04  0.7818609E-02  0.8221328E-01
       -2   -1    0    0    0  501  0.00000000000E+00  0.00000000000E+00  0.12562811154E+04  0.12562811154E+04  0.25500000920E-02 0.  1.
        2   -1    0    0  501    0  0.00000000000E+00  0.00000000000E+00 -0.18874409855E+04  0.18874409855E+04  0.25500000920E-02 0. -1.
    10030    2    1    2    0    0  0.00000000000E+00  0.00000000000E+00 -0.63115987012E+03  0.31437221010E+04  0.30797119778E+04 0.  0.
        1    1    3    3  502    0  0.11270604258E+03 -0.11544821634E+04 -0.13493603310E+04  0.17794114253E+04  0.50400001928E-02 0. -1.
       -1    1    3    3    0  502 -0.11270604258E+03  0.11544821634E+04  0.71820046089E+03  0.13643106756E+04  0.50400001928E-02 0.  1.
</event>
<event>
 5   0  0.7094341E-06  0.2972649E+04  0.7818609E-02  0.8251584E-01
       -2   -1    0    0    0  501  0.00000000000E+00  0.00000000000E+00  0.11942090697E+04  0.11942090697E+04  0.25500000920E-02 0. -1.
        2   -1    0    0  501    0  0.00000000000E+00  0.00000000000E+00 -0.18498948068E+04  0.18498948068E+04  0.25500000920E-02 0.  1.
    10030    2    1    2    0    0  0.00000000000E+00  0.00000000000E+00 -0.65568573715E+03  0.30441038765E+04  0.29726494285E+04 0.  0.
        3    1    3    3  502    0  0.65755246692E+03  0.13174970605E+04 -0.12052299686E+03  0.14773962075E+04  0.10100000352E+00 0. -1.
       -3    1    3    3    0  502 -0.65755246692E+03 -0.13174970605E+04 -0.53516274028E+03  0.15667076689E+04  0.10100000352E+00 0.  1.
</event>
<event>
 5   0  0.7414808E-06  0.3115764E+04  0.7818609E-02  0.8211425E-01
       -2   -1    0    0    0  501  0.00000000000E+00  0.00000000000E+00  0.11415661256E+04  0.11415661256E+04  0.25500000920E-02 0. -1.
        2   -1    0    0  501    0  0.00000000000E+00  0.00000000000E+00 -0.21260233696E+04  0.21260233696E+04  0.25500000920E-02 0.  1.
    10030    2    1    2    0    0  0.00000000000E+00  0.00000000000E+00 -0.98445724404E+03  0.32675894952E+04  0.31157639583E+04 0.  0.
        2    1    3    3  502    0  0.93050452608E+03 -0.12487348498E+04 -0.44750232676E+03  0.16203196384E+04  0.25500000920E-02 0. -1.
       -2    1    3    3    0  502 -0.93050452608E+03  0.12487348498E+04 -0.53695491728E+03  0.16472698568E+04  0.25500000920E-02 0.  1.
</event>
<event>
 5   0  0.7071012E-06  0.3098436E+04  0.7818609E-02  0.8216167E-01
        2   -1    0    0  501    0  0.00000000000E+00  0.00000000000E+00  0.11803273972E+04  0.11803273972E+04  0.25500000920E-02 0.  1.
       -2   -1    0    0    0  501  0.00000000000E+00  0.00000000000E+00 -0.20333994966E+04  0.20333994966E+04  0.25500000920E-02 0. -1.
    10030    2    1    2    0    0  0.00000000000E+00  0.00000000000E+00 -0.85307209945E+03  0.32137268938E+04  0.30984364671E+04 0.  0.
        1    1    3    3  502    0  0.14192338145E+03  0.14167274411E+04  0.20677191721E+03  0.14387541536E+04  0.50400001928E-02 0. -1.
       -1    1    3    3    0  502 -0.14192338145E+03 -0.14167274411E+04 -0.10598440167E+04  0.17749727402E+04  0.50400001928E-02 0.  1.
</event>
<event>
 5   0  0.2674441E-06  0.3135369E+04  0.7818609E-02  0.8206098E-01
       -1   -1    0    0    0  501  0.00000000000E+00  0.00000000000E+00  0.16198845210E+04  0.16198845210E+04  0.50400001928E-02 0. -1.
        1   -1    0    0  501    0  0.00000000000E+00  0.00000000000E+00 -0.15171666841E+04  0.15171666841E+04  0.50400001928E-02 0.  1.
    10030    2    1    2    0    0  0.00000000000E+00  0.00000000000E+00  0.10271783693E+03  0.31370512051E+04  0.31353690866E+04 0.  0.
        5    1    3    3  502    0  0.11288883518E+03  0.10554249623E+04 -0.11029267829E+04  0.15307303220E+04  0.46999998093E+01 0.  1.
       -5    1    3    3    0  502 -0.11288883518E+03 -0.10554249623E+04  0.12056446198E+04  0.16063208831E+04  0.46999998093E+01 0. -1.
</event>
<event>
 5   0  0.2674441E-06  0.3118570E+04  0.7818609E-02  0.8210660E-01
       -1   -1    0    0    0  501  0.00000000000E+00  0.00000000000E+00  0.13959101883E+04  0.13959101883E+04  0.50400001928E-02 0. -1.
        1   -1    0    0  501    0  0.00000000000E+00  0.00000000000E+00 -0.17417806367E+04  0.17417806367E+04  0.50400001928E-02 0.  1.
    10030    2    1    2    0    0  0.00000000000E+00  0.00000000000E+00 -0.34587044839E+03  0.31376908250E+04  0.31185697598E+04 0.  0.
        5    1    3    3  502    0  0.14167827865E+04  0.98754809908E+02 -0.82055976762E+03  0.16402336415E+04  0.46999998093E+01 0. -1.
       -5    1    3    3    0  502 -0.14167827865E+04 -0.98754809908E+02  0.47468931923E+03  0.14974571835E+04  0.46999998093E+01 0.  1.
</event>
<event>
 5   0  0.7414808E-06  0.3087964E+04  0.7818609E-02  0.8219049E-01
       -2   -1    0    0    0  501  0.00000000000E+00  0.00000000000E+00  0.14070864280E+04  0.14070864280E+04  0.25500000920E-02 0.  1.
        2   -1    0    0  501    0  0.00000000000E+00  0.00000000000E+00 -0.16941958996E+04  0.16941958996E+04  0.25500000920E-02 0. -1.
    10030    2    1    2    0    0  0.00000000000E+00  0.00000000000E+00 -0.28710947162E+03  0.31012823276E+04  0.30879637670E+04 0.  0.
        2    1    3    3  502    0  0.40250257712E+03  0.12632218197E+04 -0.93825920175E+03  0.16242130464E+04  0.25500000920E-02 0. -1.
       -2    1    3    3    0  502 -0.40250257712E+03 -0.12632218197E+04  0.65114973014E+03  0.14770692812E+04  0.25500000920E-02 0.  1.
</event>
<event>
 5   0  0.2517725E-06  0.3084022E+04  0.7818609E-02  0.8220137E-01
        1   -1    0    0  501    0  0.00000000000E+00  0.00000000000E+00  0.18277571075E+04  0.18277571075E+04  0.50400001928E-02 0.  1.
       -1   -1    0    0    0  501  0.00000000000E+00  0.00000000000E+00 -0.13009374578E+04  0.13009374578E+04  0.50400001928E-02 0. -1.
    10030    2    1    2    0    0  0.00000000000E+00  0.00000000000E+00  0.52681964975E+03  0.31286945653E+04  0.30840218449E+04 0.  0.
        3    1    3    3  502    0  0.12444043798E+04  0.71066895495E+03  0.84104763174E+03  0.16616117937E+04  0.10100000352E+00 0. -1.
       -3    1    3    3    0  502 -0.12444043798E+04 -0.71066895495E+03 -0.31422798199E+03  0.14670827716E+04  0.10100000352E+00 0.  1.
</event>
<event>
 5   0  0.2674441E-06  0.3081544E+04  0.7818609E-02  0.8220821E-01
        1   -1    0    0  501    0  0.00000000000E+00  0.00000000000E+00  0.15111339451E+04  0.15111339451E+04  0.50400001928E-02 0.  1.
       -1   -1    0    0    0  501  0.00000000000E+00  0.00000000000E+00 -0.15709910248E+04  0.15709910248E+04  0.50400001928E-02 0. -1.
    10030    2    1    2    0    0  0.00000000000E+00  0.00000000000E+00 -0.59857079664E+02  0.30821249699E+04  0.30815436814E+04 0.  0.
        5    1    3    3  502    0  0.46749114287E+02  0.39452454791E+03 -0.15188734124E+04  0.15699788633E+04  0.46999998093E+01 0. -1.
       -5    1    3    3    0  502 -0.46749114287E+02 -0.39452454791E+03  0.14590163327E+04  0.15121461066E+04  0.46999998093E+01 0.  1.
</event>
<event>
 5   0  0.7079223E-06  0.3090525E+04  0.7818609E-02  0.8218343E-01
       -2   -1    0    0    0  501  0.00000000000E+00  0.00000000000E+00  0.14094750892E+04  0.14094750892E+04  0.25500000920E-02 0.  1.
        2   -1    0    0  501    0  0.00000000000E+00  0.00000000000E+00 -0.16941317619E+04  0.16941317619E+04  0.25500000920E-02 0. -1.
    10030    2    1    2    0    0  0.00000000000E+00  0.00000000000E+00 -0.28465667266E+03  0.31036068511E+04  0.30905252086E+04 0.  0.
        5    1    3    3  502    0  0.84989738578E+03 -0.70968702254E+03 -0.12247744884E+04  0.16510832425E+04  0.46999998093E+01 0. -1.
       -5    1    3    3    0  502 -0.84989738578E+03  0.70968702254E+03  0.94011781569E+03  0.14525236086E+04  0.46999998093E+01 0.  1.
</event>
<event>
 5   0  0.7094341E-06  0.3097893E+04  0.7818609E-02  0.8216317E-01
       -2   -1    0    0    0  501  0.00000000000E+00  0.00000000000E+00  0.29109090001E+04  0.29109090001E+04  0.25500000920E-02 0. -1.
        2   -1    0    0  501    0  0.00000000000E+00  0.00000000000E+00 -0.82422179723E+03  0.82422179723E+03  0.25500000920E-02 0.  1.
    10030    2    1    2    0    0  0.00000000000E+00  0.00000000000E+00  0.20866872029E+04  0.37351307974E+04  0.30978926048E+04 0.  0.
        3    1    3    3  502    0 -0.96551872558E+03 -0.18940052054E+03 -0.39903695698E+03  0.10617577265E+04  0.10100000352E+00 0.  1.
       -3    1    3    3    0  502  0.96551872558E+03  0.18940052054E+03  0.24857241599E+04  0.26733730708E+04  0.10100000352E+00 0. -1.
</event>
<event>
 5   0  0.2674441E-06  0.3031869E+04  0.7818609E-02  0.8234689E-01
       -1   -1    0    0    0  501  0.00000000000E+00  0.00000000000E+00  0.16908367422E+04  0.16908367422E+04  0.50400001928E-02 0. -1.
        1   -1    0    0  501    0  0.00000000000E+00  0.00000000000E+00 -0.13591243822E+04  0.13591243822E+04  0.50400001928E-02 0.  1.
    10030    2    1    2    0    0  0.00000000000E+00  0.00000000000E+00  0.33171235998E+03  0.30499611244E+04  0.30318690226E+04 0.  0.
        5    1    3    3  502    0 -0.14836962472E+04  0.54128125092E+02 -0.14215869781E+03  0.14914810067E+04  0.46999998093E+01 0.  1.
       -5    1    3    3    0  502  0.14836962472E+04 -0.54128125092E+02  0.47387105778E+03  0.15584801177E+04  0.46999998093E+01 0. -1.
</event>
<event>
 5   0  0.7414808E-06  0.3081506E+04  0.7818609E-02  0.8220832E-01
       -2   -1    0    0    0  501  0.00000000000E+00  0.00000000000E+00  0.20643389359E+04  0.20643389359E+04  0.25500000920E-02 0.  1.
        2   -1    0    0  501    0  0.00000000000E+00  0.00000000000E+00 -0.11499658311E+04  0.11499658311E+04  0.25500000920E-02 0. -1.
    10030    2    1    2    0    0  0.00000000000E+00  0.00000000000E+00  0.91437310478E+03  0.32143047670E+04  0.30815056320E+04 0.  0.
        2    1    3    3  502    0 -0.49097814188E+03  0.79090493316E+01  0.19805336257E+04  0.20404988438E+04  0.25500000920E-02 0.  1.
       -2    1    3    3    0  502  0.49097814188E+03 -0.79090493316E+01 -0.10661605209E+04  0.11738059232E+04  0.25500000920E-02 0. -1.
</event>
<event>
 5   0  0.2624011E-06  0.3078491E+04  0.7818609E-02  0.8221666E-01
       -1   -1    0    0    0  501  0.00000000000E+00  0.00000000000E+00  0.10362792072E+04  0.10362792072E+04  0.50400001928E-02 0.  1.
        1   -1    0    0  501    0  0.00000000000E+00  0.00000000000E+00 -0.22863303924E+04  0.22863303924E+04  0.50400001928E-02 0. -1.
    10030    2    1    2    0    0  0.00000000000E+00  0.00000000000E+00 -0.12500511852E+04  0.33226095996E+04  0.30784909592E+04 0.  0.
        1    1    3    3  502    0 -0.79859167848E+03 -0.88652282250E+03 -0.16745592567E+04  0.20561663571E+04  0.50400001928E-02 0. -1.
       -1    1    3    3    0  502  0.79859167848E+03  0.88652282250E+03  0.42450807150E+03  0.12664432425E+04  0.50400001928E-02 0.  1.
</event>
<event>
 5   0  0.2393250E-06  0.3088818E+04  0.7818609E-02  0.8218813E-01
        3   -1    0    0  501    0  0.00000000000E+00  0.00000000000E+00  0.25891235395E+04  0.25891235415E+04  0.10100000352E+00 0.  1.
       -3   -1    0    0    0  501  0.00000000000E+00  0.00000000000E+00 -0.92123831981E+03  0.92123832535E+03  0.10100000352E+00 0. -1.
    10030    2    1    2    0    0  0.00000000000E+00  0.00000000000E+00  0.16678852197E+04  0.35103618668E+04  0.30888184359E+04 0.  0.
        3    1    3    3  502    0 -0.27696151181E+03  0.47214141770E+03  0.24751836738E+04  0.25349870663E+04  0.10100000352E+00 0.  1.
       -3    1    3    3    0  502  0.27696151181E+03 -0.47214141770E+03 -0.80729845406E+03  0.97537480051E+03  0.10100000352E+00 0. -1.
</event>
<event>
 5   0  0.7094341E-06  0.3089090E+04  0.7818609E-02  0.8218738E-01
       -2   -1    0    0    0  501  0.00000000000E+00  0.00000000000E+00  0.14907281760E+04  0.14907281760E+04  0.25500000920E-02 0. -1.
        2   -1    0    0  501    0  0.00000000000E+00  0.00000000000E+00 -0.16003050700E+04  0.16003050700E+04  0.25500000920E-02 0.  1.
    10030    2    1    2    0    0  0.00000000000E+00  0.00000000000E+00 -0.10957689400E+03  0.30910332460E+04  0.30890903891E+04 0.  0.
        3    1    3    3  502    0 -0.49358535179E+03  0.79450386747E+03  0.11751131367E+04  0.15019167052E+04  0.10100000352E+00 0. -1.
       -3    1    3    3    0  502  0.49358535179E+03 -0.79450386747E+03 -0.12846900307E+04  0.15891165408E+04  0.10100000352E+00 0.  1.
</event>
<event>
 5   0  0.2598987E-06  0.3114605E+04  0.7818609E-02  0.8211741E-01
        1   -1    0    0  501    0  0.00000000000E+00  0.00000000000E+00  0.19883960538E+04  0.19883960538E+04  0.50400001928E-02 0.  1.
       -1   -1    0    0    0  501  0.00000000000E+00  0.00000000000E+00 -0.12196718254E+04  0.12196718254E+04  0.50400001928E-02 0. -1.
    10030    2    1    2    0    0  0.00000000000E+00  0.00000000000E+00  0.76872422835E+03  0.32080678792E+04  0.31146047226E+04 0.  0.
        2    1    3    3  502    0 -0.68836134951E+03 -0.10451522848E+04 -0.57027586759E+03  0.13752815025E+04  0.25500000920E-02 0. -1.
       -2    1    3    3    0  502  0.68836134951E+03  0.10451522848E+04  0.13390000959E+04  0.18327863767E+04  0.25500000920E-02 0.  1.
</event>
<event>
 5   0  0.2517725E-06  0.3139662E+04  0.7818609E-02  0.8204937E-01
       -1   -1    0    0    0  501  0.00000000000E+00  0.00000000000E+00  0.11518800872E+04  0.11518800872E+04  0.50400001928E-02 0.  1.
        1   -1    0    0  501    0  0.00000000000E+00  0.00000000000E+00 -0.21394319772E+04  0.21394319773E+04  0.50400001928E-02 0. -1.
    10030    2    1    2    0    0  0.00000000000E+00  0.00000000000E+00 -0.98755189008E+03  0.32913120644E+04  0.31396618241E+04 0.  0.
        3    1    3    3  502    0  0.51091169766E+03 -0.11241143224E+04  0.52243069833E+03  0.13407451724E+04  0.10100000352E+00 0. -1.
       -3    1    3    3    0  502 -0.51091169766E+03  0.11241143224E+04 -0.15099825884E+04  0.19505668920E+04  0.10100000352E+00 0.  1.
</event>
<event>
 5   0  0.2674441E-06  0.2059146E+04  0.7818609E-02  0.8579456E-01
        1   -1    0    0  501    0  0.00000000000E+00  0.00000000000E+00  0.15794249051E+04  0.15794249051E+04  0.50400001928E-02 0. -1.
       -1   -1    0    0    0  501  0.00000000000E+00  0.00000000000E+00 -0.67114352257E+03  0.67114352259E+03  0.50400001928E-02 0.  1.
    10030    2    1    2    0    0  0.00000000000E+00  0.00000000000E+00  0.90828138249E+03  0.22505684277E+04  0.20591462255E+04 0.  0.
        5    1    3    3  502    0 -0.72916873305E+03  0.11818994862E+03  0.12379878094E+04  0.14416281807E+04  0.46999998093E+01 0. -1.
       -5    1    3    3    0  502  0.72916873305E+03 -0.11818994862E+03 -0.32970642689E+03  0.80894024696E+03  0.46999998093E+01 0.  1.
</event>
<event>
 5   0  0.2598987E-06  0.3156391E+04  0.7818609E-02  0.8200430E-01
       -1   -1    0    0    0  501  0.00000000000E+00  0.00000000000E+00  0.99581998170E+03  0.99581998171E+03  0.50400001928E-02 0. -1.
        1   -1    0    0  501    0  0.00000000000E+00  0.00000000000E+00 -0.25011558968E+04  0.25011558968E+04  0.50400001928E-02 0.  1.
    10030    2    1    2    0    0  0.00000000000E+00  0.00000000000E+00 -0.15053359151E+04  0.34969758785E+04  0.31563909894E+04 0.  0.
        2    1    3    3  502    0 -0.93268792455E+03 -0.10383203861E+04 -0.15688288158E+04  0.20998190022E+04  0.25500000920E-02 0. -1.
       -2    1    3    3    0  502  0.93268792455E+03  0.10383203861E+04  0.63492900649E+02  0.13971568764E+04  0.25500000920E-02 0.  1.
</event>
<event>
 5   0  0.7363513E-06  0.1934349E+04  0.7818609E-02  0.8637945E-01
        2   -1    0    0  501    0  0.00000000000E+00  0.00000000000E+00  0.13965586071E+04  0.13965586071E+04  0.25500000920E-02 0. -1.
       -2   -1    0    0    0  501  0.00000000000E+00  0.00000000000E+00 -0.66980856832E+03  0.66980856833E+03  0.25500000920E-02 0.  1.
    10030    2    1    2    0    0  0.00000000000E+00  0.00000000000E+00  0.72675003876E+03  0.20663671754E+04  0.19343494216E+04 0.  0.
        4    1    3    3  502    0 -0.32905679567E+03 -0.30310760092E+03 -0.55262776069E+03  0.71102155192E+03  0.12699999809E+01 0.  1.
       -4    1    3    3    0  502  0.32905679567E+03  0.30310760092E+03  0.12793777994E+04  0.13553456235E+04  0.12699999809E+01 0. -1.
</event>
<event>
 5   0  0.2612331E-06  0.3094116E+04  0.7818609E-02  0.8217354E-01
        1   -1    0    0  501    0  0.00000000000E+00  0.00000000000E+00  0.13032171786E+04  0.13032171786E+04  0.50400001928E-02 0.  1.
       -1   -1    0    0    0  501  0.00000000000E+00  0.00000000000E+00 -0.18365235009E+04  0.18365235009E+04  0.50400001928E-02 0. -1.
    10030    2    1    2    0    0  0.00000000000E+00  0.00000000000E+00 -0.53330632231E+03  0.31397406796E+04  0.30941163361E+04 0.  0.
        4    1    3    3  502    0 -0.63873594699E+03  0.58251278872E+01 -0.16964615772E+04  0.18127330300E+04  0.12699999809E+01 0. -1.
       -4    1    3    3    0  502  0.63873594699E+03 -0.58251278872E+01  0.11631552549E+04  0.13270076496E+04  0.12699999809E+01 0.  1.
</event>
<event>
 5   0  0.2517725E-06  0.2633106E+04  0.7818609E-02  0.8357042E-01
        1   -1    0    0  501    0  0.00000000000E+00  0.00000000000E+00  0.27241107641E+04  0.27241107641E+04  0.50400001928E-02 0. -1.
       -1   -1    0    0    0  501  0.00000000000E+00  0.00000000000E+00 -0.63628528340E+03  0.63628528342E+03  0.50400001928E-02 0.  1.
    10030    2    1    2    0    0  0.00000000000E+00  0.00000000000E+00  0.20878254807E+04  0.33603960475E+04  0.26331058388E+04 0.  0.
        3    1    3    3  502    0 -0.13971786438E+03  0.51481065220E+03 -0.49219064372E+03  0.72581177258E+03  0.10100000352E+00 0.  1.
       -3    1    3    3    0  502  0.13971786438E+03 -0.51481065220E+03  0.25800161245E+04  0.26345842750E+04  0.10100000352E+00 0. -1.
</event>
<event>
 5   0  0.2393250E-06  0.1971587E+04  0.7818609E-02  0.8620021E-01
        4   -1    0    0  501    0  0.00000000000E+00  0.00000000000E+00  0.17286892495E+04  0.17286897160E+04  0.12699999809E+01 0.  1.
       -4   -1    0    0    0  501  0.00000000000E+00  0.00000000000E+00 -0.56215257401E+03  0.56215400859E+03  0.12699999809E+01 0. -1.
    10030    2    1    2    0    0  0.00000000000E+00  0.00000000000E+00  0.11665366755E+04  0.22908437246E+04  0.19715874709E+04 0.  0.
        3    1    3    3  502    0  0.88487281545E+03 -0.35980470694E+03  0.86628787241E+03  0.12895402339E+04  0.10100000352E+00 0.  1.
       -3    1    3    3    0  502 -0.88487281545E+03  0.35980470694E+03  0.30024880311E+03  0.10013034908E+04  0.10100000352E+00 0. -1.
</event>
<event>
 5   0  0.7071012E-06  0.3245238E+04  0.7818609E-02  0.8176971E-01
       -2   -1    0    0    0  501  0.00000000000E+00  0.00000000000E+00  0.14717436387E+04  0.14717436387E+04  0.25500000920E-02 0. -1.
        2   -1    0    0  501    0  0.00000000000E+00  0.00000000000E+00 -0.17889615055E+04  0.17889615055E+04  0.25500000920E-02 0.  1.
    10030    2    1    2    0    0  0.00000000000E+00  0.00000000000E+00 -0.31721786685E+03  0.32607051442E+04  0.32452381826E+04 0.  0.
        1    1    3    3  502    0 -0.78446700468E+03 -0.13435673876E+04  0.30438101328E+03  0.15853105714E+04  0.50400001928E-02 0. -1.
       -1    1    3    3    0  502  0.78446700468E+03  0.13435673876E+04 -0.62159888012E+03  0.16753945727E+04  0.50400001928E-02 0.  1.
</event>
<event>
 5   0  0.7094341E-06  0.3069472E+04  0.7818609E-02  0.8224166E-01
        2   -1    0    0  501    0  0.00000000000E+00  0.00000000000E+00  0.20102814203E+04  0.20102814203E+04  0.25500000920E-02 0.  1.
       -2   -1    0    0    0  501  0.00000000000E+00  0.00000000000E+00 -0.11716842069E+04  0.11716842069E+04  0.25500000920E-02 0. -1.
    10030    2    1    2    0    0  0.00000000000E+00  0.00000000000E+00  0.83859721341E+03  0.31819656273E+04  0.30694722619E+04 0.  0.
        3    1    3    3  502    0 -0.60121376421E+03 -0.65596536270E+03  0.17155935522E+04  0.19326173429E+04  0.10100000352E+00 0.  1.
       -3    1    3    3    0  502  0.60121376421E+03  0.65596536270E+03 -0.87699633879E+03  0.12493482844E+04  0.10100000352E+00 0. -1.
</event>
<event>
 5   0  0.7094341E-06  0.3061643E+04  0.7818609E-02  0.8226344E-01
        2   -1    0    0  501    0  0.00000000000E+00  0.00000000000E+00  0.16996674700E+04  0.16996674700E+04  0.25500000920E-02 0. -1.
       -2   -1    0    0    0  501  0.00000000000E+00  0.00000000000E+00 -0.13787488882E+04  0.13787488882E+04  0.25500000920E-02 0.  1.
    10030    2    1    2    0    0  0.00000000000E+00  0.00000000000E+00  0.32091858181E+03  0.30784163582E+04  0.30616431109E+04 0.  0.
        3    1    3    3  502    0 -0.48739181435E+03  0.26751870951E+03 -0.12736426885E+04  0.13897059936E+04  0.10100000352E+00 0.  1.
       -3    1    3    3    0  502  0.48739181435E+03 -0.26751870951E+03  0.15945612703E+04  0.16887103646E+04  0.10100000352E+00 0. -1.
</event>
<event>
 5   0  0.2612331E-06  0.3183863E+04  0.7818609E-02  0.8193092E-01
        1   -1    0    0  501    0  0.00000000000E+00  0.00000000000E+00  0.23464017240E+04  0.23464017240E+04  0.50400001928E-02 0. -1.
       -1   -1    0    0    0  501  0.00000000000E+00  0.00000000000E+00 -0.10800563102E+04  0.10800563102E+04  0.50400001928E-02 0.  1.
    10030    2    1    2    0    0  0.00000000000E+00  0.00000000000E+00  0.12663454138E+04  0.34264580342E+04  0.31838630550E+04 0.  0.
        4    1    3    3  502    0  0.10461942039E+03 -0.14521236885E+04 -0.59813375017E+02  0.14571162213E+04  0.12699999809E+01 0.  1.
       -4    1    3    3    0  502 -0.10461942039E+03  0.14521236885E+04  0.13261587888E+04  0.19693418128E+04  0.12699999809E+01 0. -1.
</event>
<event>
 5   0  0.7071012E-06  0.3058018E+04  0.7818609E-02  0.8227355E-01
       -2   -1    0    0    0  501  0.00000000000E+00  0.00000000000E+00  0.14871870726E+04  0.14871870726E+04  0.25500000920E-02 0.  1.
        2   -1    0    0  501    0  0.00000000000E+00  0.00000000000E+00 -0.15720067030E+04  0.15720067030E+04  0.25500000920E-02 0. -1.
    10030    2    1    2    0    0  0.00000000000E+00  0.00000000000E+00 -0.84819630427E+02  0.30591937757E+04  0.30580176892E+04 0.  0.
        1    1    3    3  502    0  0.72469946414E+03  0.86749157287E+03 -0.10724353974E+04  0.15581555198E+04  0.50400001928E-02 0. -1.
       -1    1    3    3    0  502 -0.72469946414E+03 -0.86749157287E+03  0.98761576696E+03  0.15010382558E+04  0.50400001928E-02 0.  1.
</event>
<event>
 5   0  0.2598987E-06  0.3121958E+04  0.7818609E-02  0.8209738E-01
        1   -1    0    0  501    0  0.00000000000E+00  0.00000000000E+00  0.20211216280E+04  0.20211216280E+04  0.50400001928E-02 0.  1.
       -1   -1    0    0    0  501  0.00000000000E+00  0.00000000000E+00 -0.12055953581E+04  0.12055953581E+04  0.50400001928E-02 0. -1.
    10030    2    1    2    0    0  0.00000000000E+00  0.00000000000E+00  0.81552626984E+03  0.32267169861E+04  0.31219576249E+04 0.  0.
        2    1    3    3  502    0  0.12577599690E+04 -0.80255771996E+03  0.88206927218E+03  0.17332354815E+04  0.25500000920E-02 0.  1.
       -2    1    3    3    0  502 -0.12577599690E+04  0.80255771996E+03 -0.66543002343E+02  0.14934815046E+04  0.25500000920E-02 0. -1.
</event>
<event>
 5   0  0.2624011E-06  0.2685011E+04  0.7818609E-02  0.8339885E-01
        1   -1    0    0  501    0  0.00000000000E+00  0.00000000000E+00  0.11584074561E+04  0.11584074561E+04  0.50400001928E-02 0. -1.
       -1   -1    0    0    0  501  0.00000000000E+00  0.00000000000E+00 -0.15558611081E+04  0.15558611081E+04  0.50400001928E-02 0.  1.
    10030    2    1    2    0    0  0.00000000000E+00  0.00000000000E+00 -0.39745365204E+03  0.27142685642E+04  0.26850110676E+04 0.  0.
        1    1    3    3  502    0 -0.11326735936E+04  0.71135217419E+03 -0.31552683141E+03  0.13742374491E+04  0.50400001928E-02 0. -1.
       -1    1    3    3    0  502  0.11326735936E+04 -0.71135217419E+03 -0.81926820635E+02  0.13400311150E+04  0.50400001928E-02 0.  1.
</event>
<event>
 5   0  0.2674441E-06  0.2786927E+04  0.7818609E-02  0.8307338E-01
       -1   -1    0    0    0  501  0.00000000000E+00  0.00000000000E+00  0.85495500022E+03  0.85495500023E+03  0.50400001928E-02 0.  1.
        1   -1    0    0  501    0  0.00000000000E+00  0.00000000000E+00 -0.22711611804E+04  0.22711611805E+04  0.50400001928E-02 0. -1.
    10030    2    1    2    0    0  0.00000000000E+00  0.00000000000E+00 -0.14162061802E+04  0.31261161807E+04  0.27869270586E+04 0.  0.
        5    1    3    3  502    0 -0.85001191300E+03 -0.33638242712E+03  0.47158157955E+03  0.10286324250E+04  0.46999998093E+01 0.  1.
       -5    1    3    3    0  502  0.85001191300E+03  0.33638242712E+03 -0.18877877598E+04  0.20974837557E+04  0.46999998093E+01 0. -1.
</event>
<event>
 5   0  0.7414808E-06  0.3079741E+04  0.7818609E-02  0.8221320E-01
        2   -1    0    0  501    0  0.00000000000E+00  0.00000000000E+00  0.24974765925E+04  0.24974765925E+04  0.25500000920E-02 0.  1.
       -2   -1    0    0    0  501  0.00000000000E+00  0.00000000000E+00 -0.94943891611E+03  0.94943891612E+03  0.25500000920E-02 0. -1.
    10030    2    1    2    0    0  0.00000000000E+00  0.00000000000E+00  0.15480376764E+04  0.34469155086E+04  0.30797412028E+04 0.  0.
        2    1    3    3  502    0  0.63211476413E+03 -0.12871240582E+04  0.14591257996E+03  0.14413701458E+04  0.25500000920E-02 0. -1.
       -2    1    3    3    0  502 -0.63211476413E+03  0.12871240582E+04  0.14021250964E+04  0.20055453628E+04  0.25500000920E-02 0.  1.
</event>
<event>
 5   0  0.7071012E-06  0.1923390E+04  0.7818609E-02  0.8643301E-01
        2   -1    0    0  501    0  0.00000000000E+00  0.00000000000E+00  0.13267257972E+04  0.13267257972E+04  0.25500000920E-02 0. -1.
       -2   -1    0    0    0  501  0.00000000000E+00  0.00000000000E+00 -0.69709723076E+03  0.69709723076E+03  0.25500000920E-02 0.  1.
    10030    2    1    2    0    0  0.00000000000E+00  0.00000000000E+00  0.62962856640E+03  0.20238230279E+04  0.19233895905E+04 0.  0.
        1    1    3    3  502    0 -0.25796205927E+03  0.92600584156E+03  0.34504856956E+03  0.10213176577E+04  0.50400001928E-02 0.  1.
       -1    1    3    3    0  502  0.25796205927E+03 -0.92600584156E+03  0.28457999684E+03  0.10025053702E+04  0.50400001928E-02 0. -1.
</event>
<event>
 5   0  0.7094341E-06  0.3102915E+04  0.7818609E-02  0.8214938E-01
        2   -1    0    0  501    0  0.00000000000E+00  0.00000000000E+00  0.16864563705E+04  0.16864563705E+04  0.25500000920E-02 0.  1.
       -2   -1    0    0    0  501  0.00000000000E+00  0.00000000000E+00 -0.14272647641E+04  0.14272647641E+04  0.25500000920E-02 0. -1.
    10030    2    1    2    0    0  0.00000000000E+00  0.00000000000E+00  0.25919160636E+03  0.31137211346E+04  0.31029146000E+04 0.  0.
        3    1    3    3  502    0  0.21443199420E+03 -0.65599683860E+02 -0.14109169542E+04  0.14286255845E+04  0.10100000352E+00 0. -1.
       -3    1    3    3    0  502 -0.21443199420E+03  0.65599683860E+02  0.16701085606E+04  0.16850955501E+04  0.10100000352E+00 0.  1.
</event>
<event>
 5   0  0.2393250E-06  0.2863054E+04  0.7818609E-02  0.8283956E-01
       -3   -1    0    0    0  501  0.00000000000E+00  0.00000000000E+00  0.15208922948E+04  0.15208922982E+04  0.10100000352E+00 0.  1.
        3   -1    0    0  501    0  0.00000000000E+00  0.00000000000E+00 -0.13474124854E+04  0.13474124892E+04  0.10100000352E+00 0. -1.
    10030    2    1    2    0    0  0.00000000000E+00  0.00000000000E+00  0.17347980940E+03  0.28683047874E+04  0.28630538083E+04 0.  0.
        4    1    3    3  502    0  0.30490194142E+02 -0.91279305253E+03  0.11910986414E+04  0.15009458335E+04  0.12699999809E+01 0.  1.
       -4    1    3    3    0  502 -0.30490194142E+02  0.91279305253E+03 -0.10176188320E+04  0.13673589539E+04  0.12699999809E+01 0. -1.
</event>
<event>
 5   0  0.2393250E-06  0.3038465E+04  0.7818609E-02  0.8232832E-01
       -4   -1    0    0    0  501  0.00000000000E+00  0.00000000000E+00  0.19498047824E+04  0.19498051961E+04  0.12699999809E+01 0.  1.
        4   -1    0    0  501    0  0.00000000000E+00  0.00000000000E+00 -0.11837418410E+04  0.11837425223E+04  0.12699999809E+01 0. -1.
    10030    2    1    2    0    0  0.00000000000E+00  0.00000000000E+00  0.76606294144E+03  0.31335477183E+04  0.30384648875E+04 0.  0.
        4    1    3    3  502    0 -0.56509791451E+03  0.51989936539E+03  0.17349440065E+04  0.18972778715E+04  0.12699999809E+01 0.  1.
       -4    1    3    3    0  502  0.56509791451E+03 -0.51989936539E+03 -0.96888106504E+03  0.12362698468E+04  0.12699999809E+01 0. -1.
</event>
<event>
 5   0  0.7363513E-06  0.2489927E+04  0.7818609E-02  0.8406583E-01
       -2   -1    0    0    0  501  0.00000000000E+00  0.00000000000E+00  0.10845796883E+04  0.10845796883E+04  0.25500000920E-02 0. -1.
        2   -1    0    0  501    0  0.00000000000E+00  0.00000000000E+00 -0.14290639323E+04  0.14290639323E+04  0.25500000920E-02 0.  1.
    10030    2    1    2    0    0  0.00000000000E+00  0.00000000000E+00 -0.34448424397E+03  0.25136436206E+04  0.24899266770E+04 0.  0.
        4    1    3    3  502    0 -0.66733858981E+03  0.88705007672E+03 -0.74128976447E+03  0.13348073868E+04  0.12699999809E+01 0. -1.
       -4    1    3    3    0  502  0.66733858981E+03 -0.88705007672E+03  0.39680552050E+03  0.11788362338E+04  0.12699999809E+01 0.  1.
</event>
<event>
 5   0  0.7071012E-06  0.3114818E+04  0.7818609E-02  0.8211683E-01
        2   -1    0    0  501    0  0.00000000000E+00  0.00000000000E+00  0.15178041924E+04  0.15178041924E+04  0.25500000920E-02 0.  1.
       -2   -1    0    0    0  501  0.00000000000E+00  0.00000000000E+00 -0.15980474597E+04  0.15980474597E+04  0.25500000920E-02 0. -1.
    10030    2    1    2    0    0  0.00000000000E+00  0.00000000000E+00 -0.80243267328E+02  0.31158516521E+04  0.31148182187E+04 0.  0.
        1    1    3    3  502    0 -0.14563724172E+04 -0.25212004056E+03 -0.53113884796E+03  0.15705711089E+04  0.50400001928E-02 0. -1.
       -1    1    3    3    0  502  0.14563724172E+04  0.25212004056E+03  0.45089558063E+03  0.15452805431E+04  0.50400001928E-02 0.  1.
</event>
<event>
 5   0  0.2624011E-06  0.3091195E+04  0.7818609E-02  0.8218158E-01
        1   -1    0    0  501    0  0.00000000000E+00  0.00000000000E+00  0.33493661172E+04  0.33493661172E+04  0.50400001928E-02 0. -1.
       -1   -1    0    0    0  501  0.00000000000E+00  0.00000000000E+00 -0.71323113285E+03  0.71323113287E+03  0.50400001928E-02 0.  1.
    10030    2    1    2    0    0  0.00000000000E+00  0.00000000000E+00  0.26361349843E+04  0.40625972500E+04  0.30911953611E+04 0.  0.
        1    1    3    3  502    0 -0.13130483931E+04  0.11686910624E+02  0.24662121789E+03  0.13360593892E+04  0.50400001928E-02 0.  1.
       -1    1    3    3    0  502  0.13130483931E+04 -0.11686910624E+02  0.23895137664E+04  0.27265378608E+04  0.50400001928E-02 0. -1.
</event>
<event>
 5   0  0.2674441E-06  0.3115598E+04  0.7818609E-02  0.8211470E-01
        1   -1    0    0  501    0  0.00000000000E+00  0.00000000000E+00  0.25595901077E+04  0.25595901077E+04  0.50400001928E-02 0.  1.
       -1   -1    0    0    0  501  0.00000000000E+00  0.00000000000E+00 -0.94809642622E+03  0.94809642624E+03  0.50400001928E-02 0. -1.
    10030    2    1    2    0    0  0.00000000000E+00  0.00000000000E+00  0.16114936815E+04  0.35076865339E+04  0.31155983270E+04 0.  0.
        5    1    3    3  502    0  0.70088414488E+03  0.12595301282E+04  0.14058054347E+03  0.14482540204E+04  0.46999998093E+01 0. -1.
       -5    1    3    3    0  502 -0.70088414488E+03 -0.12595301282E+04  0.14709131380E+04  0.20594325136E+04  0.46999998093E+01 0.  1.
</event>
<event>
 5   0  0.7079223E-06  0.3033189E+04  0.7818609E-02  0.8234317E-01
       -2   -1    0    0    0  501  0.00000000000E+00  0.00000000000E+00  0.23087788593E+04  0.23087788593E+04  0.25500000920E-02 0. -1.
        2   -1    0    0  501    0  0.00000000000E+00  0.00000000000E+00 -0.99622287480E+03  0.99622287480E+03  0.25500000920E-02 0.  1.
    10030    2    1    2    0    0  0.00000000000E+00  0.00000000000E+00  0.13125559845E+04  0.33050017341E+04  0.30331886275E+04 0.  0.
        5    1    3    3  502    0 -0.35493428756E+03  0.40171977551E+03  0.22021001945E+04  0.22664122492E+04  0.46999998093E+01 0. -1.
       -5    1    3    3    0  502  0.35493428756E+03 -0.40171977551E+03 -0.88954421005E+03  0.10385894849E+04  0.46999998093E+01 0.  1.
</event>
<event>
 5   0  0.7079223E-06  0.2115402E+04  0.7818609E-02  0.8554489E-01
        2   -1    0    0  501    0  0.00000000000E+00  0.00000000000E+00  0.20223022451E+04  0.20223022451E+04  0.25500000920E-02 0. -1.
       -2   -1    0    0    0  501  0.00000000000E+00  0.00000000000E+00 -0.55319690228E+03  0.55319690228E+03  0.25500000920E-02 0.  1.
    10030    2    1    2    0    0  0.00000000000E+00  0.00000000000E+00  0.14691053428E+04  0.25754991474E+04  0.21154019358E+04 0.  0.
        5    1    3    3  502    0  0.79447671055E+03 -0.45081511409E+03  0.85405763090E+02  0.91746593673E+03  0.46999998093E+01 0. -1.
       -5    1    3    3    0  502 -0.79447671055E+03  0.45081511409E+03  0.13836995797E+04  0.16580332106E+04  0.46999998093E+01 0.  1.
</event>
<event>
 5   0  0.7079223E-06  0.3014125E+04  0.7818609E-02  0.8239709E-01
        2   -1    0    0  501    0  0.00000000000E+00  0.00000000000E+00  0.11712178302E+04  0.11712178302E+04  0.25500000920E-02 0.  1.
       -2   -1    0    0    0  501  0.00000000000E+00  0.00000000000E+00 -0.19392103978E+04  0.19392103978E+04  0.25500000920E-02 0. -1.
    10030    2    1    2    0    0  0.00000000000E+00  0.00000000000E+00 -0.76799256758E+03  0.31104282279E+04  0.30141252756E+04 0.  0.
        5    1    3    3  502    0  0.31738944469E+03 -0.96438397743E+03  0.76534054992E+03  0.12714325632E+04  0.46999998093E+01 0.  1.
       -5    1    3    3    0  502 -0.31738944469E+03  0.96438397743E+03 -0.15333331175E+04  0.18389956647E+04  0.46999998093E+01 0. -1.
</event>
<event>
 5   0  0.7363513E-06  0.2519064E+04  0.7818609E-02  0.8396225E-01
       -2   -1    0    0    0  501  0.00000000000E+00  0.00000000000E+00  0.10146189260E+04  0.10146189260E+04  0.25500000920E-02 0.  1.
        2   -1    0    0  501    0  0.00000000000E+00  0.00000000000E+00 -0.15635631863E+04  0.15635631863E+04  0.25500000920E-02 0. -1.
    10030    2    1    2    0    0  0.00000000000E+00  0.00000000000E+00 -0.54894426032E+03  0.25781821123E+04  0.25190639537E+04 0.  0.
        4    1    3    3  502    0 -0.92260358462E+03  0.84726308919E+03 -0.13959519473E+03  0.12603731781E+04  0.12699999809E+01 0.  1.
       -4    1    3    3    0  502  0.92260358462E+03 -0.84726308919E+03 -0.40934906559E+03  0.13178089342E+04  0.12699999809E+01 0. -1.
</event>
<event>
 5   0  0.7363513E-06  0.2978000E+04  0.7818609E-02  0.8250041E-01
        2   -1    0    0  501    0  0.00000000000E+00  0.00000000000E+00  0.24339009053E+04  0.24339009053E+04  0.25500000920E-02 0. -1.
       -2   -1    0    0    0  501  0.00000000000E+00  0.00000000000E+00 -0.91093339361E+03  0.91093339361E+03  0.25500000920E-02 0.  1.
    10030    2    1    2    0    0  0.00000000000E+00  0.00000000000E+00  0.15229675117E+04  0.33448342989E+04  0.29780004106E+04 0.  0.
        4    1    3    3  502    0  0.11112193542E+04 -0.83469222110E+03  0.13617297795E+04  0.19457207308E+04  0.12699999809E+01 0. -1.
       -4    1    3    3    0  502 -0.11112193542E+04  0.83469222110E+03  0.16123773223E+03  0.13991135681E+04  0.12699999809E+01 0.  1.
</event>
<event>
 5   0  0.2674441E-06  0.2900290E+04  0.7818609E-02  0.8272791E-01
       -1   -1    0    0    0  501  0.00000000000E+00  0.00000000000E+00  0.93018209047E+03  0.93018209049E+03  0.50400001928E-02 0. -1.
        1   -1    0    0  501    0  0.00000000000E+00  0.00000000000E+00 -0.22607622754E+04  0.22607622754E+04  0.50400001928E-02 0.  1.
    10030    2    1    2    0    0  0.00000000000E+00  0.00000000000E+00 -0.13305801849E+04  0.31909443659E+04  0.29002900403E+04 0.  0.
        5    1    3    3  502    0  0.89560421078E+03 -0.19682333162E+03  0.57070416762E+03  0.10800794708E+04  0.46999998093E+01 0. -1.
       -5    1    3    3    0  502 -0.89560421078E+03  0.19682333162E+03 -0.19012843525E+04  0.21108648951E+04  0.46999998093E+01 0.  1.
</event>
<event>
 5   0  0.7094341E-06  0.2693429E+04  0.7818609E-02  0.8337140E-01
        2   -1    0    0  501    0  0.00000000000E+00  0.00000000000E+00  0.10709697902E+04  0.10709697902E+04  0.25500000920E-02 0.  1.
       -2   -1    0    0    0  501  0.00000000000E+00  0.00000000000E+00 -0.16934554610E+04  0.16934554610E+04  0.25500000920E-02 0. -1.
    10030    2    1    2    0    0  0.00000000000E+00  0.00000000000E+00 -0.62248567079E+03  0.27644252512E+04  0.26934287737E+04 0.  0.
        3    1    3    3  502    0 -0.81917698626E+03 -0.71234855632E+03 -0.11292119427E+04  0.15664006583E+04  0.10100000352E+00 0. -1.
       -3    1    3    3    0  502  0.81917698626E+03  0.71234855632E+03  0.50672627188E+03  0.11980245930E+04  0.10100000352E+00 0.  1.
</event>
<event>
 5   0  0.7414808E-06  0.2993511E+04  0.7818609E-02  0.8245586E-01
        2   -1    0    0  501    0  0.00000000000E+00  0.00000000000E+00  0.18518766263E+04  0.18518766263E+04  0.25500000920E-02 0. -1.
       -2   -1    0    0    0  501  0.00000000000E+00  0.00000000000E+00 -0.12097335845E+04  0.12097335846E+04  0.25500000920E-02 0.  1.
    10030    2    1    2    0    0  0.00000000000E+00  0.00000000000E+00  0.64214304176E+03  0.30616102109E+04  0.29935112155E+04 0.  0.
        2    1    3    3  502    0  0.12824967196E+04 -0.58913024907E+03  0.83081212576E+03  0.16377182524E+04  0.25500000920E-02 0. -1.
       -2    1    3    3    0  502 -0.12824967196E+04  0.58913024907E+03 -0.18866908400E+03  0.14238919584E+04  0.25500000920E-02 0.  1.
</event>
<event>
 5   0  0.2517725E-06  0.3079591E+04  0.7818609E-02  0.8221361E-01
       -1   -1    0    0    0  501  0.00000000000E+00  0.00000000000E+00  0.14778303842E+04  0.14778303842E+04  0.50400001928E-02 0. -1.
        1   -1    0    0  501    0  0.00000000000E+00  0.00000000000E+00 -0.16043585198E+04  0.16043585198E+04  0.50400001928E-02 0.  1.
    10030    2    1    2    0    0  0.00000000000E+00  0.00000000000E+00 -0.12652813568E+03  0.30821889040E+04  0.30795907311E+04 0.  0.
        3    1    3    3  502    0  0.10985482548E+04 -0.10693700406E+04 -0.20694425168E+03  0.15469927231E+04  0.10100000352E+00 0.  1.
       -3    1    3    3    0  502 -0.10985482548E+04  0.10693700406E+04  0.80416115995E+02  0.15351961809E+04  0.10100000352E+00 0. -1.
</event>
<event>
 5   0  0.7079223E-06  0.3059080E+04  0.7818609E-02  0.8227058E-01
        2   -1    0    0  501    0  0.00000000000E+00  0.00000000000E+00  0.15296078657E+04  0.15296078657E+04  0.25500000920E-02 0.  1.
       -2   -1    0    0    0  501  0.00000000000E+00  0.00000000000E+00 -0.15294726289E+04  0.15294726289E+04  0.25500000920E-02 0. -1.
    10030    2    1    2    0    0  0.00000000000E+00  0.00000000000E+00  0.13523684138E+00  0.30590804946E+04  0.30590804916E+04 0.  0.
        5    1    3    3  502    0  0.36083200918E+03  0.13754189309E+04  0.56353394380E+03  0.15295651572E+04  0.46999998093E+01 0.  1.
       -5    1    3    3    0  502 -0.36083200918E+03 -0.13754189309E+04 -0.56339870696E+03  0.15295153374E+04  0.46999998093E+01 0. -1.
</event>
<event>
 5   0  0.7414808E-06  0.3082441E+04  0.7818609E-02  0.8220573E-01
        2   -1    0    0  501    0  0.00000000000E+00  0.00000000000E+00  0.22655855837E+04  0.22655855837E+04  0.25500000920E-02 0. -1.
       -2   -1    0    0    0  501  0.00000000000E+00  0.00000000000E+00 -0.10484532512E+04  0.10484532512E+04  0.25500000920E-02 0.  1.
    10030    2    1    2    0    0  0.00000000000E+00  0.00000000000E+00  0.12171323325E+04  0.33140388349E+04  0.30824409621E+04 0.  0.
        2    1    3    3  502    0 -0.11686978384E+04 -0.22484944308E+02 -0.47139586433E+03  0.12603865562E+04  0.25500000920E-02 0.  1.
       -2    1    3    3    0  502  0.11686978384E+04  0.22484944308E+02  0.16885281969E+04  0.20536522787E+04  0.25500000920E-02 0. -1.
</event>
<event>
 5   0  0.2624011E-06  0.3020529E+04  0.7818609E-02  0.8237893E-01
        1   -1    0    0  501    0  0.00000000000E+00  0.00000000000E+00  0.16257472726E+04  0.16257472726E+04  0.50400001928E-02 0. -1.
       -1   -1    0    0    0  501  0.00000000000E+00  0.00000000000E+00 -0.14029850274E+04  0.14029850274E+04  0.50400001928E-02 0.  1.
    10030    2    1    2    0    0  0.00000000000E+00  0.00000000000E+00  0.22276224525E+03  0.30287323000E+04  0.30205291469E+04 0.  0.
        1    1    3    3  502    0 -0.14009848964E+04 -0.97494199147E+02  0.66843941640E+03  0.15553376008E+04  0.50400001928E-02 0. -1.
       -1    1    3    3    0  502  0.14009848964E+04  0.97494199147E+02 -0.44567717115E+03  0.14733946993E+04  0.50400001928E-02 0.  1.
</event>
<event>
 5   0  0.7079223E-06  0.2813497E+04  0.7818609E-02  0.8299090E-01
        2   -1    0    0  501    0  0.00000000000E+00  0.00000000000E+00  0.14987612873E+04  0.14987612873E+04  0.25500000920E-02 0.  1.
       -2   -1    0    0    0  501  0.00000000000E+00  0.00000000000E+00 -0.13203843456E+04  0.13203843457E+04  0.25500000920E-02 0. -1.
    10030    2    1    2    0    0  0.00000000000E+00  0.00000000000E+00  0.17837694166E+03  0.28191456330E+04  0.28134967152E+04 0.  0.
        5    1    3    3  502    0 -0.81789839406E+03  0.11180925478E+04 -0.15590460799E+03  0.13940649430E+04  0.46999998093E+01 0. -1.
       -5    1    3    3    0  502  0.81789839406E+03 -0.11180925478E+04  0.33428154965E+03  0.14250806900E+04  0.46999998093E+01 0.  1.
</event>
<event>
 5   0  0.7079223E-06  0.3128598E+04  0.7818609E-02  0.8207933E-01
        2   -1    0    0  501    0  0.00000000000E+00  0.00000000000E+00  0.21536164142E+04  0.21536164142E+04  0.25500000920E-02 0. -1.
       -2   -1    0    0    0  501  0.00000000000E+00  0.00000000000E+00 -0.11362432633E+04  0.11362432633E+04  0.25500000920E-02 0.  1.
    10030    2    1    2    0    0  0.00000000000E+00  0.00000000000E+00  0.10173731508E+04  0.32898596775E+04  0.31285984993E+04 0.  0.
        5    1    3    3  502    0 -0.87473900123E+03  0.22680519465E+03  0.18513735515E+04  0.20601492746E+04  0.46999998093E+01 0. -1.
       -5    1    3    3    0  502  0.87473900123E+03 -0.22680519465E+03 -0.83400040065E+03  0.12297104029E+04  0.46999998093E+01 0.  1.
</event>
<event>
 5   0  0.7094341E-06  0.2477908E+04  0.7818609E-02  0.8410898E-01
       -2   -1    0    0    0  501  0.00000000000E+00  0.00000000000E+00  0.14575695421E+04  0.14575695421E+04  0.25500000920E-02 0. -1.
        2   -1    0    0  501    0  0.00000000000E+00  0.00000000000E+00 -0.10531279093E+04  0.10531279093E+04  0.25500000920E-02 0.  1.
    10030    2    1    2    0    0  0.00000000000E+00  0.00000000000E+00  0.40444163278E+03  0.25106974514E+04  0.24779081215E+04 0.  0.
        3    1    3    3  502    0 -0.76040616588E+03  0.62078497848E+03 -0.56370240997E+03  0.11319681726E+04  0.10100000352E+00 0.  1.
       -3    1    3    3    0  502  0.76040616588E+03 -0.62078497848E+03  0.96814404275E+03  0.13787292788E+04  0.10100000352E+00 0. -1.
</event>
<event>
 5   0  0.2598987E-06  0.3063552E+04  0.7818609E-02  0.8225813E-01
       -1   -1    0    0    0  501  0.00000000000E+00  0.00000000000E+00  0.19745994221E+04  0.19745994221E+04  0.50400001928E-02 0. -1.
        1   -1    0    0  501    0  0.00000000000E+00  0.00000000000E+00 -0.11882599724E+04  0.11882599724E+04  0.50400001928E-02 0.  1.
    10030    2    1    2    0    0  0.00000000000E+00  0.00000000000E+00  0.78633944967E+03  0.31628593945E+04  0.30635518307E+04 0.  0.
        2    1    3    3  502    0 -0.25536437111E+03  0.33482893741E+02 -0.11657458286E+04  0.11938573630E+04  0.25500000920E-02 0.  1.
       -2    1    3    3    0  502  0.25536437111E+03 -0.33482893741E+02  0.19520852783E+04  0.19690020315E+04  0.25500000920E-02 0. -1.
</event>
<event>
 5   0  0.2674441E-06  0.2261094E+04  0.7818609E-02  0.8493421E-01
       -1   -1    0    0    0  501  0.00000000000E+00  0.00000000000E+00  0.13718361371E+04  0.13718361371E+04  0.50400001928E-02 0. -1.
        1   -1    0    0  501    0  0.00000000000E+00  0.00000000000E+00 -0.93169795332E+03  0.93169795333E+03  0.50400001928E-02 0.  1.
    10030    2    1    2    0    0  0.00000000000E+00  0.00000000000E+00  0.44013818382E+03  0.23035340905E+04  0.22610943556E+04 0.  0.
        5    1    3    3  502    0  0.10953178893E+03  0.10631888504E+04 -0.15528505418E+03  0.10800478148E+04  0.46999998093E+01 0. -1.
       -5    1    3    3    0  502 -0.10953178893E+03 -0.10631888504E+04  0.59542323800E+03  0.12234862756E+04  0.46999998093E+01 0.  1.
</event>
<event>
 5   0  0.7414808E-06  0.3110084E+04  0.7818609E-02  0.8212976E-01
        2   -1    0    0  501    0  0.00000000000E+00  0.00000000000E+00  0.23399852428E+04  0.23399852428E+04  0.25500000920E-02 0. -1.
       -2   -1    0    0    0  501  0.00000000000E+00  0.00000000000E+00 -0.10334060662E+04  0.10334060662E+04  0.25500000920E-02 0.  1.
    10030    2    1    2    0    0  0.00000000000E+00  0.00000000000E+00  0.13065791766E+04  0.33733913090E+04  0.31100835646E+04 0.  0.
        2    1    3    3  502    0 -0.58454875537E+03  0.14314456857E+04  0.47367736740E+03  0.16171283953E+04  0.25500000920E-02 0.  1.
       -2    1    3    3    0  502  0.58454875537E+03 -0.14314456857E+04  0.83290180924E+03  0.17562629138E+04  0.25500000920E-02 0. -1.
</event>
<event>
 5   0  0.7071012E-06  0.3097717E+04  0.7818609E-02  0.8216365E-01
        2   -1    0    0  501    0  0.00000000000E+00  0.00000000000E+00  0.23433795612E+04  0.23433795612E+04  0.25500000920E-02 0. -1.
       -2   -1    0    0    0  501  0.00000000000E+00  0.00000000000E+00 -0.10237194572E+04  0.10237194572E+04  0.25500000920E-02 0.  1.
    10030    2    1    2    0    0  0.00000000000E+00  0.00000000000E+00  0.13196601040E+04  0.33670990184E+04  0.30977173871E+04 0.  0.
        1    1    3    3  502    0 -0.30222730883E+03 -0.52209941279E+03 -0.89077052487E+03  0.10758258553E+04  0.50400001928E-02 0.  1.
       -1    1    3    3    0  502  0.30222730883E+03  0.52209941279E+03  0.22104306288E+04  0.22912731631E+04  0.50400001928E-02 0. -1.
</event>
<event>
 5   0  0.2598987E-06  0.3136266E+04  0.7818609E-02  0.8205855E-01
        1   -1    0    0  501    0  0.00000000000E+00  0.00000000000E+00  0.13122103961E+04  0.13122103961E+04  0.50400001928E-02 0.  1.
       -1   -1    0    0    0  501  0.00000000000E+00  0.00000000000E+00 -0.18739684015E+04  0.18739684015E+04  0.50400001928E-02 0. -1.
    10030    2    1    2    0    0  0.00000000000E+00  0.00000000000E+00 -0.56175800542E+03  0.31861787977E+04  0.31362658169E+04 0.  0.
        2    1    3    3  502    0  0.47625108509E+03  0.11624439138E+04 -0.12344057426E+04  0.17612065428E+04  0.25500000920E-02 0. -1.
       -2    1    3    3    0  502 -0.47625108509E+03 -0.11624439138E+04  0.67264773718E+03  0.14249722549E+04  0.25500000920E-02 0.  1.
</event>
<event>
 5   0  0.2517725E-06  0.2731118E+04  0.7818609E-02  0.8324978E-01
       -1   -1    0    0    0  501  0.00000000000E+00  0.00000000000E+00  0.14350411909E+04  0.14350411909E+04  0.50400001928E-02 0. -1.
        1   -1    0    0  501    0  0.00000000000E+00  0.00000000000E+00 -0.12994406166E+04  0.12994406166E+04  0.50400001928E-02 0.  1.
    10030    2    1    2    0    0  0.00000000000E+00  0.00000000000E+00  0.13560057428E+03  0.27344818075E+04  0.27311175807E+04 0.  0.
        3    1    3    3  502    0 -0.11306547096E+04  0.42511892237E+03  0.70548720217E+03  0.13988632432E+04  0.10100000352E+00 0. -1.
       -3    1    3    3    0  502  0.11306547096E+04 -0.42511892237E+03 -0.56988662789E+03  0.13356185643E+04  0.10100000352E+00 0.  1.
</event>
<event>
 5   0  0.7414808E-06  0.3327671E+04  0.7818609E-02  0.8155890E-01
        2   -1    0    0  501    0  0.00000000000E+00  0.00000000000E+00  0.19932656615E+04  0.19932656615E+04  0.25500000920E-02 0. -1.
       -2   -1    0    0    0  501  0.00000000000E+00  0.00000000000E+00 -0.13888505139E+04  0.13888505139E+04  0.25500000920E-02 0.  1.
    10030    2    1    2    0    0  0.00000000000E+00  0.00000000000E+00  0.60441514759E+03  0.33821161754E+04  0.33276706798E+04 0.  0.
        2    1    3    3  502    0  0.88026962996E+03  0.64574973490E+03 -0.97391534939E+03  0.14630032294E+04  0.25500000920E-02 0.  1.
       -2    1    3    3    0  502 -0.88026962996E+03 -0.64574973490E+03  0.15783304970E+04  0.19191129459E+04  0.25500000920E-02 0. -1.
</event>
<event>
 5   0  0.2624011E-06  0.3060440E+04  0.7818609E-02  0.8226680E-01
       -1   -1    0    0    0  501  0.00000000000E+00  0.00000000000E+00  0.94645519125E+03  0.94645519127E+03  0.50400001928E-02 0.  1.
        1   -1    0    0  501    0  0.00000000000E+00  0.00000000000E+00 -0.24740449814E+04  0.24740449814E+04  0.50400001928E-02 0. -1.
    10030    2    1    2    0    0  0.00000000000E+00  0.00000000000E+00 -0.15275897902E+04  0.34205001727E+04  0.30604396521E+04 0.  0.
        1    1    3    3  502    0 -0.89966249748E+02  0.14660152323E+04 -0.28401428408E+03  0.14959808491E+04  0.50400001928E-02 0.  1.
       -1    1    3    3    0  502  0.89966249748E+02 -0.14660152323E+04 -0.12435755061E+04  0.19245193236E+04  0.50400001928E-02 0. -1.
</event>
<event>
 5   0  0.2624011E-06  0.1973482E+04  0.7818609E-02  0.8619120E-01
       -1   -1    0    0    0  501  0.00000000000E+00  0.00000000000E+00  0.92007297641E+03  0.92007297643E+03  0.50400001928E-02 0. -1.
        1   -1    0    0  501    0  0.00000000000E+00  0.00000000000E+00 -0.10582393023E+04  0.10582393023E+04  0.50400001928E-02 0.  1.
    10030    2    1    2    0    0  0.00000000000E+00  0.00000000000E+00 -0.13816632585E+03  0.19783122787E+04  0.19734815779E+04 0.  0.
        1    1    3    3  502    0  0.87414837701E+03  0.20053118968E+03 -0.48156240902E+03  0.10179638976E+04  0.50400001928E-02 0. -1.
       -1    1    3    3    0  502 -0.87414837701E+03 -0.20053118968E+03  0.34339608317E+03  0.96034838107E+03  0.50400001928E-02 0.  1.
</event>
<event>
 5   0  0.2598987E-06  0.2044373E+04  0.7818609E-02  0.8586152E-01
        1   -1    0    0  501    0  0.00000000000E+00  0.00000000000E+00  0.10634377700E+04  0.10634377700E+04  0.50400001928E-02 0.  1.
       -1   -1    0    0    0  501  0.00000000000E+00  0.00000000000E+00 -0.98253492333E+03  0.98253492334E+03  0.50400001928E-02 0. -1.
    10030    2    1    2    0    0  0.00000000000E+00  0.00000000000E+00  0.80902846671E+02  0.20459726933E+04  0.20443725177E+04 0.  0.
        2    1    3    3  502    0 -0.45347108224E+02  0.70568994968E+03  0.77914167379E+03  0.10521959956E+04  0.25500000920E-02 0.  1.
       -2    1    3    3    0  502  0.45347108224E+02 -0.70568994968E+03 -0.69823882712E+03  0.99377669775E+03  0.25500000920E-02 0. -1.
</event>
<event>
 5   0  0.7363513E-06  0.3115169E+04  0.7818609E-02  0.8211587E-01
       -2   -1    0    0    0  501  0.00000000000E+00  0.00000000000E+00  0.97444202445E+03  0.97444202445E+03  0.25500000920E-02 0. -1.
        2   -1    0    0  501    0  0.00000000000E+00  0.00000000000E+00 -0.24897014890E+04  0.24897014890E+04  0.25500000920E-02 0.  1.
    10030    2    1    2    0    0  0.00000000000E+00  0.00000000000E+00 -0.15152594645E+04  0.34641435134E+04  0.31151691827E+04 0.  0.
        4    1    3    3  502    0 -0.59406438773E+03  0.47672943153E+03 -0.22684629430E+04  0.23929289969E+04  0.12699999809E+01 0.  1.
       -4    1    3    3    0  502  0.59406438773E+03 -0.47672943153E+03  0.75320347842E+03  0.10712145165E+04  0.12699999809E+01 0. -1.
</event>
<event>
 5   0  0.7079223E-06  0.3023117E+04  0.7818609E-02  0.8237160E-01
        2   -1    0    0  501    0  0.00000000000E+00  0.00000000000E+00  0.14531590239E+04  0.14531590239E+04  0.25500000920E-02 0.  1.
       -2   -1    0    0    0  501  0.00000000000E+00  0.00000000000E+00 -0.15723050863E+04  0.15723050863E+04  0.25500000920E-02 0. -1.
    10030    2    1    2    0    0  0.00000000000E+00  0.00000000000E+00 -0.11914606242E+03  0.30254641102E+04  0.30231171492E+04 0.  0.
        5    1    3    3  502    0  0.52078137206E+03  0.16708568581E+03 -0.14698001933E+04  0.15682683323E+04  0.46999998093E+01 0. -1.
       -5    1    3    3    0  502 -0.52078137206E+03 -0.16708568581E+03  0.13506541309E+04  0.14571957779E+04  0.46999998093E+01 0.  1.
</event>
<event>
 5   0  0.7363513E-06  0.3122756E+04  0.7818609E-02  0.8209520E-01
        2   -1    0    0  501    0  0.00000000000E+00  0.00000000000E+00  0.98918529175E+03  0.98918529175E+03  0.25500000920E-02 0. -1.
       -2   -1    0    0    0  501  0.00000000000E+00  0.00000000000E+00 -0.24645549877E+04  0.24645549877E+04  0.25500000920E-02 0.  1.
    10030    2    1    2    0    0  0.00000000000E+00  0.00000000000E+00 -0.14753696959E+04  0.34537402794E+04  0.31227561829E+04 0.  0.
        4    1    3    3  502    0  0.18754893425E+03 -0.97976855294E+03  0.59078435712E+03  0.11593743095E+04  0.12699999809E+01 0. -1.
       -4    1    3    3    0  502 -0.18754893425E+03  0.97976855294E+03 -0.20661540530E+04  0.22943659699E+04  0.12699999809E+01 0.  1.
</event>
<event>
 5   0  0.7071012E-06  0.3214698E+04  0.7818609E-02  0.8184946E-01
       -2   -1    0    0    0  501  0.00000000000E+00  0.00000000000E+00  0.13295771074E+04  0.13295771074E+04  0.25500000920E-02 0. -1.
        2   -1    0    0  501    0  0.00000000000E+00  0.00000000000E+00 -0.19431527911E+04  0.19431527911E+04  0.25500000920E-02 0.  1.
    10030    2    1    2    0    0  0.00000000000E+00  0.00000000000E+00 -0.61357568364E+03  0.32727298985E+04  0.32146984103E+04 0.  0.
        1    1    3    3  502    0 -0.12213186564E+04 -0.73206868253E+03 -0.10659212828E+04  0.17786882801E+04  0.50400001928E-02 0.  1.
       -1    1    3    3    0  502  0.12213186564E+04  0.73206868253E+03  0.45234559920E+03  0.14940416184E+04  0.50400001928E-02 0. -1.
</event>
<event>
 5   0  0.7079223E-06  0.3713565E+04  0.7818609E-02  0.8064962E-01
       -2   -1    0    0    0  501  0.00000000000E+00  0.00000000000E+00  0.15112949112E+04  0.15112949112E+04  0.25500000920E-02 0.  1.
        2   -1    0    0  501    0  0.00000000000E+00  0.00000000000E+00 -0.22812501672E+04  0.22812501672E+04  0.25500000920E-02 0. -1.
    10030    2    1    2    0    0  0.00000000000E+00  0.00000000000E+00 -0.76995525606E+03  0.37925450784E+04  0.37135652782E+04 0.  0.
        5    1    3    3  502    0  0.77854903307E+03 -0.16687883261E+04 -0.62800206710E+03  0.19456108965E+04  0.46999998093E+01 0. -1.
       -5    1    3    3    0  502 -0.77854903307E+03  0.16687883261E+04 -0.14195318896E+03  0.18469341819E+04  0.46999998093E+01 0.  1.
</event>
<event>
 5   0  0.7094341E-06  0.3042431E+04  0.7818609E-02  0.8231717E-01
        2   -1    0    0  501    0  0.00000000000E+00  0.00000000000E+00  0.18538533306E+04  0.18538533306E+04  0.25500000920E-02 0.  1.
       -2   -1    0    0    0  501  0.00000000000E+00  0.00000000000E+00 -0.12482628059E+04  0.12482628059E+04  0.25500000920E-02 0. -1.
    10030    2    1    2    0    0  0.00000000000E+00  0.00000000000E+00  0.60559052467E+03  0.31021161365E+04  0.30424307125E+04 0.  0.
        3    1    3    3  502    0  0.11093809531E+04 -0.10400621521E+04  0.34409633065E+03  0.15591208017E+04  0.10100000352E+00 0.  1.
       -3    1    3    3    0  502 -0.11093809531E+04  0.10400621521E+04  0.26149419402E+03  0.15429953348E+04  0.10100000352E+00 0. -1.
</event>
<event>
 5   0  0.7363513E-06  0.2070185E+04  0.7818609E-02  0.8574492E-01
        2   -1    0    0  501    0  0.00000000000E+00  0.00000000000E+00  0.18408043178E+04  0.18408043178E+04  0.25500000920E-02 0.  1.
       -2   -1    0    0    0  501  0.00000000000E+00  0.00000000000E+00 -0.58203696027E+03  0.58203696028E+03  0.25500000920E-02 0. -1.
    10030    2    1    2    0    0  0.00000000000E+00  0.00000000000E+00  0.12587673575E+04  0.24228412781E+04  0.20701846774E+04 0.  0.
        4    1    3    3  502    0  0.43194354354E+03 -0.91048558498E+03  0.35278626622E+03  0.10677167170E+04  0.12699999809E+01 0.  1.
       -4    1    3    3    0  502 -0.43194354354E+03  0.91048558498E+03  0.90598109128E+03  0.13551245610E+04  0.12699999809E+01 0. -1.
</event>
<event>
 5   0  0.2517725E-06  0.2985475E+04  0.7818609E-02  0.8247891E-01
       -1   -1    0    0    0  501  0.00000000000E+00  0.00000000000E+00  0.20237080949E+04  0.20237080949E+04  0.50400001928E-02 0. -1.
        1   -1    0    0  501    0  0.00000000000E+00  0.00000000000E+00 -0.11010803017E+04  0.11010803018E+04  0.50400001928E-02 0.  1.
    10030    2    1    2    0    0  0.00000000000E+00  0.00000000000E+00  0.92262779317E+03  0.31247883967E+04  0.29854749169E+04 0.  0.
        3    1    3    3  502    0  0.66200845653E+03 -0.13345496075E+04  0.36208896702E+03  0.15330969576E+04  0.10100000352E+00 0.  1.
       -3    1    3    3    0  502 -0.66200845653E+03  0.13345496075E+04  0.56053882615E+03  0.15916914390E+04  0.10100000352E+00 0. -1.
</event>
<event>
 5   0  0.2598987E-06  0.3051576E+04  0.7818609E-02  0.8229155E-01
        1   -1    0    0  501    0  0.00000000000E+00  0.00000000000E+00  0.29542672439E+04  0.29542672439E+04  0.50400001928E-02 0.  1.
       -1   -1    0    0    0  501  0.00000000000E+00  0.00000000000E+00 -0.78802228998E+03  0.78802228999E+03  0.50400001928E-02 0. -1.
    10030    2    1    2    0    0  0.00000000000E+00  0.00000000000E+00  0.21662449539E+04  0.37422895338E+04  0.30515756184E+04 0.  0.
        2    1    3    3  502    0  0.16568164862E+03  0.16359247456E+03 -0.76610723666E+03  0.80070793957E+03  0.25500000920E-02 0. -1.
       -2    1    3    3    0  502 -0.16568164862E+03 -0.16359247456E+03  0.29323521905E+04  0.29415815943E+04  0.25500000920E-02 0.  1.
</event>
<event>
 5   0  0.2517725E-06  0.3164654E+04  0.7818609E-02  0.8198215E-01
       -1   -1    0    0    0  501  0.00000000000E+00  0.00000000000E+00  0.22931958817E+04  0.22931958817E+04  0.50400001928E-02 0.  1.
        1   -1    0    0  501    0  0.00000000000E+00  0.00000000000E+00 -0.10918207012E+04  0.10918207012E+04  0.50400001928E-02 0. -1.
    10030    2    1    2    0    0  0.00000000000E+00  0.00000000000E+00  0.12013751804E+04  0.33850165829E+04  0.31646540004E+04 0.  0.
        3    1    3    3  502    0 -0.93380531051E+03  0.78918699758E+02  0.19644325450E+04  0.21765145883E+04  0.10100000352E+00 0.  1.
       -3    1    3    3    0  502  0.93380531051E+03 -0.78918699758E+02 -0.76305736455E+03  0.12085019946E+04  0.10100000352E+00 0. -1.
</event>
<event>
 5   0  0.7363513E-06  0.3107677E+04  0.7818609E-02  0.8213634E-01
       -2   -1    0    0    0  501  0.00000000000E+00  0.00000000000E+00  0.15593774756E+04  0.15593774756E+04  0.25500000920E-02 0.  1.
        2   -1    0    0  501    0  0.00000000000E+00  0.00000000000E+00 -0.15483193480E+04  0.15483193480E+04  0.25500000920E-02 0. -1.
    10030    2    1    2    0    0  0.00000000000E+00  0.00000000000E+00  0.11058127609E+02  0.31076968235E+04  0.31076771494E+04 0.  0.
        4    1    3    3  502    0 -0.27469905675E+03  0.13096867075E+04  0.79526430830E+03  0.15566585292E+04  0.12699999809E+01 0.  1.
       -4    1    3    3    0  502  0.27469905675E+03 -0.13096867075E+04 -0.78420618069E+03  0.15510382943E+04  0.12699999809E+01 0. -1.
</event>
<event>
 5   0  0.2624011E-06  0.2744514E+04  0.7818609E-02  0.8320704E-01
        1   -1    0    0  501    0  0.00000000000E+00  0.00000000000E+00  0.18222262559E+04  0.18222262559E+04  0.50400001928E-02 0.  1.
       -1   -1    0    0    0  501  0.00000000000E+00  0.00000000000E+00 -0.10334005762E+04  0.10334005762E+04  0.50400001928E-02 0. -1.
    10030    2    1    2    0    0  0.00000000000E+00  0.00000000000E+00  0.78882567969E+03  0.28556268321E+04  0.27445142833E+04 0.  0.
        1    1    3    3  502    0  0.30227989302E+03  0.11689430040E+04  0.10729566960E+04  0.16152513588E+04  0.50400001928E-02 0.  1.
       -1    1    3    3    0  502 -0.30227989302E+03 -0.11689430040E+04 -0.28413101636E+03  0.12403754733E+04  0.50400001928E-02 0. -1.
</event>
<event>
 5   0  0.2674441E-06  0.3126705E+04  0.7818609E-02  0.8208447E-01
        1   -1    0    0  501    0  0.00000000000E+00  0.00000000000E+00  0.11632800697E+04  0.11632800697E+04  0.50400001928E-02 0.  1.
       -1   -1    0    0    0  501  0.00000000000E+00  0.00000000000E+00 -0.21010163619E+04  0.21010163619E+04  0.50400001928E-02 0. -1.
    10030    2    1    2    0    0  0.00000000000E+00  0.00000000000E+00 -0.93773629216E+03  0.32642964316E+04  0.31267046294E+04 0.  0.
        5    1    3    3  502    0  0.12244316745E+04  0.37566148259E+02 -0.14829001055E+04  0.19234497534E+04  0.46999998093E+01 0. -1.
       -5    1    3    3    0  502 -0.12244316745E+04 -0.37566148259E+02  0.54516381333E+03  0.13408466782E+04  0.46999998093E+01 0.  1.
</event>
<event>
 5   0  0.2624011E-06  0.3137813E+04  0.7818609E-02  0.8205436E-01
       -1   -1    0    0    0  501  0.00000000000E+00  0.00000000000E+00  0.12113872882E+04  0.12113872882E+04  0.50400001928E-02 0.  1.
        1   -1    0    0  501    0  0.00000000000E+00  0.00000000000E+00 -0.20319416391E+04  0.20319416391E+04  0.50400001928E-02 0. -1.
    10030    2    1    2    0    0  0.00000000000E+00  0.00000000000E+00 -0.82055435093E+03  0.32433289274E+04  0.31378134247E+04 0.  0.
        1    1    3    3  502    0  0.12953526744E+04 -0.71729212335E+03 -0.94639168338E+03  0.17573001337E+04  0.50400001928E-02 0. -1.
       -1    1    3    3    0  502 -0.12953526744E+04  0.71729212335E+03  0.12583733245E+03  0.14860287937E+04  0.50400001928E-02 0.  1.
</event>
<event>
 5   0  0.2598987E-06  0.3098665E+04  0.7818609E-02  0.8216104E-01
        1   -1    0    0  501    0  0.00000000000E+00  0.00000000000E+00  0.20216856893E+04  0.20216856893E+04  0.50400001928E-02 0.  1.
       -1   -1    0    0    0  501  0.00000000000E+00  0.00000000000E+00 -0.11873415906E+04  0.11873415906E+04  0.50400001928E-02 0. -1.
    10030    2    1    2    0    0  0.00000000000E+00  0.00000000000E+00  0.83434409873E+03  0.32090272799E+04  0.30986651978E+04 0.  0.
        2    1    3    3  502    0 -0.13252109221E+04 -0.58470821536E+03  0.98663262665E+03  0.17525728587E+04  0.25500000920E-02 0.  1.
       -2    1    3    3    0  502  0.13252109221E+04  0.58470821536E+03 -0.15228852792E+03  0.14564544211E+04  0.25500000920E-02 0. -1.
</event>
<event>
 5   0  0.7079223E-06  0.2990566E+04  0.7818609E-02  0.8246430E-01
        2   -1    0    0  501    0  0.00000000000E+00  0.00000000000E+00  0.28569619046E+04  0.28569619046E+04  0.25500000920E-02 0.  1.
       -2   -1    0    0    0  501  0.00000000000E+00  0.00000000000E+00 -0.78260448807E+03  0.78260448807E+03  0.25500000920E-02 0. -1.
    10030    2    1    2    0    0  0.00000000000E+00  0.00000000000E+00  0.20743574166E+04  0.36395663927E+04  0.29905659724E+04 0.  0.
        5    1    3    3  502    0 -0.11750226000E+04 -0.70201967156E+03  0.30460043788E+03  0.14022529182E+04  0.46999998093E+01 0. -1.
       -5    1    3    3    0  502  0.11750226000E+04  0.70201967156E+03  0.17697569787E+04  0.22373134745E+04  0.46999998093E+01 0.  1.
</event>
<event>
 5   0  0.7363513E-06  0.3115145E+04  0.7818609E-02  0.8211594E-01
       -2   -1    0    0    0  501  0.00000000000E+00  0.00000000000E+00  0.90234840676E+03  0.90234840676E+03  0.25500000920E-02 0.  1.
        2   -1    0    0  501    0  0.00000000000E+00  0.00000000000E+00 -0.26885753535E+04  0.26885753535E+04  0.25500000920E-02 0. -1.
    10030    2    1    2    0    0  0.00000000000E+00  0.00000000000E+00 -0.17862269467E+04  0.35909237602E+04  0.31151447393E+04 0.  0.
        4    1    3    3  502    0  0.22274127949E+03  0.50284715595E+03  0.78669720834E+03  0.95987658079E+03  0.12699999809E+01 0.  1.
       -4    1    3    3    0  502 -0.22274127949E+03 -0.50284715595E+03 -0.25729241551E+04  0.26310471795E+04  0.12699999809E+01 0. -1.
</event>
<event>
 5   0  0.2517725E-06  0.2613398E+04  0.7818609E-02  0.8363664E-01
       -1   -1    0    0    0  501  0.00000000000E+00  0.00000000000E+00  0.90367516677E+03  0.90367516679E+03  0.50400001928E-02 0.  1.
        1   -1    0    0  501    0  0.00000000000E+00  0.00000000000E+00 -0.18894651696E+04  0.18894651696E+04  0.50400001928E-02 0. -1.
    10030    2    1    2    0    0  0.00000000000E+00  0.00000000000E+00 -0.98579000280E+03  0.27931403364E+04  0.26133983640E+04 0.  0.
        3    1    3    3  502    0  0.97130660004E+03  0.81631876621E+03 -0.82687699221E+03  0.15144432673E+04  0.10100000352E+00 0.  1.
       -3    1    3    3    0  502 -0.97130660004E+03 -0.81631876621E+03 -0.15891301059E+03  0.12786970691E+04  0.10100000352E+00 0. -1.
</event>
<event>
 5   0  0.2598987E-06  0.3122091E+04  0.7818609E-02  0.8209701E-01
        1   -1    0    0  501    0  0.00000000000E+00  0.00000000000E+00  0.17963244883E+04  0.17963244883E+04  0.50400001928E-02 0. -1.
       -1   -1    0    0    0  501  0.00000000000E+00  0.00000000000E+00 -0.13565832710E+04  0.13565832711E+04  0.50400001928E-02 0.  1.
    10030    2    1    2    0    0  0.00000000000E+00  0.00000000000E+00  0.43974121730E+03  0.31529077594E+04  0.31220914466E+04 0.  0.
        2    1    3    3  502    0 -0.12582253374E+04 -0.92337181453E+03  0.18611550917E+03  0.15717460006E+04  0.25500000920E-02 0.  1.
       -2    1    3    3    0  502  0.12582253374E+04  0.92337181453E+03  0.25362570813E+03  0.15811617588E+04  0.25500000920E-02 0. -1.
</event>
<event>
 5   0  0.7363513E-06  0.2845631E+04  0.7818609E-02  0.8289240E-01
       -2   -1    0    0    0  501  0.00000000000E+00  0.00000000000E+00  0.10414696165E+04  0.10414696165E+04  0.25500000920E-02 0.  1.
        2   -1    0    0  501    0  0.00000000000E+00  0.00000000000E+00 -0.19437950607E+04  0.19437950607E+04  0.25500000920E-02 0. -1.
    10030    2    1    2    0    0  0.00000000000E+00  0.00000000000E+00 -0.90232544419E+03  0.29852646772E+04  0.28456306833E+04 0.  0.
        4    1    3    3  502    0 -0.12894470545E+04 -0.59713718759E+03 -0.52648677069E+03  0.15153997689E+04  0.12699999809E+01 0.  1.
       -4    1    3    3    0  502  0.12894470545E+04  0.59713718759E+03 -0.37583867350E+03  0.14698649082E+04  0.12699999809E+01 0. -1.
</event>
<event>
 5   0  0.2624011E-06  0.3012680E+04  0.7818609E-02  0.8240119E-01
        1   -1    0    0  501    0  0.00000000000E+00  0.00000000000E+00  0.21003632980E+04  0.21003632980E+04  0.50400001928E-02 0. -1.
       -1   -1    0    0    0  501  0.00000000000E+00  0.00000000000E+00 -0.10803183164E+04  0.10803183164E+04  0.50400001928E-02 0.  1.
    10030    2    1    2    0    0  0.00000000000E+00  0.00000000000E+00  0.10200449816E+04  0.31806816144E+04  0.30126804955E+04 0.  0.
        1    1    3    3  502    0  0.80626527744E+03  0.46147982409E+03  0.17619090446E+04  0.19918209777E+04  0.50400001928E-02 0. -1.
       -1    1    3    3    0  502 -0.80626527744E+03 -0.46147982409E+03 -0.74186406302E+03  0.11888606368E+04  0.50400001928E-02 0.  1.
</event>
<event>
 5   0  0.7071012E-06  0.3085722E+04  0.7818609E-02  0.8219667E-01
        2   -1    0    0  501    0  0.00000000000E+00  0.00000000000E+00  0.19276096668E+04  0.19276096668E+04  0.25500000920E-02 0.  1.
       -2   -1    0    0    0  501  0.00000000000E+00  0.00000000000E+00 -0.12349080304E+04  0.12349080304E+04  0.25500000920E-02 0. -1.
    10030    2    1    2    0    0  0.00000000000E+00  0.00000000000E+00  0.69270163633E+03  0.31625176972E+04  0.30857223835E+04 0.  0.
        1    1    3    3  502    0  0.74207241768E+03 -0.11315078511E+04  0.11060399635E+04  0.17476572579E+04  0.50400001928E-02 0.  1.
       -1    1    3    3    0  502 -0.74207241768E+03  0.11315078511E+04 -0.41333832716E+03  0.14148604393E+04  0.50400001928E-02 0. -1.
</event>
<event>
 5   0  0.2624011E-06  0.2992112E+04  0.7818609E-02  0.8245987E-01
       -1   -1    0    0    0  501  0.00000000000E+00  0.00000000000E+00  0.15978107168E+04  0.15978107168E+04  0.50400001928E-02 0.  1.
        1   -1    0    0  501    0  0.00000000000E+00  0.00000000000E+00 -0.14007814943E+04  0.14007814943E+04  0.50400001928E-02 0. -1.
    10030    2    1    2    0    0  0.00000000000E+00  0.00000000000E+00  0.19702922250E+03  0.29985922111E+04  0.29921120858E+04 0.  0.
        1    1    3    3  502    0 -0.28099691910E+02  0.14500176250E+04 -0.26949038767E+03  0.14751155122E+04  0.50400001928E-02 0. -1.
       -1    1    3    3    0  502  0.28099691910E+02 -0.14500176250E+04  0.46651961017E+03  0.15234766989E+04  0.50400001928E-02 0.  1.
</event>
<event>
 5   0  0.2624011E-06  0.3152879E+04  0.7818609E-02  0.8201374E-01
        1   -1    0    0  501    0  0.00000000000E+00  0.00000000000E+00  0.24158107694E+04  0.24158107694E+04  0.50400001928E-02 0.  1.
       -1   -1    0    0    0  501  0.00000000000E+00  0.00000000000E+00 -0.10287072033E+04  0.10287072033E+04  0.50400001928E-02 0. -1.
    10030    2    1    2    0    0  0.00000000000E+00  0.00000000000E+00  0.13871035661E+04  0.34445179727E+04  0.31528792811E+04 0.  0.
        1    1    3    3  502    0 -0.12151607485E+04 -0.23097328176E+03  0.17612972408E+04  0.21522388976E+04  0.50400001928E-02 0.  1.
       -1    1    3    3    0  502  0.12151607485E+04  0.23097328176E+03 -0.37419367478E+03  0.12922790751E+04  0.50400001928E-02 0. -1.
</event>
<event>
 5   0  0.7094341E-06  0.3056034E+04  0.7818609E-02  0.8227908E-01
        2   -1    0    0  501    0  0.00000000000E+00  0.00000000000E+00  0.28134339294E+04  0.28134339294E+04  0.25500000920E-02 0.  1.
       -2   -1    0    0    0  501  0.00000000000E+00  0.00000000000E+00 -0.82988856531E+03  0.82988856532E+03  0.25500000920E-02 0. -1.
    10030    2    1    2    0    0  0.00000000000E+00  0.00000000000E+00  0.19835453641E+04  0.36433224947E+04  0.30560344548E+04 0.  0.
        3    1    3    3  502    0 -0.14383340054E+04 -0.90022324306E+02  0.38630838890E+03  0.14920264446E+04  0.10100000352E+00 0.  1.
       -3    1    3    3    0  502  0.14383340054E+04  0.90022324306E+02  0.15972369752E+04  0.21512960501E+04  0.10100000352E+00 0. -1.
</event>
<event>
 5   0  0.2674441E-06  0.3105882E+04  0.7818609E-02  0.8214126E-01
        1   -1    0    0  501    0  0.00000000000E+00  0.00000000000E+00  0.23694035141E+04  0.23694035141E+04  0.50400001928E-02 0.  1.
       -1   -1    0    0    0  501  0.00000000000E+00  0.00000000000E+00 -0.10178194760E+04  0.10178194760E+04  0.50400001928E-02 0. -1.
    10030    2    1    2    0    0  0.00000000000E+00  0.00000000000E+00  0.13515840381E+04  0.33872229901E+04  0.31058815451E+04 0.  0.
        5    1    3    3  502    0  0.30246046327E+03 -0.53766234777E+03  0.22300321535E+04  0.23137909645E+04  0.46999998093E+01 0.  1.
       -5    1    3    3    0  502 -0.30246046327E+03  0.53766234777E+03 -0.87844811535E+03  0.10734320255E+04  0.46999998093E+01 0. -1.
</event>
<event>
 5   0  0.7094341E-06  0.3005523E+04  0.7818609E-02  0.8242156E-01
        2   -1    0    0  501    0  0.00000000000E+00  0.00000000000E+00  0.14498976711E+04  0.14498976711E+04  0.25500000920E-02 0.  1.
       -2   -1    0    0    0  501  0.00000000000E+00  0.00000000000E+00 -0.15575528323E+04  0.15575528323E+04  0.25500000920E-02 0. -1.
    10030    2    1    2    0    0  0.00000000000E+00  0.00000000000E+00 -0.10765516119E+03  0.30074505034E+04  0.30055230654E+04 0.  0.
        3    1    3    3  502    0  0.44995572536E+03  0.13180659481E+03  0.13748341853E+04  0.14525846552E+04  0.10100000352E+00 0.  1.
       -3    1    3    3    0  502 -0.44995572536E+03 -0.13180659481E+03 -0.14824893465E+04  0.15548658482E+04  0.10100000352E+00 0. -1.
</event>
<event>
 5   0  0.7363513E-06  0.3124713E+04  0.7818609E-02  0.8208988E-01
        2   -1    0    0  501    0  0.00000000000E+00  0.00000000000E+00  0.11899908421E+04  0.11899908421E+04  0.25500000920E-02 0.  1.
       -2   -1    0    0    0  501  0.00000000000E+00  0.00000000000E+00 -0.20512409252E+04  0.20512409252E+04  0.25500000920E-02 0. -1.
    10030    2    1    2    0    0  0.00000000000E+00  0.00000000000E+00 -0.86125008310E+03  0.32412317673E+04  0.31247130531E+04 0.  0.
        4    1    3    3  502    0 -0.34364739598E+03  0.29572403770E+03 -0.19815062938E+04  0.20327112546E+04  0.12699999809E+01 0. -1.
       -4    1    3    3    0  502  0.34364739598E+03 -0.29572403770E+03  0.11202562107E+04  0.12085205128E+04  0.12699999809E+01 0.  1.
</event>
<event>
 5   0  0.7094341E-06  0.2543906E+04  0.7818609E-02  0.8387509E-01
       -2   -1    0    0    0  501  0.00000000000E+00  0.00000000000E+00  0.16035104620E+04  0.16035104620E+04  0.25500000920E-02 0. -1.
        2   -1    0    0  501    0  0.00000000000E+00  0.00000000000E+00 -0.10089514153E+04  0.10089514153E+04  0.25500000920E-02 0.  1.
    10030    2    1    2    0    0  0.00000000000E+00  0.00000000000E+00  0.59455904674E+03  0.26124618773E+04  0.25439057767E+04 0.  0.
        3    1    3    3  502    0  0.29816734300E+03 -0.31937888557E+03 -0.92946593785E+03  0.10270411758E+04  0.10100000352E+00 0.  1.
       -3    1    3    3    0  502 -0.29816734300E+03  0.31937888557E+03  0.15240249846E+04  0.15854207015E+04  0.10100000352E+00 0. -1.
</event>
<event>
 5   0  0.7071012E-06  0.3095458E+04  0.7818609E-02  0.8216986E-01
       -2   -1    0    0    0  501  0.00000000000E+00  0.00000000000E+00  0.16707461582E+04  0.16707461582E+04  0.25500000920E-02 0. -1.
        2   -1    0    0  501    0  0.00000000000E+00  0.00000000000E+00 -0.14337694533E+04  0.14337694533E+04  0.25500000920E-02 0.  1.
    10030    2    1    2    0    0  0.00000000000E+00  0.00000000000E+00  0.23697670493E+03  0.31045156115E+04  0.30954578375E+04 0.  0.
        1    1    3    3  502    0 -0.79854949943E+03  0.11725510661E+04  0.73909424060E+03  0.15996304580E+04  0.50400001928E-02 0. -1.
       -1    1    3    3    0  502  0.79854949943E+03 -0.11725510661E+04 -0.50211753568E+03  0.15048851535E+04  0.50400001928E-02 0.  1.
</event>
<event>
 5   0  0.2598987E-06  0.3035625E+04  0.7818609E-02  0.8233631E-01
       -1   -1    0    0    0  501  0.00000000000E+00  0.00000000000E+00  0.25750376274E+04  0.25750376274E+04  0.50400001928E-02 0. -1.
        1   -1    0    0  501    0  0.00000000000E+00  0.00000000000E+00 -0.89464869006E+03  0.89464869007E+03  0.50400001928E-02 0.  1.
    10030    2    1    2    0    0  0.00000000000E+00  0.00000000000E+00  0.16803889374E+04  0.34696863175E+04  0.30356245092E+04 0.  0.
        2    1    3    3  502    0 -0.22404220608E+03 -0.97685218670E+03  0.21430613565E+04  0.23658290476E+04  0.25500000920E-02 0. -1.
       -2    1    3    3    0  502  0.22404220608E+03  0.97685218670E+03 -0.46267241916E+03  0.11038572699E+04  0.25500000920E-02 0.  1.
</event>
<event>
 5   0  0.2612331E-06  0.3115907E+04  0.7818609E-02  0.8211386E-01
       -1   -1    0    0    0  501  0.00000000000E+00  0.00000000000E+00  0.20460117205E+04  0.20460117205E+04  0.50400001928E-02 0. -1.
        1   -1    0    0  501    0  0.00000000000E+00  0.00000000000E+00 -0.11863176248E+04  0.11863176248E+04  0.50400001928E-02 0.  1.
    10030    2    1    2    0    0  0.00000000000E+00  0.00000000000E+00  0.85969409570E+03  0.32323293453E+04  0.31159074214E+04 0.  0.
        4    1    3    3  502    0 -0.53827602687E+03  0.79691508118E+03 -0.84167630779E+03  0.12779809653E+04  0.12699999809E+01 0.  1.
       -4    1    3    3    0  502  0.53827602687E+03 -0.79691508118E+03  0.17013704035E+04  0.19543483800E+04  0.12699999809E+01 0. -1.
</event>
<event>
 5   0  0.7079223E-06  0.3090670E+04  0.7818609E-02  0.8218303E-01
       -2   -1    0    0    0  501  0.00000000000E+00  0.00000000000E+00  0.11715861628E+04  0.11715861628E+04  0.25500000920E-02 0. -1.
        2   -1    0    0  501    0  0.00000000000E+00  0.00000000000E+00 -0.20383136967E+04  0.20383136967E+04  0.25500000920E-02 0.  1.
    10030    2    1    2    0    0  0.00000000000E+00  0.00000000000E+00 -0.86672753397E+03  0.32098998595E+04  0.30906699095E+04 0.  0.
        5    1    3    3  502    0  0.11970784273E+04 -0.18918484275E+03  0.56239873030E+03  0.13360771264E+04  0.46999998093E+01 0. -1.
       -5    1    3    3    0  502 -0.11970784273E+04  0.18918484275E+03 -0.14291262643E+04  0.18738227331E+04  0.46999998093E+01 0.  1.
</event>
<event>
 5   0  0.2624011E-06  0.3191051E+04  0.7818609E-02  0.8191185E-01
        1   -1    0    0  501    0  0.00000000000E+00  0.00000000000E+00  0.12184104860E+04  0.12184104860E+04  0.50400001928E-02 0.  1.
       -1   -1    0    0    0  501  0.00000000000E+00  0.00000000000E+00 -0.20893626857E+04  0.20893626858E+04  0.50400001928E-02 0. -1.
    10030    2    1    2    0    0  0.00000000000E+00  0.00000000000E+00 -0.87095219973E+03  0.33077731718E+04  0.31910508648E+04 0.  0.
        1    1    3    3  502    0 -0.72066255249E+02 -0.35061158073E+03 -0.20472063792E+04  0.20782627324E+04  0.50400001928E-02 0. -1.
       -1    1    3    3    0  502  0.72066255249E+02  0.35061158073E+03  0.11762541795E+04  0.12295104394E+04  0.50400001928E-02 0.  1.
</event>
<event>
 5   0  0.2612331E-06  0.2658212E+04  0.7818609E-02  0.8348693E-01
        1   -1    0    0  501    0  0.00000000000E+00  0.00000000000E+00  0.16771951855E+04  0.16771951855E+04  0.50400001928E-02 0. -1.
       -1   -1    0    0    0  501  0.00000000000E+00  0.00000000000E+00 -0.10532597408E+04  0.10532597408E+04  0.50400001928E-02 0.  1.
    10030    2    1    2    0    0  0.00000000000E+00  0.00000000000E+00  0.62393544470E+03  0.27304549262E+04  0.26582115538E+04 0.  0.
        4    1    3    3  502    0 -0.25631878438E+02  0.78009672379E+02 -0.10506512098E+04  0.10538558154E+04  0.12699999809E+01 0.  1.
       -4    1    3    3    0  502  0.25631878438E+02 -0.78009672379E+02  0.16745866545E+04  0.16765991108E+04  0.12699999809E+01 0. -1.
</event>
<event>
 5   0  0.2674441E-06  0.3002693E+04  0.7818609E-02  0.8242962E-01
        1   -1    0    0  501    0  0.00000000000E+00  0.00000000000E+00  0.18238734525E+04  0.18238734525E+04  0.50400001928E-02 0.  1.
       -1   -1    0    0    0  501  0.00000000000E+00  0.00000000000E+00 -0.12358538636E+04  0.12358538636E+04  0.50400001928E-02 0. -1.
    10030    2    1    2    0    0  0.00000000000E+00  0.00000000000E+00  0.58801958891E+03  0.30597273162E+04  0.30026928268E+04 0.  0.
        5    1    3    3  502    0  0.13814971477E+04  0.27318547714E+03  0.82433183340E+03  0.16317811544E+04  0.46999998093E+01 0. -1.
       -5    1    3    3    0  502 -0.13814971477E+04 -0.27318547714E+03 -0.23631224448E+03  0.14279461618E+04  0.46999998093E+01 0.  1.
</event>
<event>
 5   0  0.7363513E-06  0.2933989E+04  0.7818609E-02  0.8262836E-01
        2   -1    0    0  501    0  0.00000000000E+00  0.00000000000E+00  0.11442916433E+04  0.11442916433E+04  0.25500000920E-02 0.  1.
       -2   -1    0    0    0  501  0.00000000000E+00  0.00000000000E+00 -0.18807031253E+04  0.18807031253E+04  0.25500000920E-02 0. -1.
    10030    2    1    2    0    0  0.00000000000E+00  0.00000000000E+00 -0.73641148203E+03  0.30249947686E+04  0.29339890046E+04 0.  0.
        4    1    3    3  502    0  0.36388096653E+03 -0.96050679875E+03 -0.14481143288E+04  0.17753927426E+04  0.12699999809E+01 0. -1.
       -4    1    3    3    0  502 -0.36388096653E+03  0.96050679875E+03  0.71170284681E+03  0.12496020260E+04  0.12699999809E+01 0.  1.
</event>
<event>
 5   0  0.2624011E-06  0.3129192E+04  0.7818609E-02  0.8207772E-01
       -1   -1    0    0    0  501  0.00000000000E+00  0.00000000000E+00  0.10766998363E+04  0.10766998363E+04  0.50400001928E-02 0. -1.
        1   -1    0    0  501    0  0.00000000000E+00  0.00000000000E+00 -0.22735780596E+04  0.22735780596E+04  0.50400001928E-02 0.  1.
    10030    2    1    2    0    0  0.00000000000E+00  0.00000000000E+00 -0.11968782234E+04  0.33502778959E+04  0.31291923076E+04 0.  0.
        1    1    3    3  502    0  0.10276464815E+03  0.45751469974E+03  0.99969805295E+03  0.11042085267E+04  0.50400001928E-02 0. -1.
       -1    1    3    3    0  502 -0.10276464815E+03 -0.45751469974E+03 -0.21965762763E+04  0.22460693692E+04  0.50400001928E-02 0.  1.
</event>
<event>
 5   0  0.7414808E-06  0.1919144E+04  0.7818609E-02  0.8645385E-01
        2   -1    0    0  501    0  0.00000000000E+00  0.00000000000E+00  0.19559951388E+04  0.19559951388E+04  0.25500000920E-02 0.  1.
       -2   -1    0    0    0  501  0.00000000000E+00  0.00000000000E+00 -0.47074673178E+03  0.47074673179E+03  0.25500000920E-02 0. -1.
    10030    2    1    2    0    0  0.00000000000E+00  0.00000000000E+00  0.14852484070E+04  0.24267418706E+04  0.19191438914E+04 0.  0.
        2    1    3    3  502    0  0.81568127199E+03  0.20460918118E+03  0.13270020701E+04  0.15710300279E+04  0.25500000920E-02 0.  1.
       -2    1    3    3    0  502 -0.81568127199E+03 -0.20460918118E+03  0.15824633686E+03  0.85571184264E+03  0.25500000920E-02 0. -1.
</event>
<event>
 5   0  0.7079223E-06  0.3182566E+04  0.7818609E-02  0.8193437E-01
        2   -1    0    0  501    0  0.00000000000E+00  0.00000000000E+00  0.20261178722E+04  0.20261178722E+04  0.25500000920E-02 0. -1.
       -2   -1    0    0    0  501  0.00000000000E+00  0.00000000000E+00 -0.12497700893E+04  0.12497700893E+04  0.25500000920E-02 0.  1.
    10030    2    1    2    0    0  0.00000000000E+00  0.00000000000E+00  0.77634778293E+03  0.32758879615E+04  0.31825659547E+04 0.  0.
        5    1    3    3  502    0 -0.12559007269E+04  0.92586580714E+03  0.70981925020E+03  0.17141702327E+04  0.46999998093E+01 0. -1.
       -5    1    3    3    0  502  0.12559007269E+04 -0.92586580714E+03  0.66528532729E+02  0.15617177288E+04  0.46999998093E+01 0.  1.
</event>
<event>
 5   0  0.2517725E-06  0.3104479E+04  0.7818609E-02  0.8214510E-01
       -1   -1    0    0    0  501  0.00000000000E+00  0.00000000000E+00  0.18163744383E+04  0.18163744383E+04  0.50400001928E-02 0.  1.
        1   -1    0    0  501    0  0.00000000000E+00  0.00000000000E+00 -0.13265148990E+04  0.13265148990E+04  0.50400001928E-02 0. -1.
    10030    2    1    2    0    0  0.00000000000E+00  0.00000000000E+00  0.48985953932E+03  0.31428893373E+04  0.31044791863E+04 0.  0.
        3    1    3    3  502    0  0.14614153896E+04 -0.50360719368E+03  0.38843191177E+03  0.15938113147E+04  0.10100000352E+00 0.  1.
       -3    1    3    3    0  502 -0.14614153896E+04  0.50360719368E+03  0.10142762755E+03  0.15490780227E+04  0.10100000352E+00 0. -1.
</event>
<event>
 5   0  0.2674441E-06  0.2537611E+04  0.7818609E-02  0.8389708E-01
       -1   -1    0    0    0  501  0.00000000000E+00  0.00000000000E+00  0.10752710497E+04  0.10752710497E+04  0.50400001928E-02 0.  1.
        1   -1    0    0  501    0  0.00000000000E+00  0.00000000000E+00 -0.14971730652E+04  0.14971730652E+04  0.50400001928E-02 0. -1.
    10030    2    1    2    0    0  0.00000000000E+00  0.00000000000E+00 -0.42190201550E+03  0.25724441149E+04  0.25376105717E+04 0.  0.
        5    1    3    3  502    0  0.83070040341E+03 -0.37865054510E+03  0.68228297738E+03  0.11397243293E+04  0.46999998093E+01 0.  1.
       -5    1    3    3    0  502 -0.83070040341E+03  0.37865054510E+03 -0.11041849929E+04  0.14327197856E+04  0.46999998093E+01 0. -1.
</event>
<event>
 5   0  0.7414808E-06  0.3038238E+04  0.7818609E-02  0.8232895E-01
       -2   -1    0    0    0  501  0.00000000000E+00  0.00000000000E+00  0.23701421425E+04  0.23701421425E+04  0.25500000920E-02 0. -1.
        2   -1    0    0  501    0  0.00000000000E+00  0.00000000000E+00 -0.97366432427E+03  0.97366432428E+03  0.25500000920E-02 0.  1.
    10030    2    1    2    0    0  0.00000000000E+00  0.00000000000E+00  0.13964778182E+04  0.33438064668E+04  0.30382382050E+04 0.  0.
        2    1    3    3  502    0 -0.67618355171E+03  0.56639596641E+03  0.20594379408E+04  0.22403823822E+04  0.25500000920E-02 0. -1.
       -2    1    3    3    0  502  0.67618355171E+03 -0.56639596641E+03 -0.66296012256E+03  0.11034240846E+04  0.25500000920E-02 0.  1.
</event>
<event>
 5   0  0.2612331E-06  0.3280421E+04  0.7818609E-02  0.8167895E-01
       -1   -1    0    0    0  501  0.00000000000E+00  0.00000000000E+00  0.10128265719E+04  0.10128265719E+04  0.50400001928E-02 0.  1.
        1   -1    0    0  501    0  0.00000000000E+00  0.00000000000E+00 -0.26562201477E+04  0.26562201477E+04  0.50400001928E-02 0. -1.
    10030    2    1    2    0    0  0.00000000000E+00  0.00000000000E+00 -0.16433935758E+04  0.36690467196E+04  0.32804209160E+04 0.  0.
        4    1    3    3  502    0  0.68941822852E+03  0.70428710018E+03  0.64472172401E+03  0.11777034973E+04  0.12699999809E+01 0.  1.
       -4    1    3    3    0  502 -0.68941822852E+03 -0.70428710018E+03 -0.22881152998E+04  0.24913432223E+04  0.12699999809E+01 0. -1.
</event>
<event>
 5   0  0.7094341E-06  0.3103122E+04  0.7818609E-02  0.8214882E-01
       -2   -1    0    0    0  501  0.00000000000E+00  0.00000000000E+00  0.19658990947E+04  0.19658990947E+04  0.25500000920E-02 0.  1.
        2   -1    0    0  501    0  0.00000000000E+00  0.00000000000E+00 -0.12245501084E+04  0.12245501084E+04  0.25500000920E-02 0. -1.
    10030    2    1    2    0    0  0.00000000000E+00  0.00000000000E+00  0.74134898623E+03  0.31904492031E+04  0.31031222661E+04 0.  0.
        3    1    3    3  502    0  0.83669114717E+03 -0.16531962538E+03 -0.96193322740E+03  0.12855731012E+04  0.10100000352E+00 0. -1.
       -3    1    3    3    0  502 -0.83669114717E+03  0.16531962538E+03  0.17032822136E+04  0.19048761019E+04  0.10100000352E+00 0.  1.
</event>
<event>
 5   0  0.7079223E-06  0.3124442E+04  0.7818609E-02  0.8209062E-01
       -2   -1    0    0    0  501  0.00000000000E+00  0.00000000000E+00  0.93686307060E+03  0.93686307060E+03  0.25500000920E-02 0.  1.
        2   -1    0    0  501    0  0.00000000000E+00  0.00000000000E+00 -0.26050071655E+04  0.26050071655E+04  0.25500000920E-02 0. -1.
    10030    2    1    2    0    0  0.00000000000E+00  0.00000000000E+00 -0.16681440949E+04  0.35418702361E+04  0.31244423579E+04 0.  0.
        5    1    3    3  502    0  0.63135084476E+03  0.23476725207E+03 -0.24319237878E+04  0.25234886470E+04  0.46999998093E+01 0. -1.
       -5    1    3    3    0  502 -0.63135084476E+03 -0.23476725207E+03  0.76377969288E+03  0.10183815891E+04  0.46999998093E+01 0.  1.
</event>
<event>
 5   0  0.7071012E-06  0.3070067E+04  0.7818609E-02  0.8224001E-01
       -2   -1    0    0    0  501  0.00000000000E+00  0.00000000000E+00  0.82185666627E+03  0.82185666627E+03  0.25500000920E-02 0.  1.
        2   -1    0    0  501    0  0.00000000000E+00  0.00000000000E+00 -0.28670788458E+04  0.28670788458E+04  0.25500000920E-02 0. -1.
    10030    2    1    2    0    0  0.00000000000E+00  0.00000000000E+00 -0.20452221795E+04  0.36889355120E+04  0.30700670104E+04 0.  0.
        1    1    3    3  502    0 -0.11216189120E+04 -0.31966769825E+02  0.23605736263E+03  0.11466359216E+04  0.50400001928E-02 0.  1.
       -1    1    3    3    0  502  0.11216189120E+04  0.31966769825E+02 -0.22812795421E+04  0.25422995904E+04  0.50400001928E-02 0. -1.
</event>
<event>
 5   0  0.2612331E-06  0.3185446E+04  0.7818609E-02  0.8192671E-01
        1   -1    0    0  501    0  0.00000000000E+00  0.00000000000E+00  0.22322123559E+04  0.22322123559E+04  0.50400001928E-02 0.  1.
       -1   -1    0    0    0  501  0.00000000000E+00  0.00000000000E+00 -0.11364362513E+04  0.11364362513E+04  0.50400001928E-02 0. -1.
    10030    2    1    2    0    0  0.00000000000E+00  0.00000000000E+00  0.10957761046E+04  0.33686486072E+04  0.31854463059E+04 0.  0.
        4    1    3    3  502    0 -0.11351341767E+03  0.15704691073E+04  0.80148584015E+03  0.17668162547E+04  0.12699999809E+01 0.  1.
       -4    1    3    3    0  502  0.11351341767E+03 -0.15704691073E+04  0.29429026443E+03  0.16018323525E+04  0.12699999809E+01 0. -1.
</event>
<event>
 5   0  0.7071012E-06  0.3090307E+04  0.7818609E-02  0.8218403E-01
        2   -1    0    0  501    0  0.00000000000E+00  0.00000000000E+00  0.18181731772E+04  0.18181731772E+04  0.25500000920E-02 0.  1.
       -2   -1    0    0    0  501  0.00000000000E+00  0.00000000000E+00 -0.13131306599E+04  0.13131306599E+04  0.25500000920E-02 0. -1.
    10030    2    1    2    0    0  0.00000000000E+00  0.00000000000E+00  0.50504251732E+03  0.31313038370E+04  0.30903067446E+04 0.  0.
        1    1    3    3  502    0  0.77591220762E+03  0.39253633532E+03  0.15467184231E+04  0.17743907148E+04  0.50400001928E-02 0.  1.
       -1    1    3    3    0  502 -0.77591220762E+03 -0.39253633532E+03 -0.10416759058E+04  0.13569131222E+04  0.50400001928E-02 0. -1.
</event>
<event>
 5   0  0.2612331E-06  0.3047233E+04  0.7818609E-02  0.8230370E-01
        1   -1    0    0  501    0  0.00000000000E+00  0.00000000000E+00  0.16147801686E+04  0.16147801687E+04  0.50400001928E-02 0.  1.
       -1   -1    0    0    0  501  0.00000000000E+00  0.00000000000E+00 -0.14375995176E+04  0.14375995176E+04  0.50400001928E-02 0. -1.
    10030    2    1    2    0    0  0.00000000000E+00  0.00000000000E+00  0.17718065106E+03  0.30523796862E+04  0.30472329688E+04 0.  0.
        4    1    3    3  502    0 -0.54917312778E+03 -0.53221038160E+03 -0.12314239064E+04  0.14495673371E+04  0.12699999809E+01 0. -1.
       -4    1    3    3    0  502  0.54917312778E+03  0.53221038160E+03  0.14086045574E+04  0.16028123492E+04  0.12699999809E+01 0.  1.
</event>
<event>
 5   0  0.7363513E-06  0.2185014E+04  0.7818609E-02  0.8524692E-01
        2   -1    0    0  501    0  0.00000000000E+00  0.00000000000E+00  0.13656450558E+04  0.13656450558E+04  0.25500000920E-02 0. -1.
       -2   -1    0    0    0  501  0.00000000000E+00  0.00000000000E+00 -0.87399834547E+03  0.87399834547E+03  0.25500000920E-02 0.  1.
    10030    2    1    2    0    0  0.00000000000E+00  0.00000000000E+00  0.49164671030E+03  0.22396434012E+04  0.21850139764E+04 0.  0.
        4    1    3    3  502    0  0.66688576277E+03  0.23949234330E+03 -0.60651774753E+03  0.93271570912E+03  0.12699999809E+01 0.  1.
       -4    1    3    3    0  502 -0.66688576277E+03 -0.23949234330E+03  0.10981644578E+04  0.13069276921E+04  0.12699999809E+01 0. -1.
</event>
<event>
 5   0  0.2624011E-06  0.3124979E+04  0.7818609E-02  0.8208916E-01
        1   -1    0    0  501    0  0.00000000000E+00  0.00000000000E+00  0.20678610055E+04  0.20678610055E+04  0.50400001928E-02 0. -1.
       -1   -1    0    0    0  501  0.00000000000E+00  0.00000000000E+00 -0.11806273585E+04  0.11806273585E+04  0.50400001928E-02 0.  1.
    10030    2    1    2    0    0  0.00000000000E+00  0.00000000000E+00  0.88723364702E+03  0.32484883640E+04  0.31249788970E+04 0.  0.
        1    1    3    3  502    0  0.61534736315E+03 -0.14357699616E+04  0.40634564840E+03  0.16140646040E+04  0.50400001928E-02 0. -1.
       -1    1    3    3    0  502 -0.61534736315E+03  0.14357699616E+04  0.48088799862E+03  0.16344237600E+04  0.50400001928E-02 0.  1.
</event>
<event>
 5   0  0.7079223E-06  0.3184288E+04  0.7818609E-02  0.8192979E-01
        2   -1    0    0  501    0  0.00000000000E+00  0.00000000000E+00  0.17680445942E+04  0.17680445942E+04  0.25500000920E-02 0. -1.
       -2   -1    0    0    0  501  0.00000000000E+00  0.00000000000E+00 -0.14337433904E+04  0.14337433904E+04  0.25500000920E-02 0.  1.
    10030    2    1    2    0    0  0.00000000000E+00  0.00000000000E+00  0.33430120379E+03  0.32017879845E+04  0.31842878329E+04 0.  0.
        5    1    3    3  502    0 -0.14506754959E+04  0.63771213275E+03  0.12147622792E+02  0.15847100092E+04  0.46999998093E+01 0. -1.
       -5    1    3    3    0  502  0.14506754959E+04 -0.63771213275E+03  0.32215358100E+03  0.16170779753E+04  0.46999998093E+01 0.  1.
</event>
<event>
 5   0  0.7079223E-06  0.2894833E+04  0.7818609E-02  0.8274416E-01
       -2   -1    0    0    0  501  0.00000000000E+00  0.00000000000E+00  0.10853520796E+04  0.10853520796E+04  0.25500000920E-02 0. -1.
        2   -1    0    0  501    0  0.00000000000E+00  0.00000000000E+00 -0.19302627781E+04  0.19302627781E+04  0.25500000920E-02 0.  1.
    10030    2    1    2    0    0  0.00000000000E+00  0.00000000000E+00 -0.84491069846E+03  0.30156148577E+04  0.28948331353E+04 0.  0.
        5    1    3    3  502    0 -0.10526801145E+03 -0.19711840088E+02 -0.19261216253E+04  0.19291025157E+04  0.46999998093E+01 0.  1.
       -5    1    3    3    0  502  0.10526801145E+03  0.19711840088E+02  0.10812109268E+04  0.10865123419E+04  0.46999998093E+01 0. -1.
</event>
<event>
 5   0  0.7414808E-06  0.2895373E+04  0.7818609E-02  0.8274256E-01
        2   -1    0    0  501    0  0.00000000000E+00  0.00000000000E+00  0.12274252187E+04  0.12274252187E+04  0.25500000920E-02 0.  1.
       -2   -1    0    0    0  501  0.00000000000E+00  0.00000000000E+00 -0.17074732512E+04  0.17074732512E+04  0.25500000920E-02 0. -1.
    10030    2    1    2    0    0  0.00000000000E+00  0.00000000000E+00 -0.48004803252E+03  0.29348984699E+04  0.28953726730E+04 0.  0.
        2    1    3    3  502    0 -0.10146365905E+04  0.91482846858E+03  0.24546863284E+03  0.13880394041E+04  0.25500000920E-02 0. -1.
       -2    1    3    3    0  502  0.10146365905E+04 -0.91482846858E+03 -0.72551666536E+03  0.15468590658E+04  0.25500000920E-02 0.  1.
</event>
<event>
 5   0  0.7414808E-06  0.3038559E+04  0.7818609E-02  0.8232805E-01
       -2   -1    0    0    0  501  0.00000000000E+00  0.00000000000E+00  0.15307380546E+04  0.15307380546E+04  0.25500000920E-02 0. -1.
        2   -1    0    0  501    0  0.00000000000E+00  0.00000000000E+00 -0.15079068486E+04  0.15079068486E+04  0.25500000920E-02 0.  1.
    10030    2    1    2    0    0  0.00000000000E+00  0.00000000000E+00  0.22831206000E+02  0.30386449032E+04  0.30385591295E+04 0.  0.
        2    1    3    3  502    0 -0.15627154451E+03 -0.14510793362E+04  0.43351561341E+03  0.15224939483E+04  0.25500000920E-02 0.  1.
       -2    1    3    3    0  502  0.15627154451E+03  0.14510793362E+04 -0.41068440741E+03  0.15161509549E+04  0.25500000920E-02 0. -1.
</event>
<event>
 5   0  0.7071012E-06  0.3139045E+04  0.7818609E-02  0.8205103E-01
       -2   -1    0    0    0  501  0.00000000000E+00  0.00000000000E+00  0.12893668703E+04  0.12893668703E+04  0.25500000920E-02 0.  1.
        2   -1    0    0  501    0  0.00000000000E+00  0.00000000000E+00 -0.19105510314E+04  0.19105510314E+04  0.25500000920E-02 0. -1.
    10030    2    1    2    0    0  0.00000000000E+00  0.00000000000E+00 -0.62118416111E+03  0.31999179016E+04  0.31390452076E+04 0.  0.
        1    1    3    3  502    0 -0.12201596913E+04 -0.25859331466E+03  0.66063827684E+03  0.14114188278E+04  0.50400001928E-02 0.  1.
       -1    1    3    3    0  502  0.12201596913E+04  0.25859331466E+03 -0.12818224380E+04  0.17884990738E+04  0.50400001928E-02 0. -1.
</event>
<event>
 5   0  0.2517725E-06  0.2898043E+04  0.7818609E-02  0.8273460E-01
        1   -1    0    0  501    0  0.00000000000E+00  0.00000000000E+00  0.13828015252E+04  0.13828015252E+04  0.50400001928E-02 0.  1.
       -1   -1    0    0    0  501  0.00000000000E+00  0.00000000000E+00 -0.15184123957E+04  0.15184123957E+04  0.50400001928E-02 0. -1.
    10030    2    1    2    0    0  0.00000000000E+00  0.00000000000E+00 -0.13561087046E+03  0.29012139209E+04  0.28980427717E+04 0.  0.
        3    1    3    3  502    0 -0.86823123860E+03  0.88977769755E+03 -0.81302117755E+03  0.14854404330E+04  0.10100000352E+00 0.  1.
       -3    1    3    3    0  502  0.86823123860E+03 -0.88977769755E+03  0.67741030708E+03  0.14157734879E+04  0.10100000352E+00 0. -1.
</event>
<event>
 5   0  0.2517725E-06  0.3132618E+04  0.7818609E-02  0.8206843E-01
       -1   -1    0    0    0  501  0.00000000000E+00  0.00000000000E+00  0.12818761282E+04  0.12818761282E+04  0.50400001928E-02 0.  1.
        1   -1    0    0  501    0  0.00000000000E+00  0.00000000000E+00 -0.19138543431E+04  0.19138543431E+04  0.50400001928E-02 0. -1.
    10030    2    1    2    0    0  0.00000000000E+00  0.00000000000E+00 -0.63197821487E+03  0.31957304712E+04  0.31326181990E+04 0.  0.
        3    1    3    3  502    0  0.62435049391E+03  0.68009144814E+03 -0.16067817476E+04  0.18531285739E+04  0.10100000352E+00 0. -1.
       -3    1    3    3    0  502 -0.62435049391E+03 -0.68009144814E+03  0.97480353269E+03  0.13426018973E+04  0.10100000352E+00 0.  1.
</event>
<event>
 5   0  0.2393250E-06  0.3074473E+04  0.7818609E-02  0.8222779E-01
       -3   -1    0    0    0  501  0.00000000000E+00  0.00000000000E+00  0.20993738070E+04  0.20993738095E+04  0.10100000352E+00 0.  1.
        3   -1    0    0  501    0  0.00000000000E+00  0.00000000000E+00 -0.11256192428E+04  0.11256192473E+04  0.10100000352E+00 0. -1.
    10030    2    1    2    0    0  0.00000000000E+00  0.00000000000E+00  0.97375456426E+03  0.32249930568E+04  0.30744726808E+04 0.  0.
        3    1    3    3  502    0 -0.53549192112E+03 -0.76898084505E+03  0.17651490242E+04  0.19984579619E+04  0.10100000352E+00 0.  1.
       -3    1    3    3    0  502  0.53549192112E+03  0.76898084505E+03 -0.79139445991E+03  0.12265350949E+04  0.10100000352E+00 0. -1.
</event>
<event>
 5   0  0.7094341E-06  0.3051226E+04  0.7818609E-02  0.8229252E-01
        2   -1    0    0  501    0  0.00000000000E+00  0.00000000000E+00  0.15091436608E+04  0.15091436608E+04  0.25500000920E-02 0.  1.
       -2   -1    0    0    0  501  0.00000000000E+00  0.00000000000E+00 -0.15422619949E+04  0.15422619949E+04  0.25500000920E-02 0. -1.
    10030    2    1    2    0    0  0.00000000000E+00  0.00000000000E+00 -0.33118334125E+02  0.30514056557E+04  0.30512259260E+04 0.  0.
        3    1    3    3  502    0 -0.11569799945E+04 -0.40340739297E+03 -0.92554321580E+03  0.15355684573E+04  0.10100000352E+00 0. -1.
       -3    1    3    3    0  502  0.11569799945E+04  0.40340739297E+03  0.89242488167E+03  0.15158371984E+04  0.10100000352E+00 0.  1.
</event>
<event>
 5   0  0.2624011E-06  0.2916195E+04  0.7818609E-02  0.8268075E-01
        1   -1    0    0  501    0  0.00000000000E+00  0.00000000000E+00  0.92724236338E+03  0.92724236339E+03  0.50400001928E-02 0.  1.
       -1   -1    0    0    0  501  0.00000000000E+00  0.00000000000E+00 -0.22928730546E+04  0.22928730546E+04  0.50400001928E-02 0. -1.
    10030    2    1    2    0    0  0.00000000000E+00  0.00000000000E+00 -0.13656306913E+04  0.32201154180E+04  0.29161954874E+04 0.  0.
        1    1    3    3  502    0  0.10070667239E+04  0.20808873825E+03  0.45863026017E+03  0.11259778084E+04  0.50400001928E-02 0.  1.
       -1    1    3    3    0  502 -0.10070667239E+04 -0.20808873825E+03 -0.18242609514E+04  0.20941376097E+04  0.50400001928E-02 0. -1.
</event>
<event>
 5   0  0.7414808E-06  0.2645172E+04  0.7818609E-02  0.8353017E-01
        2   -1    0    0  501    0  0.00000000000E+00  0.00000000000E+00  0.13916110878E+04  0.13916110878E+04  0.25500000920E-02 0.  1.
       -2   -1    0    0    0  501  0.00000000000E+00  0.00000000000E+00 -0.12569843125E+04  0.12569843125E+04  0.25500000920E-02 0. -1.
    10030    2    1    2    0    0  0.00000000000E+00  0.00000000000E+00  0.13462677533E+03  0.26485954003E+04  0.26451716817E+04 0.  0.
        2    1    3    3  502    0 -0.94913411646E+03  0.46830407044E+03  0.86147869136E+03  0.13646647241E+04  0.25500000920E-02 0.  1.
       -2    1    3    3    0  502  0.94913411646E+03 -0.46830407044E+03 -0.72685191603E+03  0.12839306762E+04  0.25500000920E-02 0. -1.
</event>
<event>
 5   0  0.2612331E-06  0.2449049E+04  0.7818609E-02  0.8421365E-01
       -1   -1    0    0    0  501  0.00000000000E+00  0.00000000000E+00  0.11652132830E+04  0.11652132831E+04  0.50400001928E-02 0.  1.
        1   -1    0    0  501    0  0.00000000000E+00  0.00000000000E+00 -0.12868543714E+04  0.12868543714E+04  0.50400001928E-02 0. -1.
    10030    2    1    2    0    0  0.00000000000E+00  0.00000000000E+00 -0.12164108834E+03  0.24520676544E+04  0.24490486372E+04 0.  0.
        4    1    3    3  502    0 -0.39237732478E+03  0.11595396239E+04 -0.91940841646E+02  0.12275776292E+04  0.12699999809E+01 0.  1.
       -4    1    3    3    0  502  0.39237732478E+03 -0.11595396239E+04 -0.29700246694E+02  0.12244900253E+04  0.12699999809E+01 0. -1.
</event>
<event>
 5   0  0.2624011E-06  0.3121426E+04  0.7818609E-02  0.8209882E-01
        1   -1    0    0  501    0  0.00000000000E+00  0.00000000000E+00  0.17038228765E+04  0.17038228765E+04  0.50400001928E-02 0.  1.
       -1   -1    0    0    0  501  0.00000000000E+00  0.00000000000E+00 -0.14296236750E+04  0.14296236750E+04  0.50400001928E-02 0. -1.
    10030    2    1    2    0    0  0.00000000000E+00  0.00000000000E+00  0.27419920151E+03  0.31334465516E+04  0.31214262909E+04 0.  0.
        1    1    3    3  502    0 -0.50198095562E+03 -0.10783545909E+04  0.11514321940E+04  0.16554847027E+04  0.50400001928E-02 0.  1.
       -1    1    3    3    0  502  0.50198095562E+03  0.10783545909E+04 -0.87723299253E+03  0.14779618489E+04  0.50400001928E-02 0. -1.
</event>
<event>
 5   0  0.2598987E-06  0.3104322E+04  0.7818609E-02  0.8214553E-01
       -1   -1    0    0    0  501  0.00000000000E+00  0.00000000000E+00  0.14785498146E+04  0.14785498146E+04  0.50400001928E-02 0.  1.
        1   -1    0    0  501    0  0.00000000000E+00  0.00000000000E+00 -0.16294365438E+04  0.16294365438E+04  0.50400001928E-02 0. -1.
    10030    2    1    2    0    0  0.00000000000E+00  0.00000000000E+00 -0.15088672919E+03  0.31079863584E+04  0.31043215683E+04 0.  0.
        2    1    3    3  502    0  0.14729191761E+04 -0.96974013734E+01 -0.56552933133E+03  0.15777859054E+04  0.25500000920E-02 0. -1.
       -2    1    3    3    0  502 -0.14729191761E+04  0.96974013734E+01  0.41464260213E+03  0.15302004530E+04  0.25500000920E-02 0.  1.
</event>
<event>
 5   0  0.2517725E-06  0.3103393E+04  0.7818609E-02  0.8214807E-01
        1   -1    0    0  501    0  0.00000000000E+00  0.00000000000E+00  0.20325069435E+04  0.20325069435E+04  0.50400001928E-02 0.  1.
       -1   -1    0    0    0  501  0.00000000000E+00  0.00000000000E+00 -0.11846268535E+04  0.11846268535E+04  0.50400001928E-02 0. -1.
    10030    2    1    2    0    0  0.00000000000E+00  0.00000000000E+00  0.84788009007E+03  0.32171337970E+04  0.31033931786E+04 0.  0.
        3    1    3    3  502    0  0.10851691576E+04 -0.98874974898E+03  0.94489594349E+03  0.17458655507E+04  0.10100000352E+00 0.  1.
       -3    1    3    3    0  502 -0.10851691576E+04  0.98874974898E+03 -0.97015853427E+02  0.14712682464E+04  0.10100000352E+00 0. -1.
</event>
<event>
 5   0  0.7363513E-06  0.3193151E+04  0.7818609E-02  0.8190628E-01
        2   -1    0    0  501    0  0.00000000000E+00  0.00000000000E+00  0.24147459383E+04  0.24147459383E+04  0.25500000920E-02 0. -1.
       -2   -1    0    0    0  501  0.00000000000E+00  0.00000000000E+00 -0.10556199164E+04  0.10556199164E+04  0.25500000920E-02 0.  1.
    10030    2    1    2    0    0  0.00000000000E+00  0.00000000000E+00  0.13591260220E+04  0.34703658547E+04  0.31931513622E+04 0.  0.
        4    1    3    3  502    0  0.67270298976E+03 -0.75156446198E+03  0.20246144812E+04  0.22619557607E+04  0.12699999809E+01 0. -1.
       -4    1    3    3    0  502 -0.67270298976E+03  0.75156446198E+03 -0.66548845929E+03  0.12084100940E+04  0.12699999809E+01 0.  1.
</event>
<event>
 5   0  0.7363513E-06  0.3157708E+04  0.7818609E-02  0.8200077E-01
       -2   -1    0    0    0  501  0.00000000000E+00  0.00000000000E+00  0.16897758598E+04  0.16897758598E+04  0.25500000920E-02 0. -1.
        2   -1    0    0  501    0  0.00000000000E+00  0.00000000000E+00 -0.14752129492E+04  0.14752129492E+04  0.25500000920E-02 0.  1.
    10030    2    1    2    0    0  0.00000000000E+00  0.00000000000E+00  0.21456291059E+03  0.31649888089E+04  0.31577075416E+04 0.  0.
        4    1    3    3  502    0 -0.25951796630E+03  0.16173636342E+03  0.16598106694E+04  0.16877444407E+04  0.12699999809E+01 0. -1.
       -4    1    3    3    0  502  0.25951796630E+03 -0.16173636342E+03 -0.14452477588E+04  0.14772443682E+04  0.12699999809E+01 0.  1.
</event>
<event>
 5   0  0.2598987E-06  0.3156835E+04  0.7818609E-02  0.8200311E-01
       -1   -1    0    0    0  501  0.00000000000E+00  0.00000000000E+00  0.90586163264E+03  0.90586163266E+03  0.50400001928E-02 0.  1.
        1   -1    0    0  501    0  0.00000000000E+00  0.00000000000E+00 -0.27503115192E+04  0.27503115192E+04  0.50400001928E-02 0. -1.
    10030    2    1    2    0    0  0.00000000000E+00  0.00000000000E+00 -0.18444498866E+04  0.36561731519E+04  0.31568349232E+04 0.  0.
        2    1    3    3  502    0 -0.51723073980E+03 -0.28347100976E+02 -0.26490625550E+04  0.26992338944E+04  0.25500000920E-02 0. -1.
       -2    1    3    3    0  502  0.51723073980E+03  0.28347100976E+02  0.80461266842E+03  0.95693925749E+03  0.25500000920E-02 0.  1.
</event>
<event>
 5   0  0.7363513E-06  0.3069690E+04  0.7818609E-02  0.8224106E-01
        2   -1    0    0  501    0  0.00000000000E+00  0.00000000000E+00  0.19919817843E+04  0.19919817843E+04  0.25500000920E-02 0. -1.
       -2   -1    0    0    0  501  0.00000000000E+00  0.00000000000E+00 -0.11826157394E+04  0.11826157394E+04  0.25500000920E-02 0.  1.
    10030    2    1    2    0    0  0.00000000000E+00  0.00000000000E+00  0.80936604484E+03  0.31745975237E+04  0.30696898936E+04 0.  0.
        4    1    3    3  502    0  0.42420270753E+03  0.85482139015E+03 -0.83851437334E+03  0.12703446435E+04  0.12699999809E+01 0.  1.
       -4    1    3    3    0  502 -0.42420270753E+03 -0.85482139015E+03  0.16478804182E+04  0.19042528802E+04  0.12699999809E+01 0. -1.
</event>
<event>
 5   0  0.7071012E-06  0.3074769E+04  0.7818609E-02  0.8222697E-01
       -2   -1    0    0    0  501  0.00000000000E+00  0.00000000000E+00  0.97103178574E+03  0.97103178574E+03  0.25500000920E-02 0.  1.
        2   -1    0    0  501    0  0.00000000000E+00  0.00000000000E+00 -0.24340620502E+04  0.24340620502E+04  0.25500000920E-02 0. -1.
    10030    2    1    2    0    0  0.00000000000E+00  0.00000000000E+00 -0.14630302645E+04  0.34050938359E+04  0.30747693372E+04 0.  0.
        1    1    3    3  502    0  0.12813231957E+04 -0.53659599456E+03 -0.20997040839E+01  0.13891467892E+04  0.50400001928E-02 0.  1.
       -1    1    3    3    0  502 -0.12813231957E+04  0.53659599456E+03 -0.14609305604E+04  0.20159470468E+04  0.50400001928E-02 0. -1.
</event>
<event>
 5   0  0.7363513E-06  0.3135450E+04  0.7818609E-02  0.8206076E-01
        2   -1    0    0  501    0  0.00000000000E+00  0.00000000000E+00  0.12263238390E+04  0.12263238390E+04  0.25500000920E-02 0. -1.
       -2   -1    0    0    0  501  0.00000000000E+00  0.00000000000E+00 -0.20041708028E+04  0.20041708028E+04  0.25500000920E-02 0.  1.
    10030    2    1    2    0    0  0.00000000000E+00  0.00000000000E+00 -0.77784696380E+03  0.32304946419E+04  0.31354504831E+04 0.  0.
        4    1    3    3  502    0 -0.15257436372E+04  0.35398438488E+03 -0.31933175495E+03  0.15984908426E+04  0.12699999809E+01 0.  1.
       -4    1    3    3    0  502  0.15257436372E+04 -0.35398438488E+03 -0.45851520884E+03  0.16320037993E+04  0.12699999809E+01 0. -1.
</event>
<event>
 5   0  0.2517725E-06  0.3089526E+04  0.7818609E-02  0.8218618E-01
        1   -1    0    0  501    0  0.00000000000E+00  0.00000000000E+00  0.20654891883E+04  0.20654891883E+04  0.50400001928E-02 0.  1.
       -1   -1    0    0    0  501  0.00000000000E+00  0.00000000000E+00 -0.11553160973E+04  0.11553160973E+04  0.50400001928E-02 0. -1.
    10030    2    1    2    0    0  0.00000000000E+00  0.00000000000E+00  0.91017309096E+03  0.32208052856E+04  0.30895261178E+04 0.  0.
        3    1    3    3  502    0 -0.73998296656E+03  0.16403903265E+03  0.18583164839E+04  0.20069438855E+04  0.10100000352E+00 0.  1.
       -3    1    3    3    0  502  0.73998296656E+03 -0.16403903265E+03 -0.94814339290E+03  0.12138614001E+04  0.10100000352E+00 0. -1.
</event>
<event>
 5   0  0.7079223E-06  0.3085862E+04  0.7818609E-02  0.8219629E-01
       -2   -1    0    0    0  501  0.00000000000E+00  0.00000000000E+00  0.21389059139E+04  0.21389059139E+04  0.25500000920E-02 0. -1.
        2   -1    0    0  501    0  0.00000000000E+00  0.00000000000E+00 -0.11130155243E+04  0.11130155243E+04  0.25500000920E-02 0.  1.
    10030    2    1    2    0    0  0.00000000000E+00  0.00000000000E+00  0.10258903897E+04  0.32519214382E+04  0.30858616218E+04 0.  0.
        5    1    3    3  502    0  0.67334042535E+03 -0.84323563274E+03  0.16750959785E+04  0.19925868332E+04  0.46999998093E+01 0. -1.
       -5    1    3    3    0  502 -0.67334042535E+03  0.84323563274E+03 -0.64920558883E+03  0.12593346050E+04  0.46999998093E+01 0.  1.
</event>
<event>
 5   0  0.2517725E-06  0.3068522E+04  0.7818609E-02  0.8224430E-01
       -1   -1    0    0    0  501  0.00000000000E+00  0.00000000000E+00  0.99936119881E+03  0.99936119882E+03  0.50400001928E-02 0. -1.
        1   -1    0    0  501    0  0.00000000000E+00  0.00000000000E+00 -0.23554609894E+04  0.23554609894E+04  0.50400001928E-02 0.  1.
    10030    2    1    2    0    0  0.00000000000E+00  0.00000000000E+00 -0.13560997906E+04  0.33548221882E+04  0.30685216754E+04 0.  0.
        3    1    3    3  502    0  0.65942993542E+03  0.13636693343E+04 -0.41133246656E+03  0.15695974966E+04  0.10100000352E+00 0.  1.
       -3    1    3    3    0  502 -0.65942993542E+03 -0.13636693343E+04 -0.94476732402E+03  0.17852246917E+04  0.10100000352E+00 0. -1.
</event>
<event>
 5   0  0.2517725E-06  0.3105078E+04  0.7818609E-02  0.8214346E-01
        1   -1    0    0  501    0  0.00000000000E+00  0.00000000000E+00  0.12826257342E+04  0.12826257342E+04  0.50400001928E-02 0. -1.
       -1   -1    0    0    0  501  0.00000000000E+00  0.00000000000E+00 -0.18792517633E+04  0.18792517633E+04  0.50400001928E-02 0.  1.
    10030    2    1    2    0    0  0.00000000000E+00  0.00000000000E+00 -0.59662602911E+03  0.31618774976E+04  0.31050775660E+04 0.  0.
        3    1    3    3  502    0 -0.23823794063E+03 -0.13474701055E+04  0.44855005193E+03  0.14400104725E+04  0.10100000352E+00 0. -1.
       -3    1    3    3    0  502  0.23823794063E+03  0.13474701055E+04 -0.10451760810E+04  0.17218670251E+04  0.10100000352E+00 0.  1.
</event>
<event>
 5   0  0.7094341E-06  0.3236491E+04  0.7818609E-02  0.8179246E-01
       -2   -1    0    0    0  501  0.00000000000E+00  0.00000000000E+00  0.17744046509E+04  0.17744046509E+04  0.25500000920E-02 0.  1.
        2   -1    0    0  501    0  0.00000000000E+00  0.00000000000E+00 -0.14758289795E+04  0.14758289795E+04  0.25500000920E-02 0. -1.
    10030    2    1    2    0    0  0.00000000000E+00  0.00000000000E+00  0.29857567150E+03  0.32502336304E+04  0.32364905717E+04 0.  0.
        3    1    3    3  502    0  0.14074280998E+04  0.31293027129E+02  0.95072713828E+03  0.16987393006E+04  0.10100000352E+00 0.  1.
       -3    1    3    3    0  502 -0.14074280998E+04 -0.31293027129E+02 -0.65215146678E+03  0.15514943298E+04  0.10100000352E+00 0. -1.
</event>
<event>
 5   0  0.2624011E-06  0.3137128E+04  0.7818609E-02  0.8205622E-01
        1   -1    0    0  501    0  0.00000000000E+00  0.00000000000E+00  0.11422096004E+04  0.11422096004E+04  0.50400001928E-02 0. -1.
       -1   -1    0    0    0  501  0.00000000000E+00  0.00000000000E+00 -0.21540638080E+04  0.21540638080E+04  0.50400001928E-02 0.  1.
    10030    2    1    2    0    0  0.00000000000E+00  0.00000000000E+00 -0.10118542076E+04  0.32962734085E+04  0.31371275789E+04 0.  0.
        1    1    3    3  502    0 -0.81022102440E+03  0.78806304789E+03  0.63685489053E+03  0.12973379003E+04  0.50400001928E-02 0. -1.
       -1    1    3    3    0  502  0.81022102440E+03 -0.78806304789E+03 -0.16487090981E+04  0.19989355082E+04  0.50400001928E-02 0.  1.
</event>
<event>
 5   0  0.2612331E-06  0.3075998E+04  0.7818609E-02  0.8222356E-01
       -1   -1    0    0    0  501  0.00000000000E+00  0.00000000000E+00  0.14085343841E+04  0.14085343841E+04  0.50400001928E-02 0. -1.
        1   -1    0    0  501    0  0.00000000000E+00  0.00000000000E+00 -0.16793628522E+04  0.16793628522E+04  0.50400001928E-02 0.  1.
    10030    2    1    2    0    0  0.00000000000E+00  0.00000000000E+00 -0.27082846815E+03  0.30878972363E+04  0.30759976077E+04 0.  0.
        4    1    3    3  502    0 -0.87869593359E+02  0.15202791908E+04  0.80985981282E+02  0.15249689260E+04  0.12699999809E+01 0. -1.
       -4    1    3    3    0  502  0.87869593359E+02 -0.15202791908E+04 -0.35181444944E+03  0.15629283103E+04  0.12699999809E+01 0.  1.
</event>
<event>
 5   0  0.2674441E-06  0.3135611E+04  0.7818609E-02  0.8206032E-01
        1   -1    0    0  501    0  0.00000000000E+00  0.00000000000E+00  0.14792938213E+04  0.14792938214E+04  0.50400001928E-02 0. -1.
       -1   -1    0    0    0  501  0.00000000000E+00  0.00000000000E+00 -0.16616134706E+04  0.16616134706E+04  0.50400001928E-02 0.  1.
    10030    2    1    2    0    0  0.00000000000E+00  0.00000000000E+00 -0.18231964920E+03  0.31409072919E+04  0.31356112900E+04 0.  0.
        5    1    3    3  502    0  0.14151720254E+04  0.27277990170E+03  0.52703057840E+03  0.15345696650E+04  0.46999998093E+01 0. -1.
       -5    1    3    3    0  502 -0.14151720254E+04 -0.27277990170E+03 -0.70935022761E+03  0.16063376269E+04  0.46999998093E+01 0.  1.
</event>
<event>
 5   0  0.2612331E-06  0.3079498E+04  0.7818609E-02  0.8221387E-01
       -1   -1    0    0    0  501  0.00000000000E+00  0.00000000000E+00  0.10706527470E+04  0.10706527471E+04  0.50400001928E-02 0.  1.
        1   -1    0    0  501    0  0.00000000000E+00  0.00000000000E+00 -0.22143750325E+04  0.22143750325E+04  0.50400001928E-02 0. -1.
    10030    2    1    2    0    0  0.00000000000E+00  0.00000000000E+00 -0.11437222855E+04  0.32850277796E+04  0.30794978237E+04 0.  0.
        4    1    3    3  502    0 -0.11679424048E+04  0.33836103525E+03 -0.15794927968E+04  0.19933330778E+04  0.12699999809E+01 0. -1.
       -4    1    3    3    0  502  0.11679424048E+04 -0.33836103525E+03  0.43577051133E+03  0.12916947017E+04  0.12699999809E+01 0.  1.
</event>
<event>
 5   0  0.2624011E-06  0.3128702E+04  0.7818609E-02  0.8207905E-01
        1   -1    0    0  501    0  0.00000000000E+00  0.00000000000E+00  0.12907429157E+04  0.12907429157E+04  0.50400001928E-02 0. -1.
       -1   -1    0    0    0  501  0.00000000000E+00  0.00000000000E+00 -0.18959580284E+04  0.18959580284E+04  0.50400001928E-02 0.  1.
    10030    2    1    2    0    0  0.00000000000E+00  0.00000000000E+00 -0.60521511268E+03  0.31867009441E+04  0.31287022189E+04 0.  0.
        1    1    3    3  502    0  0.27586048893E+03  0.12037790465E+04  0.67540678280E+03  0.14076069495E+04  0.50400001928E-02 0. -1.
       -1    1    3    3    0  502 -0.27586048893E+03 -0.12037790465E+04 -0.12806218955E+04  0.17790939945E+04  0.50400001928E-02 0.  1.
</event>
<event>
 5   0  0.7363513E-06  0.3042012E+04  0.7818609E-02  0.8231835E-01
       -2   -1    0    0    0  501  0.00000000000E+00  0.00000000000E+00  0.12483493490E+04  0.12483493490E+04  0.25500000920E-02 0. -1.
        2   -1    0    0  501    0  0.00000000000E+00  0.00000000000E+00 -0.18532148252E+04  0.18532148252E+04  0.25500000920E-02 0.  1.
    10030    2    1    2    0    0  0.00000000000E+00  0.00000000000E+00 -0.60486547617E+03  0.31015641742E+04  0.30420121766E+04 0.  0.
        4    1    3    3  502    0  0.49159962051E+03  0.31499119371E+02 -0.17696297453E+04  0.18369141052E+04  0.12699999809E+01 0.  1.
       -4    1    3    3    0  502 -0.49159962051E+03 -0.31499119371E+02  0.11647642692E+04  0.12646500690E+04  0.12699999809E+01 0. -1.
</event>
<event>
 5   0  0.2612331E-06  0.3023689E+04  0.7818609E-02  0.8236999E-01
       -1   -1    0    0    0  501  0.00000000000E+00  0.00000000000E+00  0.11974815240E+04  0.11974815240E+04  0.50400001928E-02 0.  1.
        1   -1    0    0  501    0  0.00000000000E+00  0.00000000000E+00 -0.19087336484E+04  0.19087336485E+04  0.50400001928E-02 0. -1.
    10030    2    1    2    0    0  0.00000000000E+00  0.00000000000E+00 -0.71125212447E+03  0.31062151724E+04  0.30236886600E+04 0.  0.
        4    1    3    3  502    0 -0.59647250128E+03 -0.13876777581E+04 -0.42253953729E+03  0.15684292393E+04  0.12699999809E+01 0.  1.
       -4    1    3    3    0  502  0.59647250128E+03  0.13876777581E+04 -0.28871258719E+03  0.15377859331E+04  0.12699999809E+01 0. -1.
</event>
<event>
 5   0  0.2624011E-06  0.3070098E+04  0.7818609E-02  0.8223992E-01
        1   -1    0    0  501    0  0.00000000000E+00  0.00000000000E+00  0.15119675017E+04  0.15119675017E+04  0.50400001928E-02 0. -1.
       -1   -1    0    0    0  501  0.00000000000E+00  0.00000000000E+00 -0.15584832837E+04  0.15584832837E+04  0.50400001928E-02 0.  1.
    10030    2    1    2    0    0  0.00000000000E+00  0.00000000000E+00 -0.46515781993E+02  0.30704507854E+04  0.30700984199E+04 0.  0.
        1    1    3    3  502    0  0.68127030649E+03  0.58674864833E+03  0.12210604857E+04  0.15163745964E+04  0.50400001928E-02 0. -1.
       -1    1    3    3    0  502 -0.68127030649E+03 -0.58674864833E+03 -0.12675762677E+04  0.15540761890E+04  0.50400001928E-02 0.  1.
</event>
<event>
 5   0  0.2517725E-06  0.3174303E+04  0.7818609E-02  0.8195637E-01
       -1   -1    0    0    0  501  0.00000000000E+00  0.00000000000E+00  0.10152685003E+04  0.10152685003E+04  0.50400001928E-02 0. -1.
        1   -1    0    0  501    0  0.00000000000E+00  0.00000000000E+00 -0.24811658520E+04  0.24811658520E+04  0.50400001928E-02 0.  1.
    10030    2    1    2    0    0  0.00000000000E+00  0.00000000000E+00 -0.14658973517E+04  0.34964343523E+04  0.31743027792E+04 0.  0.
        3    1    3    3  502    0 -0.86299814785E+03 -0.69164553539E+03 -0.19868532273E+04  0.22739228454E+04  0.10100000352E+00 0. -1.
       -3    1    3    3    0  502  0.86299814785E+03  0.69164553539E+03  0.52095587563E+03  0.12225115069E+04  0.10100000352E+00 0.  1.
</event>
<event>
 5   0  0.2517725E-06  0.3082908E+04  0.7818609E-02  0.8220444E-01
        1   -1    0    0  501    0  0.00000000000E+00  0.00000000000E+00  0.17460002240E+04  0.17460002240E+04  0.50400001928E-02 0. -1.
       -1   -1    0    0    0  501  0.00000000000E+00  0.00000000000E+00 -0.13608706977E+04  0.13608706977E+04  0.50400001928E-02 0.  1.
    10030    2    1    2    0    0  0.00000000000E+00  0.00000000000E+00  0.38512952629E+03  0.31068709217E+04  0.30829080706E+04 0.  0.
        3    1    3    3  502    0 -0.62060696254E+03 -0.12176677157E+04 -0.52586689750E+03  0.14643782544E+04  0.10100000352E+00 0.  1.
       -3    1    3    3    0  502  0.62060696254E+03  0.12176677157E+04  0.91099642379E+03  0.16424926673E+04  0.10100000352E+00 0. -1.
</event>
<event>
 5   0  0.7363513E-06  0.3117324E+04  0.7818609E-02  0.8210999E-01
       -2   -1    0    0    0  501  0.00000000000E+00  0.00000000000E+00  0.93225771125E+03  0.93225771125E+03  0.25500000920E-02 0. -1.
        2   -1    0    0  501    0  0.00000000000E+00  0.00000000000E+00 -0.26059617365E+04  0.26059617365E+04  0.25500000920E-02 0.  1.
    10030    2    1    2    0    0  0.00000000000E+00  0.00000000000E+00 -0.16737040252E+04  0.35382194477E+04  0.31173244451E+04 0.  0.
        4    1    3    3  502    0 -0.67241809675E+03  0.51565821925E+03 -0.23216780759E+04  0.24714854231E+04  0.12699999809E+01 0.  1.
       -4    1    3    3    0  502  0.67241809675E+03 -0.51565821925E+03  0.64797405067E+03  0.10667340246E+04  0.12699999809E+01 0. -1.
</event>
<event>
 5   0  0.2598987E-06  0.3073107E+04  0.7818609E-02  0.8223157E-01
       -1   -1    0    0    0  501  0.00000000000E+00  0.00000000000E+00  0.18251731204E+04  0.18251731204E+04  0.50400001928E-02 0.  1.
        1   -1    0    0  501    0  0.00000000000E+00  0.00000000000E+00 -0.12935744764E+04  0.12935744764E+04  0.50400001928E-02 0. -1.
    10030    2    1    2    0    0  0.00000000000E+00  0.00000000000E+00  0.53159864400E+03  0.31187475968E+04  0.30731074589E+04 0.  0.
        2    1    3    3  502    0 -0.34342031331E+03  0.11670843221E+04 -0.68674246410E+03  0.13970105721E+04  0.25500000920E-02 0. -1.
       -2    1    3    3    0  502  0.34342031331E+03 -0.11670843221E+04  0.12183411081E+04  0.17217370247E+04  0.25500000920E-02 0.  1.
</event>
<event>
 5   0  0.2612331E-06  0.2693388E+04  0.7818609E-02  0.8337153E-01
       -1   -1    0    0    0  501  0.00000000000E+00  0.00000000000E+00  0.13139651816E+04  0.13139651816E+04  0.50400001928E-02 0. -1.
        1   -1    0    0  501    0  0.00000000000E+00  0.00000000000E+00 -0.13802381988E+04  0.13802381988E+04  0.50400001928E-02 0.  1.
    10030    2    1    2    0    0  0.00000000000E+00  0.00000000000E+00 -0.66273017170E+02  0.26942033804E+04  0.26933881529E+04 0.  0.
        4    1    3    3  502    0 -0.75979562261E+03 -0.26149503725E+03  0.10478914232E+04  0.13205101629E+04  0.12699999809E+01 0. -1.
       -4    1    3    3    0  502  0.75979562261E+03  0.26149503725E+03 -0.11141644404E+04  0.13736932175E+04  0.12699999809E+01 0.  1.
</event>
<event>
 5   0  0.7363513E-06  0.3068502E+04  0.7818609E-02  0.8224436E-01
        2   -1    0    0  501    0  0.00000000000E+00  0.00000000000E+00  0.29804065889E+04  0.29804065889E+04  0.25500000920E-02 0. -1.
       -2   -1    0    0    0  501  0.00000000000E+00  0.00000000000E+00 -0.78980039428E+03  0.78980039428E+03  0.25500000920E-02 0.  1.
    10030    2    1    2    0    0  0.00000000000E+00  0.00000000000E+00  0.21906061946E+04  0.37702069832E+04  0.30685021095E+04 0.  0.
        4    1    3    3  502    0  0.13383372569E+03 -0.59753417352E+02 -0.78117830109E+03  0.79481009556E+03  0.12699999809E+01 0.  1.
       -4    1    3    3    0  502 -0.13383372569E+03  0.59753417352E+02  0.29717844957E+04  0.29753968876E+04  0.12699999809E+01 0. -1.
</event>
<event>
 5   0  0.7079223E-06  0.2833909E+04  0.7818609E-02  0.8292818E-01
       -2   -1    0    0    0  501  0.00000000000E+00  0.00000000000E+00  0.96078861858E+03  0.96078861858E+03  0.25500000920E-02 0.  1.
        2   -1    0    0  501    0  0.00000000000E+00  0.00000000000E+00 -0.20897003474E+04  0.20897003474E+04  0.25500000920E-02 0. -1.
    10030    2    1    2    0    0  0.00000000000E+00  0.00000000000E+00 -0.11289117288E+04  0.30504889660E+04  0.28339091799E+04 0.  0.
        5    1    3    3  502    0  0.17256778511E+03  0.94947594065E+03 -0.16812709507E+04  0.19385505673E+04  0.46999998093E+01 0. -1.
       -5    1    3    3    0  502 -0.17256778511E+03 -0.94947594065E+03  0.55235922192E+03  0.11119383986E+04  0.46999998093E+01 0.  1.
</event>
<event>
 5   0  0.2612331E-06  0.3130613E+04  0.7818609E-02  0.8207386E-01
        1   -1    0    0  501    0  0.00000000000E+00  0.00000000000E+00  0.19500224973E+04  0.19500224973E+04  0.50400001928E-02 0. -1.
       -1   -1    0    0    0  501  0.00000000000E+00  0.00000000000E+00 -0.12564903371E+04  0.12564903371E+04  0.50400001928E-02 0.  1.
    10030    2    1    2    0    0  0.00000000000E+00  0.00000000000E+00  0.69353216024E+03  0.32065128344E+04  0.31306129911E+04 0.  0.
        4    1    3    3  502    0  0.75865336991E+03 -0.13264569938E+04 -0.78303250176E+00  0.15280855075E+04  0.12699999809E+01 0.  1.
       -4    1    3    3    0  502 -0.75865336991E+03  0.13264569938E+04  0.69431519274E+03  0.16784273269E+04  0.12699999809E+01 0. -1.
</event>
<event>
 5   0  0.7363513E-06  0.3036455E+04  0.7818609E-02  0.8233397E-01
        2   -1    0    0  501    0  0.00000000000E+00  0.00000000000E+00  0.24969919504E+04  0.24969919504E+04  0.25500000920E-02 0. -1.
       -2   -1    0    0    0  501  0.00000000000E+00  0.00000000000E+00 -0.92311668254E+03  0.92311668254E+03  0.25500000920E-02 0.  1.
    10030    2    1    2    0    0  0.00000000000E+00  0.00000000000E+00  0.15738752679E+04  0.34201086330E+04  0.30364551211E+04 0.  0.
        4    1    3    3  502    0  0.21878549478E+03 -0.14274337848E+04  0.25913877692E+03  0.14671703451E+04  0.12699999809E+01 0. -1.
       -4    1    3    3    0  502 -0.21878549478E+03  0.14274337848E+04  0.13147364910E+04  0.19529382879E+04  0.12699999809E+01 0.  1.
</event>
<event>
 5   0  0.7094341E-06  0.3162771E+04  0.7818609E-02  0.8198719E-01
        2   -1    0    0  501    0  0.00000000000E+00  0.00000000000E+00  0.29046076609E+04  0.29046076609E+04  0.25500000920E-02 0.  1.
       -2   -1    0    0    0  501  0.00000000000E+00  0.00000000000E+00 -0.86097026208E+03  0.86097026208E+03  0.25500000920E-02 0. -1.
    10030    2    1    2    0    0  0.00000000000E+00  0.00000000000E+00  0.20436373988E+04  0.37655779230E+04  0.31627714550E+04 0.  0.
        3    1    3    3  502    0  0.58121831213E+03  0.13313824228E+04  0.27792400470E+03  0.14790658013E+04  0.10100000352E+00 0. -1.
       -3    1    3    3    0  502 -0.58121831213E+03 -0.13313824228E+04  0.17657133941E+04  0.22865121217E+04  0.10100000352E+00 0.  1.
</event>
<event>
 5   0  0.2674441E-06  0.3201039E+04  0.7818609E-02  0.8188543E-01
        1   -1    0    0  501    0  0.00000000000E+00  0.00000000000E+00  0.15896178844E+04  0.15896178844E+04  0.50400001928E-02 0. -1.
       -1   -1    0    0    0  501  0.00000000000E+00  0.00000000000E+00 -0.16114963529E+04  0.16114963529E+04  0.50400001928E-02 0.  1.
    10030    2    1    2    0    0  0.00000000000E+00  0.00000000000E+00 -0.21878468492E+02  0.32011142374E+04  0.32010394707E+04 0.  0.
        5    1    3    3  502    0  0.27119945607E+03 -0.84903600951E+03 -0.13403423327E+04  0.16096431124E+04  0.46999998093E+01 0.  1.
       -5    1    3    3    0  502 -0.27119945607E+03  0.84903600951E+03  0.13184638642E+04  0.15914711250E+04  0.46999998093E+01 0. -1.
</event>
<event>
 5   0  0.7414808E-06  0.3449925E+04  0.7818609E-02  0.8125761E-01
        2   -1    0    0  501    0  0.00000000000E+00  0.00000000000E+00  0.16945570383E+04  0.16945570383E+04  0.25500000920E-02 0. -1.
       -2   -1    0    0    0  501  0.00000000000E+00  0.00000000000E+00 -0.17559134768E+04  0.17559134768E+04  0.25500000920E-02 0.  1.
    10030    2    1    2    0    0  0.00000000000E+00  0.00000000000E+00 -0.61356438451E+02  0.34504705151E+04  0.34499249503E+04 0.  0.
        2    1    3    3  502    0 -0.48623296410E+03  0.12019550198E+04 -0.11685651156E+04  0.17454692190E+04  0.25500000920E-02 0.  1.
       -2    1    3    3    0  502  0.48623296410E+03 -0.12019550198E+04  0.11072086772E+04  0.17050012961E+04  0.25500000920E-02 0. -1.
</event>
<event>
 5   0  0.2674441E-06  0.3092714E+04  0.7818609E-02  0.8217740E-01
       -1   -1    0    0    0  501  0.00000000000E+00  0.00000000000E+00  0.83519374217E+03  0.83519374219E+03  0.50400001928E-02 0. -1.
        1   -1    0    0  501    0  0.00000000000E+00  0.00000000000E+00 -0.28630724499E+04  0.28630724499E+04  0.50400001928E-02 0.  1.
    10030    2    1    2    0    0  0.00000000000E+00  0.00000000000E+00 -0.20278787077E+04  0.36982661921E+04  0.30927141436E+04 0.  0.
        5    1    3    3  502    0  0.60371652244E+03  0.43452431276E+03  0.60720195328E+03  0.96020899804E+03  0.46999998093E+01 0. -1.
       -5    1    3    3    0  502 -0.60371652244E+03 -0.43452431276E+03 -0.26350806610E+04  0.27380571940E+04  0.46999998093E+01 0.  1.
</event>
<event>
 5   0  0.7414808E-06  0.3078694E+04  0.7818609E-02  0.8221610E-01
        2   -1    0    0  501    0  0.00000000000E+00  0.00000000000E+00  0.22595629872E+04  0.22595629872E+04  0.25500000920E-02 0.  1.
       -2   -1    0    0    0  501  0.00000000000E+00  0.00000000000E+00 -0.10486935811E+04  0.10486935811E+04  0.25500000920E-02 0. -1.
    10030    2    1    2    0    0  0.00000000000E+00  0.00000000000E+00  0.12108694061E+04  0.33082565683E+04  0.30786940093E+04 0.  0.
        2    1    3    3  502    0  0.56665913563E+03 -0.53996503213E+03  0.20297600160E+04  0.21754518001E+04  0.25500000920E-02 0.  1.
       -2    1    3    3    0  502 -0.56665913563E+03  0.53996503213E+03 -0.81889060986E+03  0.11328047682E+04  0.25500000920E-02 0. -1.
</event>
<event>
 5   0  0.2517725E-06  0.2249669E+04  0.7818609E-02  0.8498034E-01
       -1   -1    0    0    0  501  0.00000000000E+00  0.00000000000E+00  0.78874424264E+03  0.78874424266E+03  0.50400001928E-02 0. -1.
        1   -1    0    0  501    0  0.00000000000E+00  0.00000000000E+00 -0.16041360668E+04  0.16041360668E+04  0.50400001928E-02 0.  1.
    10030    2    1    2    0    0  0.00000000000E+00  0.00000000000E+00 -0.81539182415E+03  0.23928803095E+04  0.22496693865E+04 0.  0.
        3    1    3    3  502    0 -0.75668324050E+03 -0.81662421739E+03 -0.57857272615E+03  0.12546677044E+04  0.10100000352E+00 0.  1.
       -3    1    3    3    0  502  0.75668324050E+03  0.81662421739E+03 -0.23681909800E+03  0.11382126050E+04  0.10100000352E+00 0. -1.
</event>
<event>
 5   0  0.7094341E-06  0.3142418E+04  0.7818609E-02  0.8204192E-01
        2   -1    0    0  501    0  0.00000000000E+00  0.00000000000E+00  0.17563367657E+04  0.17563367657E+04  0.25500000920E-02 0. -1.
       -2   -1    0    0    0  501  0.00000000000E+00  0.00000000000E+00 -0.14055948911E+04  0.14055948911E+04  0.25500000920E-02 0.  1.
    10030    2    1    2    0    0  0.00000000000E+00  0.00000000000E+00  0.35074187461E+03  0.31619316568E+04  0.31424181675E+04 0.  0.
        3    1    3    3  502    0  0.34573445716E+03  0.13257527353E+04  0.94926679529E+03  0.16668113537E+04  0.10100000352E+00 0. -1.
       -3    1    3    3    0  502 -0.34573445716E+03 -0.13257527353E+04 -0.59852492068E+03  0.14951203031E+04  0.10100000352E+00 0.  1.
</event>
<event>
 5   0  0.2598987E-06  0.3071204E+04  0.7818609E-02  0.8223686E-01
       -1   -1    0    0    0  501  0.00000000000E+00  0.00000000000E+00  0.10873063464E+04  0.10873063464E+04  0.50400001928E-02 0. -1.
        1   -1    0    0  501    0  0.00000000000E+00  0.00000000000E+00 -0.21687292084E+04  0.21687292084E+04  0.50400001928E-02 0.  1.
    10030    2    1    2    0    0  0.00000000000E+00  0.00000000000E+00 -0.10814228620E+04  0.32560355548E+04  0.30712036936E+04 0.  0.
        2    1    3    3  502    0 -0.96864079034E+03  0.41875105782E+03  0.64197665208E+03  0.12352131197E+04  0.25500000920E-02 0. -1.
       -2    1    3    3    0  502  0.96864079034E+03 -0.41875105782E+03 -0.17233995141E+04  0.20208224351E+04  0.25500000920E-02 0.  1.
</event>
<event>
 5   0  0.2624011E-06  0.3092690E+04  0.7818609E-02  0.8217747E-01
       -1   -1    0    0    0  501  0.00000000000E+00  0.00000000000E+00  0.30187741511E+04  0.30187741511E+04  0.50400001928E-02 0.  1.
        1   -1    0    0  501    0  0.00000000000E+00  0.00000000000E+00 -0.79210415849E+03  0.79210415851E+03  0.50400001928E-02 0. -1.
    10030    2    1    2    0    0  0.00000000000E+00  0.00000000000E+00  0.22266699926E+04  0.38108783096E+04  0.30926904525E+04 0.  0.
        1    1    3    3  502    0 -0.84041028347E+03 -0.11849649572E+04  0.17662402809E+04  0.22869272232E+04  0.50400001928E-02 0.  1.
       -1    1    3    3    0  502  0.84041028347E+03  0.11849649572E+04  0.46042971173E+03  0.15239510864E+04  0.50400001928E-02 0. -1.
</event>
<event>
 5   0  0.7414808E-06  0.3148296E+04  0.7818609E-02  0.8202607E-01
        2   -1    0    0  501    0  0.00000000000E+00  0.00000000000E+00  0.23920544782E+04  0.23920544782E+04  0.25500000920E-02 0.  1.
       -2   -1    0    0    0  501  0.00000000000E+00  0.00000000000E+00 -0.10359053831E+04  0.10359053831E+04  0.25500000920E-02 0. -1.
    10030    2    1    2    0    0  0.00000000000E+00  0.00000000000E+00  0.13561490951E+04  0.34279598613E+04  0.31482961174E+04 0.  0.
        2    1    3    3  502    0 -0.83392111783E+01 -0.56240114813E+03  0.22789058266E+04  0.23472912815E+04  0.25500000920E-02 0.  1.
       -2    1    3    3    0  502  0.83392111783E+01  0.56240114813E+03 -0.92275673150E+03  0.10806685798E+04  0.25500000920E-02 0. -1.
</event>
<event>
 5   0  0.2517725E-06  0.2548108E+04  0.7818609E-02  0.8386045E-01
       -1   -1    0    0    0  501  0.00000000000E+00  0.00000000000E+00  0.10554811734E+04  0.10554811735E+04  0.50400001928E-02 0. -1.
        1   -1    0    0  501    0  0.00000000000E+00  0.00000000000E+00 -0.15378895527E+04  0.15378895527E+04  0.50400001928E-02 0.  1.
    10030    2    1    2    0    0  0.00000000000E+00  0.00000000000E+00 -0.48240837921E+03  0.25933707261E+04  0.25481079017E+04 0.  0.
        3    1    3    3  502    0 -0.59721350946E+03  0.79239165928E+03 -0.10545651591E+04  0.14479834953E+04  0.10100000352E+00 0.  1.
       -3    1    3    3    0  502  0.59721350946E+03 -0.79239165928E+03  0.57215677990E+03  0.11453872308E+04  0.10100000352E+00 0. -1.
</event>
<event>
 5   0  0.7363513E-06  0.3285380E+04  0.7818609E-02  0.8166625E-01
       -2   -1    0    0    0  501  0.00000000000E+00  0.00000000000E+00  0.13237835990E+04  0.13237835990E+04  0.25500000920E-02 0.  1.
        2   -1    0    0  501    0  0.00000000000E+00  0.00000000000E+00 -0.20384226730E+04  0.20384226730E+04  0.25500000920E-02 0. -1.
    10030    2    1    2    0    0  0.00000000000E+00  0.00000000000E+00 -0.71463907398E+03  0.33622062719E+04  0.32853800403E+04 0.  0.
        4    1    3    3  502    0  0.18175360942E+03  0.15536376699E+04 -0.87065107405E+03  0.17902120795E+04  0.12699999809E+01 0.  1.
       -4    1    3    3    0  502 -0.18175360942E+03 -0.15536376699E+04  0.15601200007E+03  0.15719941924E+04  0.12699999809E+01 0. -1.
</event>
<event>
 5   0  0.7094341E-06  0.3090567E+04  0.7818609E-02  0.8218331E-01
        2   -1    0    0  501    0  0.00000000000E+00  0.00000000000E+00  0.17058173168E+04  0.17058173168E+04  0.25500000920E-02 0.  1.
       -2   -1    0    0    0  501  0.00000000000E+00  0.00000000000E+00 -0.13998578388E+04  0.13998578388E+04  0.25500000920E-02 0. -1.
    10030    2    1    2    0    0  0.00000000000E+00  0.00000000000E+00  0.30595947800E+03  0.31056751556E+04  0.30905674187E+04 0.  0.
        3    1    3    3  502    0 -0.72953380541E+03 -0.39851292023E+03 -0.11560274812E+04  0.14238790919E+04  0.10100000352E+00 0. -1.
       -3    1    3    3    0  502  0.72953380541E+03  0.39851292023E+03  0.14619869592E+04  0.16817960637E+04  0.10100000352E+00 0.  1.
</event>
<event>
 5   0  0.7079223E-06  0.3150642E+04  0.7818609E-02  0.8201975E-01
        2   -1    0    0  501    0  0.00000000000E+00  0.00000000000E+00  0.18845257835E+04  0.18845257835E+04  0.25500000920E-02 0. -1.
       -2   -1    0    0    0  501  0.00000000000E+00  0.00000000000E+00 -0.13168493544E+04  0.13168493544E+04  0.25500000920E-02 0.  1.
    10030    2    1    2    0    0  0.00000000000E+00  0.00000000000E+00  0.56767642908E+03  0.32013751380E+04  0.31506421958E+04 0.  0.
        5    1    3    3  502    0 -0.12697080898E+04 -0.81343639651E+03 -0.17932737707E+03  0.15185578036E+04  0.46999998093E+01 0.  1.
       -5    1    3    3    0  502  0.12697080898E+04  0.81343639651E+03  0.74700380615E+03  0.16828173344E+04  0.46999998093E+01 0. -1.
</event>
<event>
 5   0  0.2612331E-06  0.2636445E+04  0.7818609E-02  0.8355926E-01
        1   -1    0    0  501    0  0.00000000000E+00  0.00000000000E+00  0.16039525825E+04  0.16039525825E+04  0.50400001928E-02 0. -1.
       -1   -1    0    0    0  501  0.00000000000E+00  0.00000000000E+00 -0.10833929506E+04  0.10833929506E+04  0.50400001928E-02 0.  1.
    10030    2    1    2    0    0  0.00000000000E+00  0.00000000000E+00  0.52055963187E+03  0.26873455331E+04  0.26364452742E+04 0.  0.
        4    1    3    3  502    0  0.31965073777E+03  0.11229531956E+04 -0.36350641359E+03  0.12228405453E+04  0.12699999809E+01 0.  1.
       -4    1    3    3    0  502 -0.31965073777E+03 -0.11229531956E+04  0.88406604545E+03  0.14645049878E+04  0.12699999809E+01 0. -1.
</event>
<event>
 5   0  0.2517725E-06  0.3131467E+04  0.7818609E-02  0.8207155E-01
        1   -1    0    0  501    0  0.00000000000E+00  0.00000000000E+00  0.80581260056E+03  0.80581260058E+03  0.50400001928E-02 0.  1.
       -1   -1    0    0    0  501  0.00000000000E+00  0.00000000000E+00 -0.30422977570E+04  0.30422977570E+04  0.50400001928E-02 0. -1.
    10030    2    1    2    0    0  0.00000000000E+00  0.00000000000E+00 -0.22364851564E+04  0.38481103576E+04  0.31314673029E+04 0.  0.
        3    1    3    3  502    0  0.84739976076E+03 -0.76405588325E+03 -0.24358415132E+04  0.26898311536E+04  0.10100000352E+00 0. -1.
       -3    1    3    3    0  502 -0.84739976076E+03  0.76405588325E+03  0.19935635673E+03  0.11582792040E+04  0.10100000352E+00 0.  1.
</event>
<event>
 5   0  0.2674441E-06  0.3010505E+04  0.7818609E-02  0.8240737E-01
       -1   -1    0    0    0  501  0.00000000000E+00  0.00000000000E+00  0.95959862853E+03  0.95959862854E+03  0.50400001928E-02 0.  1.
        1   -1    0    0  501    0  0.00000000000E+00  0.00000000000E+00 -0.23611804034E+04  0.23611804034E+04  0.50400001928E-02 0. -1.
    10030    2    1    2    0    0  0.00000000000E+00  0.00000000000E+00 -0.14015817748E+04  0.33207790319E+04  0.30105052578E+04 0.  0.
        5    1    3    3  502    0 -0.83184229478E+03 -0.12507767269E+04 -0.80750546050E+03  0.17054299114E+04  0.46999998093E+01 0. -1.
       -5    1    3    3    0  502  0.83184229478E+03  0.12507767269E+04 -0.59407631435E+03  0.16153491205E+04  0.46999998093E+01 0.  1.
</event>
<event>
 5   0  0.7363513E-06  0.3638282E+04  0.7818609E-02  0.8081779E-01
        2   -1    0    0  501    0  0.00000000000E+00  0.00000000000E+00  0.18467337293E+04  0.18467337293E+04  0.25500000920E-02 0.  1.
       -2   -1    0    0    0  501  0.00000000000E+00  0.00000000000E+00 -0.17919603566E+04  0.17919603566E+04  0.25500000920E-02 0. -1.
    10030    2    1    2    0    0  0.00000000000E+00  0.00000000000E+00  0.54773372720E+02  0.36386940860E+04  0.36382818100E+04 0.  0.
        4    1    3    3  502    0 -0.66841092103E+03 -0.10126839968E+04  0.13828889264E+04  0.18397514594E+04  0.12699999809E+01 0.  1.
       -4    1    3    3    0  502  0.66841092103E+03  0.10126839968E+04 -0.13281155537E+04  0.17989426265E+04  0.12699999809E+01 0. -1.
</event>
<event>
 5   0  0.7071012E-06  0.2026352E+04  0.7818609E-02  0.8594399E-01
       -2   -1    0    0    0  501  0.00000000000E+00  0.00000000000E+00  0.12517405851E+04  0.12517405851E+04  0.25500000920E-02 0. -1.
        2   -1    0    0  501    0  0.00000000000E+00  0.00000000000E+00 -0.82007827514E+03  0.82007827515E+03  0.25500000920E-02 0.  1.
    10030    2    1    2    0    0  0.00000000000E+00  0.00000000000E+00  0.43166231000E+03  0.20718188603E+04  0.20263516575E+04 0.  0.
        1    1    3    3  502    0  0.63392768438E+02 -0.51247265180E+03  0.11071005948E+04  0.12216049234E+04  0.50400001928E-02 0. -1.
       -1    1    3    3    0  502 -0.63392768438E+02  0.51247265180E+03 -0.67543828476E+03  0.85021393689E+03  0.50400001928E-02 0.  1.
</event>
<event>
 5   0  0.7079223E-06  0.3177713E+04  0.7818609E-02  0.8194728E-01
       -2   -1    0    0    0  501  0.00000000000E+00  0.00000000000E+00  0.13322800083E+04  0.13322800083E+04  0.25500000920E-02 0. -1.
        2   -1    0    0  501    0  0.00000000000E+00  0.00000000000E+00 -0.18948454339E+04  0.18948454339E+04  0.25500000920E-02 0.  1.
    10030    2    1    2    0    0  0.00000000000E+00  0.00000000000E+00 -0.56256542565E+03  0.32271254422E+04  0.31777128192E+04 0.  0.
        5    1    3    3  502    0 -0.27186267324E+03 -0.17612822005E+02 -0.18709418627E+04  0.18906784677E+04  0.46999998093E+01 0.  1.
       -5    1    3    3    0  502  0.27186267324E+03  0.17612822005E+02  0.13083764370E+04  0.13364469745E+04  0.46999998093E+01 0. -1.
</event>
<event>
 5   0  0.7363513E-06  0.2082506E+04  0.7818609E-02  0.8568989E-01
        2   -1    0    0  501    0  0.00000000000E+00  0.00000000000E+00  0.14096264229E+04  0.14096264229E+04  0.25500000920E-02 0.  1.
       -2   -1    0    0    0  501  0.00000000000E+00  0.00000000000E+00 -0.76914527917E+03  0.76914527918E+03  0.25500000920E-02 0. -1.
    10030    2    1    2    0    0  0.00000000000E+00  0.00000000000E+00  0.64048114372E+03  0.21787717021E+04  0.20825057105E+04 0.  0.
        4    1    3    3  502    0 -0.78629088135E+03  0.59912692928E+03 -0.21988054908E+02  0.98878284519E+03  0.12699999809E+01 0. -1.
       -4    1    3    3    0  502  0.78629088135E+03 -0.59912692928E+03  0.66246919862E+03  0.11899888569E+04  0.12699999809E+01 0.  1.
</event>
<event>
 5   0  0.7414808E-06  0.3179091E+04  0.7818609E-02  0.8194361E-01
       -2   -1    0    0    0  501  0.00000000000E+00  0.00000000000E+00  0.18074235570E+04  0.18074235570E+04  0.25500000920E-02 0.  1.
        2   -1    0    0  501    0  0.00000000000E+00  0.00000000000E+00 -0.13979315200E+04  0.13979315200E+04  0.25500000920E-02 0. -1.
    10030    2    1    2    0    0  0.00000000000E+00  0.00000000000E+00  0.40949203697E+03  0.32053550770E+04  0.31790906626E+04 0.  0.
        2    1    3    3  502    0  0.36481569048E+03  0.23597365206E+03 -0.13368989469E+04  0.14057285821E+04  0.25500000920E-02 0. -1.
       -2    1    3    3    0  502 -0.36481569048E+03 -0.23597365206E+03  0.17463909838E+04  0.17996264948E+04  0.25500000920E-02 0.  1.
</event>
<event>
 5   0  0.7079223E-06  0.3035860E+04  0.7818609E-02  0.8233564E-01
       -2   -1    0    0    0  501  0.00000000000E+00  0.00000000000E+00  0.15017390920E+04  0.15017390920E+04  0.25500000920E-02 0.  1.
        2   -1    0    0  501    0  0.00000000000E+00  0.00000000000E+00 -0.15342957681E+04  0.15342957681E+04  0.25500000920E-02 0. -1.
    10030    2    1    2    0    0  0.00000000000E+00  0.00000000000E+00 -0.32556676161E+02  0.30360348601E+04  0.30358602956E+04 0.  0.
        5    1    3    3  502    0  0.82787392193E+03 -0.12054735901E+04 -0.42317768116E+03  0.15223807825E+04  0.46999998093E+01 0. -1.
       -5    1    3    3    0  502 -0.82787392193E+03  0.12054735901E+04  0.39062100500E+03  0.15136540776E+04  0.46999998093E+01 0.  1.
</event>
<event>
 5   0  0.7079223E-06  0.3095272E+04  0.7818609E-02  0.8217037E-01
       -2   -1    0    0    0  501  0.00000000000E+00  0.00000000000E+00  0.12302685683E+04  0.12302685683E+04  0.25500000920E-02 0. -1.
        2   -1    0    0  501    0  0.00000000000E+00  0.00000000000E+00 -0.19468734650E+04  0.19468734650E+04  0.25500000920E-02 0.  1.
    10030    2    1    2    0    0  0.00000000000E+00  0.00000000000E+00 -0.71660489669E+03  0.31771420332E+04  0.30952720270E+04 0.  0.
        5    1    3    3  502    0  0.93586343368E+03  0.94714240451E+03 -0.11679861329E+04  0.17711953019E+04  0.46999998093E+01 0.  1.
       -5    1    3    3    0  502 -0.93586343368E+03 -0.94714240451E+03  0.45138123618E+03  0.14059467313E+04  0.46999998093E+01 0. -1.
</event>
<event>
 5   0  0.2598987E-06  0.3018110E+04  0.7818609E-02  0.8238578E-01
       -1   -1    0    0    0  501  0.00000000000E+00  0.00000000000E+00  0.13759004950E+04  0.13759004950E+04  0.50400001928E-02 0. -1.
        1   -1    0    0  501    0  0.00000000000E+00  0.00000000000E+00 -0.16550954456E+04  0.16550954456E+04  0.50400001928E-02 0.  1.
    10030    2    1    2    0    0  0.00000000000E+00  0.00000000000E+00 -0.27919495060E+03  0.30309959406E+04  0.30181097680E+04 0.  0.
        2    1    3    3  502    0 -0.51097866486E+03 -0.50024745475E+02 -0.15646857761E+04  0.16467675152E+04  0.25500000920E-02 0.  1.
       -2    1    3    3    0  502  0.51097866486E+03  0.50024745475E+02  0.12854908255E+04  0.13842284254E+04  0.25500000920E-02 0. -1.
</event>
<event>
 5   0  0.2598987E-06  0.2058147E+04  0.7818609E-02  0.8579908E-01
        1   -1    0    0  501    0  0.00000000000E+00  0.00000000000E+00  0.68439425677E+03  0.68439425679E+03  0.50400001928E-02 0. -1.
       -1   -1    0    0    0  501  0.00000000000E+00  0.00000000000E+00 -0.15473419384E+04  0.15473419384E+04  0.50400001928E-02 0.  1.
    10030    2    1    2    0    0  0.00000000000E+00  0.00000000000E+00 -0.86294768164E+03  0.22317361952E+04  0.20581466769E+04 0.  0.
        2    1    3    3  502    0  0.61076135983E+03  0.46319295444E+03 -0.11759797243E+04  0.14037469372E+04  0.25500000920E-02 0.  1.
       -2    1    3    3    0  502 -0.61076135983E+03 -0.46319295444E+03  0.31303204264E+03  0.82798925804E+03  0.25500000920E-02 0. -1.
</event>
<event>
 5   0  0.2393250E-06  0.3127255E+04  0.7818609E-02  0.8208298E-01
        4   -1    0    0  501    0  0.00000000000E+00  0.00000000000E+00  0.16641921019E+04  0.16641925865E+04  0.12699999809E+01 0.  1.
       -4   -1    0    0    0  501  0.00000000000E+00  0.00000000000E+00 -0.14691387689E+04  0.14691393179E+04  0.12699999809E+01 0. -1.
    10030    2    1    2    0    0  0.00000000000E+00  0.00000000000E+00  0.19505333297E+03  0.31333319044E+04  0.31272548697E+04 0.  0.
        3    1    3    3  502    0 -0.58846034831E+03 -0.94449366412E+03  0.11981041497E+04  0.16351781025E+04  0.10100000352E+00 0.  1.
       -3    1    3    3    0  502  0.58846034831E+03  0.94449366412E+03 -0.10030508167E+04  0.14981538019E+04  0.10100000352E+00 0. -1.
</event>
<event>
 5   0  0.2674441E-06  0.3155904E+04  0.7818609E-02  0.8200561E-01
        1   -1    0    0  501    0  0.00000000000E+00  0.00000000000E+00  0.28339576254E+04  0.28339576254E+04  0.50400001928E-02 0. -1.
       -1   -1    0    0    0  501  0.00000000000E+00  0.00000000000E+00 -0.87860600962E+03  0.87860600963E+03  0.50400001928E-02 0.  1.
    10030    2    1    2    0    0  0.00000000000E+00  0.00000000000E+00  0.19553516158E+04  0.37125636350E+04  0.31559038013E+04 0.  0.
        5    1    3    3  502    0 -0.11172602884E+04 -0.16031724502E+03  0.22748725660E+04  0.25394959052E+04  0.46999998093E+01 0. -1.
       -5    1    3    3    0  502  0.11172602884E+04  0.16031724502E+03 -0.31952095022E+03  0.11730677298E+04  0.46999998093E+01 0.  1.
</event>
<event>
 5   0  0.7094341E-06  0.3120942E+04  0.7818609E-02  0.8210014E-01
       -2   -1    0    0    0  501  0.00000000000E+00  0.00000000000E+00  0.19109157270E+04  0.19109157270E+04  0.25500000920E-02 0.  1.
        2   -1    0    0  501    0  0.00000000000E+00  0.00000000000E+00 -0.12742944006E+04  0.12742944006E+04  0.25500000920E-02 0. -1.
    10030    2    1    2    0    0  0.00000000000E+00  0.00000000000E+00  0.63662132638E+03  0.31852101276E+04  0.31209416598E+04 0.  0.
        3    1    3    3  502    0 -0.11359903736E+04  0.51664791513E+03  0.12744431296E+04  0.17837052721E+04  0.10100000352E+00 0.  1.
       -3    1    3    3    0  502  0.11359903736E+04 -0.51664791513E+03 -0.63782180324E+03  0.14015048555E+04  0.10100000352E+00 0. -1.
</event>
<event>
 5   0  0.2624011E-06  0.3050409E+04  0.7818609E-02  0.8229481E-01
       -1   -1    0    0    0  501  0.00000000000E+00  0.00000000000E+00  0.13549278113E+04  0.13549278113E+04  0.50400001928E-02 0. -1.
        1   -1    0    0  501    0  0.00000000000E+00  0.00000000000E+00 -0.17168798976E+04  0.17168798976E+04  0.50400001928E-02 0.  1.
    10030    2    1    2    0    0  0.00000000000E+00  0.00000000000E+00 -0.36195208623E+03  0.30718077089E+04  0.30504087083E+04 0.  0.
        1    1    3    3  502    0 -0.94871584524E+03  0.96590103780E+02 -0.13796442641E+04  0.16771433149E+04  0.50400001928E-02 0.  1.
       -1    1    3    3    0  502  0.94871584524E+03 -0.96590103780E+02  0.10176921778E+04  0.13946643940E+04  0.50400001928E-02 0. -1.
</event>
<event>
 5   0  0.2598987E-06  0.2729027E+04  0.7818609E-02  0.8325648E-01
       -1   -1    0    0    0  501  0.00000000000E+00  0.00000000000E+00  0.16897248034E+04  0.16897248034E+04  0.50400001928E-02 0. -1.
        1   -1    0    0  501    0  0.00000000000E+00  0.00000000000E+00 -0.11018937470E+04  0.11018937470E+04  0.50400001928E-02 0.  1.
    10030    2    1    2    0    0  0.00000000000E+00  0.00000000000E+00  0.58783105643E+03  0.27916185504E+04  0.27290270757E+04 0.  0.
        2    1    3    3  502    0  0.25574228008E+03 -0.44802310017E+03 -0.99829465489E+03  0.11237086055E+04  0.25500000920E-02 0.  1.
       -2    1    3    3    0  502 -0.25574228008E+03  0.44802310017E+03  0.15861257113E+04  0.16679099449E+04  0.25500000920E-02 0. -1.
</event>
<event>
 5   0  0.2674441E-06  0.3095978E+04  0.7818609E-02  0.8216843E-01
       -1   -1    0    0    0  501  0.00000000000E+00  0.00000000000E+00  0.14292466260E+04  0.14292466260E+04  0.50400001928E-02 0. -1.
        1   -1    0    0  501    0  0.00000000000E+00  0.00000000000E+00 -0.16765961897E+04  0.16765961897E+04  0.50400001928E-02 0.  1.
    10030    2    1    2    0    0  0.00000000000E+00  0.00000000000E+00 -0.24734956374E+03  0.31058428158E+04  0.30959776791E+04 0.  0.
        5    1    3    3  502    0  0.48926654710E+03 -0.85535504342E+03 -0.13213102253E+04  0.16483011879E+04  0.46999998093E+01 0.  1.
       -5    1    3    3    0  502 -0.48926654710E+03  0.85535504342E+03  0.10739606616E+04  0.14575416279E+04  0.46999998093E+01 0. -1.
</event>
<event>
 5   0  0.7414808E-06  0.2974789E+04  0.7818609E-02  0.8250967E-01
        2   -1    0    0  501    0  0.00000000000E+00  0.00000000000E+00  0.20937118915E+04  0.20937118915E+04  0.25500000920E-02 0.  1.
       -2   -1    0    0    0  501  0.00000000000E+00  0.00000000000E+00 -0.10566606317E+04  0.10566606317E+04  0.25500000920E-02 0. -1.
    10030    2    1    2    0    0  0.00000000000E+00  0.00000000000E+00  0.10370512599E+04  0.31503725232E+04  0.29747893572E+04 0.  0.
        2    1    3    3  502    0 -0.44177273936E+03  0.81776320985E+03 -0.71123902334E+03  0.11703677922E+04  0.25500000920E-02 0. -1.
       -2    1    3    3    0  502  0.44177273936E+03 -0.81776320985E+03  0.17482902832E+04  0.19800047310E+04  0.25500000920E-02 0.  1.
</event>
<event>
 5   0  0.7363513E-06  0.2514559E+04  0.7818609E-02  0.8397817E-01
       -2   -1    0    0    0  501  0.00000000000E+00  0.00000000000E+00  0.11350332851E+04  0.11350332851E+04  0.25500000920E-02 0. -1.
        2   -1    0    0  501    0  0.00000000000E+00  0.00000000000E+00 -0.13926924570E+04  0.13926924570E+04  0.25500000920E-02 0.  1.
    10030    2    1    2    0    0  0.00000000000E+00  0.00000000000E+00 -0.25765917186E+03  0.25277257421E+04  0.25145594403E+04 0.  0.
        4    1    3    3  502    0  0.85438019926E+03  0.24675092965E+03  0.76458669908E+03  0.11727940908E+04  0.12699999809E+01 0. -1.
       -4    1    3    3    0  502 -0.85438019926E+03 -0.24675092965E+03 -0.10222458709E+04  0.13549316513E+04  0.12699999809E+01 0.  1.
</event>
<event>
 5   0  0.2517725E-06  0.2672644E+04  0.7818609E-02  0.8343936E-01
        1   -1    0    0  501    0  0.00000000000E+00  0.00000000000E+00  0.17863718095E+04  0.17863718095E+04  0.50400001928E-02 0.  1.
       -1   -1    0    0    0  501  0.00000000000E+00  0.00000000000E+00 -0.99965585011E+03  0.99965585012E+03  0.50400001928E-02 0. -1.
    10030    2    1    2    0    0  0.00000000000E+00  0.00000000000E+00  0.78671595942E+03  0.27860276597E+04  0.26726444058E+04 0.  0.
        3    1    3    3  502    0 -0.77124147931E+03  0.16255688124E+03  0.15182672798E+04  0.17106646960E+04  0.10100000352E+00 0.  1.
       -3    1    3    3    0  502  0.77124147931E+03 -0.16255688124E+03 -0.73155132038E+03  0.10753629637E+04  0.10100000352E+00 0. -1.
</event>
<event>
 5   0  0.7414808E-06  0.3098370E+04  0.7818609E-02  0.8216185E-01
       -2   -1    0    0    0  501  0.00000000000E+00  0.00000000000E+00  0.12108960911E+04  0.12108960911E+04  0.25500000920E-02 0. -1.
        2   -1    0    0  501    0  0.00000000000E+00  0.00000000000E+00 -0.19819825100E+04  0.19819825100E+04  0.25500000920E-02 0.  1.
    10030    2    1    2    0    0  0.00000000000E+00  0.00000000000E+00 -0.77108641887E+03  0.31928786011E+04  0.30983704582E+04 0.  0.
        2    1    3    3  502    0  0.15461696657E+04  0.68509273648E+02 -0.31534247205E+03  0.15794856854E+04  0.25500000920E-02 0. -1.
       -2    1    3    3    0  502 -0.15461696657E+04 -0.68509273648E+02 -0.45574394683E+03  0.16133929158E+04  0.25500000920E-02 0.  1.
</event>
<event>
 5   0  0.2674441E-06  0.3096041E+04  0.7818609E-02  0.8216825E-01
       -1   -1    0    0    0  501  0.00000000000E+00  0.00000000000E+00  0.10665942261E+04  0.10665942261E+04  0.50400001928E-02 0. -1.
        1   -1    0    0  501    0  0.00000000000E+00  0.00000000000E+00 -0.22467469218E+04  0.22467469218E+04  0.50400001928E-02 0.  1.
    10030    2    1    2    0    0  0.00000000000E+00  0.00000000000E+00 -0.11801526957E+04  0.33133411479E+04  0.30960408875E+04 0.  0.
        5    1    3    3  502    0 -0.10601331015E+04 -0.51556797007E+03  0.48366405081E+03  0.12742235003E+04  0.46999998093E+01 0. -1.
       -5    1    3    3    0  502  0.10601331015E+04  0.51556797007E+03 -0.16638167466E+04  0.20391176476E+04  0.46999998093E+01 0.  1.
</event>
<event>
 5   0  0.2393250E-06  0.3078053E+04  0.7818609E-02  0.8221787E-01
       -3   -1    0    0    0  501  0.00000000000E+00  0.00000000000E+00  0.13772877616E+04  0.13772877653E+04  0.10100000352E+00 0.  1.
        3   -1    0    0  501    0  0.00000000000E+00  0.00000000000E+00 -0.17197590286E+04  0.17197590316E+04  0.10100000352E+00 0. -1.
    10030    2    1    2    0    0  0.00000000000E+00  0.00000000000E+00 -0.34247126701E+03  0.30970467969E+04  0.30780533285E+04 0.  0.
        3    1    3    3  502    0 -0.12333386282E+04 -0.47070563107E+02 -0.10962907772E+04  0.16508159461E+04  0.10100000352E+00 0. -1.
       -3    1    3    3    0  502  0.12333386282E+04  0.47070563107E+02  0.75381951014E+03  0.14462308508E+04  0.10100000352E+00 0.  1.
</event>
<event>
 5   0  0.2612331E-06  0.1963606E+04  0.7818609E-02  0.8623827E-01
        1   -1    0    0  501    0  0.00000000000E+00  0.00000000000E+00  0.59733453192E+03  0.59733453194E+03  0.50400001928E-02 0.  1.
       -1   -1    0    0    0  501  0.00000000000E+00  0.00000000000E+00 -0.16137314084E+04  0.16137314084E+04  0.50400001928E-02 0. -1.
    10030    2    1    2    0    0  0.00000000000E+00  0.00000000000E+00 -0.10163968765E+04  0.22110659404E+04  0.19636063715E+04 0.  0.
        4    1    3    3  502    0  0.86918521394E+03  0.45125645999E+03 -0.43001842691E+03  0.10695946845E+04  0.12699999809E+01 0. -1.
       -4    1    3    3    0  502 -0.86918521394E+03 -0.45125645999E+03 -0.58637844958E+03  0.11414712558E+04  0.12699999809E+01 0.  1.
</event>
<event>
 5   0  0.2598987E-06  0.3146344E+04  0.7818609E-02  0.8203133E-01
       -1   -1    0    0    0  501  0.00000000000E+00  0.00000000000E+00  0.11412854082E+04  0.11412854082E+04  0.50400001928E-02 0.  1.
        1   -1    0    0  501    0  0.00000000000E+00  0.00000000000E+00 -0.21684934604E+04  0.21684934604E+04  0.50400001928E-02 0. -1.
    10030    2    1    2    0    0  0.00000000000E+00  0.00000000000E+00 -0.10272080522E+04  0.33097788687E+04  0.31463438746E+04 0.  0.
        2    1    3    3  502    0 -0.10514008878E+04 -0.17315871432E+03  0.70385618774E+03  0.12770439696E+04  0.25500000920E-02 0.  1.
       -2    1    3    3    0  502  0.10514008878E+04  0.17315871432E+03 -0.17310642399E+04  0.20327348991E+04  0.25500000920E-02 0. -1.
</event>
<event>
 5   0  0.2674441E-06  0.3036191E+04  0.7818609E-02  0.8233471E-01
       -1   -1    0    0    0  501  0.00000000000E+00  0.00000000000E+00  0.15169803424E+04  0.15169803424E+04  0.50400001928E-02 0.  1.
        1   -1    0    0  501    0  0.00000000000E+00  0.00000000000E+00 -0.15192113749E+04  0.15192113749E+04  0.50400001928E-02 0. -1.
    10030    2    1    2    0    0  0.00000000000E+00  0.00000000000E+00 -0.22310324537E+01  0.30361917173E+04  0.30361908976E+04 0.  0.
        5    1    3    3  502    0  0.18195269074E+03 -0.12102790016E+03  0.15011622164E+04  0.15169919658E+04  0.46999998093E+01 0.  1.
       -5    1    3    3    0  502 -0.18195269074E+03  0.12102790016E+03 -0.15033932488E+04  0.15191997515E+04  0.46999998093E+01 0. -1.
</event>
<event>
 5   0  0.2624011E-06  0.2965203E+04  0.7818609E-02  0.8253738E-01
       -1   -1    0    0    0  501  0.00000000000E+00  0.00000000000E+00  0.15408548938E+04  0.15408548938E+04  0.50400001928E-02 0. -1.
        1   -1    0    0  501    0  0.00000000000E+00  0.00000000000E+00 -0.14265501692E+04  0.14265501692E+04  0.50400001928E-02 0.  1.
    10030    2    1    2    0    0  0.00000000000E+00  0.00000000000E+00  0.11430472457E+03  0.29674050630E+04  0.29652027313E+04 0.  0.
        1    1    3    3  502    0 -0.60890378599E+03  0.53666233531E+03 -0.11844691520E+04  0.14358751529E+04  0.50400001928E-02 0.  1.
       -1    1    3    3    0  502  0.60890378599E+03 -0.53666233531E+03  0.12987738766E+04  0.15315299100E+04  0.50400001928E-02 0. -1.
</event>
<event>
 5   0  0.7094341E-06  0.2989299E+04  0.7818609E-02  0.8246793E-01
        2   -1    0    0  501    0  0.00000000000E+00  0.00000000000E+00  0.12839230857E+04  0.12839230858E+04  0.25500000920E-02 0.  1.
       -2   -1    0    0    0  501  0.00000000000E+00  0.00000000000E+00 -0.17399622982E+04  0.17399622982E+04  0.25500000920E-02 0. -1.
    10030    2    1    2    0    0  0.00000000000E+00  0.00000000000E+00 -0.45603921245E+03  0.30238853840E+04  0.29892994249E+04 0.  0.
        3    1    3    3  502    0  0.14136572737E+04  0.30165325568E+01 -0.71896124799E+03  0.15859827468E+04  0.10100000352E+00 0. -1.
       -3    1    3    3    0  502 -0.14136572737E+04 -0.30165325568E+01  0.26292203554E+03  0.14379026371E+04  0.10100000352E+00 0.  1.
</event>
<event>
 5   0  0.7094341E-06  0.3082891E+04  0.7818609E-02  0.8220449E-01
        2   -1    0    0  501    0  0.00000000000E+00  0.00000000000E+00  0.26623813215E+04  0.26623813215E+04  0.25500000920E-02 0. -1.
       -2   -1    0    0    0  501  0.00000000000E+00  0.00000000000E+00 -0.89245452913E+03  0.89245452914E+03  0.25500000920E-02 0.  1.
    10030    2    1    2    0    0  0.00000000000E+00  0.00000000000E+00  0.17699267924E+04  0.35548358506E+04  0.30828910254E+04 0.  0.
        3    1    3    3  502    0 -0.12439184795E+04  0.90739010419E+03  0.96941673843E+03  0.18194666273E+04  0.10100000352E+00 0. -1.
       -3    1    3    3    0  502  0.12439184795E+04 -0.90739010419E+03  0.80051005393E+03  0.17353692234E+04  0.10100000352E+00 0.  1.
</event>
<event>
 5   0  0.2674441E-06  0.2410443E+04  0.7818609E-02  0.8435604E-01
       -1   -1    0    0    0  501  0.00000000000E+00  0.00000000000E+00  0.13631588093E+04  0.13631588093E+04  0.50400001928E-02 0.  1.
        1   -1    0    0  501    0  0.00000000000E+00  0.00000000000E+00 -0.10655833326E+04  0.10655833326E+04  0.50400001928E-02 0. -1.
    10030    2    1    2    0    0  0.00000000000E+00  0.00000000000E+00  0.29757547673E+03  0.24287421419E+04  0.24104433674E+04 0.  0.
        5    1    3    3  502    0  0.21600388098E+03  0.53987227200E+03  0.12124614649E+04  0.13446949990E+04  0.46999998093E+01 0.  1.
       -5    1    3    3    0  502 -0.21600388098E+03 -0.53987227200E+03 -0.91488598813E+03  0.10840471429E+04  0.46999998093E+01 0. -1.
</event>
<event>
 5   0  0.2517725E-06  0.2013648E+04  0.7818609E-02  0.8600266E-01
       -1   -1    0    0    0  501  0.00000000000E+00  0.00000000000E+00  0.61518350922E+03  0.61518350924E+03  0.50400001928E-02 0.  1.
        1   -1    0    0  501    0  0.00000000000E+00  0.00000000000E+00 -0.16477928769E+04  0.16477928769E+04  0.50400001928E-02 0. -1.
    10030    2    1    2    0    0  0.00000000000E+00  0.00000000000E+00 -0.10326093677E+04  0.22629763861E+04  0.20136484346E+04 0.  0.
        3    1    3    3  502    0  0.69281316362E+02 -0.23254498468E+03 -0.16144420129E+04  0.16325746825E+04  0.10100000352E+00 0. -1.
       -3    1    3    3    0  502 -0.69281316362E+02  0.23254498468E+03  0.58183264523E+03  0.63040170364E+03  0.10100000352E+00 0.  1.
</event>
<event>
 5   0  0.2517725E-06  0.3076066E+04  0.7818609E-02  0.8222337E-01
        1   -1    0    0  501    0  0.00000000000E+00  0.00000000000E+00  0.20019765473E+04  0.20019765473E+04  0.50400001928E-02 0. -1.
       -1   -1    0    0    0  501  0.00000000000E+00  0.00000000000E+00 -0.11816051343E+04  0.11816051343E+04  0.50400001928E-02 0.  1.
    10030    2    1    2    0    0  0.00000000000E+00  0.00000000000E+00  0.82037141307E+03  0.31835816816E+04  0.30760661677E+04 0.  0.
        3    1    3    3  502    0  0.11095513771E+04 -0.10611076494E+04  0.50555898589E+03  0.16163674089E+04  0.10100000352E+00 0. -1.
       -3    1    3    3    0  502 -0.11095513771E+04  0.10611076494E+04  0.31481242718E+03  0.15672142727E+04  0.10100000352E+00 0.  1.
</event>
<event>
 5   0  0.7414808E-06  0.3041572E+04  0.7818609E-02  0.8231958E-01
        2   -1    0    0  501    0  0.00000000000E+00  0.00000000000E+00  0.21644522129E+04  0.21644522129E+04  0.25500000920E-02 0. -1.
       -2   -1    0    0    0  501  0.00000000000E+00  0.00000000000E+00 -0.10685339554E+04  0.10685339554E+04  0.25500000920E-02 0.  1.
    10030    2    1    2    0    0  0.00000000000E+00  0.00000000000E+00  0.10959182575E+04  0.32329861682E+04  0.30415724119E+04 0.  0.
        2    1    3    3  502    0  0.27593988783E+03  0.16188039427E+03 -0.10323618564E+04  0.10807955802E+04  0.25500000920E-02 0.  1.
       -2    1    3    3    0  502 -0.27593988783E+03 -0.16188039427E+03  0.21282801139E+04  0.21521905880E+04  0.25500000920E-02 0. -1.
</event>
<event>
 5   0  0.7414808E-06  0.3115293E+04  0.7818609E-02  0.8211553E-01
       -2   -1    0    0    0  501  0.00000000000E+00  0.00000000000E+00  0.10692389512E+04  0.10692389512E+04  0.25500000920E-02 0. -1.
        2   -1    0    0  501    0  0.00000000000E+00  0.00000000000E+00 -0.22691497493E+04  0.22691497493E+04  0.25500000920E-02 0.  1.
    10030    2    1    2    0    0  0.00000000000E+00  0.00000000000E+00 -0.11999107981E+04  0.33383887005E+04  0.31152934360E+04 0.  0.
        2    1    3    3  502    0 -0.98243130597E+03 -0.11651362528E+04 -0.94479094570E+03  0.17931379449E+04  0.25500000920E-02 0. -1.
       -2    1    3    3    0  502  0.98243130597E+03  0.11651362528E+04 -0.25511985240E+03  0.15452507556E+04  0.25500000920E-02 0.  1.
</event>
<event>
 5   0  0.2612331E-06  0.2991624E+04  0.7818609E-02  0.8246127E-01
        1   -1    0    0  501    0  0.00000000000E+00  0.00000000000E+00  0.22570043817E+04  0.22570043817E+04  0.50400001928E-02 0.  1.
       -1   -1    0    0    0  501  0.00000000000E+00  0.00000000000E+00 -0.99133753080E+03  0.99133753081E+03  0.50400001928E-02 0. -1.
    10030    2    1    2    0    0  0.00000000000E+00  0.00000000000E+00  0.12656668509E+04  0.32483419125E+04  0.29916237402E+04 0.  0.
        4    1    3    3  502    0 -0.65598586473E+03 -0.12844859953E+04  0.20228479620E+03  0.14564142538E+04  0.12699999809E+01 0.  1.
       -4    1    3    3    0  502  0.65598586473E+03  0.12844859953E+04  0.10633820547E+04  0.17919276587E+04  0.12699999809E+01 0. -1.
</event>
<event>
 5   0  0.7071012E-06  0.3157342E+04  0.7818609E-02  0.8200175E-01
       -2   -1    0    0    0  501  0.00000000000E+00  0.00000000000E+00  0.12132386853E+04  0.12132386853E+04  0.25500000920E-02 0.  1.
        2   -1    0    0  501    0  0.00000000000E+00  0.00000000000E+00 -0.20541734075E+04  0.20541734075E+04  0.25500000920E-02 0. -1.
    10030    2    1    2    0    0  0.00000000000E+00  0.00000000000E+00 -0.84093472216E+03  0.32674120928E+04  0.31573423282E+04 0.  0.
        1    1    3    3  502    0 -0.12136800505E+04  0.52234208036E+02 -0.14638084504E+04  0.19022310210E+04  0.50400001928E-02 0. -1.
       -1    1    3    3    0  502  0.12136800505E+04 -0.52234208036E+02  0.62287372828E+03  0.13651810718E+04  0.50400001928E-02 0.  1.
</event>
<event>
 5   0  0.2393250E-06  0.3126666E+04  0.7818609E-02  0.8208458E-01
       -3   -1    0    0    0  501  0.00000000000E+00  0.00000000000E+00  0.12856459579E+04  0.12856459619E+04  0.10100000352E+00 0.  1.
        3   -1    0    0  501    0  0.00000000000E+00  0.00000000000E+00 -0.19009976807E+04  0.19009976834E+04  0.10100000352E+00 0. -1.
    10030    2    1    2    0    0  0.00000000000E+00  0.00000000000E+00 -0.61535172277E+03  0.31866436453E+04  0.31266659526E+04 0.  0.
        1    1    3    3  502    0 -0.14357571505E+04  0.35415343812E+03 -0.82453988464E+03  0.16931300229E+04  0.50400001928E-02 0. -1.
       -1    1    3    3    0  502  0.14357571505E+04 -0.35415343812E+03  0.20918816186E+03  0.14935136224E+04  0.50400001928E-02 0.  1.
</event>
<event>
 5   0  0.7079223E-06  0.2936069E+04  0.7818609E-02  0.8262226E-01
        2   -1    0    0  501    0  0.00000000000E+00  0.00000000000E+00  0.14670490714E+04  0.14670490714E+04  0.25500000920E-02 0. -1.
       -2   -1    0    0    0  501  0.00000000000E+00  0.00000000000E+00 -0.14690208822E+04  0.14690208822E+04  0.25500000920E-02 0.  1.
    10030    2    1    2    0    0  0.00000000000E+00  0.00000000000E+00 -0.19718108083E+01  0.29360699536E+04  0.29360692915E+04 0.  0.
        5    1    3    3  502    0  0.53949063300E+03 -0.12289315120E+04  0.59380900577E+03  0.14676355234E+04  0.46999998093E+01 0. -1.
       -5    1    3    3    0  502 -0.53949063300E+03  0.12289315120E+04 -0.59578081658E+03  0.14684344302E+04  0.46999998093E+01 0.  1.
</event>
<event>
 5   0  0.7079223E-06  0.3085644E+04  0.7818609E-02  0.8219689E-01
       -2   -1    0    0    0  501  0.00000000000E+00  0.00000000000E+00  0.11859738045E+04  0.11859738045E+04  0.25500000920E-02 0.  1.
        2   -1    0    0  501    0  0.00000000000E+00  0.00000000000E+00 -0.20070426109E+04  0.20070426109E+04  0.25500000920E-02 0. -1.
    10030    2    1    2    0    0  0.00000000000E+00  0.00000000000E+00 -0.82106880638E+03  0.31930164154E+04  0.30856441538E+04 0.  0.
        5    1    3    3  502    0 -0.67913870566E+01  0.15081154685E+04 -0.73915790245E+02  0.15099483512E+04  0.46999998093E+01 0.  1.
       -5    1    3    3    0  502  0.67913870566E+01 -0.15081154685E+04 -0.74715301614E+03  0.16830680642E+04  0.46999998093E+01 0. -1.
</event>
<event>
 5   0  0.7414808E-06  0.3092858E+04  0.7818609E-02  0.8217701E-01
        2   -1    0    0  501    0  0.00000000000E+00  0.00000000000E+00  0.22863679825E+04  0.22863679825E+04  0.25500000920E-02 0. -1.
       -2   -1    0    0    0  501  0.00000000000E+00  0.00000000000E+00 -0.10459568191E+04  0.10459568191E+04  0.25500000920E-02 0.  1.
    10030    2    1    2    0    0  0.00000000000E+00  0.00000000000E+00  0.12404111634E+04  0.33323248016E+04  0.30928576962E+04 0.  0.
        2    1    3    3  502    0 -0.71946654407E+02  0.14128942471E+04  0.12930541005E+04  0.19166208236E+04  0.25500000920E-02 0. -1.
       -2    1    3    3    0  502  0.71946654407E+02 -0.14128942471E+04 -0.52642937050E+02  0.14157039780E+04  0.25500000920E-02 0.  1.
</event>
<event>
 5   0  0.2674441E-06  0.1988935E+04  0.7818609E-02  0.8611811E-01
        1   -1    0    0  501    0  0.00000000000E+00  0.00000000000E+00  0.18534923728E+04  0.18534923728E+04  0.50400001928E-02 0. -1.
       -1   -1    0    0    0  501  0.00000000000E+00  0.00000000000E+00 -0.53356899030E+03  0.53356899032E+03  0.50400001928E-02 0.  1.
    10030    2    1    2    0    0  0.00000000000E+00  0.00000000000E+00  0.13199233825E+04  0.23870613631E+04  0.19889354478E+04 0.  0.
        5    1    3    3  502    0  0.22724085288E+03 -0.65084044265E+03  0.15201684840E+04  0.16691812354E+04  0.46999998093E+01 0. -1.
       -5    1    3    3    0  502 -0.22724085288E+03  0.65084044265E+03 -0.20024510152E+03  0.71788012766E+03  0.46999998093E+01 0.  1.
</event>
<event>
 5   0  0.7094341E-06  0.3192103E+04  0.7818609E-02  0.8190906E-01
       -2   -1    0    0    0  501  0.00000000000E+00  0.00000000000E+00  0.18089074042E+04  0.18089074042E+04  0.25500000920E-02 0. -1.
        2   -1    0    0  501    0  0.00000000000E+00  0.00000000000E+00 -0.14082427519E+04  0.14082427519E+04  0.25500000920E-02 0.  1.
    10030    2    1    2    0    0  0.00000000000E+00  0.00000000000E+00  0.40066465232E+03  0.32171501561E+04  0.31921032194E+04 0.  0.
        3    1    3    3  502    0 -0.68681630646E+03 -0.61651814362E+03 -0.11120253004E+04  0.14451337444E+04  0.10100000352E+00 0.  1.
       -3    1    3    3    0  502  0.68681630646E+03  0.61651814362E+03  0.15126899527E+04  0.17720164117E+04  0.10100000352E+00 0. -1.
</event>
<event>
 5   0  0.2517725E-06  0.3167158E+04  0.7818609E-02  0.8197545E-01
        1   -1    0    0  501    0  0.00000000000E+00  0.00000000000E+00  0.14368633088E+04  0.14368633088E+04  0.50400001928E-02 0. -1.
       -1   -1    0    0    0  501  0.00000000000E+00  0.00000000000E+00 -0.17452758342E+04  0.17452758342E+04  0.50400001928E-02 0.  1.
    10030    2    1    2    0    0  0.00000000000E+00  0.00000000000E+00 -0.30841252544E+03  0.31821391431E+04  0.31671582278E+04 0.  0.
        3    1    3    3  502    0 -0.61617941436E+03 -0.14529755087E+04 -0.23560826642E+02  0.15784074323E+04  0.10100000352E+00 0. -1.
       -3    1    3    3    0  502  0.61617941436E+03  0.14529755087E+04 -0.28485169880E+03  0.16037317108E+04  0.10100000352E+00 0.  1.
</event>
<event>
 5   0  0.7363513E-06  0.3116606E+04  0.7818609E-02  0.8211195E-01
        2   -1    0    0  501    0  0.00000000000E+00  0.00000000000E+00  0.20570499430E+04  0.20570499430E+04  0.25500000920E-02 0.  1.
       -2   -1    0    0    0  501  0.00000000000E+00  0.00000000000E+00 -0.11804811845E+04  0.11804811845E+04  0.25500000920E-02 0. -1.
    10030    2    1    2    0    0  0.00000000000E+00  0.00000000000E+00  0.87656875849E+03  0.32375311276E+04  0.31166063296E+04 0.  0.
        4    1    3    3  502    0  0.98525943312E+03 -0.10282958144E+04  0.10954260282E+04  0.17966881278E+04  0.12699999809E+01 0. -1.
       -4    1    3    3    0  502 -0.98525943312E+03  0.10282958144E+04 -0.21885726968E+03  0.14408429998E+04  0.12699999809E+01 0.  1.
</event>
<event>
 5   0  0.2598987E-06  0.2884465E+04  0.7818609E-02  0.8277515E-01
       -1   -1    0    0    0  501  0.00000000000E+00  0.00000000000E+00  0.14467061478E+04  0.14467061478E+04  0.50400001928E-02 0.  1.
        1   -1    0    0  501    0  0.00000000000E+00  0.00000000000E+00 -0.14377723642E+04  0.14377723643E+04  0.50400001928E-02 0. -1.
    10030    2    1    2    0    0  0.00000000000E+00  0.00000000000E+00  0.89337835345E+01  0.28844785121E+04  0.28844646772E+04 0.  0.
        2    1    3    3  502    0  0.11905788662E+04  0.10899051917E+03  0.81111637589E+03  0.14447376043E+04  0.25500000920E-02 0. -1.
       -2    1    3    3    0  502 -0.11905788662E+04 -0.10899051917E+03 -0.80218259236E+03  0.14397409078E+04  0.25500000920E-02 0.  1.
</event>
<event>
 5   0  0.2624011E-06  0.2522622E+04  0.7818609E-02  0.8394970E-01
       -1   -1    0    0    0  501  0.00000000000E+00  0.00000000000E+00  0.13327666214E+04  0.13327666214E+04  0.50400001928E-02 0.  1.
        1   -1    0    0  501    0  0.00000000000E+00  0.00000000000E+00 -0.11936867577E+04  0.11936867577E+04  0.50400001928E-02 0. -1.
    10030    2    1    2    0    0  0.00000000000E+00  0.00000000000E+00  0.13907986373E+03  0.25264533792E+04  0.25226223397E+04 0.  0.
        1    1    3    3  502    0  0.12255459154E+04  0.22153515915E+03 -0.13042613093E+03  0.12522186682E+04  0.50400001928E-02 0.  1.
       -1    1    3    3    0  502 -0.12255459154E+04 -0.22153515915E+03  0.26950599466E+03  0.12742347109E+04  0.50400001928E-02 0. -1.
</event>
<event>
 5   0  0.7079223E-06  0.2495734E+04  0.7818609E-02  0.8404507E-01
        2   -1    0    0  501    0  0.00000000000E+00  0.00000000000E+00  0.11812496863E+04  0.11812496863E+04  0.25500000920E-02 0.  1.
       -2   -1    0    0    0  501  0.00000000000E+00  0.00000000000E+00 -0.13182407647E+04  0.13182407647E+04  0.25500000920E-02 0. -1.
    10030    2    1    2    0    0  0.00000000000E+00  0.00000000000E+00 -0.13699107833E+03  0.24994904510E+04  0.24957335513E+04 0.  0.
        5    1    3    3  502    0 -0.10733162705E+04  0.14274115879E+03 -0.68972481824E+03  0.12837933127E+04  0.46999998093E+01 0.  1.
       -5    1    3    3    0  502  0.10733162705E+04 -0.14274115879E+03  0.55273373990E+03  0.12156971383E+04  0.46999998093E+01 0. -1.
</event>
<event>
 5   0  0.2674441E-06  0.3157031E+04  0.7818609E-02  0.8200258E-01
        1   -1    0    0  501    0  0.00000000000E+00  0.00000000000E+00  0.17099633055E+04  0.17099633055E+04  0.50400001928E-02 0. -1.
       -1   -1    0    0    0  501  0.00000000000E+00  0.00000000000E+00 -0.14571722550E+04  0.14571722551E+04  0.50400001928E-02 0.  1.
    10030    2    1    2    0    0  0.00000000000E+00  0.00000000000E+00  0.25279105042E+03  0.31671355605E+04  0.31570309380E+04 0.  0.
        5    1    3    3  502    0 -0.22697942177E+03  0.15601270565E+04  0.47576215037E+02  0.15772766646E+04  0.46999998093E+01 0. -1.
       -5    1    3    3    0  502  0.22697942177E+03 -0.15601270565E+04  0.20521483538E+03  0.15898588960E+04  0.46999998093E+01 0.  1.
</event>
<event>
 5   0  0.7094341E-06  0.3082763E+04  0.7818609E-02  0.8220485E-01
        2   -1    0    0  501    0  0.00000000000E+00  0.00000000000E+00  0.28168313493E+04  0.28168313493E+04  0.25500000920E-02 0.  1.
       -2   -1    0    0    0  501  0.00000000000E+00  0.00000000000E+00 -0.84344997621E+03  0.84344997621E+03  0.25500000920E-02 0. -1.
    10030    2    1    2    0    0  0.00000000000E+00  0.00000000000E+00  0.19733813730E+04  0.36602813255E+04  0.30827626146E+04 0.  0.
        3    1    3    3  502    0 -0.54422725626E+03 -0.13856093130E+04  0.51211202822E+03  0.15742792682E+04  0.10100000352E+00 0. -1.
       -3    1    3    3    0  502  0.54422725626E+03  0.13856093130E+04  0.14612693448E+04  0.20860020573E+04  0.10100000352E+00 0.  1.
</event>
<event>
 5   0  0.7071012E-06  0.3052914E+04  0.7818609E-02  0.8228780E-01
       -2   -1    0    0    0  501  0.00000000000E+00  0.00000000000E+00  0.88387474230E+03  0.88387474230E+03  0.25500000920E-02 0. -1.
        2   -1    0    0  501    0  0.00000000000E+00  0.00000000000E+00 -0.26362007799E+04  0.26362007799E+04  0.25500000920E-02 0.  1.
    10030    2    1    2    0    0  0.00000000000E+00  0.00000000000E+00 -0.17523260376E+04  0.35200755222E+04  0.30529142045E+04 0.  0.
        1    1    3    3  502    0 -0.58581393634E+03  0.80639635597E+03 -0.22091965457E+04  0.24236341366E+04  0.50400001928E-02 0.  1.
       -1    1    3    3    0  502  0.58581393634E+03 -0.80639635597E+03  0.45687050801E+03  0.10964413856E+04  0.50400001928E-02 0. -1.
</event>
<event>
 5   0  0.2598987E-06  0.3197967E+04  0.7818609E-02  0.8189354E-01
        1   -1    0    0  501    0  0.00000000000E+00  0.00000000000E+00  0.34549848846E+04  0.34549848846E+04  0.50400001928E-02 0.  1.
       -1   -1    0    0    0  501  0.00000000000E+00  0.00000000000E+00 -0.74001713057E+03  0.74001713058E+03  0.50400001928E-02 0. -1.
    10030    2    1    2    0    0  0.00000000000E+00  0.00000000000E+00  0.27149677540E+04  0.41950020152E+04  0.31979668544E+04 0.  0.
        2    1    3    3  502    0 -0.10469661538E+04 -0.84709092949E+03  0.22673462629E+03  0.13656902141E+04  0.25500000920E-02 0. -1.
       -2    1    3    3    0  502  0.10469661538E+04  0.84709092949E+03  0.24882331277E+04  0.28293118011E+04  0.25500000920E-02 0.  1.
</event>
<event>
 5   0  0.2598987E-06  0.2930255E+04  0.7818609E-02  0.8263932E-01
        1   -1    0    0  501    0  0.00000000000E+00  0.00000000000E+00  0.13929757258E+04  0.13929757258E+04  0.50400001928E-02 0.  1.
       -1   -1    0    0    0  501  0.00000000000E+00  0.00000000000E+00 -0.15410170253E+04  0.15410170253E+04  0.50400001928E-02 0. -1.
    10030    2    1    2    0    0  0.00000000000E+00  0.00000000000E+00 -0.14804129946E+03  0.29339927511E+04  0.29302554901E+04 0.  0.
        2    1    3    3  502    0 -0.11942634481E+04  0.76817645611E+03  0.28732611596E+03  0.14487637999E+04  0.25500000920E-02 0.  1.
       -2    1    3    3    0  502  0.11942634481E+04 -0.76817645611E+03 -0.43536741541E+03  0.14852289512E+04  0.25500000920E-02 0. -1.
</event>
<event>
 5   0  0.7094341E-06  0.2452251E+04  0.7818609E-02  0.8420197E-01
        2   -1    0    0  501    0  0.00000000000E+00  0.00000000000E+00  0.19341347341E+04  0.19341347341E+04  0.25500000920E-02 0. -1.
       -2   -1    0    0    0  501  0.00000000000E+00  0.00000000000E+00 -0.77728998153E+03  0.77728998153E+03  0.25500000920E-02 0.  1.
    10030    2    1    2    0    0  0.00000000000E+00  0.00000000000E+00  0.11568447526E+04  0.27114247156E+04  0.24522508450E+04 0.  0.
        3    1    3    3  502    0  0.10985555577E+03 -0.33116840393E+03 -0.72123999346E+03  0.80120402724E+03  0.10100000352E+00 0.  1.
       -3    1    3    3    0  502 -0.10985555577E+03  0.33116840393E+03  0.18780847460E+04  0.19102206884E+04  0.10100000352E+00 0. -1.
</event>
<event>
 5   0  0.7094341E-06  0.2998699E+04  0.7818609E-02  0.8244102E-01
        2   -1    0    0  501    0  0.00000000000E+00  0.00000000000E+00  0.17541200359E+04  0.17541200359E+04  0.25500000920E-02 0.  1.
       -2   -1    0    0    0  501  0.00000000000E+00  0.00000000000E+00 -0.12815822984E+04  0.12815822984E+04  0.25500000920E-02 0. -1.
    10030    2    1    2    0    0  0.00000000000E+00  0.00000000000E+00  0.47253773751E+03  0.30357023342E+04  0.29986991761E+04 0.  0.
        3    1    3    3  502    0  0.91613081455E+03  0.26366396634E+03  0.14078022035E+04  0.17002121665E+04  0.10100000352E+00 0.  1.
       -3    1    3    3    0  502 -0.91613081455E+03 -0.26366396634E+03 -0.93526446604E+03  0.13354901677E+04  0.10100000352E+00 0. -1.
</event>
<event>
 5   0  0.2612331E-06  0.2956380E+04  0.7818609E-02  0.8256298E-01
       -1   -1    0    0    0  501  0.00000000000E+00  0.00000000000E+00  0.85241686975E+03  0.85241686977E+03  0.50400001928E-02 0. -1.
        1   -1    0    0  501    0  0.00000000000E+00  0.00000000000E+00 -0.25633527984E+04  0.25633527984E+04  0.50400001928E-02 0.  1.
    10030    2    1    2    0    0  0.00000000000E+00  0.00000000000E+00 -0.17109359286E+04  0.34157696682E+04  0.29563796566E+04 0.  0.
        4    1    3    3  502    0  0.58895256518E+03 -0.64941803681E+02 -0.24201403567E+04  0.24916186548E+04  0.12699999809E+01 0.  1.
       -4    1    3    3    0  502 -0.58895256518E+03  0.64941803681E+02  0.70920442804E+03  0.92415101339E+03  0.12699999809E+01 0. -1.
</event>
<event>
 5   0  0.2612331E-06  0.2707864E+04  0.7818609E-02  0.8332458E-01
        1   -1    0    0  501    0  0.00000000000E+00  0.00000000000E+00  0.10007867093E+04  0.10007867093E+04  0.50400001928E-02 0.  1.
       -1   -1    0    0    0  501  0.00000000000E+00  0.00000000000E+00 -0.18316912902E+04  0.18316912902E+04  0.50400001928E-02 0. -1.
    10030    2    1    2    0    0  0.00000000000E+00  0.00000000000E+00 -0.83090458088E+03  0.28324779996E+04  0.27078643237E+04 0.  0.
        4    1    3    3  502    0 -0.13292304945E+04 -0.22216661641E+03 -0.55151109265E+03  0.14561517130E+04  0.12699999809E+01 0. -1.
       -4    1    3    3    0  502  0.13292304945E+04  0.22216661641E+03 -0.27939348823E+03  0.13763262866E+04  0.12699999809E+01 0.  1.
</event>
<event>
 5   0  0.2624011E-06  0.3147535E+04  0.7818609E-02  0.8202812E-01
       -1   -1    0    0    0  501  0.00000000000E+00  0.00000000000E+00  0.31815317410E+04  0.31815317411E+04  0.50400001928E-02 0.  1.
        1   -1    0    0  501    0  0.00000000000E+00  0.00000000000E+00 -0.77847553549E+03  0.77847553550E+03  0.50400001928E-02 0. -1.
    10030    2    1    2    0    0  0.00000000000E+00  0.00000000000E+00  0.24030562056E+04  0.39600072766E+04  0.31475353061E+04 0.  0.
        1    1    3    3  502    0 -0.15538921748E+03  0.10077327637E+04 -0.30669247948E+03  0.10647682419E+04  0.50400001928E-02 0. -1.
       -1    1    3    3    0  502  0.15538921748E+03 -0.10077327637E+04  0.27097486850E+04  0.28952390347E+04  0.50400001928E-02 0.  1.
</event>
<event>
 5   0  0.2624011E-06  0.3163786E+04  0.7818609E-02  0.8198447E-01
       -1   -1    0    0    0  501  0.00000000000E+00  0.00000000000E+00  0.20206985529E+04  0.20206985529E+04  0.50400001928E-02 0. -1.
        1   -1    0    0  501    0  0.00000000000E+00  0.00000000000E+00 -0.12383764744E+04  0.12383764744E+04  0.50400001928E-02 0.  1.
    10030    2    1    2    0    0  0.00000000000E+00  0.00000000000E+00  0.78232207851E+03  0.32590750272E+04  0.31637860545E+04 0.  0.
        1    1    3    3  502    0 -0.53199964986E+02  0.15718010125E+04  0.56657451947E+03  0.16716445033E+04  0.50400001928E-02 0.  1.
       -1    1    3    3    0  502  0.53199964986E+02 -0.15718010125E+04  0.21574755904E+03  0.15874305240E+04  0.50400001928E-02 0. -1.
</event>
<event>
 5   0  0.2598987E-06  0.2667456E+04  0.7818609E-02  0.8345642E-01
        1   -1    0    0  501    0  0.00000000000E+00  0.00000000000E+00  0.12440695694E+04  0.12440695694E+04  0.50400001928E-02 0.  1.
       -1   -1    0    0    0  501  0.00000000000E+00  0.00000000000E+00 -0.14298476560E+04  0.14298476560E+04  0.50400001928E-02 0. -1.
    10030    2    1    2    0    0  0.00000000000E+00  0.00000000000E+00 -0.18577808654E+03  0.26739172254E+04  0.26674556849E+04 0.  0.
        2    1    3    3  502    0 -0.92662050583E+03 -0.88334300319E+03 -0.46783994454E+03  0.13630094045E+04  0.25500000920E-02 0. -1.
       -2    1    3    3    0  502  0.92662050583E+03  0.88334300319E+03  0.28206185800E+03  0.13109078209E+04  0.25500000920E-02 0.  1.
</event>
<event>
 5   0  0.2674441E-06  0.3067242E+04  0.7818609E-02  0.8224786E-01
       -1   -1    0    0    0  501  0.00000000000E+00  0.00000000000E+00  0.12410577598E+04  0.12410577598E+04  0.50400001928E-02 0.  1.
        1   -1    0    0  501    0  0.00000000000E+00  0.00000000000E+00 -0.18951516402E+04  0.18951516402E+04  0.50400001928E-02 0. -1.
    10030    2    1    2    0    0  0.00000000000E+00  0.00000000000E+00 -0.65409388040E+03  0.31362094001E+04  0.30672415289E+04 0.  0.
        5    1    3    3  502    0  0.37336113282E+03  0.92024591500E+03 -0.15219641839E+04  0.18173189447E+04  0.46999998093E+01 0. -1.
       -5    1    3    3    0  502 -0.37336113282E+03 -0.92024591500E+03  0.86787030354E+03  0.13188904554E+04  0.46999998093E+01 0.  1.
</event>
<event>
 5   0  0.2598987E-06  0.3100895E+04  0.7818609E-02  0.8215492E-01
       -1   -1    0    0    0  501  0.00000000000E+00  0.00000000000E+00  0.12166733730E+04  0.12166733730E+04  0.50400001928E-02 0. -1.
        1   -1    0    0  501    0  0.00000000000E+00  0.00000000000E+00 -0.19757870533E+04  0.19757870533E+04  0.50400001928E-02 0.  1.
    10030    2    1    2    0    0  0.00000000000E+00  0.00000000000E+00 -0.75911368030E+03  0.31924604263E+04  0.31008950311E+04 0.  0.
        2    1    3    3  502    0 -0.98080968435E+03 -0.29444530414E+03  0.81894980455E+03  0.13112453838E+04  0.25500000920E-02 0. -1.
       -2    1    3    3    0  502  0.98080968435E+03  0.29444530414E+03 -0.15780634848E+04  0.18812150425E+04  0.25500000920E-02 0.  1.
</event>
<event>
 5   0  0.7071012E-06  0.3037044E+04  0.7818609E-02  0.8233231E-01
       -2   -1    0    0    0  501  0.00000000000E+00  0.00000000000E+00  0.14163584295E+04  0.14163584295E+04  0.25500000920E-02 0.  1.
        2   -1    0    0  501    0  0.00000000000E+00  0.00000000000E+00 -0.16280546085E+04  0.16280546085E+04  0.25500000920E-02 0. -1.
    10030    2    1    2    0    0  0.00000000000E+00  0.00000000000E+00 -0.21169617898E+03  0.30444130380E+04  0.30370438709E+04 0.  0.
        1    1    3    3  502    0  0.69730316076E+03  0.13194680016E+04  0.17533451217E+03  0.15026542172E+04  0.50400001928E-02 0. -1.
       -1    1    3    3    0  502 -0.69730316076E+03 -0.13194680016E+04 -0.38703069115E+03  0.15417588207E+04  0.50400001928E-02 0.  1.
</event>
<event>
 5   0  0.7071012E-06  0.2819650E+04  0.7818609E-02  0.8297194E-01
       -2   -1    0    0    0  501  0.00000000000E+00  0.00000000000E+00  0.14045841467E+04  0.14045841467E+04  0.25500000920E-02 0. -1.
        2   -1    0    0  501    0  0.00000000000E+00  0.00000000000E+00 -0.14150854399E+04  0.14150854399E+04  0.25500000920E-02 0.  1.
    10030    2    1    2    0    0  0.00000000000E+00  0.00000000000E+00 -0.10501293248E+02  0.28196695866E+04  0.28196500315E+04 0.  0.
        1    1    3    3  502    0 -0.10209186103E+04 -0.35520268264E+03  0.89983177098E+03  0.14064639955E+04  0.50400001928E-02 0. -1.
       -1    1    3    3    0  502  0.10209186103E+04  0.35520268264E+03 -0.91033306423E+03  0.14132055910E+04  0.50400001928E-02 0.  1.
</event>
<event>
 5   0  0.7414808E-06  0.3062230E+04  0.7818609E-02  0.8226181E-01
       -2   -1    0    0    0  501  0.00000000000E+00  0.00000000000E+00  0.10713994333E+04  0.10713994333E+04  0.25500000920E-02 0.  1.
        2   -1    0    0  501    0  0.00000000000E+00  0.00000000000E+00 -0.21880852298E+04  0.21880852298E+04  0.25500000920E-02 0. -1.
    10030    2    1    2    0    0  0.00000000000E+00  0.00000000000E+00 -0.11166857965E+04  0.32594846632E+04  0.30622300863E+04 0.  0.
        2    1    3    3  502    0  0.10924328916E+04 -0.10698509362E+04 -0.47370596753E+03  0.16007460735E+04  0.25500000920E-02 0.  1.
       -2    1    3    3    0  502 -0.10924328916E+04  0.10698509362E+04 -0.64297982895E+03  0.16587385896E+04  0.25500000920E-02 0. -1.
</event>
<event>
 5   0  0.2612331E-06  0.3171404E+04  0.7818609E-02  0.8196410E-01
       -1   -1    0    0    0  501  0.00000000000E+00  0.00000000000E+00  0.11186888618E+04  0.11186888618E+04  0.50400001928E-02 0.  1.
        1   -1    0    0  501    0  0.00000000000E+00  0.00000000000E+00 -0.22476768092E+04  0.22476768092E+04  0.50400001928E-02 0. -1.
    10030    2    1    2    0    0  0.00000000000E+00  0.00000000000E+00 -0.11289879474E+04  0.33663656710E+04  0.31714041126E+04 0.  0.
        4    1    3    3  502    0  0.13830184607E+04 -0.47343378325E+03  0.87747368148E+02  0.14644387400E+04  0.12699999809E+01 0. -1.
       -4    1    3    3    0  502 -0.13830184607E+04  0.47343378325E+03 -0.12167353156E+04  0.19019269310E+04  0.12699999809E+01 0.  1.
</event>
<event>
 5   0  0.2612331E-06  0.1992006E+04  0.7818609E-02  0.8610367E-01
        1   -1    0    0  501    0  0.00000000000E+00  0.00000000000E+00  0.14123003978E+04  0.14123003978E+04  0.50400001928E-02 0.  1.
       -1   -1    0    0    0  501  0.00000000000E+00  0.00000000000E+00 -0.70241539936E+03  0.70241539938E+03  0.50400001928E-02 0. -1.
    10030    2    1    2    0    0  0.00000000000E+00  0.00000000000E+00  0.70988499847E+03  0.21147157972E+04  0.19920055703E+04 0.  0.
        4    1    3    3  502    0  0.21200444600E+03  0.80198488544E+03  0.94016731493E+03  0.12538109246E+04  0.12699999809E+01 0.  1.
       -4    1    3    3    0  502 -0.21200444600E+03 -0.80198488544E+03 -0.23028231646E+03  0.86090487266E+03  0.12699999809E+01 0. -1.
</event>
<event>
 5   0  0.2624011E-06  0.2777480E+04  0.7818609E-02  0.8310294E-01
       -1   -1    0    0    0  501  0.00000000000E+00  0.00000000000E+00  0.87732806181E+03  0.87732806182E+03  0.50400001928E-02 0.  1.
        1   -1    0    0  501    0  0.00000000000E+00  0.00000000000E+00 -0.21982634471E+04  0.21982634471E+04  0.50400001928E-02 0. -1.
    10030    2    1    2    0    0  0.00000000000E+00  0.00000000000E+00 -0.13209353853E+04  0.30755915090E+04  0.27774795837E+04 0.  0.
        1    1    3    3  502    0  0.88785168543E+03  0.10570237162E+04 -0.82847024774E+03  0.16099511494E+04  0.50400001928E-02 0. -1.
       -1    1    3    3    0  502 -0.88785168543E+03 -0.10570237162E+04 -0.49246513758E+03  0.14656403596E+04  0.50400001928E-02 0.  1.
</event>
<event>
 5   0  0.2598987E-06  0.3086041E+04  0.7818609E-02  0.8219579E-01
        1   -1    0    0  501    0  0.00000000000E+00  0.00000000000E+00  0.20078137473E+04  0.20078137473E+04  0.50400001928E-02 0. -1.
       -1   -1    0    0    0  501  0.00000000000E+00  0.00000000000E+00 -0.11858231317E+04  0.11858231318E+04  0.50400001928E-02 0.  1.
    10030    2    1    2    0    0  0.00000000000E+00  0.00000000000E+00  0.82199061556E+03  0.31936368791E+04  0.30860408201E+04 0.  0.
        2    1    3    3  502    0 -0.42173009080E+03  0.10026461009E+04  0.15435733535E+04  0.18883257587E+04  0.25500000920E-02 0. -1.
       -2    1    3    3    0  502  0.42173009080E+03 -0.10026461009E+04 -0.72158273797E+03  0.13053111204E+04  0.25500000920E-02 0.  1.
</event>
<event>
 5   0  0.2598987E-06  0.2402674E+04  0.7818609E-02  0.8438503E-01
       -1   -1    0    0    0  501  0.00000000000E+00  0.00000000000E+00  0.55601328251E+03  0.55601328253E+03  0.50400001928E-02 0.  1.
        1   -1    0    0  501    0  0.00000000000E+00  0.00000000000E+00 -0.25956412806E+04  0.25956412806E+04  0.50400001928E-02 0. -1.
    10030    2    1    2    0    0  0.00000000000E+00  0.00000000000E+00 -0.20396279981E+04  0.31516545631E+04  0.24026743672E+04 0.  0.
        2    1    3    3  502    0 -0.10577985193E+03  0.71323954084E+03  0.24061301436E+03  0.76012804341E+03  0.25500000920E-02 0.  1.
       -2    1    3    3    0  502  0.10577985193E+03 -0.71323954084E+03 -0.22802410125E+04  0.23915265197E+04  0.25500000920E-02 0. -1.
</event>
<event>
 5   0  0.7094341E-06  0.2198840E+04  0.7818609E-02  0.8518911E-01
       -2   -1    0    0    0  501  0.00000000000E+00  0.00000000000E+00  0.65794983151E+03  0.65794983151E+03  0.25500000920E-02 0.  1.
        2   -1    0    0  501    0  0.00000000000E+00  0.00000000000E+00 -0.18371068087E+04  0.18371068087E+04  0.25500000920E-02 0. -1.
    10030    2    1    2    0    0  0.00000000000E+00  0.00000000000E+00 -0.11791569772E+04  0.24950566402E+04  0.21988397989E+04 0.  0.
        3    1    3    3  502    0  0.73861687813E+02 -0.10656017074E+04 -0.88495673586E+03  0.13871232758E+04  0.10100000352E+00 0. -1.
       -3    1    3    3    0  502 -0.73861687813E+02  0.10656017074E+04 -0.29420024135E+03  0.11079333644E+04  0.10100000352E+00 0.  1.
</event>
<event>
 5   0  0.7071012E-06  0.2793876E+04  0.7818609E-02  0.8305172E-01
       -2   -1    0    0    0  501  0.00000000000E+00  0.00000000000E+00  0.14749682657E+04  0.14749682657E+04  0.25500000920E-02 0. -1.
        2   -1    0    0  501    0  0.00000000000E+00  0.00000000000E+00 -0.13230361307E+04  0.13230361307E+04  0.25500000920E-02 0.  1.
    10030    2    1    2    0    0  0.00000000000E+00  0.00000000000E+00  0.15193213502E+03  0.27980043965E+04  0.27938763804E+04 0.  0.
        1    1    3    3  502    0 -0.15212726267E+03 -0.11322194789E+04  0.88112699956E+03  0.14427225797E+04  0.50400001928E-02 0. -1.
       -1    1    3    3    0  502  0.15212726267E+03  0.11322194789E+04 -0.72919486454E+03  0.13552818168E+04  0.50400001928E-02 0.  1.
</event>
<event>
 5   0  0.7094341E-06  0.3091116E+04  0.7818609E-02  0.8218180E-01
       -2   -1    0    0    0  501  0.00000000000E+00  0.00000000000E+00  0.10211304101E+04  0.10211304101E+04  0.25500000920E-02 0. -1.
        2   -1    0    0  501    0  0.00000000000E+00  0.00000000000E+00 -0.23393187696E+04  0.23393187696E+04  0.25500000920E-02 0.  1.
    10030    2    1    2    0    0  0.00000000000E+00  0.00000000000E+00 -0.13181883595E+04  0.33604491797E+04  0.30911160020E+04 0.  0.
        3    1    3    3  502    0 -0.14890879412E+04  0.22663186043E+03 -0.28249356437E+03  0.15324971520E+04  0.10100000352E+00 0. -1.
       -3    1    3    3    0  502  0.14890879412E+04 -0.22663186043E+03 -0.10356947952E+04  0.18279520277E+04  0.10100000352E+00 0.  1.
</event>
<event>
 5   0  0.2624011E-06  0.3048836E+04  0.7818609E-02  0.8229921E-01
       -1   -1    0    0    0  501  0.00000000000E+00  0.00000000000E+00  0.13216862498E+04  0.13216862499E+04  0.50400001928E-02 0.  1.
        1   -1    0    0  501    0  0.00000000000E+00  0.00000000000E+00 -0.17582459480E+04  0.17582459480E+04  0.50400001928E-02 0. -1.
    10030    2    1    2    0    0  0.00000000000E+00  0.00000000000E+00 -0.43655969819E+03  0.30799321979E+04  0.30488355111E+04 0.  0.
        1    1    3    3  502    0 -0.93153153005E+03  0.52133555556E+03 -0.13176386200E+04  0.16957928193E+04  0.50400001928E-02 0. -1.
       -1    1    3    3    0  502  0.93153153005E+03 -0.52133555556E+03  0.88107892181E+03  0.13841393786E+04  0.50400001928E-02 0.  1.
</event>
<event>
 5   0  0.7414808E-06  0.3095277E+04  0.7818609E-02  0.8217035E-01
        2   -1    0    0  501    0  0.00000000000E+00  0.00000000000E+00  0.90794528902E+03  0.90794528902E+03  0.25500000920E-02 0. -1.
       -2   -1    0    0    0  501  0.00000000000E+00  0.00000000000E+00 -0.26380277921E+04  0.26380277921E+04  0.25500000920E-02 0.  1.
    10030    2    1    2    0    0  0.00000000000E+00  0.00000000000E+00 -0.17300825031E+04  0.35459730811E+04  0.30952769867E+04 0.  0.
        2    1    3    3  502    0 -0.78740937817E+03  0.14827186150E+02 -0.23913035090E+04  0.25176508588E+04  0.25500000920E-02 0.  1.
       -2    1    3    3    0  502  0.78740937817E+03 -0.14827186150E+02  0.66122100596E+03  0.10283222224E+04  0.25500000920E-02 0. -1.
</event>
<event>
 5   0  0.7414808E-06  0.3115916E+04  0.7818609E-02  0.8211384E-01
        2   -1    0    0  501    0  0.00000000000E+00  0.00000000000E+00  0.12144863496E+04  0.12144863496E+04  0.25500000920E-02 0. -1.
       -2   -1    0    0    0  501  0.00000000000E+00  0.00000000000E+00 -0.19985673271E+04  0.19985673271E+04  0.25500000920E-02 0.  1.
    10030    2    1    2    0    0  0.00000000000E+00  0.00000000000E+00 -0.78408097748E+03  0.32130536767E+04  0.31159157483E+04 0.  0.
        2    1    3    3  502    0 -0.21574253517E+02 -0.11909837975E+04  0.64341758093E+03  0.13538441704E+04  0.25500000920E-02 0. -1.
       -2    1    3    3    0  502  0.21574253517E+02  0.11909837975E+04 -0.14274985584E+04  0.18592095063E+04  0.25500000920E-02 0.  1.
</event>
<event>
 5   0  0.2612331E-06  0.2747080E+04  0.7818609E-02  0.8319889E-01
       -1   -1    0    0    0  501  0.00000000000E+00  0.00000000000E+00  0.11864313341E+04  0.11864313341E+04  0.50400001928E-02 0. -1.
        1   -1    0    0  501    0  0.00000000000E+00  0.00000000000E+00 -0.15901568803E+04  0.15901568803E+04  0.50400001928E-02 0.  1.
    10030    2    1    2    0    0  0.00000000000E+00  0.00000000000E+00 -0.40372554616E+03  0.27765882144E+04  0.27470798670E+04 0.  0.
        4    1    3    3  502    0 -0.62657468009E+03  0.11772309963E+04  0.13051866402E+03  0.13399646947E+04  0.12699999809E+01 0.  1.
       -4    1    3    3    0  502  0.62657468009E+03 -0.11772309963E+04 -0.53424421018E+03  0.14366235197E+04  0.12699999809E+01 0. -1.
</event>
<event>
 5   0  0.2612331E-06  0.3008179E+04  0.7818609E-02  0.8241399E-01
       -1   -1    0    0    0  501  0.00000000000E+00  0.00000000000E+00  0.12643567706E+04  0.12643567706E+04  0.50400001928E-02 0.  1.
        1   -1    0    0  501    0  0.00000000000E+00  0.00000000000E+00 -0.17892773086E+04  0.17892773087E+04  0.50400001928E-02 0. -1.
    10030    2    1    2    0    0  0.00000000000E+00  0.00000000000E+00 -0.52492053808E+03  0.30536340792E+04  0.30081787710E+04 0.  0.
        4    1    3    3  502    0 -0.32747875086E+03 -0.80397044599E+03  0.98438003534E+03  0.13124848484E+04  0.12699999809E+01 0.  1.
       -4    1    3    3    0  502  0.32747875086E+03  0.80397044599E+03 -0.15093005734E+04  0.17411492309E+04  0.12699999809E+01 0. -1.
</event>
<event>
 5   0  0.2674441E-06  0.3041813E+04  0.7818609E-02  0.8231891E-01
        1   -1    0    0  501    0  0.00000000000E+00  0.00000000000E+00  0.20909001307E+04  0.20909001307E+04  0.50400001928E-02 0.  1.
       -1   -1    0    0    0  501  0.00000000000E+00  0.00000000000E+00 -0.11062970598E+04  0.11062970598E+04  0.50400001928E-02 0. -1.
    10030    2    1    2    0    0  0.00000000000E+00  0.00000000000E+00  0.98460307088E+03  0.31971971905E+04  0.30418130561E+04 0.  0.
        5    1    3    3  502    0 -0.75813231683E+03 -0.12129477475E+04 -0.50944279070E+02  0.14313015956E+04  0.46999998093E+01 0.  1.
       -5    1    3    3    0  502  0.75813231683E+03  0.12129477475E+04  0.10355473500E+04  0.17658955949E+04  0.46999998093E+01 0. -1.
</event>
<event>
 5   0  0.7363513E-06  0.3083610E+04  0.7818609E-02  0.8220250E-01
        2   -1    0    0  501    0  0.00000000000E+00  0.00000000000E+00  0.20233252156E+04  0.20233252156E+04  0.25500000920E-02 0.  1.
       -2   -1    0    0    0  501  0.00000000000E+00  0.00000000000E+00 -0.11748795112E+04  0.11748795112E+04  0.25500000920E-02 0. -1.
    10030    2    1    2    0    0  0.00000000000E+00  0.00000000000E+00  0.84844570437E+03  0.31982047268E+04  0.30836104425E+04 0.  0.
        4    1    3    3  502    0  0.84904859865E+03  0.72316735338E+03  0.15283537769E+04  0.18920151755E+04  0.12699999809E+01 0.  1.
       -4    1    3    3    0  502 -0.84904859865E+03 -0.72316735338E+03 -0.67990807258E+03  0.13061895513E+04  0.12699999809E+01 0. -1.
</event>
<event>
 5   0  0.2674441E-06  0.3100168E+04  0.7818609E-02  0.8215692E-01
        1   -1    0    0  501    0  0.00000000000E+00  0.00000000000E+00  0.20767972359E+04  0.20767972359E+04  0.50400001928E-02 0.  1.
       -1   -1    0    0    0  501  0.00000000000E+00  0.00000000000E+00 -0.11569547416E+04  0.11569547416E+04  0.50400001928E-02 0. -1.
    10030    2    1    2    0    0  0.00000000000E+00  0.00000000000E+00  0.91984249424E+03  0.32337519775E+04  0.31001680015E+04 0.  0.
        5    1    3    3  502    0  0.10528563988E+04  0.49138659572E+02 -0.72563454051E+03  0.12796440055E+04  0.46999998093E+01 0. -1.
       -5    1    3    3    0  502 -0.10528563988E+04 -0.49138659572E+02  0.16454770348E+04  0.19541079720E+04  0.46999998093E+01 0.  1.
</event>
<event>
 5   0  0.7071012E-06  0.3020273E+04  0.7818609E-02  0.8237965E-01
       -2   -1    0    0    0  501  0.00000000000E+00  0.00000000000E+00  0.20133900298E+04  0.20133900298E+04  0.25500000920E-02 0. -1.
        2   -1    0    0  501    0  0.00000000000E+00  0.00000000000E+00 -0.11326728330E+04  0.11326728330E+04  0.25500000920E-02 0.  1.
    10030    2    1    2    0    0  0.00000000000E+00  0.00000000000E+00  0.88071719682E+03  0.31460628629E+04  0.30202729606E+04 0.  0.
        1    1    3    3  502    0  0.87537499048E+03 -0.77011815463E+02 -0.83891979976E+03  0.12149068376E+04  0.50400001928E-02 0.  1.
       -1    1    3    3    0  502 -0.87537499048E+03  0.77011815463E+02  0.17196369966E+04  0.19311560252E+04  0.50400001928E-02 0. -1.
</event>
<event>
 5   0  0.2674441E-06  0.2090993E+04  0.7818609E-02  0.8565222E-01
        1   -1    0    0  501    0  0.00000000000E+00  0.00000000000E+00  0.11693065575E+04  0.11693065575E+04  0.50400001928E-02 0.  1.
       -1   -1    0    0    0  501  0.00000000000E+00  0.00000000000E+00 -0.93479543518E+03  0.93479543520E+03  0.50400001928E-02 0. -1.
    10030    2    1    2    0    0  0.00000000000E+00  0.00000000000E+00  0.23451112233E+03  0.21041019927E+04  0.20909925225E+04 0.  0.
        5    1    3    3  502    0  0.97596801374E+03 -0.36079627363E+03  0.21964232001E+03  0.10634624364E+04  0.46999998093E+01 0.  1.
       -5    1    3    3    0  502 -0.97596801374E+03  0.36079627363E+03  0.14868802324E+02  0.10406395563E+04  0.46999998093E+01 0. -1.
</event>
<event>
 5   0  0.2517725E-06  0.3077906E+04  0.7818609E-02  0.8221828E-01
        1   -1    0    0  501    0  0.00000000000E+00  0.00000000000E+00  0.14902111231E+04  0.14902111231E+04  0.50400001928E-02 0.  1.
       -1   -1    0    0    0  501  0.00000000000E+00  0.00000000000E+00 -0.15892892001E+04  0.15892892001E+04  0.50400001928E-02 0. -1.
    10030    2    1    2    0    0  0.00000000000E+00  0.00000000000E+00 -0.99078077050E+02  0.30795003232E+04  0.30779060699E+04 0.  0.
        3    1    3    3  502    0 -0.55646692930E+03  0.12945488133E+04  0.56954180024E+03  0.15198322098E+04  0.10100000352E+00 0.  1.
       -3    1    3    3    0  502  0.55646692930E+03 -0.12945488133E+04 -0.66861987729E+03  0.15596681134E+04  0.10100000352E+00 0. -1.
</event>
<event>
 5   0  0.2517725E-06  0.3211372E+04  0.7818609E-02  0.8185820E-01
        1   -1    0    0  501    0  0.00000000000E+00  0.00000000000E+00  0.21905095665E+04  0.21905095666E+04  0.50400001928E-02 0. -1.
       -1   -1    0    0    0  501  0.00000000000E+00  0.00000000000E+00 -0.11769988611E+04  0.11769988611E+04  0.50400001928E-02 0.  1.
    10030    2    1    2    0    0  0.00000000000E+00  0.00000000000E+00  0.10135107054E+04  0.33675084277E+04  0.32113718347E+04 0.  0.
        3    1    3    3  502    0  0.24830111686E+03 -0.12912181010E+04 -0.45964311750E+03  0.13928996499E+04  0.10100000352E+00 0.  1.
       -3    1    3    3    0  502 -0.24830111686E+03  0.12912181010E+04  0.14731538229E+04  0.19746087778E+04  0.10100000352E+00 0. -1.
</event>
<event>
 5   0  0.2674441E-06  0.3122033E+04  0.7818609E-02  0.8209717E-01
       -1   -1    0    0    0  501  0.00000000000E+00  0.00000000000E+00  0.97461498996E+03  0.97461498998E+03  0.50400001928E-02 0.  1.
        1   -1    0    0  501    0  0.00000000000E+00  0.00000000000E+00 -0.25002403598E+04  0.25002403598E+04  0.50400001928E-02 0. -1.
    10030    2    1    2    0    0  0.00000000000E+00  0.00000000000E+00 -0.15256253698E+04  0.34748553498E+04  0.31220325003E+04 0.  0.
        5    1    3    3  502    0  0.72501733553E+03  0.49342624583E+03  0.67449307690E+03  0.11063826633E+04  0.46999998093E+01 0.  1.
       -5    1    3    3    0  502 -0.72501733553E+03 -0.49342624583E+03 -0.22001184467E+04  0.23684726865E+04  0.46999998093E+01 0. -1.
</event>
<event>
 5   0  0.7363513E-06  0.2108085E+04  0.7818609E-02  0.8557690E-01
       -2   -1    0    0    0  501  0.00000000000E+00  0.00000000000E+00  0.18835738904E+04  0.18835738904E+04  0.25500000920E-02 0. -1.
        2   -1    0    0  501    0  0.00000000000E+00  0.00000000000E+00 -0.58983902682E+03  0.58983902683E+03  0.25500000920E-02 0.  1.
    10030    2    1    2    0    0  0.00000000000E+00  0.00000000000E+00  0.12937348636E+04  0.24734129173E+04  0.21080848090E+04 0.  0.
        4    1    3    3  502    0  0.45531015707E+03 -0.63834739493E+03  0.14733636727E+04  0.16690107432E+04  0.12699999809E+01 0. -1.
       -4    1    3    3    0  502 -0.45531015707E+03  0.63834739493E+03 -0.17962880912E+03  0.80440217411E+03  0.12699999809E+01 0.  1.
</event>
<event>
 5   0  0.7094341E-06  0.3108391E+04  0.7818609E-02  0.8213439E-01
       -2   -1    0    0    0  501  0.00000000000E+00  0.00000000000E+00  0.16475887742E+04  0.16475887742E+04  0.25500000920E-02 0. -1.
        2   -1    0    0  501    0  0.00000000000E+00  0.00000000000E+00 -0.14660959807E+04  0.14660959807E+04  0.25500000920E-02 0.  1.
    10030    2    1    2    0    0  0.00000000000E+00  0.00000000000E+00  0.18149279351E+03  0.31136847550E+04  0.31083907604E+04 0.  0.
        3    1    3    3  502    0 -0.12517450117E+04  0.35304824660E+03 -0.76159327349E+03  0.15071605632E+04  0.10100000352E+00 0.  1.
       -3    1    3    3    0  502  0.12517450117E+04 -0.35304824660E+03  0.94308606701E+03  0.16065241918E+04  0.10100000352E+00 0. -1.
</event>
<event>
 5   0  0.7414808E-06  0.3070957E+04  0.7818609E-02  0.8223754E-01
        2   -1    0    0  501    0  0.00000000000E+00  0.00000000000E+00  0.14126504119E+04  0.14126504119E+04  0.25500000920E-02 0.  1.
       -2   -1    0    0    0  501  0.00000000000E+00  0.00000000000E+00 -0.16689860934E+04  0.16689860934E+04  0.25500000920E-02 0. -1.
    10030    2    1    2    0    0  0.00000000000E+00  0.00000000000E+00 -0.25633568154E+03  0.30816365053E+04  0.30709567840E+04 0.  0.
        2    1    3    3  502    0  0.10405929826E+03  0.14592653069E+04 -0.59606217020E+03  0.15797384860E+04  0.25500000920E-02 0. -1.
       -2    1    3    3    0  502 -0.10405929826E+03 -0.14592653069E+04  0.33972648865E+03  0.15018980193E+04  0.25500000920E-02 0.  1.
</event>
<event>
 5   0  0.7071012E-06  0.3028643E+04  0.7818609E-02  0.8235599E-01
        2   -1    0    0  501    0  0.00000000000E+00  0.00000000000E+00  0.17887547131E+04  0.17887547131E+04  0.25500000920E-02 0.  1.
       -2   -1    0    0    0  501  0.00000000000E+00  0.00000000000E+00 -0.12819925006E+04  0.12819925006E+04  0.25500000920E-02 0. -1.
    10030    2    1    2    0    0  0.00000000000E+00  0.00000000000E+00  0.50676221248E+03  0.30707472137E+04  0.30286433448E+04 0.  0.
        1    1    3    3  502    0 -0.53131536021E+03 -0.28641641576E+02  0.16908543532E+04  0.17725983187E+04  0.50400001928E-02 0.  1.
       -1    1    3    3    0  502  0.53131536021E+03  0.28641641576E+02 -0.11840921408E+04  0.12981488949E+04  0.50400001928E-02 0. -1.
</event>
<event>
 5   0  0.7079223E-06  0.3127492E+04  0.7818609E-02  0.8208233E-01
        2   -1    0    0  501    0  0.00000000000E+00  0.00000000000E+00  0.26246883156E+04  0.26246883156E+04  0.25500000920E-02 0.  1.
       -2   -1    0    0    0  501  0.00000000000E+00  0.00000000000E+00 -0.93165391906E+03  0.93165391906E+03  0.25500000920E-02 0. -1.
    10030    2    1    2    0    0  0.00000000000E+00  0.00000000000E+00  0.16930343965E+04  0.35563422346E+04  0.31274917461E+04 0.  0.
        5    1    3    3  502    0 -0.10590792719E+03 -0.14297121788E+04  0.13639727814E+03  0.14401110064E+04  0.46999998093E+01 0. -1.
       -5    1    3    3    0  502  0.10590792719E+03  0.14297121788E+04  0.15566371184E+04  0.21162312283E+04  0.46999998093E+01 0.  1.
</event>
<event>
 5   0  0.7094341E-06  0.3239947E+04  0.7818609E-02  0.8178346E-01
        2   -1    0    0  501    0  0.00000000000E+00  0.00000000000E+00  0.16987586633E+04  0.16987586633E+04  0.25500000920E-02 0.  1.
       -2   -1    0    0    0  501  0.00000000000E+00  0.00000000000E+00 -0.15448423786E+04  0.15448423786E+04  0.25500000920E-02 0. -1.
    10030    2    1    2    0    0  0.00000000000E+00  0.00000000000E+00  0.15391628473E+03  0.32436010419E+04  0.32399471441E+04 0.  0.
        3    1    3    3  502    0 -0.77597221790E+03 -0.10977419247E+04 -0.82802156989E+03  0.15788571647E+04  0.10100000352E+00 0. -1.
       -3    1    3    3    0  502  0.77597221790E+03  0.10977419247E+04  0.98193785462E+03  0.16647438772E+04  0.10100000352E+00 0.  1.
</event>
<event>
 5   0  0.2624011E-06  0.3119026E+04  0.7818609E-02  0.8210536E-01
        1   -1    0    0  501    0  0.00000000000E+00  0.00000000000E+00  0.17485263777E+04  0.17485263777E+04  0.50400001928E-02 0.  1.
       -1   -1    0    0    0  501  0.00000000000E+00  0.00000000000E+00 -0.13909321078E+04  0.13909321078E+04  0.50400001928E-02 0. -1.
    10030    2    1    2    0    0  0.00000000000E+00  0.00000000000E+00  0.35759426984E+03  0.31394584855E+04  0.31190264379E+04 0.  0.
        1    1    3    3  502    0  0.15589888956E+04  0.44730383893E+01  0.21924864864E+03  0.15743367983E+04  0.50400001928E-02 0. -1.
       -1    1    3    3    0  502 -0.15589888956E+04 -0.44730383893E+01  0.13834562121E+03  0.15651216872E+04  0.50400001928E-02 0.  1.
</event>
<event>
 5   0  0.2517725E-06  0.3044131E+04  0.7818609E-02  0.8231240E-01
       -1   -1    0    0    0  501  0.00000000000E+00  0.00000000000E+00  0.32496255177E+04  0.32496255177E+04  0.50400001928E-02 0.  1.
        1   -1    0    0  501    0  0.00000000000E+00  0.00000000000E+00 -0.71290775896E+03  0.71290775898E+03  0.50400001928E-02 0. -1.
    10030    2    1    2    0    0  0.00000000000E+00  0.00000000000E+00  0.25367177587E+04  0.39625332767E+04  0.30441309074E+04 0.  0.
        3    1    3    3  502    0 -0.80962632763E+02  0.93208911972E+03  0.28311197922E+04  0.29817082961E+04  0.10100000352E+00 0.  1.
       -3    1    3    3    0  502  0.80962632763E+02 -0.93208911972E+03 -0.29440203348E+03  0.98082498057E+03  0.10100000352E+00 0. -1.
</event>
<event>
 5   0  0.2674441E-06  0.2842297E+04  0.7818609E-02  0.8290256E-01
       -1   -1    0    0    0  501  0.00000000000E+00  0.00000000000E+00  0.27576182457E+04  0.27576182457E+04  0.50400001928E-02 0.  1.
        1   -1    0    0  501    0  0.00000000000E+00  0.00000000000E+00 -0.73239381251E+03  0.73239381253E+03  0.50400001928E-02 0. -1.
    10030    2    1    2    0    0  0.00000000000E+00  0.00000000000E+00  0.20252244332E+04  0.34900120583E+04  0.28422966351E+04 0.  0.
        5    1    3    3  502    0  0.12991834928E+04 -0.57509997660E+03  0.10518799476E+04  0.17677927608E+04  0.46999998093E+01 0. -1.
       -5    1    3    3    0  502 -0.12991834928E+04  0.57509997660E+03  0.97334448563E+03  0.17222192975E+04  0.46999998093E+01 0.  1.
</event>
<event>
 5   0  0.2517725E-06  0.3162726E+04  0.7818609E-02  0.8198731E-01
        1   -1    0    0  501    0  0.00000000000E+00  0.00000000000E+00  0.24455009525E+04  0.24455009525E+04  0.50400001928E-02 0. -1.
       -1   -1    0    0    0  501  0.00000000000E+00  0.00000000000E+00 -0.10225755445E+04  0.10225755445E+04  0.50400001928E-02 0.  1.
    10030    2    1    2    0    0  0.00000000000E+00  0.00000000000E+00  0.14229254081E+04  0.34680764970E+04  0.31627263353E+04 0.  0.
        3    1    3    3  502    0 -0.14474088408E+04  0.36110918091E+03  0.12868281502E+04  0.19701063148E+04  0.10100000352E+00 0. -1.
       -3    1    3    3    0  502  0.14474088408E+04 -0.36110918091E+03  0.13609725785E+03  0.14979701822E+04  0.10100000352E+00 0.  1.
</event>
<event>
 5   0  0.7414808E-06  0.3084099E+04  0.7818609E-02  0.8220115E-01
        2   -1    0    0  501    0  0.00000000000E+00  0.00000000000E+00  0.15006146831E+04  0.15006146831E+04  0.25500000920E-02 0.  1.
       -2   -1    0    0    0  501  0.00000000000E+00  0.00000000000E+00 -0.15846283614E+04  0.15846283614E+04  0.25500000920E-02 0. -1.
    10030    2    1    2    0    0  0.00000000000E+00  0.00000000000E+00 -0.84013678339E+02  0.30852430445E+04  0.30840989520E+04 0.  0.
        2    1    3    3  502    0 -0.14589543524E+04  0.42559120893E+03 -0.30333335165E+03  0.15497376558E+04  0.25500000920E-02 0. -1.
       -2    1    3    3    0  502  0.14589543524E+04 -0.42559120893E+03  0.21931967331E+03  0.15355053887E+04  0.25500000920E-02 0.  1.
</event>
<event>
 5   0  0.7094341E-06  0.3074136E+04  0.7818609E-02  0.8222872E-01
        2   -1    0    0  501    0  0.00000000000E+00  0.00000000000E+00  0.15871859517E+04  0.15871859517E+04  0.25500000920E-02 0.  1.
       -2   -1    0    0    0  501  0.00000000000E+00  0.00000000000E+00 -0.14885324328E+04  0.14885324328E+04  0.25500000920E-02 0. -1.
    10030    2    1    2    0    0  0.00000000000E+00  0.00000000000E+00  0.98653518969E+02  0.30757183845E+04  0.30741358239E+04 0.  0.
        3    1    3    3  502    0  0.35504134030E+03 -0.12165914556E+04  0.91950355170E+03  0.15657700709E+04  0.10100000352E+00 0.  1.
       -3    1    3    3    0  502 -0.35504134030E+03  0.12165914556E+04 -0.82085003273E+03  0.15099483136E+04  0.10100000352E+00 0. -1.
</event>
<event>
 5   0  0.2517725E-06  0.3190784E+04  0.7818609E-02  0.8191255E-01
       -1   -1    0    0    0  501  0.00000000000E+00  0.00000000000E+00  0.18976957899E+04  0.18976957899E+04  0.50400001928E-02 0. -1.
        1   -1    0    0  501    0  0.00000000000E+00  0.00000000000E+00 -0.13412449698E+04  0.13412449698E+04  0.50400001928E-02 0.  1.
    10030    2    1    2    0    0  0.00000000000E+00  0.00000000000E+00  0.55645082010E+03  0.32389407597E+04  0.31907835604E+04 0.  0.
        3    1    3    3  502    0  0.19925664563E+03  0.15659262897E+04  0.43551091870E+02  0.15791532742E+04  0.10100000352E+00 0.  1.
       -3    1    3    3    0  502 -0.19925664563E+03 -0.15659262897E+04  0.51289972823E+03  0.16597874855E+04  0.10100000352E+00 0. -1.
</event>
<event>
 5   0  0.2598987E-06  0.2893191E+04  0.7818609E-02  0.8274906E-01
       -1   -1    0    0    0  501  0.00000000000E+00  0.00000000000E+00  0.24090094550E+04  0.24090094550E+04  0.50400001928E-02 0. -1.
        1   -1    0    0  501    0  0.00000000000E+00  0.00000000000E+00 -0.86867168385E+03  0.86867168387E+03  0.50400001928E-02 0.  1.
    10030    2    1    2    0    0  0.00000000000E+00  0.00000000000E+00  0.15403377712E+04  0.32776811389E+04  0.28931908335E+04 0.  0.
        2    1    3    3  502    0 -0.65497859725E+03 -0.12539349380E+04  0.42787615476E+03  0.14779809862E+04  0.25500000920E-02 0.  1.
       -2    1    3    3    0  502  0.65497859725E+03  0.12539349380E+04  0.11124616164E+04  0.17997001527E+04  0.25500000920E-02 0. -1.
</event>
<event>
 5   0  0.7414808E-06  0.3111418E+04  0.7818609E-02  0.8212611E-01
        2   -1    0    0  501    0  0.00000000000E+00  0.00000000000E+00  0.24670099331E+04  0.24670099331E+04  0.25500000920E-02 0. -1.
       -2   -1    0    0    0  501  0.00000000000E+00  0.00000000000E+00 -0.98103818176E+03  0.98103818176E+03  0.25500000920E-02 0.  1.
    10030    2    1    2    0    0  0.00000000000E+00  0.00000000000E+00  0.14859717513E+04  0.34480481148E+04  0.31114182870E+04 0.  0.
        2    1    3    3  502    0  0.71130781494E+02 -0.86849612049E+03 -0.68520024679E+03  0.11085325785E+04  0.25500000920E-02 0.  1.
       -2    1    3    3    0  502 -0.71130781494E+02  0.86849612049E+03  0.21711719981E+04  0.23395155363E+04  0.25500000920E-02 0. -1.
</event>
<event>
 5   0  0.2612331E-06  0.3139347E+04  0.7818609E-02  0.8205022E-01
       -1   -1    0    0    0  501  0.00000000000E+00  0.00000000000E+00  0.14626416386E+04  0.14626416386E+04  0.50400001928E-02 0.  1.
        1   -1    0    0  501    0  0.00000000000E+00  0.00000000000E+00 -0.16845373306E+04  0.16845373306E+04  0.50400001928E-02 0. -1.
    10030    2    1    2    0    0  0.00000000000E+00  0.00000000000E+00 -0.22189569197E+03  0.31471789692E+04  0.31393467100E+04 0.  0.
        4    1    3    3  502    0  0.71370700896E+03 -0.23005500912E+03 -0.14933623997E+04  0.16710583089E+04  0.12699999809E+01 0. -1.
       -4    1    3    3    0  502 -0.71370700896E+03  0.23005500912E+03  0.12714667078E+04  0.14761206603E+04  0.12699999809E+01 0.  1.
</event>
<event>
 5   0  0.2393250E-06  0.3114611E+04  0.7818609E-02  0.8211739E-01
        3   -1    0    0  501    0  0.00000000000E+00  0.00000000000E+00  0.13333884961E+04  0.13333884999E+04  0.10100000352E+00 0.  1.
       -3   -1    0    0    0  501  0.00000000000E+00  0.00000000000E+00 -0.18188250784E+04  0.18188250812E+04  0.10100000352E+00 0. -1.
    10030    2    1    2    0    0  0.00000000000E+00  0.00000000000E+00 -0.48543658229E+03  0.31522135811E+04  0.31146110167E+04 0.  0.
        5    1    3    3  502    0  0.93020347931E+01  0.20643373021E+03  0.13194440843E+04  0.13355359203E+04  0.46999998093E+01 0.  1.
       -5    1    3    3    0  502 -0.93020347931E+01 -0.20643373021E+03 -0.18048806666E+04  0.18166776608E+04  0.46999998093E+01 0. -1.
</event>
<event>
 5   0  0.7071012E-06  0.2879408E+04  0.7818609E-02  0.8279031E-01
        2   -1    0    0  501    0  0.00000000000E+00  0.00000000000E+00  0.27114730741E+04  0.27114730741E+04  0.25500000920E-02 0. -1.
       -2   -1    0    0    0  501  0.00000000000E+00  0.00000000000E+00 -0.76443584124E+03  0.76443584125E+03  0.25500000920E-02 0.  1.
    10030    2    1    2    0    0  0.00000000000E+00  0.00000000000E+00  0.19470372329E+04  0.34759089154E+04  0.28794077172E+04 0.  0.
        1    1    3    3  502    0 -0.41285504053E+03  0.12783522518E+04  0.15985826533E+04  0.20880853105E+04  0.50400001928E-02 0. -1.
       -1    1    3    3    0  502  0.41285504053E+03 -0.12783522518E+04  0.34845457955E+03  0.13878236049E+04  0.50400001928E-02 0.  1.
</event>
<event>
 5   0  0.2612331E-06  0.3115628E+04  0.7818609E-02  0.8211462E-01
       -1   -1    0    0    0  501  0.00000000000E+00  0.00000000000E+00  0.16429347937E+04  0.16429347937E+04  0.50400001928E-02 0. -1.
        1   -1    0    0  501    0  0.00000000000E+00  0.00000000000E+00 -0.14771033817E+04  0.14771033817E+04  0.50400001928E-02 0.  1.
    10030    2    1    2    0    0  0.00000000000E+00  0.00000000000E+00  0.16583141206E+03  0.31200381754E+04  0.31156280521E+04 0.  0.
        4    1    3    3  502    0 -0.11312554200E+04  0.35206189190E+03  0.10958297845E+04  0.16138559200E+04  0.12699999809E+01 0. -1.
       -4    1    3    3    0  502  0.11312554200E+04 -0.35206189190E+03 -0.92999837243E+03  0.15061822554E+04  0.12699999809E+01 0.  1.
</event>
<event>
 5   0  0.2624011E-06  0.2786666E+04  0.7818609E-02  0.8307420E-01
        1   -1    0    0  501    0  0.00000000000E+00  0.00000000000E+00  0.13911096292E+04  0.13911096292E+04  0.50400001928E-02 0. -1.
       -1   -1    0    0    0  501  0.00000000000E+00  0.00000000000E+00 -0.13955601180E+04  0.13955601180E+04  0.50400001928E-02 0.  1.
    10030    2    1    2    0    0  0.00000000000E+00  0.00000000000E+00 -0.44504887320E+01  0.27866697472E+04  0.27866661933E+04 0.  0.
        1    1    3    3  502    0 -0.49509268964E+03 -0.65421821667E+03 -0.11283966819E+04  0.13951334410E+04  0.50400001928E-02 0.  1.
       -1    1    3    3    0  502  0.49509268964E+03  0.65421821667E+03  0.11239461932E+04  0.13915363062E+04  0.50400001928E-02 0. -1.
</event>
<event>
 5   0  0.2598987E-06  0.2929030E+04  0.7818609E-02  0.8264292E-01
       -1   -1    0    0    0  501  0.00000000000E+00  0.00000000000E+00  0.21087276858E+04  0.21087276858E+04  0.50400001928E-02 0. -1.
        1   -1    0    0  501    0  0.00000000000E+00  0.00000000000E+00 -0.10171081339E+04  0.10171081339E+04  0.50400001928E-02 0.  1.
    10030    2    1    2    0    0  0.00000000000E+00  0.00000000000E+00  0.10916195519E+04  0.31258358197E+04  0.29290299292E+04 0.  0.
        2    1    3    3  502    0  0.13227069052E+04  0.38091566610E+03  0.12049942710E+02  0.13765157111E+04  0.25500000920E-02 0. -1.
       -2    1    3    3    0  502 -0.13227069052E+04 -0.38091566610E+03  0.10795696091E+04  0.17493201087E+04  0.25500000920E-02 0.  1.
</event>
<event>
 5   0  0.7071012E-06  0.2925450E+04  0.7818609E-02  0.8265345E-01
       -2   -1    0    0    0  501  0.00000000000E+00  0.00000000000E+00  0.98246998470E+03  0.98246998470E+03  0.25500000920E-02 0.  1.
        2   -1    0    0  501    0  0.00000000000E+00  0.00000000000E+00 -0.21777401111E+04  0.21777401111E+04  0.25500000920E-02 0. -1.
    10030    2    1    2    0    0  0.00000000000E+00  0.00000000000E+00 -0.11952701264E+04  0.31602100958E+04  0.29254499098E+04 0.  0.
        1    1    3    3  502    0  0.55615256303E+03  0.51889727137E+03 -0.19472980296E+04  0.20905811794E+04  0.50400001928E-02 0. -1.
       -1    1    3    3    0  502 -0.55615256303E+03 -0.51889727137E+03  0.75202790319E+03  0.10696289164E+04  0.50400001928E-02 0.  1.
</event>
<event>
 5   0  0.7079223E-06  0.3116513E+04  0.7818609E-02  0.8211221E-01
       -2   -1    0    0    0  501  0.00000000000E+00  0.00000000000E+00  0.10165215973E+04  0.10165215973E+04  0.25500000920E-02 0.  1.
        2   -1    0    0  501    0  0.00000000000E+00  0.00000000000E+00 -0.23886984694E+04  0.23886984694E+04  0.25500000920E-02 0. -1.
    10030    2    1    2    0    0  0.00000000000E+00  0.00000000000E+00 -0.13721768721E+04  0.34052200666E+04  0.31165131692E+04 0.  0.
        5    1    3    3  502    0  0.12552634340E+04 -0.42940163406E+03 -0.15791615622E+04  0.20624852440E+04  0.46999998093E+01 0. -1.
       -5    1    3    3    0  502 -0.12552634340E+04  0.42940163406E+03  0.20698469006E+03  0.13427348227E+04  0.46999998093E+01 0.  1.
</event>
<event>
 5   0  0.2517725E-06  0.3088861E+04  0.7818609E-02  0.8218802E-01
        1   -1    0    0  501    0  0.00000000000E+00  0.00000000000E+00  0.89045377813E+03  0.89045377815E+03  0.50400001928E-02 0. -1.
       -1   -1    0    0    0  501  0.00000000000E+00  0.00000000000E+00 -0.26787076647E+04  0.26787076647E+04  0.50400001928E-02 0.  1.
    10030    2    1    2    0    0  0.00000000000E+00  0.00000000000E+00 -0.17882538866E+04  0.35691614428E+04  0.30888608648E+04 0.  0.
        3    1    3    3  502    0  0.54256413932E+03  0.13155303106E+03 -0.25580321863E+04  0.26182457336E+04  0.10100000352E+00 0.  1.
       -3    1    3    3    0  502 -0.54256413932E+03 -0.13155303106E+03  0.76977829969E+03  0.95091570927E+03  0.10100000352E+00 0. -1.
</event>
<event>
 5   0  0.7363513E-06  0.3145421E+04  0.7818609E-02  0.8203382E-01
        2   -1    0    0  501    0  0.00000000000E+00  0.00000000000E+00  0.10095521068E+04  0.10095521068E+04  0.25500000920E-02 0.  1.
       -2   -1    0    0    0  501  0.00000000000E+00  0.00000000000E+00 -0.24500159247E+04  0.24500159247E+04  0.25500000920E-02 0. -1.
    10030    2    1    2    0    0  0.00000000000E+00  0.00000000000E+00 -0.14404638179E+04  0.34595680315E+04  0.31454212681E+04 0.  0.
        4    1    3    3  502    0 -0.55088198341E+03  0.14730736675E+04 -0.72063744940E+03  0.17299528710E+04  0.12699999809E+01 0. -1.
       -4    1    3    3    0  502  0.55088198341E+03 -0.14730736675E+04 -0.71982636845E+03  0.17296151604E+04  0.12699999809E+01 0.  1.
</event>
<event>
 5   0  0.2624011E-06  0.3048977E+04  0.7818609E-02  0.8229882E-01
       -1   -1    0    0    0  501  0.00000000000E+00  0.00000000000E+00  0.10606109327E+04  0.10606109327E+04  0.50400001928E-02 0.  1.
        1   -1    0    0  501    0  0.00000000000E+00  0.00000000000E+00 -0.21912516402E+04  0.21912516402E+04  0.50400001928E-02 0. -1.
    10030    2    1    2    0    0  0.00000000000E+00  0.00000000000E+00 -0.11306407075E+04  0.32518625729E+04  0.30489771701E+04 0.  0.
        1    1    3    3  502    0  0.12009158484E+04 -0.56388466447E+03  0.23558152237E+03  0.13474655630E+04  0.50400001928E-02 0.  1.
       -1    1    3    3    0  502 -0.12009158484E+04  0.56388466447E+03 -0.13662222298E+04  0.19043970099E+04  0.50400001928E-02 0. -1.
</event>
<event>
 5   0  0.2674441E-06  0.3097100E+04  0.7818609E-02  0.8216534E-01
        1   -1    0    0  501    0  0.00000000000E+00  0.00000000000E+00  0.25367638371E+04  0.25367638371E+04  0.50400001928E-02 0.  1.
       -1   -1    0    0    0  501  0.00000000000E+00  0.00000000000E+00 -0.94530144859E+03  0.94530144860E+03  0.50400001928E-02 0. -1.
    10030    2    1    2    0    0  0.00000000000E+00  0.00000000000E+00  0.15914623885E+04  0.34820652857E+04  0.30970996303E+04 0.  0.
        5    1    3    3  502    0 -0.12501674633E+04  0.38175974874E+03 -0.13772475081E+03  0.13144007718E+04  0.46999998093E+01 0. -1.
       -5    1    3    3    0  502  0.12501674633E+04 -0.38175974874E+03  0.17291871393E+04  0.21676645139E+04  0.46999998093E+01 0.  1.
</event>
<event>
 5   0  0.2598987E-06  0.3116142E+04  0.7818609E-02  0.8211322E-01
        1   -1    0    0  501    0  0.00000000000E+00  0.00000000000E+00  0.91894929203E+03  0.91894929204E+03  0.50400001928E-02 0. -1.
       -1   -1    0    0    0  501  0.00000000000E+00  0.00000000000E+00 -0.26416972914E+04  0.26416972914E+04  0.50400001928E-02 0.  1.
    10030    2    1    2    0    0  0.00000000000E+00  0.00000000000E+00 -0.17227479994E+04  0.35606465834E+04  0.31161423945E+04 0.  0.
        2    1    3    3  502    0 -0.10703944584E+04 -0.33649343737E+03 -0.20966018242E+04  0.23779636959E+04  0.25500000920E-02 0.  1.
       -2    1    3    3    0  502  0.10703944584E+04  0.33649343737E+03  0.37385382481E+03  0.11826828875E+04  0.25500000920E-02 0. -1.
</event>
<event>
 5   0  0.2598987E-06  0.2553258E+04  0.7818609E-02  0.8384254E-01
       -1   -1    0    0    0  501  0.00000000000E+00  0.00000000000E+00  0.86986193165E+03  0.86986193166E+03  0.50400001928E-02 0. -1.
        1   -1    0    0  501    0  0.00000000000E+00  0.00000000000E+00 -0.18736101571E+04  0.18736101571E+04  0.50400001928E-02 0.  1.
    10030    2    1    2    0    0  0.00000000000E+00  0.00000000000E+00 -0.10037482255E+04  0.27434720888E+04  0.25532584283E+04 0.  0.
        2    1    3    3  502    0  0.82039678661E+03  0.96392036405E+03 -0.68034695328E+03  0.14370335182E+04  0.25500000920E-02 0. -1.
       -2    1    3    3    0  502 -0.82039678661E+03 -0.96392036405E+03 -0.32340127219E+03  0.13064385705E+04  0.25500000920E-02 0.  1.
</event>
<event>
 5   0  0.2674441E-06  0.3237428E+04  0.7818609E-02  0.8179002E-01
       -1   -1    0    0    0  501  0.00000000000E+00  0.00000000000E+00  0.90029213065E+03  0.90029213066E+03  0.50400001928E-02 0.  1.
        1   -1    0    0  501    0  0.00000000000E+00  0.00000000000E+00 -0.29104268838E+04  0.29104268838E+04  0.50400001928E-02 0. -1.
    10030    2    1    2    0    0  0.00000000000E+00  0.00000000000E+00 -0.20101347531E+04  0.38107190144E+04  0.32374276334E+04 0.  0.
        5    1    3    3  502    0  0.14916215510E+04  0.22495136927E+03 -0.31401439221E+03  0.15408325991E+04  0.46999998093E+01 0.  1.
       -5    1    3    3    0  502 -0.14916215510E+04 -0.22495136927E+03 -0.16961203609E+04  0.22698864154E+04  0.46999998093E+01 0. -1.
</event>
<event>
 5   0  0.2674441E-06  0.3123453E+04  0.7818609E-02  0.8209331E-01
        1   -1    0    0  501    0  0.00000000000E+00  0.00000000000E+00  0.76508913408E+03  0.76508913410E+03  0.50400001928E-02 0. -1.
       -1   -1    0    0    0  501  0.00000000000E+00  0.00000000000E+00 -0.31878509056E+04  0.31878509056E+04  0.50400001928E-02 0.  1.
    10030    2    1    2    0    0  0.00000000000E+00  0.00000000000E+00 -0.24227617715E+04  0.39529400397E+04  0.31234532742E+04 0.  0.
        5    1    3    3  502    0  0.28452058474E+03 -0.42954374592E+03  0.65442240824E+03  0.83291690534E+03  0.46999998093E+01 0. -1.
       -5    1    3    3    0  502 -0.28452058474E+03  0.42954374592E+03 -0.30771841798E+04  0.31200231344E+04  0.46999998093E+01 0.  1.
</event>
<event>
 5   0  0.2598987E-06  0.3102760E+04  0.7818609E-02  0.8214981E-01
       -1   -1    0    0    0  501  0.00000000000E+00  0.00000000000E+00  0.11886302844E+04  0.11886302844E+04  0.50400001928E-02 0. -1.
        1   -1    0    0  501    0  0.00000000000E+00  0.00000000000E+00 -0.20248346822E+04  0.20248346822E+04  0.50400001928E-02 0.  1.
    10030    2    1    2    0    0  0.00000000000E+00  0.00000000000E+00 -0.83620439777E+03  0.32134649666E+04  0.31027599483E+04 0.  0.
        2    1    3    3  502    0 -0.13893919425E+04  0.57050252443E+03 -0.15788057293E+02  0.15020427301E+04  0.25500000920E-02 0. -1.
       -2    1    3    3    0  502  0.13893919425E+04 -0.57050252443E+03 -0.82041634048E+03  0.17114222366E+04  0.25500000920E-02 0.  1.
</event>
<event>
 5   0  0.2598987E-06  0.3161012E+04  0.7818609E-02  0.8199190E-01
       -1   -1    0    0    0  501  0.00000000000E+00  0.00000000000E+00  0.12580745460E+04  0.12580745460E+04  0.50400001928E-02 0.  1.
        1   -1    0    0  501    0  0.00000000000E+00  0.00000000000E+00 -0.19855736997E+04  0.19855736997E+04  0.50400001928E-02 0. -1.
    10030    2    1    2    0    0  0.00000000000E+00  0.00000000000E+00 -0.72749915365E+03  0.32436482457E+04  0.31610123257E+04 0.  0.
        2    1    3    3  502    0 -0.69744288089E+02  0.68799955821E+03 -0.18220966483E+04  0.19489083749E+04  0.25500000920E-02 0. -1.
       -2    1    3    3    0  502  0.69744288089E+02 -0.68799955821E+03  0.10945974947E+04  0.12947398708E+04  0.25500000920E-02 0.  1.
</event>
<event>
 5   0  0.2393250E-06  0.3082587E+04  0.7818609E-02  0.8220533E-01
       -4   -1    0    0    0  501  0.00000000000E+00  0.00000000000E+00  0.25494656615E+04  0.25494659778E+04  0.12699999809E+01 0. -1.
        4   -1    0    0  501    0  0.00000000000E+00  0.00000000000E+00 -0.93179696427E+03  0.93179782974E+03  0.12699999809E+01 0.  1.
    10030    2    1    2    0    0  0.00000000000E+00  0.00000000000E+00  0.16176686972E+04  0.34812638076E+04  0.30825874982E+04 0.  0.
        3    1    3    3  502    0 -0.23482918315E+03 -0.10799482182E+04 -0.40442406279E+03  0.11768567169E+04  0.10100000352E+00 0.  1.
       -3    1    3    3    0  502  0.23482918315E+03  0.10799482182E+04  0.20220927600E+04  0.23044070907E+04  0.10100000352E+00 0. -1.
</event>
<event>
 5   0  0.7071012E-06  0.3069718E+04  0.7818609E-02  0.8224098E-01
        2   -1    0    0  501    0  0.00000000000E+00  0.00000000000E+00  0.14492976300E+04  0.14492976300E+04  0.25500000920E-02 0. -1.
       -2   -1    0    0    0  501  0.00000000000E+00  0.00000000000E+00 -0.16254711906E+04  0.16254711906E+04  0.25500000920E-02 0.  1.
    10030    2    1    2    0    0  0.00000000000E+00  0.00000000000E+00 -0.17617356066E+03  0.30747688206E+04  0.30697176054E+04 0.  0.
        1    1    3    3  502    0  0.12087071555E+04 -0.16915129226E+03 -0.10203203479E+04  0.15907981518E+04  0.50400001928E-02 0.  1.
       -1    1    3    3    0  502 -0.12087071555E+04  0.16915129226E+03  0.84414678720E+03  0.14839706688E+04  0.50400001928E-02 0. -1.
</event>
<event>
 5   0  0.2674441E-06  0.2018029E+04  0.7818609E-02  0.8598237E-01
        1   -1    0    0  501    0  0.00000000000E+00  0.00000000000E+00  0.17364930026E+04  0.17364930026E+04  0.50400001928E-02 0. -1.
       -1   -1    0    0    0  501  0.00000000000E+00  0.00000000000E+00 -0.58630277070E+03  0.58630277073E+03  0.50400001928E-02 0.  1.
    10030    2    1    2    0    0  0.00000000000E+00  0.00000000000E+00  0.11501902319E+04  0.23227957733E+04  0.20180293940E+04 0.  0.
        5    1    3    3  502    0  0.13174877098E+03  0.20128848015E+03  0.17029870892E+04  0.17199017143E+04  0.46999998093E+01 0. -1.
       -5    1    3    3    0  502 -0.13174877098E+03 -0.20128848015E+03 -0.55279685734E+03  0.60289405900E+03  0.46999998093E+01 0.  1.
</event>
<event>
 5   0  0.2598987E-06  0.3011314E+04  0.7818609E-02  0.8240507E-01
        1   -1    0    0  501    0  0.00000000000E+00  0.00000000000E+00  0.21539444349E+04  0.21539444349E+04  0.50400001928E-02 0. -1.
       -1   -1    0    0    0  501  0.00000000000E+00  0.00000000000E+00 -0.10524891109E+04  0.10524891109E+04  0.50400001928E-02 0.  1.
    10030    2    1    2    0    0  0.00000000000E+00  0.00000000000E+00  0.11014553241E+04  0.32064335458E+04  0.30113140409E+04 0.  0.
        2    1    3    3  502    0  0.60958923893E+03 -0.13667744264E+04  0.72676283084E+03  0.16636873459E+04  0.25500000920E-02 0. -1.
       -2    1    3    3    0  502 -0.60958923893E+03  0.13667744264E+04  0.37469249323E+03  0.15427461999E+04  0.25500000920E-02 0.  1.
</event>
<event>
 5   0  0.2624011E-06  0.3091237E+04  0.7818609E-02  0.8218147E-01
       -1   -1    0    0    0  501  0.00000000000E+00  0.00000000000E+00  0.19762857339E+04  0.19762857340E+04  0.50400001928E-02 0.  1.
        1   -1    0    0  501    0  0.00000000000E+00  0.00000000000E+00 -0.12088012105E+04  0.12088012105E+04  0.50400001928E-02 0. -1.
    10030    2    1    2    0    0  0.00000000000E+00  0.00000000000E+00  0.76748452346E+03  0.31850869445E+04  0.30912370258E+04 0.  0.
        1    1    3    3  502    0 -0.28068349867E+03  0.14191182272E+04 -0.17707731134E+03  0.14574073361E+04  0.50400001928E-02 0. -1.
       -1    1    3    3    0  502  0.28068349867E+03 -0.14191182272E+04  0.94456183480E+03  0.17276796083E+04  0.50400001928E-02 0.  1.
</event>
<event>
 5   0  0.7079223E-06  0.3083380E+04  0.7818609E-02  0.8220314E-01
        2   -1    0    0  501    0  0.00000000000E+00  0.00000000000E+00  0.19011852224E+04  0.19011852224E+04  0.25500000920E-02 0.  1.
       -2   -1    0    0    0  501  0.00000000000E+00  0.00000000000E+00 -0.12501716806E+04  0.12501716806E+04  0.25500000920E-02 0. -1.
    10030    2    1    2    0    0  0.00000000000E+00  0.00000000000E+00  0.65101354179E+03  0.31513569029E+04  0.30833799146E+04 0.  0.
        5    1    3    3  502    0 -0.89441561589E+03 -0.12032367490E+02 -0.95782758247E+03  0.13105647025E+04  0.46999998093E+01 0. -1.
       -5    1    3    3    0  502  0.89441561589E+03  0.12032367490E+02  0.16088411243E+04  0.18407922004E+04  0.46999998093E+01 0.  1.
</event>
<event>
 5   0  0.7079223E-06  0.3099901E+04  0.7818609E-02  0.8215765E-01
       -2   -1    0    0    0  501  0.00000000000E+00  0.00000000000E+00  0.99987060473E+03  0.99987060473E+03  0.25500000920E-02 0.  1.
        2   -1    0    0  501    0  0.00000000000E+00  0.00000000000E+00 -0.24026582058E+04  0.24026582058E+04  0.25500000920E-02 0. -1.
    10030    2    1    2    0    0  0.00000000000E+00  0.00000000000E+00 -0.14027876011E+04  0.34025288106E+04  0.30999014908E+04 0.  0.
        5    1    3    3  502    0  0.51224087506E+03  0.13485026750E+04 -0.79054036325E+02  0.14446874434E+04  0.46999998093E+01 0.  1.
       -5    1    3    3    0  502 -0.51224087506E+03 -0.13485026750E+04 -0.13237335648E+04  0.19578413672E+04  0.46999998093E+01 0. -1.
</event>
<event>
 5   0  0.7363513E-06  0.3098051E+04  0.7818609E-02  0.8216273E-01
       -2   -1    0    0    0  501  0.00000000000E+00  0.00000000000E+00  0.12503273868E+04  0.12503273868E+04  0.25500000920E-02 0. -1.
        2   -1    0    0  501    0  0.00000000000E+00  0.00000000000E+00 -0.19190809559E+04  0.19190809559E+04  0.25500000920E-02 0.  1.
    10030    2    1    2    0    0  0.00000000000E+00  0.00000000000E+00 -0.66875356909E+03  0.31694083428E+04  0.30980506624E+04 0.  0.
        4    1    3    3  502    0  0.26091241978E+03 -0.33445497605E+03  0.11897510983E+04  0.12631091444E+04  0.12699999809E+01 0. -1.
       -4    1    3    3    0  502 -0.26091241978E+03  0.33445497605E+03 -0.18585046674E+04  0.19062991983E+04  0.12699999809E+01 0.  1.
</event>
<event>
 5   0  0.2674441E-06  0.3204739E+04  0.7818609E-02  0.8187567E-01
       -1   -1    0    0    0  501  0.00000000000E+00  0.00000000000E+00  0.11931696126E+04  0.11931696126E+04  0.50400001928E-02 0.  1.
        1   -1    0    0  501    0  0.00000000000E+00  0.00000000000E+00 -0.21519048263E+04  0.21519048263E+04  0.50400001928E-02 0. -1.
    10030    2    1    2    0    0  0.00000000000E+00  0.00000000000E+00 -0.95873521372E+03  0.33450744389E+04  0.32047386464E+04 0.  0.
        5    1    3    3  502    0 -0.14367252235E+04  0.50124837380E+03  0.44752291628E+02  0.15223186781E+04  0.46999998093E+01 0. -1.
       -5    1    3    3    0  502  0.14367252235E+04 -0.50124837380E+03 -0.10034875053E+04  0.18227557608E+04  0.46999998093E+01 0.  1.
</event>
<event>
 5   0  0.7414808E-06  0.3106693E+04  0.7818609E-02  0.8213904E-01
        2   -1    0    0  501    0  0.00000000000E+00  0.00000000000E+00  0.14400885776E+04  0.14400885776E+04  0.25500000920E-02 0. -1.
       -2   -1    0    0    0  501  0.00000000000E+00  0.00000000000E+00 -0.16755114522E+04  0.16755114522E+04  0.25500000920E-02 0.  1.
    10030    2    1    2    0    0  0.00000000000E+00  0.00000000000E+00 -0.23542287465E+03  0.31156000298E+04  0.31066927135E+04 0.  0.
        2    1    3    3  502    0 -0.38677798252E+03  0.13729389726E+04  0.49913441936E+03  0.15111895311E+04  0.25500000920E-02 0.  1.
       -2    1    3    3    0  502  0.38677798252E+03 -0.13729389726E+04 -0.73455729401E+03  0.16044104987E+04  0.25500000920E-02 0. -1.
</event>
<event>
 5   0  0.2598987E-06  0.3028817E+04  0.7818609E-02  0.8235550E-01
       -1   -1    0    0    0  501  0.00000000000E+00  0.00000000000E+00  0.12372132408E+04  0.12372132408E+04  0.50400001928E-02 0. -1.
        1   -1    0    0  501    0  0.00000000000E+00  0.00000000000E+00 -0.18537088828E+04  0.18537088828E+04  0.50400001928E-02 0.  1.
    10030    2    1    2    0    0  0.00000000000E+00  0.00000000000E+00 -0.61649564197E+03  0.30909221236E+04  0.30288170460E+04 0.  0.
        2    1    3    3  502    0  0.75187880773E+03  0.55038100019E+03 -0.15265407927E+04  0.17884540192E+04  0.25500000920E-02 0.  1.
       -2    1    3    3    0  502 -0.75187880773E+03 -0.55038100019E+03  0.91004515071E+03  0.13024681045E+04  0.25500000920E-02 0. -1.
</event>
<event>
 5   0  0.7414808E-06  0.3167756E+04  0.7818609E-02  0.8197385E-01
        2   -1    0    0  501    0  0.00000000000E+00  0.00000000000E+00  0.11191858186E+04  0.11191858186E+04  0.25500000920E-02 0. -1.
       -2   -1    0    0    0  501  0.00000000000E+00  0.00000000000E+00 -0.22415134593E+04  0.22415134593E+04  0.25500000920E-02 0.  1.
    10030    2    1    2    0    0  0.00000000000E+00  0.00000000000E+00 -0.11223276406E+04  0.33606992779E+04  0.31677563517E+04 0.  0.
        2    1    3    3  502    0  0.27129417415E+03  0.15216896274E+04 -0.92795319832E+03  0.18028413656E+04  0.25500000920E-02 0.  1.
       -2    1    3    3    0  502 -0.27129417415E+03 -0.15216896274E+04 -0.19437444231E+03  0.15578579123E+04  0.25500000920E-02 0. -1.
</event>
<event>
 5   0  0.2674441E-06  0.3074436E+04  0.7818609E-02  0.8222789E-01
       -1   -1    0    0    0  501  0.00000000000E+00  0.00000000000E+00  0.18969439777E+04  0.18969439777E+04  0.50400001928E-02 0.  1.
        1   -1    0    0  501    0  0.00000000000E+00  0.00000000000E+00 -0.12457084505E+04  0.12457084505E+04  0.50400001928E-02 0. -1.
    10030    2    1    2    0    0  0.00000000000E+00  0.00000000000E+00  0.65123552714E+03  0.31426524282E+04  0.30744359763E+04 0.  0.
        5    1    3    3  502    0 -0.90293634144E+03  0.11585283659E+03  0.15917708016E+04  0.18337045267E+04  0.46999998093E+01 0.  1.
       -5    1    3    3    0  502  0.90293634144E+03 -0.11585283659E+03 -0.94053527442E+03  0.13089479015E+04  0.46999998093E+01 0. -1.
</event>
<event>
 5   0  0.7363513E-06  0.3143292E+04  0.7818609E-02  0.8203956E-01
       -2   -1    0    0    0  501  0.00000000000E+00  0.00000000000E+00  0.98467877007E+03  0.98467877007E+03  0.25500000920E-02 0.  1.
        2   -1    0    0  501    0  0.00000000000E+00  0.00000000000E+00 -0.25085052229E+04  0.25085052229E+04  0.25500000920E-02 0. -1.
    10030    2    1    2    0    0  0.00000000000E+00  0.00000000000E+00 -0.15238264528E+04  0.34931839929E+04  0.31432924379E+04 0.  0.
        4    1    3    3  502    0  0.58214430849E+02 -0.71017319575E+03  0.79485258699E+03  0.10674863633E+04  0.12699999809E+01 0.  1.
       -4    1    3    3    0  502 -0.58214430849E+02  0.71017319575E+03 -0.23186790398E+04  0.24256976296E+04  0.12699999809E+01 0. -1.
</event>
<event>
 5   0  0.2624011E-06  0.2449674E+04  0.7818609E-02  0.8421137E-01
        1   -1    0    0  501    0  0.00000000000E+00  0.00000000000E+00  0.83680828690E+03  0.83680828692E+03  0.50400001928E-02 0. -1.
       -1   -1    0    0    0  501  0.00000000000E+00  0.00000000000E+00 -0.17927954255E+04  0.17927954255E+04  0.50400001928E-02 0.  1.
    10030    2    1    2    0    0  0.00000000000E+00  0.00000000000E+00 -0.95598713860E+03  0.26296037124E+04  0.24496743202E+04 0.  0.
        1    1    3    3  502    0  0.10254751780E+04  0.47317028835E+03 -0.98687764851E+03  0.14998056393E+04  0.50400001928E-02 0.  1.
       -1    1    3    3    0  502 -0.10254751780E+04 -0.47317028835E+03  0.30890509901E+02  0.11297980732E+04  0.50400001928E-02 0. -1.
</event>
<event>
 5   0  0.2674441E-06  0.3023318E+04  0.7818609E-02  0.8237104E-01
        1   -1    0    0  501    0  0.00000000000E+00  0.00000000000E+00  0.12983518714E+04  0.12983518714E+04  0.50400001928E-02 0. -1.
       -1   -1    0    0    0  501  0.00000000000E+00  0.00000000000E+00 -0.17600103878E+04  0.17600103878E+04  0.50400001928E-02 0.  1.
    10030    2    1    2    0    0  0.00000000000E+00  0.00000000000E+00 -0.46165851641E+03  0.30583622592E+04  0.30233178997E+04 0.  0.
        5    1    3    3  502    0  0.81578189179E+03  0.58551235957E+03  0.91220893816E+03  0.13566399873E+04  0.46999998093E+01 0. -1.
       -5    1    3    3    0  502 -0.81578189179E+03 -0.58551235957E+03 -0.13738674546E+04  0.17017222720E+04  0.46999998093E+01 0.  1.
</event>
<event>
 5   0  0.2612331E-06  0.3043829E+04  0.7818609E-02  0.8231325E-01
       -1   -1    0    0    0  501  0.00000000000E+00  0.00000000000E+00  0.11001756034E+04  0.11001756035E+04  0.50400001928E-02 0.  1.
        1   -1    0    0  501    0  0.00000000000E+00  0.00000000000E+00 -0.21053212889E+04  0.21053212889E+04  0.50400001928E-02 0. -1.
    10030    2    1    2    0    0  0.00000000000E+00  0.00000000000E+00 -0.10051456854E+04  0.32054968923E+04  0.30438285888E+04 0.  0.
        4    1    3    3  502    0  0.13053157168E+04 -0.69167993555E+03 -0.11714014167E+03  0.14818885516E+04  0.12699999809E+01 0.  1.
       -4    1    3    3    0  502 -0.13053157168E+04  0.69167993555E+03 -0.88800554377E+03  0.17236083408E+04  0.12699999809E+01 0. -1.
</event>
<event>
 5   0  0.7414808E-06  0.3018913E+04  0.7818609E-02  0.8238351E-01
        2   -1    0    0  501    0  0.00000000000E+00  0.00000000000E+00  0.15013900808E+04  0.15013900808E+04  0.25500000920E-02 0. -1.
       -2   -1    0    0    0  501  0.00000000000E+00  0.00000000000E+00 -0.15175665778E+04  0.15175665778E+04  0.25500000920E-02 0.  1.
    10030    2    1    2    0    0  0.00000000000E+00  0.00000000000E+00 -0.16176496967E+02  0.30189566586E+04  0.30189133190E+04 0.  0.
        2    1    3    3  502    0  0.31366957092E+03  0.12718626850E+03 -0.14791275378E+04  0.15173606096E+04  0.25500000920E-02 0.  1.
       -2    1    3    3    0  502 -0.31366957092E+03 -0.12718626850E+03  0.14629510408E+04  0.15015960490E+04  0.25500000920E-02 0. -1.
</event>
<event>
 5   0  0.7094341E-06  0.2301443E+04  0.7818609E-02  0.8477352E-01
        2   -1    0    0  501    0  0.00000000000E+00  0.00000000000E+00  0.99103415661E+03  0.99103415661E+03  0.25500000920E-02 0.  1.
       -2   -1    0    0    0  501  0.00000000000E+00  0.00000000000E+00 -0.13361393681E+04  0.13361393681E+04  0.25500000920E-02 0. -1.
    10030    2    1    2    0    0  0.00000000000E+00  0.00000000000E+00 -0.34510521147E+03  0.23271735247E+04  0.23014428099E+04 0.  0.
        3    1    3    3  502    0 -0.63185335383E+03  0.60182226767E+03 -0.93109352814E+03  0.12760736150E+04  0.10100000352E+00 0. -1.
       -3    1    3    3    0  502  0.63185335383E+03 -0.60182226767E+03  0.58598831668E+03  0.10510999097E+04  0.10100000352E+00 0.  1.
</event>
<event>
 5   0  0.2674441E-06  0.3136374E+04  0.7818609E-02  0.8205826E-01
       -1   -1    0    0    0  501  0.00000000000E+00  0.00000000000E+00  0.12505380418E+04  0.12505380418E+04  0.50400001928E-02 0. -1.
        1   -1    0    0  501    0  0.00000000000E+00  0.00000000000E+00 -0.19665213011E+04  0.19665213011E+04  0.50400001928E-02 0.  1.
    10030    2    1    2    0    0  0.00000000000E+00  0.00000000000E+00 -0.71598325935E+03  0.32170593429E+04  0.31363735091E+04 0.  0.
        5    1    3    3  502    0  0.19528383034E+03 -0.14119833081E+04  0.31254989074E+03  0.14592950904E+04  0.46999998093E+01 0.  1.
       -5    1    3    3    0  502 -0.19528383034E+03  0.14119833081E+04 -0.10285331501E+04  0.17577642525E+04  0.46999998093E+01 0. -1.
</event>
<event>
 5   0  0.7079223E-06  0.2915331E+04  0.7818609E-02  0.8268331E-01
        2   -1    0    0  501    0  0.00000000000E+00  0.00000000000E+00  0.16370117614E+04  0.16370117614E+04  0.25500000920E-02 0. -1.
       -2   -1    0    0    0  501  0.00000000000E+00  0.00000000000E+00 -0.12979675923E+04  0.12979675923E+04  0.25500000920E-02 0.  1.
    10030    2    1    2    0    0  0.00000000000E+00  0.00000000000E+00  0.33904416903E+03  0.29349793537E+04  0.29153306601E+04 0.  0.
        5    1    3    3  502    0 -0.65395153236E+03 -0.92937984928E+03 -0.74951974687E+03  0.13613234193E+04  0.46999998093E+01 0.  1.
       -5    1    3    3    0  502  0.65395153236E+03  0.92937984928E+03  0.10885639159E+04  0.15736559344E+04  0.46999998093E+01 0. -1.
</event>
<event>
 5   0  0.7079223E-06  0.2041886E+04  0.7818609E-02  0.8587284E-01
       -2   -1    0    0    0  501  0.00000000000E+00  0.00000000000E+00  0.77874058160E+03  0.77874058160E+03  0.25500000920E-02 0.  1.
        2   -1    0    0  501    0  0.00000000000E+00  0.00000000000E+00 -0.13384746505E+04  0.13384746505E+04  0.25500000920E-02 0. -1.
    10030    2    1    2    0    0  0.00000000000E+00  0.00000000000E+00 -0.55973406886E+03  0.21172152321E+04  0.20418859202E+04 0.  0.
        5    1    3    3  502    0  0.37437306016E+03  0.52725598768E+03  0.53930941215E+03  0.84203966459E+03  0.46999998093E+01 0.  1.
       -5    1    3    3    0  502 -0.37437306016E+03 -0.52725598768E+03 -0.10990434810E+04  0.12751755675E+04  0.46999998093E+01 0. -1.
</event>
<event>
 5   0  0.7079223E-06  0.3167404E+04  0.7818609E-02  0.8197479E-01
       -2   -1    0    0    0  501  0.00000000000E+00  0.00000000000E+00  0.12568171411E+04  0.12568171411E+04  0.25500000920E-02 0. -1.
        2   -1    0    0  501    0  0.00000000000E+00  0.00000000000E+00 -0.19956064721E+04  0.19956064721E+04  0.25500000920E-02 0.  1.
    10030    2    1    2    0    0  0.00000000000E+00  0.00000000000E+00 -0.73878933104E+03  0.32524236132E+04  0.31674042502E+04 0.  0.
        5    1    3    3  502    0 -0.27127109838E+03  0.14784696412E+04 -0.88140678106E+03  0.17425155645E+04  0.46999998093E+01 0.  1.
       -5    1    3    3    0  502  0.27127109838E+03 -0.14784696412E+04  0.14261745001E+03  0.15099080488E+04  0.46999998093E+01 0. -1.
</event>
<event>
 5   0  0.2624011E-06  0.3094896E+04  0.7818609E-02  0.8217140E-01
        1   -1    0    0  501    0  0.00000000000E+00  0.00000000000E+00  0.12100191517E+04  0.12100191517E+04  0.50400001928E-02 0.  1.
       -1   -1    0    0    0  501  0.00000000000E+00  0.00000000000E+00 -0.19789734684E+04  0.19789734684E+04  0.50400001928E-02 0. -1.
    10030    2    1    2    0    0  0.00000000000E+00  0.00000000000E+00 -0.76895431673E+03  0.31889926201E+04  0.30948963133E+04 0.  0.
        1    1    3    3  502    0  0.23036727031E+03  0.60766465219E+03  0.10625964992E+04  0.12455668304E+04  0.50400001928E-02 0.  1.
       -1    1    3    3    0  502 -0.23036727031E+03 -0.60766465219E+03 -0.18315508160E+04  0.19434257897E+04  0.50400001928E-02 0. -1.
</event>
<event>
 5   0  0.7363513E-06  0.3046136E+04  0.7818609E-02  0.8230678E-01
        2   -1    0    0  501    0  0.00000000000E+00  0.00000000000E+00  0.16116472165E+04  0.16116472165E+04  0.25500000920E-02 0. -1.
       -2   -1    0    0    0  501  0.00000000000E+00  0.00000000000E+00 -0.14393573146E+04  0.14393573146E+04  0.25500000920E-02 0.  1.
    10030    2    1    2    0    0  0.00000000000E+00  0.00000000000E+00  0.17228990184E+03  0.30510045311E+04  0.30461360506E+04 0.  0.
        4    1    3    3  502    0  0.64095048906E+03 -0.32664660135E+03  0.14307580754E+04  0.16014324259E+04  0.12699999809E+01 0. -1.
       -4    1    3    3    0  502 -0.64095048906E+03  0.32664660135E+03 -0.12584681735E+04  0.14495721052E+04  0.12699999809E+01 0.  1.
</event>
<event>
 5   0  0.2624011E-06  0.3117060E+04  0.7818609E-02  0.8211071E-01
       -1   -1    0    0    0  501  0.00000000000E+00  0.00000000000E+00  0.15030677020E+04  0.15030677020E+04  0.50400001928E-02 0. -1.
        1   -1    0    0  501    0  0.00000000000E+00  0.00000000000E+00 -0.16160390457E+04  0.16160390457E+04  0.50400001928E-02 0.  1.
    10030    2    1    2    0    0  0.00000000000E+00  0.00000000000E+00 -0.11297134363E+03  0.31191067477E+04  0.31170602142E+04 0.  0.
        1    1    3    3  502    0  0.59845807391E+03  0.14184349649E+04  0.18637983673E+03  0.15507569956E+04  0.50400001928E-02 0.  1.
       -1    1    3    3    0  502 -0.59845807391E+03 -0.14184349649E+04 -0.29935118036E+03  0.15683497521E+04  0.50400001928E-02 0. -1.
</event>
<event>
 5   0  0.2624011E-06  0.2483136E+04  0.7818609E-02  0.8409018E-01
        1   -1    0    0  501    0  0.00000000000E+00  0.00000000000E+00  0.28621308447E+04  0.28621308447E+04  0.50400001928E-02 0. -1.
       -1   -1    0    0    0  501  0.00000000000E+00  0.00000000000E+00 -0.53858180244E+03  0.53858180246E+03  0.50400001928E-02 0.  1.
    10030    2    1    2    0    0  0.00000000000E+00  0.00000000000E+00  0.23235490423E+04  0.34007126472E+04  0.24831363951E+04 0.  0.
        1    1    3    3  502    0 -0.55422515587E+03  0.43465330035E+03  0.25620424556E+04  0.26570943828E+04  0.50400001928E-02 0. -1.
       -1    1    3    3    0  502  0.55422515587E+03 -0.43465330035E+03 -0.23849341330E+03  0.74361826437E+03  0.50400001928E-02 0.  1.
</event>
<event>
 5   0  0.2598987E-06  0.2713614E+04  0.7818609E-02  0.8330601E-01
        1   -1    0    0  501    0  0.00000000000E+00  0.00000000000E+00  0.17226344333E+04  0.17226344334E+04  0.50400001928E-02 0.  1.
       -1   -1    0    0    0  501  0.00000000000E+00  0.00000000000E+00 -0.10686685392E+04  0.10686685392E+04  0.50400001928E-02 0. -1.
    10030    2    1    2    0    0  0.00000000000E+00  0.00000000000E+00  0.65396589414E+03  0.27913029726E+04  0.27136139913E+04 0.  0.
        2    1    3    3  502    0  0.51269756071E+03 -0.12697190862E+03  0.16125410705E+04  0.16968409938E+04  0.25500000920E-02 0.  1.
       -2    1    3    3    0  502 -0.51269756071E+03  0.12697190862E+03 -0.95857517631E+03  0.10944619788E+04  0.25500000920E-02 0. -1.
</event>
<event>
 5   0  0.7363513E-06  0.2981320E+04  0.7818609E-02  0.8249085E-01
       -2   -1    0    0    0  501  0.00000000000E+00  0.00000000000E+00  0.14449222338E+04  0.14449222338E+04  0.25500000920E-02 0. -1.
        2   -1    0    0  501    0  0.00000000000E+00  0.00000000000E+00 -0.15378458360E+04  0.15378458360E+04  0.25500000920E-02 0.  1.
    10030    2    1    2    0    0  0.00000000000E+00  0.00000000000E+00 -0.92923602172E+02  0.29827680698E+04  0.29813202717E+04 0.  0.
        4    1    3    3  502    0 -0.10446964023E+04  0.84313242610E+03 -0.69469863906E+03  0.15115788676E+04  0.12699999809E+01 0. -1.
       -4    1    3    3    0  502  0.10446964023E+04 -0.84313242610E+03  0.60177503689E+03  0.14711892022E+04  0.12699999809E+01 0.  1.
</event>
<event>
 5   0  0.2612331E-06  0.3094440E+04  0.7818609E-02  0.8217265E-01
        1   -1    0    0  501    0  0.00000000000E+00  0.00000000000E+00  0.14755665976E+04  0.14755665977E+04  0.50400001928E-02 0. -1.
       -1   -1    0    0    0  501  0.00000000000E+00  0.00000000000E+00 -0.16223534044E+04  0.16223534044E+04  0.50400001928E-02 0.  1.
    10030    2    1    2    0    0  0.00000000000E+00  0.00000000000E+00 -0.14678680679E+03  0.30979200021E+04  0.30944404943E+04 0.  0.
        4    1    3    3  502    0  0.73369271636E+02  0.25925773886E+03 -0.15986850110E+04  0.16212319398E+04  0.12699999809E+01 0.  1.
       -4    1    3    3    0  502 -0.73369271636E+02 -0.25925773886E+03  0.14518982042E+04  0.14766880623E+04  0.12699999809E+01 0. -1.
</event>
<event>
 5   0  0.2517725E-06  0.3089109E+04  0.7818609E-02  0.8218733E-01
       -1   -1    0    0    0  501  0.00000000000E+00  0.00000000000E+00  0.18991905946E+04  0.18991905946E+04  0.50400001928E-02 0.  1.
        1   -1    0    0  501    0  0.00000000000E+00  0.00000000000E+00 -0.12561392550E+04  0.12561392550E+04  0.50400001928E-02 0. -1.
    10030    2    1    2    0    0  0.00000000000E+00  0.00000000000E+00  0.64305133961E+03  0.31553298496E+04  0.30891085177E+04 0.  0.
        3    1    3    3  502    0 -0.10782489237E+04 -0.13899995273E+03 -0.79912907764E+03  0.13492772218E+04  0.10100000352E+00 0. -1.
       -3    1    3    3    0  502  0.10782489237E+04  0.13899995273E+03  0.14421804172E+04  0.18060526278E+04  0.10100000352E+00 0.  1.
</event>
<event>
 5   0  0.7071012E-06  0.3102455E+04  0.7818609E-02  0.8215065E-01
        2   -1    0    0  501    0  0.00000000000E+00  0.00000000000E+00  0.12682709090E+04  0.12682709090E+04  0.25500000920E-02 0.  1.
       -2   -1    0    0    0  501  0.00000000000E+00  0.00000000000E+00 -0.18973123039E+04  0.18973123039E+04  0.25500000920E-02 0. -1.
    10030    2    1    2    0    0  0.00000000000E+00  0.00000000000E+00 -0.62904139489E+03  0.31655832130E+04  0.31024545124E+04 0.  0.
        1    1    3    3  502    0 -0.13373226845E+04 -0.30492819342E+03 -0.10537575915E+04  0.17296873207E+04  0.50400001928E-02 0. -1.
       -1    1    3    3    0  502  0.13373226845E+04  0.30492819342E+03  0.42471619662E+03  0.14358958923E+04  0.50400001928E-02 0.  1.
</event>
<event>
 5   0  0.7079223E-06  0.3141122E+04  0.7818609E-02  0.8204542E-01
        2   -1    0    0  501    0  0.00000000000E+00  0.00000000000E+00  0.23567103561E+04  0.23567103561E+04  0.25500000920E-02 0.  1.
       -2   -1    0    0    0  501  0.00000000000E+00  0.00000000000E+00 -0.10466546642E+04  0.10466546642E+04  0.25500000920E-02 0. -1.
    10030    2    1    2    0    0  0.00000000000E+00  0.00000000000E+00  0.13100556919E+04  0.34033650203E+04  0.31411220202E+04 0.  0.
        5    1    3    3  502    0  0.37201408505E+03 -0.74195899780E+03 -0.78960707855E+03  0.11455998701E+04  0.46999998093E+01 0. -1.
       -5    1    3    3    0  502 -0.37201408505E+03  0.74195899780E+03  0.20996627704E+04  0.22577651502E+04  0.46999998093E+01 0.  1.
</event>
<event>
 5   0  0.2612331E-06  0.2537849E+04  0.7818609E-02  0.8389624E-01
        1   -1    0    0  501    0  0.00000000000E+00  0.00000000000E+00  0.18295448189E+04  0.18295448189E+04  0.50400001928E-02 0. -1.
       -1   -1    0    0    0  501  0.00000000000E+00  0.00000000000E+00 -0.88009319827E+03  0.88009319828E+03  0.50400001928E-02 0.  1.
    10030    2    1    2    0    0  0.00000000000E+00  0.00000000000E+00  0.94945162065E+03  0.27096380172E+04  0.25378494448E+04 0.  0.
        4    1    3    3  502    0 -0.34400676879E+03 -0.11133188458E+04  0.10110730740E+04  0.15427539931E+04  0.12699999809E+01 0. -1.
       -4    1    3    3    0  502  0.34400676879E+03  0.11133188458E+04 -0.61621453396E+02  0.11668840241E+04  0.12699999809E+01 0.  1.
</event>
<event>
 5   0  0.7363513E-06  0.2936285E+04  0.7818609E-02  0.8262163E-01
       -2   -1    0    0    0  501  0.00000000000E+00  0.00000000000E+00  0.22190281005E+04  0.22190281005E+04  0.25500000920E-02 0. -1.
        2   -1    0    0  501    0  0.00000000000E+00  0.00000000000E+00 -0.97134557017E+03  0.97134557017E+03  0.25500000920E-02 0.  1.
    10030    2    1    2    0    0  0.00000000000E+00  0.00000000000E+00  0.12476825303E+04  0.31903736707E+04  0.29362854871E+04 0.  0.
        4    1    3    3  502    0  0.59632023417E+03  0.33816758550E+03  0.20344478140E+04  0.21468429514E+04  0.12699999809E+01 0. -1.
       -4    1    3    3    0  502 -0.59632023417E+03 -0.33816758550E+03 -0.78676528362E+03  0.10435307192E+04  0.12699999809E+01 0.  1.
</event>
<event>
 5   0  0.7414808E-06  0.3066136E+04  0.7818609E-02  0.8225093E-01
       -2   -1    0    0    0  501  0.00000000000E+00  0.00000000000E+00  0.66463667591E+03  0.66463667592E+03  0.25500000920E-02 0.  1.
        2   -1    0    0  501    0  0.00000000000E+00  0.00000000000E+00 -0.35362142151E+04  0.35362142151E+04  0.25500000920E-02 0. -1.
    10030    2    1    2    0    0  0.00000000000E+00  0.00000000000E+00 -0.28715775392E+04  0.42008508911E+04  0.30661361100E+04 0.  0.
        2    1    3    3  502    0 -0.14682271556E+04 -0.28666090279E+03 -0.18951889967E+04  0.24144578661E+04  0.25500000920E-02 0. -1.
       -2    1    3    3    0  502  0.14682271556E+04  0.28666090279E+03 -0.97638854251E+03  0.17863930250E+04  0.25500000920E-02 0.  1.
</event>
<event>
 5   0  0.2624011E-06  0.2688461E+04  0.7818609E-02  0.8338759E-01
        1   -1    0    0  501    0  0.00000000000E+00  0.00000000000E+00  0.57197301922E+03  0.57197301925E+03  0.50400001928E-02 0. -1.
       -1   -1    0    0    0  501  0.00000000000E+00  0.00000000000E+00 -0.31591634564E+04  0.31591634564E+04  0.50400001928E-02 0.  1.
    10030    2    1    2    0    0  0.00000000000E+00  0.00000000000E+00 -0.25871904372E+04  0.37311364757E+04  0.26884614637E+04 0.  0.
        1    1    3    3  502    0  0.87843354321E+03  0.91577730100E+03 -0.67813735658E+03  0.14388063905E+04  0.50400001928E-02 0. -1.
       -1    1    3    3    0  502 -0.87843354321E+03 -0.91577730100E+03 -0.19090530806E+04  0.22923300852E+04  0.50400001928E-02 0.  1.
</event>
<event>
 5   0  0.7414808E-06  0.3132973E+04  0.7818609E-02  0.8206746E-01
       -2   -1    0    0    0  501  0.00000000000E+00  0.00000000000E+00  0.12806519398E+04  0.12806519398E+04  0.25500000920E-02 0. -1.
        2   -1    0    0  501    0  0.00000000000E+00  0.00000000000E+00 -0.19161183035E+04  0.19161183035E+04  0.25500000920E-02 0.  1.
    10030    2    1    2    0    0  0.00000000000E+00  0.00000000000E+00 -0.63546636374E+03  0.31967702433E+04  0.31329734262E+04 0.  0.
        2    1    3    3  502    0 -0.11387304866E+04  0.56144459011E+03  0.61853175479E+03  0.14122707532E+04  0.25500000920E-02 0. -1.
       -2    1    3    3    0  502  0.11387304866E+04 -0.56144459011E+03 -0.12539981185E+04  0.17844994901E+04  0.25500000920E-02 0.  1.
</event>
<event>
 5   0  0.2598987E-06  0.3070531E+04  0.7818609E-02  0.8223872E-01
       -1   -1    0    0    0  501  0.00000000000E+00  0.00000000000E+00  0.13399279861E+04  0.13399279861E+04  0.50400001928E-02 0.  1.
        1   -1    0    0  501    0  0.00000000000E+00  0.00000000000E+00 -0.17590798735E+04  0.17590798735E+04  0.50400001928E-02 0. -1.
    10030    2    1    2    0    0  0.00000000000E+00  0.00000000000E+00 -0.41915188740E+03  0.30990078597E+04  0.30705311283E+04 0.  0.
        2    1    3    3  502    0 -0.11666148222E+04  0.84783023745E+02 -0.12132137852E+04  0.16852495344E+04  0.25500000920E-02 0. -1.
       -2    1    3    3    0  502  0.11666148222E+04 -0.84783023745E+02  0.79406189784E+03  0.14137583253E+04  0.25500000920E-02 0.  1.
</event>
<event>
 5   0  0.2612331E-06  0.3187473E+04  0.7818609E-02  0.8192133E-01
        1   -1    0    0  501    0  0.00000000000E+00  0.00000000000E+00  0.14365235502E+04  0.14365235502E+04  0.50400001928E-02 0. -1.
       -1   -1    0    0    0  501  0.00000000000E+00  0.00000000000E+00 -0.17681543345E+04  0.17681543345E+04  0.50400001928E-02 0.  1.
    10030    2    1    2    0    0  0.00000000000E+00  0.00000000000E+00 -0.33163078430E+03  0.32046778846E+04  0.31874725673E+04 0.  0.
        4    1    3    3  502    0 -0.63487717470E+03  0.18584938375E+03  0.12919714370E+04  0.14514822862E+04  0.12699999809E+01 0. -1.
       -4    1    3    3    0  502  0.63487717470E+03 -0.18584938375E+03 -0.16236022213E+04  0.17531955984E+04  0.12699999809E+01 0.  1.
</event>
<event>
 5   0  0.7071012E-06  0.3145716E+04  0.7818609E-02  0.8203302E-01
       -2   -1    0    0    0  501  0.00000000000E+00  0.00000000000E+00  0.16222670998E+04  0.16222670998E+04  0.25500000920E-02 0.  1.
        2   -1    0    0  501    0  0.00000000000E+00  0.00000000000E+00 -0.15249535350E+04  0.15249535351E+04  0.25500000920E-02 0. -1.
    10030    2    1    2    0    0  0.00000000000E+00  0.00000000000E+00  0.97313564775E+02  0.31472206349E+04  0.31457157842E+04 0.  0.
        1    1    3    3  502    0 -0.12296999406E+04  0.84512706522E+03 -0.44905506665E+03  0.15582208294E+04  0.50400001928E-02 0. -1.
       -1    1    3    3    0  502  0.12296999406E+04 -0.84512706522E+03  0.54636863143E+03  0.15889998055E+04  0.50400001928E-02 0.  1.
</event>
<event>
 5   0  0.7414808E-06  0.3242914E+04  0.7818609E-02  0.8177575E-01
       -2   -1    0    0    0  501  0.00000000000E+00  0.00000000000E+00  0.32237403300E+04  0.32237403300E+04  0.25500000920E-02 0.  1.
        2   -1    0    0  501    0  0.00000000000E+00  0.00000000000E+00 -0.81555037719E+03  0.81555037720E+03  0.25500000920E-02 0. -1.
    10030    2    1    2    0    0  0.00000000000E+00  0.00000000000E+00  0.24081899528E+04  0.40392907072E+04  0.32429139009E+04 0.  0.
        2    1    3    3  502    0  0.73780331800E+03  0.75952793743E+03 -0.32542086015E+03  0.11077613281E+04  0.25500000920E-02 0. -1.
       -2    1    3    3    0  502 -0.73780331800E+03 -0.75952793743E+03  0.27336108130E+04  0.29315293791E+04  0.25500000920E-02 0.  1.
</event>
<event>
 5   0  0.2624011E-06  0.3096834E+04  0.7818609E-02  0.8216607E-01
       -1   -1    0    0    0  501  0.00000000000E+00  0.00000000000E+00  0.85476353734E+03  0.85476353736E+03  0.50400001928E-02 0.  1.
        1   -1    0    0  501    0  0.00000000000E+00  0.00000000000E+00 -0.28049813122E+04  0.28049813122E+04  0.50400001928E-02 0. -1.
    10030    2    1    2    0    0  0.00000000000E+00  0.00000000000E+00 -0.19502177749E+04  0.36597448496E+04  0.30968343505E+04 0.  0.
        1    1    3    3  502    0  0.93531883388E+03 -0.10902003516E+03  0.47750141799E+03  0.10558003094E+04  0.50400001928E-02 0.  1.
       -1    1    3    3    0  502 -0.93531883388E+03  0.10902003516E+03 -0.24277191928E+04  0.26039445402E+04  0.50400001928E-02 0. -1.
</event>
<event>
 5   0  0.2598987E-06  0.3090006E+04  0.7818609E-02  0.8218486E-01
        1   -1    0    0  501    0  0.00000000000E+00  0.00000000000E+00  0.14723525815E+04  0.14723525815E+04  0.50400001928E-02 0. -1.
       -1   -1    0    0    0  501  0.00000000000E+00  0.00000000000E+00 -0.16212384805E+04  0.16212384805E+04  0.50400001928E-02 0.  1.
    10030    2    1    2    0    0  0.00000000000E+00  0.00000000000E+00 -0.14888589893E+03  0.30935910620E+04  0.30900062537E+04 0.  0.
        2    1    3    3  502    0 -0.14501060490E+04 -0.12965332625E+03  0.44328087711E+03  0.15218789290E+04  0.25500000920E-02 0. -1.
       -2    1    3    3    0  502  0.14501060490E+04  0.12965332625E+03 -0.59216677604E+03  0.15717121330E+04  0.25500000920E-02 0.  1.
</event>
<event>
 5   0  0.7071012E-06  0.3104028E+04  0.7818609E-02  0.8214633E-01
       -2   -1    0    0    0  501  0.00000000000E+00  0.00000000000E+00  0.15657411308E+04  0.15657411308E+04  0.25500000920E-02 0. -1.
        2   -1    0    0  501    0  0.00000000000E+00  0.00000000000E+00 -0.15384073382E+04  0.15384073382E+04  0.25500000920E-02 0.  1.
    10030    2    1    2    0    0  0.00000000000E+00  0.00000000000E+00  0.27333792589E+02  0.31041484691E+04  0.31040281219E+04 0.  0.
        1    1    3    3  502    0 -0.68156044759E+03  0.11149365022E+03 -0.13762762560E+04  0.15398349946E+04  0.50400001928E-02 0.  1.
       -1    1    3    3    0  502  0.68156044759E+03 -0.11149365022E+03  0.14036100486E+04  0.15643134744E+04  0.50400001928E-02 0. -1.
</event>
<event>
 5   0  0.2598987E-06  0.2398070E+04  0.7818609E-02  0.8440226E-01
       -1   -1    0    0    0  501  0.00000000000E+00  0.00000000000E+00  0.12043461918E+04  0.12043461918E+04  0.50400001928E-02 0.  1.
        1   -1    0    0  501    0  0.00000000000E+00  0.00000000000E+00 -0.11937474913E+04  0.11937474913E+04  0.50400001928E-02 0. -1.
    10030    2    1    2    0    0  0.00000000000E+00  0.00000000000E+00  0.10598700485E+02  0.23980936831E+04  0.23980702618E+04 0.  0.
        2    1    3    3  502    0  0.40661375932E+02  0.83896856742E+03  0.86097331987E+03  0.12028286088E+04  0.25500000920E-02 0.  1.
       -2    1    3    3    0  502 -0.40661375932E+02 -0.83896856742E+03 -0.85037461939E+03  0.11952650743E+04  0.25500000920E-02 0. -1.
</event>
<event>
 5   0  0.2517725E-06  0.3017751E+04  0.7818609E-02  0.8238680E-01
       -1   -1    0    0    0  501  0.00000000000E+00  0.00000000000E+00  0.14260887576E+04  0.14260887576E+04  0.50400001928E-02 0. -1.
        1   -1    0    0  501    0  0.00000000000E+00  0.00000000000E+00 -0.15964677769E+04  0.15964677769E+04  0.50400001928E-02 0.  1.
    10030    2    1    2    0    0  0.00000000000E+00  0.00000000000E+00 -0.17037901929E+03  0.30225565345E+04  0.30177506514E+04 0.  0.
        3    1    3    3  502    0  0.12501538723E+04 -0.32459238251E+03  0.69609107582E+03  0.14672381249E+04  0.10100000352E+00 0. -1.
       -3    1    3    3    0  502 -0.12501538723E+04  0.32459238251E+03 -0.86647009511E+03  0.15553184096E+04  0.10100000352E+00 0.  1.
</event>
<event>
 5   0  0.7363513E-06  0.3017512E+04  0.7818609E-02  0.8238748E-01
       -2   -1    0    0    0  501  0.00000000000E+00  0.00000000000E+00  0.11244597484E+04  0.11244597484E+04  0.25500000920E-02 0. -1.
        2   -1    0    0  501    0  0.00000000000E+00  0.00000000000E+00 -0.20243903009E+04  0.20243903009E+04  0.25500000920E-02 0.  1.
    10030    2    1    2    0    0  0.00000000000E+00  0.00000000000E+00 -0.89993055250E+03  0.31488500493E+04  0.30175124911E+04 0.  0.
        4    1    3    3  502    0 -0.21169455804E+03  0.11857948582E+04  0.49810457213E+03  0.13034699112E+04  0.12699999809E+01 0. -1.
       -4    1    3    3    0  502  0.21169455804E+03 -0.11857948582E+04 -0.13980351246E+04  0.18453801381E+04  0.12699999809E+01 0.  1.
</event>
<event>
 5   0  0.7363513E-06  0.3120071E+04  0.7818609E-02  0.8210251E-01
       -2   -1    0    0    0  501  0.00000000000E+00  0.00000000000E+00  0.12396630891E+04  0.12396630891E+04  0.25500000920E-02 0.  1.
        2   -1    0    0  501    0  0.00000000000E+00  0.00000000000E+00 -0.19632028538E+04  0.19632028538E+04  0.25500000920E-02 0. -1.
    10030    2    1    2    0    0  0.00000000000E+00  0.00000000000E+00 -0.72353976468E+03  0.32028659429E+04  0.31200705853E+04 0.  0.
        4    1    3    3  502    0  0.29173653661E+03  0.11645773770E+04 -0.13843762488E+04  0.18324436921E+04  0.12699999809E+01 0. -1.
       -4    1    3    3    0  502 -0.29173653661E+03 -0.11645773770E+04  0.66083648410E+03  0.13704222507E+04  0.12699999809E+01 0.  1.
</event>
<event>
 5   0  0.7363513E-06  0.3038263E+04  0.7818609E-02  0.8232888E-01
        2   -1    0    0  501    0  0.00000000000E+00  0.00000000000E+00  0.16359201222E+04  0.16359201222E+04  0.25500000920E-02 0. -1.
       -2   -1    0    0    0  501  0.00000000000E+00  0.00000000000E+00 -0.14106803291E+04  0.14106803291E+04  0.25500000920E-02 0.  1.
    10030    2    1    2    0    0  0.00000000000E+00  0.00000000000E+00  0.22523979315E+03  0.30466004513E+04  0.30382628829E+04 0.  0.
        4    1    3    3  502    0 -0.86882837481E+03  0.15235267485E+03  0.13528181262E+04  0.16149899622E+04  0.12699999809E+01 0. -1.
       -4    1    3    3    0  502  0.86882837481E+03 -0.15235267485E+03 -0.11275783331E+04  0.14316104891E+04  0.12699999809E+01 0.  1.
</event>
<event>
 5   0  0.7094341E-06  0.2141852E+04  0.7818609E-02  0.8543028E-01
        2   -1    0    0  501    0  0.00000000000E+00  0.00000000000E+00  0.77186272319E+03  0.77186272320E+03  0.25500000920E-02 0. -1.
       -2   -1    0    0    0  501  0.00000000000E+00  0.00000000000E+00 -0.14858626687E+04  0.14858626687E+04  0.25500000920E-02 0.  1.
    10030    2    1    2    0    0  0.00000000000E+00  0.00000000000E+00 -0.71399994548E+03  0.22577253919E+04  0.21418515408E+04 0.  0.
        3    1    3    3  502    0  0.10135609754E+04  0.11190628827E+03 -0.12109313936E+02  0.10197918973E+04  0.10100000352E+00 0. -1.
       -3    1    3    3    0  502 -0.10135609754E+04 -0.11190628827E+03 -0.70189063155E+03  0.12379334946E+04  0.10100000352E+00 0.  1.
</event>
<event>
 5   0  0.2624011E-06  0.3092879E+04  0.7818609E-02  0.8217695E-01
        1   -1    0    0  501    0  0.00000000000E+00  0.00000000000E+00  0.21332661101E+04  0.21332661101E+04  0.50400001928E-02 0.  1.
       -1   -1    0    0    0  501  0.00000000000E+00  0.00000000000E+00 -0.11210396181E+04  0.11210396181E+04  0.50400001928E-02 0. -1.
    10030    2    1    2    0    0  0.00000000000E+00  0.00000000000E+00  0.10122264920E+04  0.32543057281E+04  0.30928794514E+04 0.  0.
        1    1    3    3  502    0 -0.13796497627E+04  0.51150197004E+03  0.10067714418E+04  0.17828787029E+04  0.50400001928E-02 0. -1.
       -1    1    3    3    0  502  0.13796497627E+04 -0.51150197004E+03  0.54550502282E+01  0.14714270253E+04  0.50400001928E-02 0.  1.
</event>
<event>
 5   0  0.7414808E-06  0.3103407E+04  0.7818609E-02  0.8214804E-01
       -2   -1    0    0    0  501  0.00000000000E+00  0.00000000000E+00  0.11125752666E+04  0.11125752666E+04  0.25500000920E-02 0.  1.
        2   -1    0    0  501    0  0.00000000000E+00  0.00000000000E+00 -0.21641530046E+04  0.21641530046E+04  0.25500000920E-02 0. -1.
    10030    2    1    2    0    0  0.00000000000E+00  0.00000000000E+00 -0.10515777380E+04  0.32767282712E+04  0.31034065838E+04 0.  0.
        2    1    3    3  502    0 -0.13806606130E+04 -0.70289368540E+03 -0.43435062197E+03  0.16090194915E+04  0.25500000920E-02 0.  1.
       -2    1    3    3    0  502  0.13806606130E+04  0.70289368540E+03 -0.61722711602E+03  0.16677087797E+04  0.25500000920E-02 0. -1.
</event>
<event>
 5   0  0.7071012E-06  0.3094891E+04  0.7818609E-02  0.8217141E-01
        2   -1    0    0  501    0  0.00000000000E+00  0.00000000000E+00  0.13621065031E+04  0.13621065031E+04  0.25500000920E-02 0.  1.
       -2   -1    0    0    0  501  0.00000000000E+00  0.00000000000E+00 -0.17580036440E+04  0.17580036440E+04  0.25500000920E-02 0. -1.
    10030    2    1    2    0    0  0.00000000000E+00  0.00000000000E+00 -0.39589714082E+03  0.31201101471E+04  0.30948914010E+04 0.  0.
        1    1    3    3  502    0 -0.33106074462E+02 -0.14422110144E+04 -0.76243933560E+03  0.16316808398E+04  0.50400001928E-02 0. -1.
       -1    1    3    3    0  502  0.33106074462E+02  0.14422110144E+04  0.36654219478E+03  0.14884293073E+04  0.50400001928E-02 0.  1.
</event>
<event>
 5   0  0.2598987E-06  0.3052367E+04  0.7818609E-02  0.8228933E-01
       -1   -1    0    0    0  501  0.00000000000E+00  0.00000000000E+00  0.12363210858E+04  0.12363210859E+04  0.50400001928E-02 0.  1.
        1   -1    0    0  501    0  0.00000000000E+00  0.00000000000E+00 -0.18840057596E+04  0.18840057596E+04  0.50400001928E-02 0. -1.
    10030    2    1    2    0    0  0.00000000000E+00  0.00000000000E+00 -0.64768467375E+03  0.31203268455E+04  0.30523669809E+04 0.  0.
        2    1    3    3  502    0  0.97687649013E+03  0.11198952714E+04  0.31433898327E+02  0.14864189133E+04  0.25500000920E-02 0.  1.
       -2    1    3    3    0  502 -0.97687649013E+03 -0.11198952714E+04 -0.67911857208E+03  0.16339079322E+04  0.25500000920E-02 0. -1.
</event>
<event>
 5   0  0.2598987E-06  0.3074591E+04  0.7818609E-02  0.8222746E-01
       -1   -1    0    0    0  501  0.00000000000E+00  0.00000000000E+00  0.19277730513E+04  0.19277730513E+04  0.50400001928E-02 0.  1.
        1   -1    0    0  501    0  0.00000000000E+00  0.00000000000E+00 -0.12259108070E+04  0.12259108070E+04  0.50400001928E-02 0. -1.
    10030    2    1    2    0    0  0.00000000000E+00  0.00000000000E+00  0.70186224429E+03  0.31536838583E+04  0.30745912360E+04 0.  0.
        2    1    3    3  502    0  0.41118647329E+03  0.87682990444E+03  0.15755332420E+04  0.18493809758E+04  0.25500000920E-02 0.  1.
       -2    1    3    3    0  502 -0.41118647329E+03 -0.87682990444E+03 -0.87367099769E+03  0.13043028825E+04  0.25500000920E-02 0. -1.
</event>
<event>
 5   0  0.7071012E-06  0.3087339E+04  0.7818609E-02  0.8219221E-01
       -2   -1    0    0    0  501  0.00000000000E+00  0.00000000000E+00  0.14582081807E+04  0.14582081807E+04  0.25500000920E-02 0.  1.
        2   -1    0    0  501    0  0.00000000000E+00  0.00000000000E+00 -0.16341399318E+04  0.16341399318E+04  0.25500000920E-02 0. -1.
    10030    2    1    2    0    0  0.00000000000E+00  0.00000000000E+00 -0.17593175108E+03  0.30923481125E+04  0.30873394482E+04 0.  0.
        1    1    3    3  502    0 -0.35465541550E+02 -0.58178467832E+03 -0.15196850496E+04  0.16276282950E+04  0.50400001928E-02 0. -1.
       -1    1    3    3    0  502  0.35465541550E+02  0.58178467832E+03  0.13437532985E+04  0.14647198176E+04  0.50400001928E-02 0.  1.
</event>
<event>
 5   0  0.7363513E-06  0.2367785E+04  0.7818609E-02  0.8451664E-01
        2   -1    0    0  501    0  0.00000000000E+00  0.00000000000E+00  0.27284216439E+04  0.27284216439E+04  0.25500000920E-02 0. -1.
       -2   -1    0    0    0  501  0.00000000000E+00  0.00000000000E+00 -0.51370412046E+03  0.51370412047E+03  0.25500000920E-02 0.  1.
    10030    2    1    2    0    0  0.00000000000E+00  0.00000000000E+00  0.22147175234E+04  0.32421257644E+04  0.23677849909E+04 0.  0.
        4    1    3    3  502    0 -0.84780400038E+03  0.33178249623E+02  0.22379170849E+04  0.23933547400E+04  0.12699999809E+01 0. -1.
       -4    1    3    3    0  502  0.84780400038E+03 -0.33178249623E+02 -0.23199561520E+02  0.84877102440E+03  0.12699999809E+01 0.  1.
</event>
<event>
 5   0  0.7363513E-06  0.3044461E+04  0.7818609E-02  0.8231148E-01
        2   -1    0    0  501    0  0.00000000000E+00  0.00000000000E+00  0.13238521563E+04  0.13238521563E+04  0.25500000920E-02 0. -1.
       -2   -1    0    0    0  501  0.00000000000E+00  0.00000000000E+00 -0.17503351723E+04  0.17503351723E+04  0.25500000920E-02 0.  1.
    10030    2    1    2    0    0  0.00000000000E+00  0.00000000000E+00 -0.42648301602E+03  0.30741873285E+04  0.30444605381E+04 0.  0.
        4    1    3    3  502    0 -0.10373062525E+04 -0.10860562794E+04 -0.46398220174E+03  0.15718790029E+04  0.12699999809E+01 0.  1.
       -4    1    3    3    0  502  0.10373062525E+04  0.10860562794E+04  0.37499185723E+02  0.15023083256E+04  0.12699999809E+01 0. -1.
</event>
<event>
 5   0  0.2517725E-06  0.3031548E+04  0.7818609E-02  0.8234779E-01
        1   -1    0    0  501    0  0.00000000000E+00  0.00000000000E+00  0.10691914560E+04  0.10691914560E+04  0.50400001928E-02 0. -1.
       -1   -1    0    0    0  501  0.00000000000E+00  0.00000000000E+00 -0.21488856200E+04  0.21488856200E+04  0.50400001928E-02 0.  1.
    10030    2    1    2    0    0  0.00000000000E+00  0.00000000000E+00 -0.10796941640E+04  0.32180770760E+04  0.30315475552E+04 0.  0.
        3    1    3    3  502    0 -0.80819657951E+03  0.65307058618E+02  0.81962508428E+03  0.11529232464E+04  0.10100000352E+00 0. -1.
       -3    1    3    3    0  502  0.80819657951E+03 -0.65307058618E+02 -0.18993192483E+04  0.20651538297E+04  0.10100000352E+00 0.  1.
</event>
<event>
 5   0  0.2517725E-06  0.3107577E+04  0.7818609E-02  0.8213662E-01
        1   -1    0    0  501    0  0.00000000000E+00  0.00000000000E+00  0.20982978003E+04  0.20982978003E+04  0.50400001928E-02 0.  1.
       -1   -1    0    0    0  501  0.00000000000E+00  0.00000000000E+00 -0.11505794859E+04  0.11505794859E+04  0.50400001928E-02 0. -1.
    10030    2    1    2    0    0  0.00000000000E+00  0.00000000000E+00  0.94771831440E+03  0.32488772862E+04  0.31075768079E+04 0.  0.
        3    1    3    3  502    0 -0.24208113963E+03 -0.80524001836E+03 -0.89216753817E+03  0.12259599062E+04  0.10100000352E+00 0. -1.
       -3    1    3    3    0  502  0.24208113963E+03  0.80524001836E+03  0.18398858526E+04  0.20229173799E+04  0.10100000352E+00 0.  1.
</event>
<event>
 5   0  0.7414808E-06  0.3171171E+04  0.7818609E-02  0.8196472E-01
       -2   -1    0    0    0  501  0.00000000000E+00  0.00000000000E+00  0.17651348395E+04  0.17651348395E+04  0.25500000920E-02 0. -1.
        2   -1    0    0  501    0  0.00000000000E+00  0.00000000000E+00 -0.14243003467E+04  0.14243003467E+04  0.25500000920E-02 0.  1.
    10030    2    1    2    0    0  0.00000000000E+00  0.00000000000E+00  0.34083449280E+03  0.31894351861E+04  0.31711714957E+04 0.  0.
        2    1    3    3  502    0  0.30977136851E+03 -0.11996569125E+04  0.11655331712E+04  0.17010592529E+04  0.25500000920E-02 0. -1.
       -2    1    3    3    0  502 -0.30977136851E+03  0.11996569125E+04 -0.82469867842E+03  0.14883759333E+04  0.25500000920E-02 0.  1.
</event>
<event>
 5   0  0.2598987E-06  0.3094591E+04  0.7818609E-02  0.8217224E-01
       -1   -1    0    0    0  501  0.00000000000E+00  0.00000000000E+00  0.13514386653E+04  0.13514386653E+04  0.50400001928E-02 0. -1.
        1   -1    0    0  501    0  0.00000000000E+00  0.00000000000E+00 -0.17715363007E+04  0.17715363007E+04  0.50400001928E-02 0.  1.
    10030    2    1    2    0    0  0.00000000000E+00  0.00000000000E+00 -0.42009763547E+03  0.31229749660E+04  0.30945905408E+04 0.  0.
        2    1    3    3  502    0  0.10839094909E+04 -0.10962529621E+04 -0.34352043478E+03  0.15794418731E+04  0.25500000920E-02 0. -1.
       -2    1    3    3    0  502 -0.10839094909E+04  0.10962529621E+04 -0.76577200690E+02  0.15435330929E+04  0.25500000920E-02 0.  1.
</event>
<event>
 5   0  0.2598987E-06  0.2986716E+04  0.7818609E-02  0.8247534E-01
        1   -1    0    0  501    0  0.00000000000E+00  0.00000000000E+00  0.15606579365E+04  0.15606579365E+04  0.50400001928E-02 0. -1.
       -1   -1    0    0    0  501  0.00000000000E+00  0.00000000000E+00 -0.14289601984E+04  0.14289601984E+04  0.50400001928E-02 0.  1.
    10030    2    1    2    0    0  0.00000000000E+00  0.00000000000E+00  0.13169773813E+03  0.29896181349E+04  0.29867159721E+04 0.  0.
        2    1    3    3  502    0 -0.95586521950E+03 -0.34131144040E+03  0.11623338632E+04  0.15431110870E+04  0.25500000920E-02 0. -1.
       -2    1    3    3    0  502  0.95586521950E+03  0.34131144040E+03 -0.10306361251E+04  0.14465070479E+04  0.25500000920E-02 0.  1.
</event>
<event>
 5   0  0.2624011E-06  0.3070715E+04  0.7818609E-02  0.8223821E-01
       -1   -1    0    0    0  501  0.00000000000E+00  0.00000000000E+00  0.12718729264E+04  0.12718729264E+04  0.50400001928E-02 0. -1.
        1   -1    0    0  501    0  0.00000000000E+00  0.00000000000E+00 -0.18534265857E+04  0.18534265858E+04  0.50400001928E-02 0.  1.
    10030    2    1    2    0    0  0.00000000000E+00  0.00000000000E+00 -0.58155365935E+03  0.31252995122E+04  0.30707152883E+04 0.  0.
        1    1    3    3  502    0  0.91166180638E+03 -0.84545233465E+03 -0.12075697540E+04  0.17332459751E+04  0.50400001928E-02 0.  1.
       -1    1    3    3    0  502 -0.91166180638E+03  0.84545233465E+03  0.62601609462E+03  0.13920535371E+04  0.50400001928E-02 0. -1.
</event>
<event>
 5   0  0.7414808E-06  0.3143316E+04  0.7818609E-02  0.8203950E-01
        2   -1    0    0  501    0  0.00000000000E+00  0.00000000000E+00  0.95442071290E+03  0.95442071290E+03  0.25500000920E-02 0. -1.
       -2   -1    0    0    0  501  0.00000000000E+00  0.00000000000E+00 -0.25880706937E+04  0.25880706937E+04  0.25500000920E-02 0.  1.
    10030    2    1    2    0    0  0.00000000000E+00  0.00000000000E+00 -0.16336499808E+04  0.35424914066E+04  0.31433156231E+04 0.  0.
        2    1    3    3  502    0  0.12415869403E+04 -0.44034370975E+03  0.14915081104E+03  0.13257777633E+04  0.25500000920E-02 0. -1.
       -2    1    3    3    0  502 -0.12415869403E+04  0.44034370975E+03 -0.17828007919E+04  0.22167136433E+04  0.25500000920E-02 0.  1.
</event>
<event>
 5   0  0.7363513E-06  0.2859612E+04  0.7818609E-02  0.8284997E-01
       -2   -1    0    0    0  501  0.00000000000E+00  0.00000000000E+00  0.15571006348E+04  0.15571006348E+04  0.25500000920E-02 0.  1.
        2   -1    0    0  501    0  0.00000000000E+00  0.00000000000E+00 -0.13129178200E+04  0.13129178200E+04  0.25500000920E-02 0. -1.
    10030    2    1    2    0    0  0.00000000000E+00  0.00000000000E+00  0.24418281480E+03  0.28700184548E+04  0.28596119814E+04 0.  0.
        4    1    3    3  502    0  0.10904270731E+04 -0.73737288930E+03  0.68232846283E+03  0.14826745171E+04  0.12699999809E+01 0.  1.
       -4    1    3    3    0  502 -0.10904270731E+04  0.73737288930E+03 -0.43814564803E+03  0.13873439377E+04  0.12699999809E+01 0. -1.
</event>
<event>
 5   0  0.2624011E-06  0.3165399E+04  0.7818609E-02  0.8198015E-01
        1   -1    0    0  501    0  0.00000000000E+00  0.00000000000E+00  0.73181933672E+03  0.73181933673E+03  0.50400001928E-02 0.  1.
       -1   -1    0    0    0  501  0.00000000000E+00  0.00000000000E+00 -0.34228913315E+04  0.34228913315E+04  0.50400001928E-02 0. -1.
    10030    2    1    2    0    0  0.00000000000E+00  0.00000000000E+00 -0.26910719948E+04  0.41547106682E+04  0.31653992253E+04 0.  0.
        1    1    3    3  502    0  0.18556455859E+03 -0.45584522588E+03  0.62882536959E+03  0.79853016275E+03  0.50400001928E-02 0.  1.
       -1    1    3    3    0  502 -0.18556455859E+03  0.45584522588E+03 -0.33198973644E+04  0.33561805055E+04  0.50400001928E-02 0. -1.
</event>
<event>
 5   0  0.7071012E-06  0.3091324E+04  0.7818609E-02  0.8218123E-01
       -2   -1    0    0    0  501  0.00000000000E+00  0.00000000000E+00  0.17253954896E+04  0.17253954896E+04  0.25500000920E-02 0. -1.
        2   -1    0    0  501    0  0.00000000000E+00  0.00000000000E+00 -0.13846509273E+04  0.13846509273E+04  0.25500000920E-02 0.  1.
    10030    2    1    2    0    0  0.00000000000E+00  0.00000000000E+00  0.34074456221E+03  0.31100464169E+04  0.30913236418E+04 0.  0.
        1    1    3    3  502    0  0.31092008679E+03 -0.10471494370E+04 -0.92981265008E+03  0.14344841610E+04  0.50400001928E-02 0.  1.
       -1    1    3    3    0  502 -0.31092008679E+03  0.10471494370E+04  0.12705572123E+04  0.16755622559E+04  0.50400001928E-02 0. -1.
</event>
<event>
 5   0  0.2598987E-06  0.3095114E+04  0.7818609E-02  0.8217080E-01
       -1   -1    0    0    0  501  0.00000000000E+00  0.00000000000E+00  0.17313697874E+04  0.17313697874E+04  0.50400001928E-02 0.  1.
        1   -1    0    0  501    0  0.00000000000E+00  0.00000000000E+00 -0.13832587040E+04  0.13832587040E+04  0.50400001928E-02 0. -1.
    10030    2    1    2    0    0  0.00000000000E+00  0.00000000000E+00  0.34811108341E+03  0.31146284914E+04  0.30951137803E+04 0.  0.
        2    1    3    3  502    0  0.88696987980E+03 -0.11541434282E+04  0.70288745232E+03  0.16164199303E+04  0.25500000920E-02 0.  1.
       -2    1    3    3    0  502 -0.88696987980E+03  0.11541434282E+04 -0.35477636891E+03  0.14982085611E+04  0.25500000920E-02 0. -1.
</event>
<event>
 5   0  0.2624011E-06  0.3098086E+04  0.7818609E-02  0.8216264E-01
       -1   -1    0    0    0  501  0.00000000000E+00  0.00000000000E+00  0.14860920760E+04  0.14860920760E+04  0.50400001928E-02 0.  1.
        1   -1    0    0  501    0  0.00000000000E+00  0.00000000000E+00 -0.16146600265E+04  0.16146600265E+04  0.50400001928E-02 0. -1.
    10030    2    1    2    0    0  0.00000000000E+00  0.00000000000E+00 -0.12856795042E+03  0.31007521025E+04  0.30980855190E+04 0.  0.
        1    1    3    3  502    0  0.10722221105E+03 -0.43141211370E+03  0.14208801775E+04  0.14887959878E+04  0.50400001928E-02 0.  1.
       -1    1    3    3    0  502 -0.10722221105E+03  0.43141211370E+03 -0.15494481280E+04  0.16119561147E+04  0.50400001928E-02 0. -1.
</event>
<event>
 5   0  0.2624011E-06  0.3132291E+04  0.7818609E-02  0.8206932E-01
        1   -1    0    0  501    0  0.00000000000E+00  0.00000000000E+00  0.20414588198E+04  0.20414588198E+04  0.50400001928E-02 0.  1.
       -1   -1    0    0    0  501  0.00000000000E+00  0.00000000000E+00 -0.12014992084E+04  0.12014992084E+04  0.50400001928E-02 0. -1.
    10030    2    1    2    0    0  0.00000000000E+00  0.00000000000E+00  0.83995961138E+03  0.32429580282E+04  0.31322906353E+04 0.  0.
        1    1    3    3  502    0 -0.89870521940E+03  0.66869848839E+02  0.17461207891E+04  0.19649632206E+04  0.50400001928E-02 0.  1.
       -1    1    3    3    0  502  0.89870521940E+03 -0.66869848839E+02 -0.90616117777E+03  0.12779948076E+04  0.50400001928E-02 0. -1.
</event>
<event>
 5   0  0.2624011E-06  0.3193855E+04  0.7818609E-02  0.8190442E-01
       -1   -1    0    0    0  501  0.00000000000E+00  0.00000000000E+00  0.91603857508E+03  0.91603857509E+03  0.50400001928E-02 0.  1.
        1   -1    0    0  501    0  0.00000000000E+00  0.00000000000E+00 -0.27839198890E+04  0.27839198890E+04  0.50400001928E-02 0. -1.
    10030    2    1    2    0    0  0.00000000000E+00  0.00000000000E+00 -0.18678813139E+04  0.36999584641E+04  0.31938553557E+04 0.  0.
        1    1    3    3  502    0 -0.57176164433E+03 -0.30142145038E+03  0.75773514565E+03  0.99595623380E+03  0.50400001928E-02 0.  1.
       -1    1    3    3    0  502  0.57176164433E+03  0.30142145038E+03 -0.26256164596E+04  0.27040022303E+04  0.50400001928E-02 0. -1.
</event>
<event>
 5   0  0.2624011E-06  0.3099230E+04  0.7818609E-02  0.8215949E-01
        1   -1    0    0  501    0  0.00000000000E+00  0.00000000000E+00  0.15960445585E+04  0.15960445585E+04  0.50400001928E-02 0.  1.
       -1   -1    0    0    0  501  0.00000000000E+00  0.00000000000E+00 -0.15045362037E+04  0.15045362037E+04  0.50400001928E-02 0. -1.
    10030    2    1    2    0    0  0.00000000000E+00  0.00000000000E+00  0.91508354737E+02  0.31005807622E+04  0.30992301115E+04 0.  0.
        1    1    3    3  502    0 -0.96438933973E+03 -0.21228476526E+03 -0.11490004205E+04  0.15150292362E+04  0.50400001928E-02 0. -1.
       -1    1    3    3    0  502  0.96438933973E+03  0.21228476526E+03  0.12405087753E+04  0.15855515260E+04  0.50400001928E-02 0.  1.
</event>
<event>
 5   0  0.2598987E-06  0.3020155E+04  0.7818609E-02  0.8237999E-01
        1   -1    0    0  501    0  0.00000000000E+00  0.00000000000E+00  0.27259050464E+04  0.27259050464E+04  0.50400001928E-02 0. -1.
       -1   -1    0    0    0  501  0.00000000000E+00  0.00000000000E+00 -0.83654196388E+03  0.83654196389E+03  0.50400001928E-02 0.  1.
    10030    2    1    2    0    0  0.00000000000E+00  0.00000000000E+00  0.18893630825E+04  0.35624470103E+04  0.30201549370E+04 0.  0.
        2    1    3    3  502    0 -0.83830165051E+03  0.10992584825E+04  0.16614170360E+04  0.21613480599E+04  0.25500000920E-02 0. -1.
       -2    1    3    3    0  502  0.83830165051E+03 -0.10992584825E+04  0.22794604653E+03  0.14010989504E+04  0.25500000920E-02 0.  1.
</event>
<event>
 5   0  0.2612331E-06  0.2147934E+04  0.7818609E-02  0.8540417E-01
        1   -1    0    0  501    0  0.00000000000E+00  0.00000000000E+00  0.13065712669E+04  0.13065712669E+04  0.50400001928E-02 0.  1.
       -1   -1    0    0    0  501  0.00000000000E+00  0.00000000000E+00 -0.88277250648E+03  0.88277250649E+03  0.50400001928E-02 0. -1.
    10030    2    1    2    0    0  0.00000000000E+00  0.00000000000E+00  0.42379876042E+03  0.21893437734E+04  0.21479340699E+04 0.  0.
        4    1    3    3  502    0 -0.76520353689E+03 -0.74763726960E+03  0.11571034481E+03  0.10760522462E+04  0.12699999809E+01 0. -1.
       -4    1    3    3    0  502  0.76520353689E+03  0.74763726960E+03  0.30808841561E+03  0.11132915272E+04  0.12699999809E+01 0.  1.
</event>
<event>
 5   0  0.7414808E-06  0.3140661E+04  0.7818609E-02  0.8204667E-01
       -2   -1    0    0    0  501  0.00000000000E+00  0.00000000000E+00  0.21660265077E+04  0.21660265077E+04  0.25500000920E-02 0.  1.
        2   -1    0    0  501    0  0.00000000000E+00  0.00000000000E+00 -0.11384612929E+04  0.11384612929E+04  0.25500000920E-02 0. -1.
    10030    2    1    2    0    0  0.00000000000E+00  0.00000000000E+00  0.10275652148E+04  0.33044878006E+04  0.31406606557E+04 0.  0.
        2    1    3    3  502    0  0.13039849809E+04 -0.13869729138E+03  0.14227466794E+04  0.19348958326E+04  0.25500000920E-02 0.  1.
       -2    1    3    3    0  502 -0.13039849809E+04  0.13869729138E+03 -0.39518146467E+03  0.13695919681E+04  0.25500000920E-02 0. -1.
</event>
<event>
 5   0  0.2598987E-06  0.3128784E+04  0.7818609E-02  0.8207883E-01
       -1   -1    0    0    0  501  0.00000000000E+00  0.00000000000E+00  0.13106867493E+04  0.13106867493E+04  0.50400001928E-02 0. -1.
        1   -1    0    0  501    0  0.00000000000E+00  0.00000000000E+00 -0.18672057955E+04  0.18672057955E+04  0.50400001928E-02 0.  1.
    10030    2    1    2    0    0  0.00000000000E+00  0.00000000000E+00 -0.55651904616E+03  0.31778925448E+04  0.31287837218E+04 0.  0.
        2    1    3    3  502    0  0.58678663192E+03  0.87088659507E+03 -0.14560112213E+04  0.17951965601E+04  0.25500000920E-02 0.  1.
       -2    1    3    3    0  502 -0.58678663192E+03 -0.87088659507E+03  0.89949217518E+03  0.13826959847E+04  0.25500000920E-02 0. -1.
</event>
<event>
 5   0  0.2674441E-06  0.3172010E+04  0.7818609E-02  0.8196249E-01
       -1   -1    0    0    0  501  0.00000000000E+00  0.00000000000E+00  0.15160093439E+04  0.15160093439E+04  0.50400001928E-02 0. -1.
        1   -1    0    0  501    0  0.00000000000E+00  0.00000000000E+00 -0.16592319029E+04  0.16592319029E+04  0.50400001928E-02 0.  1.
    10030    2    1    2    0    0  0.00000000000E+00  0.00000000000E+00 -0.14322255905E+03  0.31752412468E+04  0.31720095009E+04 0.  0.
        5    1    3    3  502    0 -0.14969636571E+03  0.37096847501E+03  0.14646713282E+04  0.15183249985E+04  0.46999998093E+01 0. -1.
       -5    1    3    3    0  502  0.14969636571E+03 -0.37096847501E+03 -0.16078938872E+04  0.16569162483E+04  0.46999998093E+01 0.  1.
</event>
<event>
 5   0  0.7071012E-06  0.3057065E+04  0.7818609E-02  0.8227621E-01
       -2   -1    0    0    0  501  0.00000000000E+00  0.00000000000E+00  0.11369806539E+04  0.11369806539E+04  0.25500000920E-02 0. -1.
        2   -1    0    0  501    0  0.00000000000E+00  0.00000000000E+00 -0.20549260965E+04  0.20549260965E+04  0.25500000920E-02 0.  1.
    10030    2    1    2    0    0  0.00000000000E+00  0.00000000000E+00 -0.91794544261E+03  0.31919067503E+04  0.30570647470E+04 0.  0.
        1    1    3    3  502    0 -0.10739105112E+04  0.90188197378E+03  0.17590724762E+03  0.14133712324E+04  0.50400001928E-02 0. -1.
       -1    1    3    3    0  502  0.10739105112E+04 -0.90188197378E+03 -0.10938526902E+04  0.17785355180E+04  0.50400001928E-02 0.  1.
</event>
<event>
 5   0  0.7071012E-06  0.3022755E+04  0.7818609E-02  0.8237263E-01
       -2   -1    0    0    0  501  0.00000000000E+00  0.00000000000E+00  0.18980480537E+04  0.18980480537E+04  0.25500000920E-02 0.  1.
        2   -1    0    0  501    0  0.00000000000E+00  0.00000000000E+00 -0.12034796596E+04  0.12034796596E+04  0.25500000920E-02 0. -1.
    10030    2    1    2    0    0  0.00000000000E+00  0.00000000000E+00  0.69456839407E+03  0.31015277133E+04  0.30227551840E+04 0.  0.
        1    1    3    3  502    0  0.59763279551E+03  0.13428927902E+04 -0.13644252542E+02  0.14699361108E+04  0.50400001928E-02 0. -1.
       -1    1    3    3    0  502 -0.59763279551E+03 -0.13428927902E+04  0.70821264661E+03  0.16315916024E+04  0.50400001928E-02 0.  1.
</event>
<event>
 5   0  0.7414808E-06  0.3105176E+04  0.7818609E-02  0.8214319E-01
       -2   -1    0    0    0  501  0.00000000000E+00  0.00000000000E+00  0.91510236620E+03  0.91510236621E+03  0.25500000920E-02 0.  1.
        2   -1    0    0  501    0  0.00000000000E+00  0.00000000000E+00 -0.26341632917E+04  0.26341632917E+04  0.25500000920E-02 0. -1.
    10030    2    1    2    0    0  0.00000000000E+00  0.00000000000E+00 -0.17190609255E+04  0.35492656579E+04  0.31051757188E+04 0.  0.
        2    1    3    3  502    0 -0.48643121971E+03  0.68364500215E+02  0.82394243843E+03  0.95925501211E+03  0.25500000920E-02 0.  1.
       -2    1    3    3    0  502  0.48643121971E+03 -0.68364500215E+02 -0.25430033639E+04  0.25900106458E+04  0.25500000920E-02 0. -1.
</event>
<event>
 5   0  0.7079223E-06  0.3088273E+04  0.7818609E-02  0.8218964E-01
        2   -1    0    0  501    0  0.00000000000E+00  0.00000000000E+00  0.19827652758E+04  0.19827652758E+04  0.25500000920E-02 0. -1.
       -2   -1    0    0    0  501  0.00000000000E+00  0.00000000000E+00 -0.12025412656E+04  0.12025412656E+04  0.25500000920E-02 0.  1.
    10030    2    1    2    0    0  0.00000000000E+00  0.00000000000E+00  0.78022401028E+03  0.31853065414E+04  0.30882726979E+04 0.  0.
        5    1    3    3  502    0 -0.47608877814E+03  0.12975889561E+04  0.11001736589E+04  0.17665791217E+04  0.46999998093E+01 0. -1.
       -5    1    3    3    0  502  0.47608877814E+03 -0.12975889561E+04 -0.31994964867E+03  0.14187274196E+04  0.46999998093E+01 0.  1.
</event>
<event>
 5   0  0.2612331E-06  0.1938164E+04  0.7818609E-02  0.8636090E-01
       -1   -1    0    0    0  501  0.00000000000E+00  0.00000000000E+00  0.10483307365E+04  0.10483307365E+04  0.50400001928E-02 0. -1.
        1   -1    0    0  501    0  0.00000000000E+00  0.00000000000E+00 -0.89582368635E+03  0.89582368636E+03  0.50400001928E-02 0.  1.
    10030    2    1    2    0    0  0.00000000000E+00  0.00000000000E+00  0.15250705018E+03  0.19441544229E+04  0.19381635689E+04 0.  0.
        4    1    3    3  502    0 -0.60527434505E+03 -0.40963802543E+03 -0.56207621729E+03  0.92200413860E+03  0.12699999809E+01 0.  1.
       -4    1    3    3    0  502  0.60527434505E+03  0.40963802543E+03  0.71458326747E+03  0.10221502843E+04  0.12699999809E+01 0. -1.
</event>
<event>
 5   0  0.7071012E-06  0.3067972E+04  0.7818609E-02  0.8224583E-01
       -2   -1    0    0    0  501  0.00000000000E+00  0.00000000000E+00  0.13896527813E+04  0.13896527813E+04  0.25500000920E-02 0. -1.
        2   -1    0    0  501    0  0.00000000000E+00  0.00000000000E+00 -0.16933096239E+04  0.16933096239E+04  0.25500000920E-02 0.  1.
    10030    2    1    2    0    0  0.00000000000E+00  0.00000000000E+00 -0.30365684265E+03  0.30829624052E+04  0.30679715960E+04 0.  0.
        1    1    3    3  502    0 -0.94246295979E+03 -0.66329121400E+02 -0.13662351724E+04  0.16610943769E+04  0.50400001928E-02 0.  1.
       -1    1    3    3    0  502  0.94246295979E+03  0.66329121400E+02  0.10625783297E+04  0.14218680282E+04  0.50400001928E-02 0. -1.
</event>
<event>
 5   0  0.2624011E-06  0.3010249E+04  0.7818609E-02  0.8240810E-01
       -1   -1    0    0    0  501  0.00000000000E+00  0.00000000000E+00  0.13128172676E+04  0.13128172676E+04  0.50400001928E-02 0. -1.
        1   -1    0    0  501    0  0.00000000000E+00  0.00000000000E+00 -0.17256020859E+04  0.17256020859E+04  0.50400001928E-02 0.  1.
    10030    2    1    2    0    0  0.00000000000E+00  0.00000000000E+00 -0.41278481829E+03  0.30384193535E+04  0.30102493023E+04 0.  0.
        1    1    3    3  502    0  0.95868458531E+03 -0.20555244330E+02  0.96459411735E+03  0.13601251646E+04  0.50400001928E-02 0. -1.
       -1    1    3    3    0  502 -0.95868458531E+03  0.20555244330E+02 -0.13773789356E+04  0.16782941889E+04  0.50400001928E-02 0.  1.
</event>
<event>
 5   0  0.2598987E-06  0.3052419E+04  0.7818609E-02  0.8228919E-01
        1   -1    0    0  501    0  0.00000000000E+00  0.00000000000E+00  0.20873455919E+04  0.20873455919E+04  0.50400001928E-02 0. -1.
       -1   -1    0    0    0  501  0.00000000000E+00  0.00000000000E+00 -0.11159223139E+04  0.11159223139E+04  0.50400001928E-02 0.  1.
    10030    2    1    2    0    0  0.00000000000E+00  0.00000000000E+00  0.97142327795E+03  0.32032679058E+04  0.30524190557E+04 0.  0.
        2    1    3    3  502    0 -0.27486259127E+03 -0.14937609908E+04  0.32849410176E+03  0.15539561502E+04  0.25500000920E-02 0.  1.
       -2    1    3    3    0  502  0.27486259127E+03  0.14937609908E+04  0.64292917619E+03  0.16493117557E+04  0.25500000920E-02 0. -1.
</event>
<event>
 5   0  0.2624011E-06  0.3087352E+04  0.7818609E-02  0.8219218E-01
        1   -1    0    0  501    0  0.00000000000E+00  0.00000000000E+00  0.87408364464E+03  0.87408364466E+03  0.50400001928E-02 0.  1.
       -1   -1    0    0    0  501  0.00000000000E+00  0.00000000000E+00 -0.27262105821E+04  0.27262105821E+04  0.50400001928E-02 0. -1.
    10030    2    1    2    0    0  0.00000000000E+00  0.00000000000E+00 -0.18521269374E+04  0.36002942267E+04  0.30873523166E+04 0.  0.
        1    1    3    3  502    0 -0.91204745255E+02 -0.13256709329E+04 -0.99066665947E+01  0.13288415519E+04  0.50400001928E-02 0.  1.
       -1    1    3    3    0  502  0.91204745255E+02  0.13256709329E+04 -0.18422202708E+04  0.22714526749E+04  0.50400001928E-02 0. -1.
</event>
<event>
 5   0  0.2674441E-06  0.3165760E+04  0.7818609E-02  0.8197919E-01
       -1   -1    0    0    0  501  0.00000000000E+00  0.00000000000E+00  0.20991283277E+04  0.20991283277E+04  0.50400001928E-02 0.  1.
        1   -1    0    0  501    0  0.00000000000E+00  0.00000000000E+00 -0.11935951906E+04  0.11935951906E+04  0.50400001928E-02 0. -1.
    10030    2    1    2    0    0  0.00000000000E+00  0.00000000000E+00  0.90553313713E+03  0.32927235183E+04  0.31657602413E+04 0.  0.
        5    1    3    3  502    0 -0.11297727187E+04  0.10326001882E+04  0.33051159142E+02  0.15309356660E+04  0.46999998093E+01 0.  1.
       -5    1    3    3    0  502  0.11297727187E+04 -0.10326001882E+04  0.87248197799E+03  0.17617878523E+04  0.46999998093E+01 0. -1.
</event>
<event>
 5   0  0.2598987E-06  0.3107620E+04  0.7818609E-02  0.8213650E-01
       -1   -1    0    0    0  501  0.00000000000E+00  0.00000000000E+00  0.13632009005E+04  0.13632009005E+04  0.50400001928E-02 0.  1.
        1   -1    0    0  501    0  0.00000000000E+00  0.00000000000E+00 -0.17710707865E+04  0.17710707865E+04  0.50400001928E-02 0. -1.
    10030    2    1    2    0    0  0.00000000000E+00  0.00000000000E+00 -0.40786988603E+03  0.31342716870E+04  0.31076198551E+04 0.  0.
        2    1    3    3  502    0  0.42601598408E+03 -0.27238541218E+03 -0.16857672165E+04  0.17599700394E+04  0.25500000920E-02 0. -1.
       -2    1    3    3    0  502 -0.42601598408E+03  0.27238541218E+03  0.12778973304E+04  0.13743016476E+04  0.25500000920E-02 0.  1.
</event>
<event>
 5   0  0.7071012E-06  0.3120883E+04  0.7818609E-02  0.8210030E-01
       -2   -1    0    0    0  501  0.00000000000E+00  0.00000000000E+00  0.27040687656E+04  0.27040687656E+04  0.25500000920E-02 0.  1.
        2   -1    0    0  501    0  0.00000000000E+00  0.00000000000E+00 -0.90048662816E+03  0.90048662816E+03  0.25500000920E-02 0. -1.
    10030    2    1    2    0    0  0.00000000000E+00  0.00000000000E+00  0.18035821374E+04  0.36045553937E+04  0.31208830577E+04 0.  0.
        1    1    3    3  502    0  0.11822222116E+04 -0.76635478711E+03  0.16765994984E+04  0.21899623046E+04  0.50400001928E-02 0.  1.
       -1    1    3    3    0  502 -0.11822222116E+04  0.76635478711E+03  0.12698263899E+03  0.14145930892E+04  0.50400001928E-02 0. -1.
</event>
<event>
 5   0  0.7094341E-06  0.1992418E+04  0.7818609E-02  0.8610174E-01
       -2   -1    0    0    0  501  0.00000000000E+00  0.00000000000E+00  0.69106844260E+03  0.69106844261E+03  0.25500000920E-02 0.  1.
        2   -1    0    0  501    0  0.00000000000E+00  0.00000000000E+00 -0.14360836580E+04  0.14360836580E+04  0.25500000920E-02 0. -1.
    10030    2    1    2    0    0  0.00000000000E+00  0.00000000000E+00 -0.74501521543E+03  0.21271521006E+04  0.19924177243E+04 0.  0.
        3    1    3    3  502    0 -0.30152458605E+02  0.34999733754E+03  0.62274707264E+03  0.71499736624E+03  0.10100000352E+00 0.  1.
       -3    1    3    3    0  502  0.30152458605E+02 -0.34999733754E+03 -0.13677622881E+04  0.14121547344E+04  0.10100000352E+00 0. -1.
</event>
<event>
 5   0  0.2624011E-06  0.3096095E+04  0.7818609E-02  0.8216810E-01
       -1   -1    0    0    0  501  0.00000000000E+00  0.00000000000E+00  0.17281031936E+04  0.17281031936E+04  0.50400001928E-02 0.  1.
        1   -1    0    0  501    0  0.00000000000E+00  0.00000000000E+00 -0.13867522721E+04  0.13867522721E+04  0.50400001928E-02 0. -1.
    10030    2    1    2    0    0  0.00000000000E+00  0.00000000000E+00  0.34135092148E+03  0.31148554657E+04  0.30960949792E+04 0.  0.
        1    1    3    3  502    0 -0.13345456935E+04 -0.76980260709E+03  0.18621411622E+02  0.15407644268E+04  0.50400001928E-02 0.  1.
       -1    1    3    3    0  502  0.13345456935E+04  0.76980260709E+03  0.32272950986E+03  0.15740910388E+04  0.50400001928E-02 0. -1.
</event>
<event>
 5   0  0.2598987E-06  0.2401995E+04  0.7818609E-02  0.8438757E-01
       -1   -1    0    0    0  501  0.00000000000E+00  0.00000000000E+00  0.16555252961E+04  0.16555252961E+04  0.50400001928E-02 0.  1.
        1   -1    0    0  501    0  0.00000000000E+00  0.00000000000E+00 -0.87126147842E+03  0.87126147844E+03  0.50400001928E-02 0. -1.
    10030    2    1    2    0    0  0.00000000000E+00  0.00000000000E+00  0.78426381772E+03  0.25267867746E+04  0.24019953515E+04 0.  0.
        2    1    3    3  502    0 -0.89015213216E+03  0.46603340426E+03  0.10842159818E+04  0.14782023703E+04  0.25500000920E-02 0.  1.
       -2    1    3    3    0  502  0.89015213216E+03 -0.46603340426E+03 -0.29995216406E+03  0.10485844043E+04  0.25500000920E-02 0. -1.
</event>
<event>
 5   0  0.2393250E-06  0.3071813E+04  0.7818609E-02  0.8223516E-01
        3   -1    0    0  501    0  0.00000000000E+00  0.00000000000E+00  0.19305191024E+04  0.19305191051E+04  0.10100000352E+00 0.  1.
       -3   -1    0    0    0  501  0.00000000000E+00  0.00000000000E+00 -0.12219554437E+04  0.12219554479E+04  0.10100000352E+00 0. -1.
    10030    2    1    2    0    0  0.00000000000E+00  0.00000000000E+00  0.70856365868E+03  0.31524745530E+04  0.30718127138E+04 0.  0.
        5    1    3    3  502    0 -0.48341364205E+03  0.24349808031E+03  0.18293859102E+04  0.19077879764E+04  0.46999998093E+01 0.  1.
       -5    1    3    3    0  502  0.48341364205E+03 -0.24349808031E+03 -0.11208222515E+04  0.12446865766E+04  0.46999998093E+01 0. -1.
</event>
<event>
 5   0  0.2624011E-06  0.3095396E+04  0.7818609E-02  0.8217003E-01
       -1   -1    0    0    0  501  0.00000000000E+00  0.00000000000E+00  0.13260737159E+04  0.13260737159E+04  0.50400001928E-02 0.  1.
        1   -1    0    0  501    0  0.00000000000E+00  0.00000000000E+00 -0.18063617447E+04  0.18063617447E+04  0.50400001928E-02 0. -1.
    10030    2    1    2    0    0  0.00000000000E+00  0.00000000000E+00 -0.48028802883E+03  0.31324354606E+04  0.30953958267E+04 0.  0.
        1    1    3    3  502    0  0.64154396026E+03 -0.55843643168E+03  0.10683632681E+04  0.13655877760E+04  0.50400001928E-02 0.  1.
       -1    1    3    3    0  502 -0.64154396026E+03  0.55843643168E+03 -0.15486512969E+04  0.17668476846E+04  0.50400001928E-02 0. -1.
</event>
<event>
 5   0  0.2598987E-06  0.2970609E+04  0.7818609E-02  0.8252174E-01
        1   -1    0    0  501    0  0.00000000000E+00  0.00000000000E+00  0.15719709691E+04  0.15719709691E+04  0.50400001928E-02 0. -1.
       -1   -1    0    0    0  501  0.00000000000E+00  0.00000000000E+00 -0.14034157360E+04  0.14034157360E+04  0.50400001928E-02 0.  1.
    10030    2    1    2    0    0  0.00000000000E+00  0.00000000000E+00  0.16855523309E+03  0.29753867050E+04  0.29706085535E+04 0.  0.
        2    1    3    3  502    0  0.13782056443E+04  0.29073681208E+03  0.55636375647E+03  0.15144369651E+04  0.25500000920E-02 0. -1.
       -2    1    3    3    0  502 -0.13782056443E+04 -0.29073681208E+03 -0.38780852338E+03  0.14609497399E+04  0.25500000920E-02 0.  1.
</event>
<event>
 5   0  0.2517725E-06  0.3055898E+04  0.7818609E-02  0.8227947E-01
       -1   -1    0    0    0  501  0.00000000000E+00  0.00000000000E+00  0.16803700259E+04  0.16803700259E+04  0.50400001928E-02 0. -1.
        1   -1    0    0  501    0  0.00000000000E+00  0.00000000000E+00 -0.13893533902E+04  0.13893533902E+04  0.50400001928E-02 0.  1.
    10030    2    1    2    0    0  0.00000000000E+00  0.00000000000E+00  0.29101663570E+03  0.30697234161E+04  0.30558977681E+04 0.  0.
        3    1    3    3  502    0  0.12861288143E+04  0.82473066029E+03  0.16347198055E+03  0.15365647034E+04  0.10100000352E+00 0. -1.
       -3    1    3    3    0  502 -0.12861288143E+04 -0.82473066029E+03  0.12754465515E+03  0.15331587127E+04  0.10100000352E+00 0.  1.
</event>
<event>
 5   0  0.7071012E-06  0.2069254E+04  0.7818609E-02  0.8574910E-01
        2   -1    0    0  501    0  0.00000000000E+00  0.00000000000E+00  0.11064488127E+04  0.11064488127E+04  0.25500000920E-02 0. -1.
       -2   -1    0    0    0  501  0.00000000000E+00  0.00000000000E+00 -0.96746683891E+03  0.96746683892E+03  0.25500000920E-02 0.  1.
    10030    2    1    2    0    0  0.00000000000E+00  0.00000000000E+00  0.13898197376E+03  0.20739156516E+04  0.20692535226E+04 0.  0.
        1    1    3    3  502    0  0.27738755815E+02 -0.20415900345E+03  0.10856797953E+04  0.11050569918E+04  0.50400001928E-02 0. -1.
       -1    1    3    3    0  502 -0.27738755815E+02  0.20415900345E+03 -0.94669782154E+03  0.96885865976E+03  0.50400001928E-02 0.  1.
</event>
<event>
 5   0  0.2674441E-06  0.3088232E+04  0.7818609E-02  0.8218975E-01
        1   -1    0    0  501    0  0.00000000000E+00  0.00000000000E+00  0.12894486218E+04  0.12894486218E+04  0.50400001928E-02 0. -1.
       -1   -1    0    0    0  501  0.00000000000E+00  0.00000000000E+00 -0.18490801009E+04  0.18490801009E+04  0.50400001928E-02 0.  1.
    10030    2    1    2    0    0  0.00000000000E+00  0.00000000000E+00 -0.55963147913E+03  0.31385287228E+04  0.30882317191E+04 0.  0.
        5    1    3    3  502    0  0.10716749763E+04 -0.61848871598E+03  0.65894721284E+03  0.14018734129E+04  0.46999998093E+01 0. -1.
       -5    1    3    3    0  502 -0.10716749763E+04  0.61848871598E+03 -0.12185786920E+04  0.17366553098E+04  0.46999998093E+01 0.  1.
</event>
<event>
 5   0  0.7414808E-06  0.3091049E+04  0.7818609E-02  0.8218199E-01
       -2   -1    0    0    0  501  0.00000000000E+00  0.00000000000E+00  0.15058805867E+04  0.15058805867E+04  0.25500000920E-02 0.  1.
        2   -1    0    0  501    0  0.00000000000E+00  0.00000000000E+00 -0.15862124853E+04  0.15862124853E+04  0.25500000920E-02 0. -1.
    10030    2    1    2    0    0  0.00000000000E+00  0.00000000000E+00 -0.80331898634E+02  0.30920930720E+04  0.30910493934E+04 0.  0.
        2    1    3    3  502    0  0.76547883563E+03  0.12802144369E+04  0.36461834680E+03  0.15355303289E+04  0.25500000920E-02 0. -1.
       -2    1    3    3    0  502 -0.76547883563E+03 -0.12802144369E+04 -0.44495024544E+03  0.15565627431E+04  0.25500000920E-02 0.  1.
</event>
<event>
 5   0  0.2598987E-06  0.3015287E+04  0.7818609E-02  0.8239379E-01
       -1   -1    0    0    0  501  0.00000000000E+00  0.00000000000E+00  0.14360410933E+04  0.14360410933E+04  0.50400001928E-02 0.  1.
        1   -1    0    0  501    0  0.00000000000E+00  0.00000000000E+00 -0.15828163484E+04  0.15828163484E+04  0.50400001928E-02 0. -1.
    10030    2    1    2    0    0  0.00000000000E+00  0.00000000000E+00 -0.14677525511E+03  0.30188574418E+04  0.30152872630E+04 0.  0.
        2    1    3    3  502    0  0.44041221543E+03  0.12127004701E+04 -0.85430088004E+03  0.15473963110E+04  0.25500000920E-02 0. -1.
       -2    1    3    3    0  502 -0.44041221543E+03 -0.12127004701E+04  0.70752562493E+03  0.14714611308E+04  0.25500000920E-02 0.  1.
</event>
<event>
 5   0  0.7094341E-06  0.3107052E+04  0.7818609E-02  0.8213805E-01
       -2   -1    0    0    0  501  0.00000000000E+00  0.00000000000E+00  0.14027636006E+04  0.14027636006E+04  0.25500000920E-02 0.  1.
        2   -1    0    0  501    0  0.00000000000E+00  0.00000000000E+00 -0.17204913749E+04  0.17204913749E+04  0.25500000920E-02 0. -1.
    10030    2    1    2    0    0  0.00000000000E+00  0.00000000000E+00 -0.31772777430E+03  0.31232549755E+04  0.31070517704E+04 0.  0.
        3    1    3    3  502    0  0.13377692059E+04  0.55527132631E+03 -0.72347800140E+03  0.16190655091E+04  0.10100000352E+00 0. -1.
       -3    1    3    3    0  502 -0.13377692059E+04 -0.55527132631E+03  0.40575022711E+03  0.15041894665E+04  0.10100000352E+00 0.  1.
</event>
<event>
 5   0  0.2624011E-06  0.3032483E+04  0.7818609E-02  0.8234516E-01
       -1   -1    0    0    0  501  0.00000000000E+00  0.00000000000E+00  0.16596701717E+04  0.16596701718E+04  0.50400001928E-02 0.  1.
        1   -1    0    0  501    0  0.00000000000E+00  0.00000000000E+00 -0.13852075523E+04  0.13852075523E+04  0.50400001928E-02 0. -1.
    10030    2    1    2    0    0  0.00000000000E+00  0.00000000000E+00  0.27446261949E+03  0.30448777240E+04  0.30324825844E+04 0.  0.
        1    1    3    3  502    0 -0.87517624612E+03 -0.25924808191E+03  0.13529007829E+04  0.16320182469E+04  0.50400001928E-02 0.  1.
       -1    1    3    3    0  502  0.87517624612E+03  0.25924808191E+03 -0.10784381634E+04  0.14128594771E+04  0.50400001928E-02 0. -1.
</event>
<event>
 5   0  0.7094341E-06  0.3051641E+04  0.7818609E-02  0.8229136E-01
        2   -1    0    0  501    0  0.00000000000E+00  0.00000000000E+00  0.18473435590E+04  0.18473435590E+04  0.25500000920E-02 0. -1.
       -2   -1    0    0    0  501  0.00000000000E+00  0.00000000000E+00 -0.12602576130E+04  0.12602576130E+04  0.25500000920E-02 0.  1.
    10030    2    1    2    0    0  0.00000000000E+00  0.00000000000E+00  0.58708594598E+03  0.31076011721E+04  0.30516413840E+04 0.  0.
        3    1    3    3  502    0 -0.14829993455E+04  0.16769923509E+03 -0.29638753823E+02  0.14927453092E+04  0.10100000352E+00 0.  1.
       -3    1    3    3    0  502  0.14829993455E+04 -0.16769923509E+03  0.61672469980E+03  0.16148558628E+04  0.10100000352E+00 0. -1.
</event>
<event>
 5   0  0.2517725E-06  0.3336276E+04  0.7818609E-02  0.8153726E-01
       -1   -1    0    0    0  501  0.00000000000E+00  0.00000000000E+00  0.11820956839E+04  0.11820956839E+04  0.50400001928E-02 0. -1.
        1   -1    0    0  501    0  0.00000000000E+00  0.00000000000E+00 -0.23540261621E+04  0.23540261621E+04  0.50400001928E-02 0.  1.
    10030    2    1    2    0    0  0.00000000000E+00  0.00000000000E+00 -0.11719304782E+04  0.35361218460E+04  0.33362758675E+04 0.  0.
        3    1    3    3  502    0  0.10219495631E+04 -0.90388479459E+03  0.43137154554E+03  0.14308983374E+04  0.10100000352E+00 0. -1.
       -3    1    3    3    0  502 -0.10219495631E+04  0.90388479459E+03 -0.16033020238E+04  0.21052235086E+04  0.10100000352E+00 0.  1.
</event>
<event>
 5   0  0.2674441E-06  0.3008675E+04  0.7818609E-02  0.8241258E-01
        1   -1    0    0  501    0  0.00000000000E+00  0.00000000000E+00  0.14367014388E+04  0.14367014388E+04  0.50400001928E-02 0.  1.
       -1   -1    0    0    0  501  0.00000000000E+00  0.00000000000E+00 -0.15751575298E+04  0.15751575298E+04  0.50400001928E-02 0. -1.
    10030    2    1    2    0    0  0.00000000000E+00  0.00000000000E+00 -0.13845609097E+03  0.30118589686E+04  0.30086748507E+04 0.  0.
        5    1    3    3  502    0 -0.72221339869E+03  0.10277185316E+04  0.75942298409E+03  0.14678361394E+04  0.46999998093E+01 0.  1.
       -5    1    3    3    0  502  0.72221339869E+03 -0.10277185316E+04 -0.89787907506E+03  0.15440228291E+04  0.46999998093E+01 0. -1.
</event>
<event>
 5   0  0.2517725E-06  0.2917467E+04  0.7818609E-02  0.8267699E-01
        1   -1    0    0  501    0  0.00000000000E+00  0.00000000000E+00  0.24685828085E+04  0.24685828085E+04  0.50400001928E-02 0. -1.
       -1   -1    0    0    0  501  0.00000000000E+00  0.00000000000E+00 -0.86199394750E+03  0.86199394752E+03  0.50400001928E-02 0.  1.
    10030    2    1    2    0    0  0.00000000000E+00  0.00000000000E+00  0.16065888610E+04  0.33305767561E+04  0.29174670109E+04 0.  0.
        3    1    3    3  502    0  0.40757755336E+03 -0.10471393488E+04 -0.25862756549E+03  0.11530431499E+04  0.10100000352E+00 0.  1.
       -3    1    3    3    0  502 -0.40757755336E+03  0.10471393488E+04  0.18652164265E+04  0.21775336061E+04  0.10100000352E+00 0. -1.
</event>
<event>
 5   0  0.7079223E-06  0.2997088E+04  0.7818609E-02  0.8244563E-01
        2   -1    0    0  501    0  0.00000000000E+00  0.00000000000E+00  0.16363166917E+04  0.16363166917E+04  0.25500000920E-02 0. -1.
       -2   -1    0    0    0  501  0.00000000000E+00  0.00000000000E+00 -0.13723714201E+04  0.13723714201E+04  0.25500000920E-02 0.  1.
    10030    2    1    2    0    0  0.00000000000E+00  0.00000000000E+00  0.26394527170E+03  0.30086881118E+04  0.29970880947E+04 0.  0.
        5    1    3    3  502    0 -0.96785253204E+03  0.55482354370E+03  0.11363671912E+04  0.15924572747E+04  0.46999998093E+01 0. -1.
       -5    1    3    3    0  502  0.96785253204E+03 -0.55482354370E+03 -0.87242191950E+03  0.14162308371E+04  0.46999998093E+01 0.  1.
</event>
<event>
 5   0  0.7071012E-06  0.2455215E+04  0.7818609E-02  0.8419116E-01
        2   -1    0    0  501    0  0.00000000000E+00  0.00000000000E+00  0.16236811732E+04  0.16236811732E+04  0.25500000920E-02 0. -1.
       -2   -1    0    0    0  501  0.00000000000E+00  0.00000000000E+00 -0.92815025495E+03  0.92815025495E+03  0.25500000920E-02 0.  1.
    10030    2    1    2    0    0  0.00000000000E+00  0.00000000000E+00  0.69553091824E+03  0.25518314281E+04  0.24552149355E+04 0.  0.
        1    1    3    3  502    0  0.31630443813E+03 -0.73548222675E+02 -0.88269783071E+03  0.94053883439E+03  0.50400001928E-02 0.  1.
       -1    1    3    3    0  502 -0.31630443813E+03  0.73548222675E+02  0.15782287489E+04  0.16112925937E+04  0.50400001928E-02 0. -1.
</event>
<event>
 5   0  0.7071012E-06  0.3092604E+04  0.7818609E-02  0.8217771E-01
       -2   -1    0    0    0  501  0.00000000000E+00  0.00000000000E+00  0.14093129568E+04  0.14093129568E+04  0.25500000920E-02 0. -1.
        2   -1    0    0  501    0  0.00000000000E+00  0.00000000000E+00 -0.16966063306E+04  0.16966063306E+04  0.25500000920E-02 0.  1.
    10030    2    1    2    0    0  0.00000000000E+00  0.00000000000E+00 -0.28729337389E+03  0.31059192874E+04  0.30926036179E+04 0.  0.
        1    1    3    3  502    0  0.29760867288E+03 -0.55419727855E+03  0.12750016958E+04  0.14217365685E+04  0.50400001928E-02 0. -1.
       -1    1    3    3    0  502 -0.29760867288E+03  0.55419727855E+03 -0.15622950697E+04  0.16841827189E+04  0.50400001928E-02 0.  1.
</event>
<event>
 5   0  0.2598987E-06  0.3358203E+04  0.7818609E-02  0.8148242E-01
       -1   -1    0    0    0  501  0.00000000000E+00  0.00000000000E+00  0.11483052974E+04  0.11483052974E+04  0.50400001928E-02 0.  1.
        1   -1    0    0  501    0  0.00000000000E+00  0.00000000000E+00 -0.24552539626E+04  0.24552539626E+04  0.50400001928E-02 0. -1.
    10030    2    1    2    0    0  0.00000000000E+00  0.00000000000E+00 -0.13069486652E+04  0.36035592600E+04  0.33582025739E+04 0.  0.
        2    1    3    3  502    0 -0.16388766234E+04 -0.59028478225E+02 -0.26660584861E+03  0.16614691169E+04  0.25500000920E-02 0. -1.
       -2    1    3    3    0  502  0.16388766234E+04  0.59028478225E+02 -0.10403428166E+04  0.19420901431E+04  0.25500000920E-02 0.  1.
</event>
<event>
 5   0  0.7079223E-06  0.3215603E+04  0.7818609E-02  0.8184709E-01
       -2   -1    0    0    0  501  0.00000000000E+00  0.00000000000E+00  0.12906754901E+04  0.12906754901E+04  0.25500000920E-02 0. -1.
        2   -1    0    0  501    0  0.00000000000E+00  0.00000000000E+00 -0.20028468646E+04  0.20028468646E+04  0.25500000920E-02 0.  1.
    10030    2    1    2    0    0  0.00000000000E+00  0.00000000000E+00 -0.71217137446E+03  0.32935223547E+04  0.32156028104E+04 0.  0.
        5    1    3    3  502    0  0.13664544185E+04 -0.84639093041E+03 -0.31738133350E+03  0.16383919817E+04  0.46999998093E+01 0. -1.
       -5    1    3    3    0  502 -0.13664544185E+04  0.84639093041E+03 -0.39479004096E+03  0.16551303729E+04  0.46999998093E+01 0.  1.
</event>
<event>
 5   0  0.7414808E-06  0.3137972E+04  0.7818609E-02  0.8205393E-01
       -2   -1    0    0    0  501  0.00000000000E+00  0.00000000000E+00  0.13317012295E+04  0.13317012295E+04  0.25500000920E-02 0. -1.
        2   -1    0    0  501    0  0.00000000000E+00  0.00000000000E+00 -0.18485506610E+04  0.18485506610E+04  0.25500000920E-02 0.  1.
    10030    2    1    2    0    0  0.00000000000E+00  0.00000000000E+00 -0.51684943154E+03  0.31802518905E+04  0.31379720764E+04 0.  0.
        2    1    3    3  502    0  0.10789147092E+03  0.74976039865E+03  0.11341101398E+04  0.13638134162E+04  0.25500000920E-02 0. -1.
       -2    1    3    3    0  502 -0.10789147092E+03 -0.74976039865E+03 -0.16509595714E+04  0.18164384744E+04  0.25500000920E-02 0.  1.
</event>
<event>
 5   0  0.2674441E-06  0.3121648E+04  0.7818609E-02  0.8209822E-01
        1   -1    0    0  501    0  0.00000000000E+00  0.00000000000E+00  0.15495422456E+04  0.15495422456E+04  0.50400001928E-02 0. -1.
       -1   -1    0    0    0  501  0.00000000000E+00  0.00000000000E+00 -0.15721877434E+04  0.15721877434E+04  0.50400001928E-02 0.  1.
    10030    2    1    2    0    0  0.00000000000E+00  0.00000000000E+00 -0.22645497865E+02  0.31217299890E+04  0.31216478510E+04 0.  0.
        5    1    3    3  502    0 -0.87854992213E+03  0.33381609873E+03  0.12348505148E+04  0.15518250666E+04  0.46999998093E+01 0. -1.
       -5    1    3    3    0  502  0.87854992213E+03 -0.33381609873E+03 -0.12574960127E+04  0.15699049224E+04  0.46999998093E+01 0.  1.
</event>
<event>
 5   0  0.2612331E-06  0.3061614E+04  0.7818609E-02  0.8226352E-01
        1   -1    0    0  501    0  0.00000000000E+00  0.00000000000E+00  0.29940783841E+04  0.29940783841E+04  0.50400001928E-02 0. -1.
       -1   -1    0    0    0  501  0.00000000000E+00  0.00000000000E+00 -0.78266806573E+03  0.78266806574E+03  0.50400001928E-02 0.  1.
    10030    2    1    2    0    0  0.00000000000E+00  0.00000000000E+00  0.22114103184E+04  0.37767464498E+04  0.30616136514E+04 0.  0.
        4    1    3    3  502    0  0.49283360339E+01  0.71148554793E+03  0.27777103415E+04  0.28673877184E+04  0.12699999809E+01 0. -1.
       -4    1    3    3    0  502 -0.49283360339E+01 -0.71148554793E+03 -0.56630002312E+03  0.90935873147E+03  0.12699999809E+01 0.  1.
</event>
<event>
 5   0  0.2517725E-06  0.2933350E+04  0.7818609E-02  0.8263023E-01
       -1   -1    0    0    0  501  0.00000000000E+00  0.00000000000E+00  0.99342237321E+03  0.99342237323E+03  0.50400001928E-02 0.  1.
        1   -1    0    0  501    0  0.00000000000E+00  0.00000000000E+00 -0.21653791597E+04  0.21653791597E+04  0.50400001928E-02 0. -1.
    10030    2    1    2    0    0  0.00000000000E+00  0.00000000000E+00 -0.11719567865E+04  0.31588015329E+04  0.29333503737E+04 0.  0.
        3    1    3    3  502    0 -0.82049499253E+03  0.12138143209E+04 -0.51311039210E+03  0.15523657826E+04  0.10100000352E+00 0.  1.
       -3    1    3    3    0  502  0.82049499253E+03 -0.12138143209E+04 -0.65884639440E+03  0.16064357503E+04  0.10100000352E+00 0. -1.
</event>
<event>
 5   0  0.2517725E-06  0.2590028E+04  0.7818609E-02  0.8371596E-01
        1   -1    0    0  501    0  0.00000000000E+00  0.00000000000E+00  0.19505822731E+04  0.19505822731E+04  0.50400001928E-02 0. -1.
       -1   -1    0    0    0  501  0.00000000000E+00  0.00000000000E+00 -0.85977442590E+03  0.85977442592E+03  0.50400001928E-02 0.  1.
    10030    2    1    2    0    0  0.00000000000E+00  0.00000000000E+00  0.10908078472E+04  0.28103566990E+04  0.25900276092E+04 0.  0.
        3    1    3    3  502    0  0.33528672980E+03  0.52107075164E+03 -0.68849034801E+03  0.92625638400E+03  0.10100000352E+00 0.  1.
       -3    1    3    3    0  502 -0.33528672980E+03 -0.52107075164E+03  0.17792981952E+04  0.18841003150E+04  0.10100000352E+00 0. -1.
</event>
<event>
 5   0  0.7414808E-06  0.3084383E+04  0.7818609E-02  0.8220037E-01
        2   -1    0    0  501    0  0.00000000000E+00  0.00000000000E+00  0.14953643322E+04  0.14953643322E+04  0.25500000920E-02 0. -1.
       -2   -1    0    0    0  501  0.00000000000E+00  0.00000000000E+00 -0.15904849146E+04  0.15904849146E+04  0.25500000920E-02 0.  1.
    10030    2    1    2    0    0  0.00000000000E+00  0.00000000000E+00 -0.95120582410E+02  0.30858492467E+04  0.30843828635E+04 0.  0.
        2    1    3    3  502    0 -0.85585400540E+03 -0.86591377836E+03 -0.99461566406E+03  0.15721173841E+04  0.25500000920E-02 0.  1.
       -2    1    3    3    0  502  0.85585400540E+03  0.86591377836E+03  0.89949508165E+03  0.15137318627E+04  0.25500000920E-02 0. -1.
</event>
<event>
 5   0  0.7414808E-06  0.3114125E+04  0.7818609E-02  0.8211872E-01
        2   -1    0    0  501    0  0.00000000000E+00  0.00000000000E+00  0.16077258658E+04  0.16077258658E+04  0.25500000920E-02 0. -1.
       -2   -1    0    0    0  501  0.00000000000E+00  0.00000000000E+00 -0.15079961086E+04  0.15079961086E+04  0.25500000920E-02 0.  1.
    10030    2    1    2    0    0  0.00000000000E+00  0.00000000000E+00  0.99729757179E+02  0.31157219744E+04  0.31141254627E+04 0.  0.
        2    1    3    3  502    0  0.87473408142E+03 -0.92417687732E+03 -0.84791434181E+03  0.15291243719E+04  0.25500000920E-02 0.  1.
       -2    1    3    3    0  502 -0.87473408142E+03  0.92417687732E+03  0.94764409899E+03  0.15865976025E+04  0.25500000920E-02 0. -1.
</event>
<event>
 5   0  0.2612331E-06  0.3371083E+04  0.7818609E-02  0.8145040E-01
        1   -1    0    0  501    0  0.00000000000E+00  0.00000000000E+00  0.25801299803E+04  0.25801299803E+04  0.50400001928E-02 0. -1.
       -1   -1    0    0    0  501  0.00000000000E+00  0.00000000000E+00 -0.11011267353E+04  0.11011267353E+04  0.50400001928E-02 0.  1.
    10030    2    1    2    0    0  0.00000000000E+00  0.00000000000E+00  0.14790032450E+04  0.36812567155E+04  0.33710829724E+04 0.  0.
        4    1    3    3  502    0  0.16831962097E+04 -0.74746586884E+02  0.79200853486E+03  0.18617238422E+04  0.12699999809E+01 0. -1.
       -4    1    3    3    0  502 -0.16831962097E+04  0.74746586884E+02  0.68699471012E+03  0.18195328733E+04  0.12699999809E+01 0.  1.
</event>
<event>
 5   0  0.2624011E-06  0.3103191E+04  0.7818609E-02  0.8214863E-01
        1   -1    0    0  501    0  0.00000000000E+00  0.00000000000E+00  0.12297049342E+04  0.12297049342E+04  0.50400001928E-02 0.  1.
       -1   -1    0    0    0  501  0.00000000000E+00  0.00000000000E+00 -0.19577445526E+04  0.19577445526E+04  0.50400001928E-02 0. -1.
    10030    2    1    2    0    0  0.00000000000E+00  0.00000000000E+00 -0.72803961838E+03  0.31874494868E+04  0.31031907040E+04 0.  0.
        1    1    3    3  502    0  0.74871756480E+03 -0.62148550929E+03  0.87735904988E+03  0.13101836255E+04  0.50400001928E-02 0.  1.
       -1    1    3    3    0  502 -0.74871756480E+03  0.62148550929E+03 -0.16053986683E+04  0.18772658613E+04  0.50400001928E-02 0. -1.
</event>
<event>
 5   0  0.2624011E-06  0.3017561E+04  0.7818609E-02  0.8238734E-01
       -1   -1    0    0    0  501  0.00000000000E+00  0.00000000000E+00  0.19957229366E+04  0.19957229367E+04  0.50400001928E-02 0.  1.
        1   -1    0    0  501    0  0.00000000000E+00  0.00000000000E+00 -0.11406482710E+04  0.11406482710E+04  0.50400001928E-02 0. -1.
    10030    2    1    2    0    0  0.00000000000E+00  0.00000000000E+00  0.85507466566E+03  0.31363712076E+04  0.30175605492E+04 0.  0.
        1    1    3    3  502    0  0.45889240615E+03  0.30112144085E+03  0.18882768452E+04  0.19664297106E+04  0.50400001928E-02 0.  1.
       -1    1    3    3    0  502 -0.45889240615E+03 -0.30112144085E+03 -0.10332021796E+04  0.11699414970E+04  0.50400001928E-02 0. -1.
</event>
<event>
 5   0  0.2674441E-06  0.3093565E+04  0.7818609E-02  0.8217506E-01
       -1   -1    0    0    0  501  0.00000000000E+00  0.00000000000E+00  0.91655203353E+03  0.91655203354E+03  0.50400001928E-02 0.  1.
        1   -1    0    0  501    0  0.00000000000E+00  0.00000000000E+00 -0.26103662503E+04  0.26103662504E+04  0.50400001928E-02 0. -1.
    10030    2    1    2    0    0  0.00000000000E+00  0.00000000000E+00 -0.16938142168E+04  0.35269182839E+04  0.30935652539E+04 0.  0.
        5    1    3    3  502    0 -0.31531937428E+03 -0.83823107174E+03 -0.22847023783E+04  0.24539650944E+04  0.46999998093E+01 0. -1.
       -5    1    3    3    0  502  0.31531937428E+03  0.83823107174E+03  0.59088816146E+03  0.10729531895E+04  0.46999998093E+01 0.  1.
</event>
<event>
 5   0  0.7071012E-06  0.2971225E+04  0.7818609E-02  0.8251996E-01
       -2   -1    0    0    0  501  0.00000000000E+00  0.00000000000E+00  0.96037503225E+03  0.96037503225E+03  0.25500000920E-02 0.  1.
        2   -1    0    0  501    0  0.00000000000E+00  0.00000000000E+00 -0.22981074416E+04  0.22981074416E+04  0.25500000920E-02 0. -1.
    10030    2    1    2    0    0  0.00000000000E+00  0.00000000000E+00 -0.13377324094E+04  0.32584824739E+04  0.29712253421E+04 0.  0.
        1    1    3    3  502    0 -0.19388489650E+02  0.14775849087E+04 -0.83666870629E+03  0.16981306192E+04  0.50400001928E-02 0.  1.
       -1    1    3    3    0  502  0.19388489650E+02 -0.14775849087E+04 -0.50106370311E+03  0.15603518547E+04  0.50400001928E-02 0. -1.
</event>
<event>
 5   0  0.7094341E-06  0.3085633E+04  0.7818609E-02  0.8219692E-01
        2   -1    0    0  501    0  0.00000000000E+00  0.00000000000E+00  0.23009506635E+04  0.23009506635E+04  0.25500000920E-02 0.  1.
       -2   -1    0    0    0  501  0.00000000000E+00  0.00000000000E+00 -0.10344777137E+04  0.10344777137E+04  0.25500000920E-02 0. -1.
    10030    2    1    2    0    0  0.00000000000E+00  0.00000000000E+00  0.12664729498E+04  0.33354283772E+04  0.30856326300E+04 0.  0.
        3    1    3    3  502    0  0.19328670774E+03 -0.61276154883E+03 -0.88297150796E+03  0.10920051104E+04  0.10100000352E+00 0. -1.
       -3    1    3    3    0  502 -0.19328670774E+03  0.61276154883E+03  0.21494444577E+04  0.22434232668E+04  0.10100000352E+00 0.  1.
</event>
<event>
 5   0  0.7071012E-06  0.3106459E+04  0.7818609E-02  0.8213967E-01
        2   -1    0    0  501    0  0.00000000000E+00  0.00000000000E+00  0.13700074490E+04  0.13700074490E+04  0.25500000920E-02 0.  1.
       -2   -1    0    0    0  501  0.00000000000E+00  0.00000000000E+00 -0.17609558188E+04  0.17609558189E+04  0.25500000920E-02 0. -1.
    10030    2    1    2    0    0  0.00000000000E+00  0.00000000000E+00 -0.39094836982E+03  0.31309632679E+04  0.31064594568E+04 0.  0.
        1    1    3    3  502    0  0.85559129931E+03 -0.12961726337E+04 -0.17475426752E+03  0.15628944372E+04  0.50400001928E-02 0. -1.
       -1    1    3    3    0  502 -0.85559129931E+03  0.12961726337E+04 -0.21619410230E+03  0.15680688307E+04  0.50400001928E-02 0.  1.
</event>
<event>
 5   0  0.7094341E-06  0.3041331E+04  0.7818609E-02  0.8232026E-01
        2   -1    0    0  501    0  0.00000000000E+00  0.00000000000E+00  0.16772371625E+04  0.16772371625E+04  0.25500000920E-02 0. -1.
       -2   -1    0    0    0  501  0.00000000000E+00  0.00000000000E+00 -0.13787097016E+04  0.13787097016E+04  0.25500000920E-02 0.  1.
    10030    2    1    2    0    0  0.00000000000E+00  0.00000000000E+00  0.29852746099E+03  0.30559468641E+04  0.30413307270E+04 0.  0.
        3    1    3    3  502    0 -0.82024384815E+03  0.40826396664E+03  0.13687452482E+04  0.16471013938E+04  0.10100000352E+00 0. -1.
       -3    1    3    3    0  502  0.82024384815E+03 -0.40826396664E+03 -0.10702177872E+04  0.14088454703E+04  0.10100000352E+00 0.  1.
</event>
<event>
 5   0  0.7079223E-06  0.3135564E+04  0.7818609E-02  0.8206045E-01
        2   -1    0    0  501    0  0.00000000000E+00  0.00000000000E+00  0.27738385793E+04  0.27738385793E+04  0.25500000920E-02 0.  1.
       -2   -1    0    0    0  501  0.00000000000E+00  0.00000000000E+00 -0.88611523046E+03  0.88611523046E+03  0.25500000920E-02 0. -1.
    10030    2    1    2    0    0  0.00000000000E+00  0.00000000000E+00  0.18877233488E+04  0.36599538097E+04  0.31355641355E+04 0.  0.
        5    1    3    3  502    0 -0.39012761027E+03 -0.30461045518E+02 -0.82818721549E+03  0.91599322131E+03  0.46999998093E+01 0. -1.
       -5    1    3    3    0  502  0.39012761027E+03  0.30461045518E+02  0.27159105643E+04  0.27439605884E+04  0.46999998093E+01 0.  1.
</event>
<event>
 5   0  0.7079223E-06  0.3110892E+04  0.7818609E-02  0.8212755E-01
       -2   -1    0    0    0  501  0.00000000000E+00  0.00000000000E+00  0.14044314913E+04  0.14044314913E+04  0.25500000920E-02 0. -1.
        2   -1    0    0  501    0  0.00000000000E+00  0.00000000000E+00 -0.17226988532E+04  0.17226988532E+04  0.25500000920E-02 0.  1.
    10030    2    1    2    0    0  0.00000000000E+00  0.00000000000E+00 -0.31826736183E+03  0.31271303445E+04  0.31108921675E+04 0.  0.
        5    1    3    3  502    0 -0.86436834637E+03 -0.12863278371E+04 -0.29256117464E+03  0.15771449121E+04  0.46999998093E+01 0.  1.
       -5    1    3    3    0  502  0.86436834637E+03  0.12863278371E+04 -0.25706187184E+02  0.15499854324E+04  0.46999998093E+01 0. -1.
</event>
<event>
 5   0  0.2624011E-06  0.3120150E+04  0.7818609E-02  0.8210230E-01
       -1   -1    0    0    0  501  0.00000000000E+00  0.00000000000E+00  0.12365692248E+04  0.12365692248E+04  0.50400001928E-02 0.  1.
        1   -1    0    0  501    0  0.00000000000E+00  0.00000000000E+00 -0.19682150440E+04  0.19682150440E+04  0.50400001928E-02 0. -1.
    10030    2    1    2    0    0  0.00000000000E+00  0.00000000000E+00 -0.73164581919E+03  0.32047842689E+04  0.31201500934E+04 0.  0.
        1    1    3    3  502    0  0.27442417200E+03 -0.10177799002E+04  0.81543768467E+03  0.13327127106E+04  0.50400001928E-02 0.  1.
       -1    1    3    3    0  502 -0.27442417200E+03  0.10177799002E+04 -0.15470835039E+04  0.18720715583E+04  0.50400001928E-02 0. -1.
</event>
<event>
 5   0  0.7071012E-06  0.3101803E+04  0.7818609E-02  0.8215243E-01
       -2   -1    0    0    0  501  0.00000000000E+00  0.00000000000E+00  0.14458130036E+04  0.14458130036E+04  0.25500000920E-02 0.  1.
        2   -1    0    0  501    0  0.00000000000E+00  0.00000000000E+00 -0.16636279914E+04  0.16636279914E+04  0.25500000920E-02 0. -1.
    10030    2    1    2    0    0  0.00000000000E+00  0.00000000000E+00 -0.21781498782E+03  0.31094409950E+04  0.31018026908E+04 0.  0.
        1    1    3    3  502    0 -0.48821875320E+02  0.45580187368E+03  0.13763469212E+04  0.14506790724E+04  0.50400001928E-02 0.  1.
       -1    1    3    3    0  502  0.48821875320E+02 -0.45580187368E+03 -0.15941619090E+04  0.16587619226E+04  0.50400001928E-02 0. -1.
</event>
<event>
 5   0  0.2517725E-06  0.3061376E+04  0.7818609E-02  0.8226418E-01
       -1   -1    0    0    0  501  0.00000000000E+00  0.00000000000E+00  0.15544735352E+04  0.15544735352E+04  0.50400001928E-02 0. -1.
        1   -1    0    0  501    0  0.00000000000E+00  0.00000000000E+00 -0.15072668170E+04  0.15072668171E+04  0.50400001928E-02 0.  1.
    10030    2    1    2    0    0  0.00000000000E+00  0.00000000000E+00  0.47206718177E+02  0.30617403523E+04  0.30613764079E+04 0.  0.
        3    1    3    3  502    0  0.88250760865E+03  0.55342063817E+03  0.11453035824E+04  0.15481648453E+04  0.10100000352E+00 0. -1.
       -3    1    3    3    0  502 -0.88250760865E+03 -0.55342063817E+03 -0.10980968642E+04  0.15135755070E+04  0.10100000352E+00 0.  1.
</event>
<event>
 5   0  0.2598987E-06  0.2895702E+04  0.7818609E-02  0.8274157E-01
        1   -1    0    0  501    0  0.00000000000E+00  0.00000000000E+00  0.17989960376E+04  0.17989960376E+04  0.50400001928E-02 0. -1.
       -1   -1    0    0    0  501  0.00000000000E+00  0.00000000000E+00 -0.11652457814E+04  0.11652457814E+04  0.50400001928E-02 0.  1.
    10030    2    1    2    0    0  0.00000000000E+00  0.00000000000E+00  0.63375025616E+03  0.29642418190E+04  0.28957020176E+04 0.  0.
        2    1    3    3  502    0 -0.94902435880E+03  0.72959545754E+03 -0.51684430634E+03  0.13038730008E+04  0.25500000920E-02 0. -1.
       -2    1    3    3    0  502  0.94902435880E+03 -0.72959545754E+03  0.11505945625E+04  0.16603688182E+04  0.25500000920E-02 0.  1.
</event>
<event>
 5   0  0.2612331E-06  0.2948261E+04  0.7818609E-02  0.8258661E-01
       -1   -1    0    0    0  501  0.00000000000E+00  0.00000000000E+00  0.14308408976E+04  0.14308408976E+04  0.50400001928E-02 0. -1.
        1   -1    0    0  501    0  0.00000000000E+00  0.00000000000E+00 -0.15187299412E+04  0.15187299412E+04  0.50400001928E-02 0.  1.
    10030    2    1    2    0    0  0.00000000000E+00  0.00000000000E+00 -0.87889043614E+02  0.29495708388E+04  0.29482611230E+04 0.  0.
        4    1    3    3  502    0 -0.54454809294E+03  0.71316525494E+03 -0.12140460627E+04  0.15096512053E+04  0.12699999809E+01 0.  1.
       -4    1    3    3    0  502  0.54454809294E+03 -0.71316525494E+03  0.11261570191E+04  0.14399196335E+04  0.12699999809E+01 0. -1.
</event>
<event>
 5   0  0.7363513E-06  0.3031872E+04  0.7818609E-02  0.8234688E-01
       -2   -1    0    0    0  501  0.00000000000E+00  0.00000000000E+00  0.13812427230E+04  0.13812427230E+04  0.25500000920E-02 0. -1.
        2   -1    0    0  501    0  0.00000000000E+00  0.00000000000E+00 -0.16637636868E+04  0.16637636868E+04  0.25500000920E-02 0.  1.
    10030    2    1    2    0    0  0.00000000000E+00  0.00000000000E+00 -0.28252096373E+03  0.30450064098E+04  0.30318716893E+04 0.  0.
        4    1    3    3  502    0 -0.12973083823E+04 -0.50296744564E+03  0.46307266089E+03  0.14664321302E+04  0.12699999809E+01 0. -1.
       -4    1    3    3    0  502  0.12973083823E+04  0.50296744564E+03 -0.74559362462E+03  0.15785742796E+04  0.12699999809E+01 0.  1.
</event>
<event>
 5   0  0.2674441E-06  0.3056260E+04  0.7818609E-02  0.8227846E-01
       -1   -1    0    0    0  501  0.00000000000E+00  0.00000000000E+00  0.17418422633E+04  0.17418422633E+04  0.50400001928E-02 0. -1.
        1   -1    0    0  501    0  0.00000000000E+00  0.00000000000E+00 -0.13406385421E+04  0.13406385421E+04  0.50400001928E-02 0.  1.
    10030    2    1    2    0    0  0.00000000000E+00  0.00000000000E+00  0.40120372123E+03  0.30824808054E+04  0.30562597222E+04 0.  0.
        5    1    3    3  502    0 -0.56783648980E+03  0.12861383710E+04 -0.40334154970E+03  0.14626334757E+04  0.46999998093E+01 0.  1.
       -5    1    3    3    0  502  0.56783648980E+03 -0.12861383710E+04  0.80454527092E+03  0.16198473297E+04  0.46999998093E+01 0. -1.
</event>
<event>
 5   0  0.2674441E-06  0.3128843E+04  0.7818609E-02  0.8207867E-01
       -1   -1    0    0    0  501  0.00000000000E+00  0.00000000000E+00  0.83136042511E+03  0.83136042513E+03  0.50400001928E-02 0.  1.
        1   -1    0    0  501    0  0.00000000000E+00  0.00000000000E+00 -0.29438670246E+04  0.29438670246E+04  0.50400001928E-02 0. -1.
    10030    2    1    2    0    0  0.00000000000E+00  0.00000000000E+00 -0.21125065995E+04  0.37752274497E+04  0.31288429434E+04 0.  0.
        5    1    3    3  502    0 -0.15499557194E+04 -0.12911822691E+03 -0.12594416047E+04  0.20013119433E+04  0.46999998093E+01 0.  1.
       -5    1    3    3    0  502  0.15499557194E+04  0.12911822691E+03 -0.85306499478E+03  0.17739155064E+04  0.46999998093E+01 0. -1.
</event>
<event>
 5   0  0.2674441E-06  0.3073461E+04  0.7818609E-02  0.8223059E-01
        1   -1    0    0  501    0  0.00000000000E+00  0.00000000000E+00  0.26229562313E+04  0.26229562314E+04  0.50400001928E-02 0.  1.
       -1   -1    0    0    0  501  0.00000000000E+00  0.00000000000E+00 -0.90033547585E+03  0.90033547587E+03  0.50400001928E-02 0. -1.
    10030    2    1    2    0    0  0.00000000000E+00  0.00000000000E+00  0.17226207555E+04  0.35232917072E+04  0.30734609461E+04 0.  0.
        5    1    3    3  502    0  0.10976243891E+04  0.10598913178E+04  0.10707197367E+04  0.18640310485E+04  0.46999998093E+01 0.  1.
       -5    1    3    3    0  502 -0.10976243891E+04 -0.10598913178E+04  0.65190101883E+03  0.16592606587E+04  0.46999998093E+01 0. -1.
</event>
<event>
 5   0  0.7079223E-06  0.2976791E+04  0.7818609E-02  0.8250389E-01
        2   -1    0    0  501    0  0.00000000000E+00  0.00000000000E+00  0.24955074016E+04  0.24955074016E+04  0.25500000920E-02 0.  1.
       -2   -1    0    0    0  501  0.00000000000E+00  0.00000000000E+00 -0.88772394518E+03  0.88772394519E+03  0.25500000920E-02 0. -1.
    10030    2    1    2    0    0  0.00000000000E+00  0.00000000000E+00  0.16077834565E+04  0.33832313468E+04  0.29767913436E+04 0.  0.
        5    1    3    3  502    0 -0.13022810502E+04  0.15539678502E+03  0.16036899106E+04  0.20716967717E+04  0.46999998093E+01 0.  1.
       -5    1    3    3    0  502  0.13022810502E+04 -0.15539678502E+03  0.40935458845E+01  0.13115345751E+04  0.46999998093E+01 0. -1.
</event>
<event>
 5   0  0.7071012E-06  0.2036819E+04  0.7818609E-02  0.8589597E-01
       -2   -1    0    0    0  501  0.00000000000E+00  0.00000000000E+00  0.80859854075E+03  0.80859854076E+03  0.25500000920E-02 0. -1.
        2   -1    0    0  501    0  0.00000000000E+00  0.00000000000E+00 -0.12826610568E+04  0.12826610568E+04  0.25500000920E-02 0.  1.
    10030    2    1    2    0    0  0.00000000000E+00  0.00000000000E+00 -0.47406251609E+03  0.20912595976E+04  0.20368189501E+04 0.  0.
        1    1    3    3  502    0  0.30250675001E+03 -0.33845836293E+03  0.69897866527E+03  0.83344800184E+03  0.50400001928E-02 0. -1.
       -1    1    3    3    0  502 -0.30250675001E+03  0.33845836293E+03 -0.11730411814E+04  0.12578115958E+04  0.50400001928E-02 0.  1.
</event>
<event>
 5   0  0.2598987E-06  0.2103400E+04  0.7818609E-02  0.8559747E-01
       -1   -1    0    0    0  501  0.00000000000E+00  0.00000000000E+00  0.75740938593E+03  0.75740938595E+03  0.50400001928E-02 0. -1.
        1   -1    0    0  501    0  0.00000000000E+00  0.00000000000E+00 -0.14603363352E+04  0.14603363352E+04  0.50400001928E-02 0.  1.
    10030    2    1    2    0    0  0.00000000000E+00  0.00000000000E+00 -0.70292694930E+03  0.22177457212E+04  0.21033995787E+04 0.  0.
        2    1    3    3  502    0 -0.38356181692E+03  0.51116355075E+03 -0.12321336974E+04  0.13880062288E+04  0.25500000920E-02 0.  1.
       -2    1    3    3    0  502  0.38356181692E+03 -0.51116355075E+03  0.52920674806E+03  0.82973949238E+03  0.25500000920E-02 0. -1.
</event>
<event>
 5   0  0.7079223E-06  0.3120030E+04  0.7818609E-02  0.8210262E-01
       -2   -1    0    0    0  501  0.00000000000E+00  0.00000000000E+00  0.12961748442E+04  0.12961748442E+04  0.25500000920E-02 0.  1.
        2   -1    0    0  501    0  0.00000000000E+00  0.00000000000E+00 -0.18775602962E+04  0.18775602962E+04  0.25500000920E-02 0. -1.
    10030    2    1    2    0    0  0.00000000000E+00  0.00000000000E+00 -0.58138545193E+03  0.31737351404E+04  0.31200297591E+04 0.  0.
        5    1    3    3  502    0  0.66655539562E+03 -0.12038596414E+04 -0.10382233876E+04  0.17238051004E+04  0.46999998093E+01 0.  1.
       -5    1    3    3    0  502 -0.66655539562E+03  0.12038596414E+04  0.45683793566E+03  0.14499300400E+04  0.46999998093E+01 0. -1.
</event>
<event>
 5   0  0.7071012E-06  0.3012240E+04  0.7818609E-02  0.8240244E-01
        2   -1    0    0  501    0  0.00000000000E+00  0.00000000000E+00  0.23601163032E+04  0.23601163032E+04  0.25500000920E-02 0.  1.
       -2   -1    0    0    0  501  0.00000000000E+00  0.00000000000E+00 -0.96113790827E+03  0.96113790827E+03  0.25500000920E-02 0. -1.
    10030    2    1    2    0    0  0.00000000000E+00  0.00000000000E+00  0.13989783949E+04  0.33212542114E+04  0.30122398622E+04 0.  0.
        1    1    3    3  502    0 -0.50640416590E+03  0.53299698658E+03 -0.74984196880E+03  0.10501399646E+04  0.50400001928E-02 0. -1.
       -1    1    3    3    0  502  0.50640416590E+03 -0.53299698658E+03  0.21488203637E+04  0.22711142469E+04  0.50400001928E-02 0.  1.
</event>
<event>
 5   0  0.2393250E-06  0.3140613E+04  0.7818609E-02  0.8204679E-01
        3   -1    0    0  501    0  0.00000000000E+00  0.00000000000E+00  0.11955606115E+04  0.11955606158E+04  0.10100000352E+00 0. -1.
       -3   -1    0    0    0  501  0.00000000000E+00  0.00000000000E+00 -0.20625161582E+04  0.20625161606E+04  0.10100000352E+00 0.  1.
    10030    2    1    2    0    0  0.00000000000E+00  0.00000000000E+00 -0.86695554664E+03  0.32580767764E+04  0.31406133734E+04 0.  0.
        3    1    3    3  502    0 -0.64388252649E+03 -0.11670169747E+04 -0.12948019758E+04  0.18582318192E+04  0.10100000352E+00 0.  1.
       -3    1    3    3    0  502  0.64388252649E+03  0.11670169747E+04  0.42784642920E+03  0.13998449572E+04  0.10100000352E+00 0. -1.
</event>
<event>
 5   0  0.7071012E-06  0.3180934E+04  0.7818609E-02  0.8193871E-01
       -2   -1    0    0    0  501  0.00000000000E+00  0.00000000000E+00  0.90609867516E+03  0.90609867516E+03  0.25500000920E-02 0.  1.
        2   -1    0    0  501    0  0.00000000000E+00  0.00000000000E+00 -0.27917333602E+04  0.27917333602E+04  0.25500000920E-02 0. -1.
    10030    2    1    2    0    0  0.00000000000E+00  0.00000000000E+00 -0.18856346850E+04  0.36978320353E+04  0.31809343904E+04 0.  0.
        1    1    3    3  502    0  0.51130556682E+03 -0.11207944365E+04  0.22661955339E+03  0.12525853158E+04  0.50400001928E-02 0.  1.
       -1    1    3    3    0  502 -0.51130556682E+03  0.11207944365E+04 -0.21122542384E+04  0.24452467195E+04  0.50400001928E-02 0. -1.
</event>
<event>
 5   0  0.7094341E-06  0.3083667E+04  0.7818609E-02  0.8220235E-01
        2   -1    0    0  501    0  0.00000000000E+00  0.00000000000E+00  0.17471944112E+04  0.17471944112E+04  0.25500000920E-02 0. -1.
       -2   -1    0    0    0  501  0.00000000000E+00  0.00000000000E+00 -0.13606101518E+04  0.13606101518E+04  0.25500000920E-02 0.  1.
    10030    2    1    2    0    0  0.00000000000E+00  0.00000000000E+00  0.38658425936E+03  0.31078045629E+04  0.30836669424E+04 0.  0.
        3    1    3    3  502    0  0.13427308736E+04  0.69123290817E+03 -0.11981852062E+03  0.15149539994E+04  0.10100000352E+00 0. -1.
       -3    1    3    3    0  502 -0.13427308736E+04 -0.69123290817E+03  0.50640277999E+03  0.15928505636E+04  0.10100000352E+00 0.  1.
</event>
<event>
 5   0  0.2612331E-06  0.2693830E+04  0.7818609E-02  0.8337010E-01
       -1   -1    0    0    0  501  0.00000000000E+00  0.00000000000E+00  0.12308313026E+04  0.12308313026E+04  0.50400001928E-02 0. -1.
        1   -1    0    0  501    0  0.00000000000E+00  0.00000000000E+00 -0.14739469516E+04  0.14739469517E+04  0.50400001928E-02 0.  1.
    10030    2    1    2    0    0  0.00000000000E+00  0.00000000000E+00 -0.24311564903E+03  0.27047782543E+04  0.26938300217E+04 0.  0.
        4    1    3    3  502    0 -0.63573829744E+03 -0.98771751076E+03  0.54023349532E+03  0.12929048326E+04  0.12699999809E+01 0. -1.
       -4    1    3    3    0  502  0.63573829744E+03  0.98771751076E+03 -0.78334914435E+03  0.14118734216E+04  0.12699999809E+01 0.  1.
</event>
<event>
 5   0  0.2612331E-06  0.3134819E+04  0.7818609E-02  0.8206247E-01
       -1   -1    0    0    0  501  0.00000000000E+00  0.00000000000E+00  0.15458709488E+04  0.15458709488E+04  0.50400001928E-02 0.  1.
        1   -1    0    0  501    0  0.00000000000E+00  0.00000000000E+00 -0.15892479377E+04  0.15892479377E+04  0.50400001928E-02 0. -1.
    10030    2    1    2    0    0  0.00000000000E+00  0.00000000000E+00 -0.43376988838E+02  0.31351188865E+04  0.31348187937E+04 0.  0.
        4    1    3    3  502    0  0.14017889249E+04  0.64781440799E+03 -0.29021914663E+03  0.15712747892E+04  0.12699999809E+01 0.  1.
       -4    1    3    3    0  502 -0.14017889249E+04 -0.64781440799E+03  0.24684215779E+03  0.15638440974E+04  0.12699999809E+01 0. -1.
</event>
<event>
 5   0  0.2624011E-06  0.3116981E+04  0.7818609E-02  0.8211093E-01
       -1   -1    0    0    0  501  0.00000000000E+00  0.00000000000E+00  0.15371379251E+04  0.15371379252E+04  0.50400001928E-02 0. -1.
        1   -1    0    0  501    0  0.00000000000E+00  0.00000000000E+00 -0.15801397068E+04  0.15801397068E+04  0.50400001928E-02 0.  1.
    10030    2    1    2    0    0  0.00000000000E+00  0.00000000000E+00 -0.43001781674E+02  0.31172776320E+04  0.31169810204E+04 0.  0.
        1    1    3    3  502    0 -0.88732932835E+03 -0.10006821723E+04  0.77868431713E+03  0.15476005340E+04  0.50400001928E-02 0. -1.
       -1    1    3    3    0  502  0.88732932835E+03  0.10006821723E+04 -0.82168609880E+03  0.15696770980E+04  0.50400001928E-02 0.  1.
</event>
<event>
 5   0  0.7079223E-06  0.3100753E+04  0.7818609E-02  0.8215531E-01
       -2   -1    0    0    0  501  0.00000000000E+00  0.00000000000E+00  0.13303883835E+04  0.13303883835E+04  0.25500000920E-02 0. -1.
        2   -1    0    0  501    0  0.00000000000E+00  0.00000000000E+00 -0.18067414274E+04  0.18067414274E+04  0.25500000920E-02 0.  1.
    10030    2    1    2    0    0  0.00000000000E+00  0.00000000000E+00 -0.47635304389E+03  0.31371298109E+04  0.31007533324E+04 0.  0.
        5    1    3    3  502    0  0.91031474505E+03  0.49944036117E+03 -0.14030007533E+04  0.17454359952E+04  0.46999998093E+01 0.  1.
       -5    1    3    3    0  502 -0.91031474505E+03 -0.49944036117E+03  0.92664770945E+03  0.13916938158E+04  0.46999998093E+01 0. -1.
</event>
<event>
 5   0  0.2624011E-06  0.3126075E+04  0.7818609E-02  0.8208618E-01
        1   -1    0    0  501    0  0.00000000000E+00  0.00000000000E+00  0.12849207864E+04  0.12849207864E+04  0.50400001928E-02 0. -1.
       -1   -1    0    0    0  501  0.00000000000E+00  0.00000000000E+00 -0.19013513473E+04  0.19013513473E+04  0.50400001928E-02 0.  1.
    10030    2    1    2    0    0  0.00000000000E+00  0.00000000000E+00 -0.61643056087E+03  0.31862721337E+04  0.31260747709E+04 0.  0.
        1    1    3    3  502    0  0.99911642487E+03  0.31882237427E+03 -0.14894999778E+04  0.18216727260E+04  0.50400001928E-02 0.  1.
       -1    1    3    3    0  502 -0.99911642487E+03 -0.31882237427E+03  0.87306941689E+03  0.13645994077E+04  0.50400001928E-02 0. -1.
</event>
<event>
 5   0  0.2393250E-06  0.2851787E+04  0.7818609E-02  0.8287369E-01
       -3   -1    0    0    0  501  0.00000000000E+00  0.00000000000E+00  0.16088462044E+04  0.16088462076E+04  0.10100000352E+00 0. -1.
        3   -1    0    0  501    0  0.00000000000E+00  0.00000000000E+00 -0.12637455869E+04  0.12637455909E+04  0.10100000352E+00 0.  1.
    10030    2    1    2    0    0  0.00000000000E+00  0.00000000000E+00  0.34510061750E+03  0.28725917985E+04  0.28517870195E+04 0.  0.
        5    1    3    3  502    0  0.52597147877E+03 -0.39866414383E+03 -0.11006212492E+04  0.12833426356E+04  0.46999998093E+01 0.  1.
       -5    1    3    3    0  502 -0.52597147877E+03  0.39866414383E+03  0.14457218667E+04  0.15892491630E+04  0.46999998093E+01 0. -1.
</event>
<event>
 5   0  0.7079223E-06  0.3098198E+04  0.7818609E-02  0.8216233E-01
        2   -1    0    0  501    0  0.00000000000E+00  0.00000000000E+00  0.16674005607E+04  0.16674005607E+04  0.25500000920E-02 0.  1.
       -2   -1    0    0    0  501  0.00000000000E+00  0.00000000000E+00 -0.14391908890E+04  0.14391908890E+04  0.25500000920E-02 0. -1.
    10030    2    1    2    0    0  0.00000000000E+00  0.00000000000E+00  0.22820967164E+03  0.31065914497E+04  0.30981979893E+04 0.  0.
        5    1    3    3  502    0 -0.11919089460E+04 -0.60412858371E+03  0.89985226537E+03  0.16110165954E+04  0.46999998093E+01 0.  1.
       -5    1    3    3    0  502  0.11919089460E+04  0.60412858371E+03 -0.67164259373E+03  0.14955748543E+04  0.46999998093E+01 0. -1.
</event>
<event>
 5   0  0.7071012E-06  0.3010432E+04  0.7818609E-02  0.8240758E-01
       -2   -1    0    0    0  501  0.00000000000E+00  0.00000000000E+00  0.10188470710E+04  0.10188470710E+04  0.25500000920E-02 0. -1.
        2   -1    0    0  501    0  0.00000000000E+00  0.00000000000E+00 -0.22237635949E+04  0.22237635949E+04  0.25500000920E-02 0.  1.
    10030    2    1    2    0    0  0.00000000000E+00  0.00000000000E+00 -0.12049165239E+04  0.32426106659E+04  0.30104318794E+04 0.  0.
        1    1    3    3  502    0 -0.48691642874E+03  0.10116491963E+04 -0.16823548234E+04  0.20225823733E+04  0.50400001928E-02 0.  1.
       -1    1    3    3    0  502  0.48691642874E+03 -0.10116491963E+04  0.47743829947E+03  0.12200282926E+04  0.50400001928E-02 0. -1.
</event>
<event>
 5   0  0.7363513E-06  0.3205012E+04  0.7818609E-02  0.8187495E-01
       -2   -1    0    0    0  501  0.00000000000E+00  0.00000000000E+00  0.18577319056E+04  0.18577319056E+04  0.25500000920E-02 0. -1.
        2   -1    0    0  501    0  0.00000000000E+00  0.00000000000E+00 -0.13823442278E+04  0.13823442278E+04  0.25500000920E-02 0.  1.
    10030    2    1    2    0    0  0.00000000000E+00  0.00000000000E+00  0.47538767782E+03  0.32400761334E+04  0.32050116858E+04 0.  0.
        4    1    3    3  502    0 -0.60205026629E+02  0.15561622240E+04 -0.14427294542E+03  0.15639954630E+04  0.12699999809E+01 0. -1.
       -4    1    3    3    0  502  0.60205026629E+02 -0.15561622240E+04  0.61966062324E+03  0.16760806704E+04  0.12699999809E+01 0.  1.
</event>
<event>
 5   0  0.7079223E-06  0.3150278E+04  0.7818609E-02  0.8202074E-01
       -2   -1    0    0    0  501  0.00000000000E+00  0.00000000000E+00  0.90140840069E+03  0.90140840070E+03  0.25500000920E-02 0. -1.
        2   -1    0    0  501    0  0.00000000000E+00  0.00000000000E+00 -0.27524287027E+04  0.27524287027E+04  0.25500000920E-02 0.  1.
    10030    2    1    2    0    0  0.00000000000E+00  0.00000000000E+00 -0.18510203020E+04  0.36538371034E+04  0.31502776734E+04 0.  0.
        5    1    3    3  502    0  0.10848365346E+03 -0.15712897854E+04 -0.94625720275E+03  0.18374289310E+04  0.46999998093E+01 0.  1.
       -5    1    3    3    0  502 -0.10848365346E+03  0.15712897854E+04 -0.90476309927E+03  0.18164081724E+04  0.46999998093E+01 0. -1.
</event>
<event>
 5   0  0.2612331E-06  0.3203698E+04  0.7818609E-02  0.8187841E-01
        1   -1    0    0  501    0  0.00000000000E+00  0.00000000000E+00  0.16751339625E+04  0.16751339625E+04  0.50400001928E-02 0.  1.
       -1   -1    0    0    0  501  0.00000000000E+00  0.00000000000E+00 -0.15317700173E+04  0.15317700173E+04  0.50400001928E-02 0. -1.
    10030    2    1    2    0    0  0.00000000000E+00  0.00000000000E+00  0.14336394521E+03  0.32069039798E+04  0.32036978501E+04 0.  0.
        4    1    3    3  502    0 -0.62229534929E+03  0.80756974989E+03  0.13084336879E+04  0.16587407064E+04  0.12699999809E+01 0.  1.
       -4    1    3    3    0  502  0.62229534929E+03 -0.80756974989E+03 -0.11650697427E+04  0.15481632733E+04  0.12699999809E+01 0. -1.
</event>
<event>
 5   0  0.7071012E-06  0.3077708E+04  0.7818609E-02  0.8221882E-01
       -2   -1    0    0    0  501  0.00000000000E+00  0.00000000000E+00  0.11543364470E+04  0.11543364470E+04  0.25500000920E-02 0. -1.
        2   -1    0    0  501    0  0.00000000000E+00  0.00000000000E+00 -0.20514572849E+04  0.20514572849E+04  0.25500000920E-02 0.  1.
    10030    2    1    2    0    0  0.00000000000E+00  0.00000000000E+00 -0.89712083793E+03  0.32057937319E+04  0.30777081820E+04 0.  0.
        1    1    3    3  502    0 -0.90463091403E+03 -0.23525595103E+03 -0.17218791509E+04  0.19592269555E+04  0.50400001928E-02 0.  1.
       -1    1    3    3    0  502  0.90463091403E+03  0.23525595103E+03  0.82475831293E+03  0.12465667763E+04  0.50400001928E-02 0. -1.
</event>
<event>
 5   0  0.2612331E-06  0.3068522E+04  0.7818609E-02  0.8224430E-01
        1   -1    0    0  501    0  0.00000000000E+00  0.00000000000E+00  0.25814963894E+04  0.25814963894E+04  0.50400001928E-02 0.  1.
       -1   -1    0    0    0  501  0.00000000000E+00  0.00000000000E+00 -0.91185776596E+03  0.91185776598E+03  0.50400001928E-02 0. -1.
    10030    2    1    2    0    0  0.00000000000E+00  0.00000000000E+00  0.16696386234E+04  0.34933541553E+04  0.30685224656E+04 0.  0.
        4    1    3    3  502    0 -0.15069832422E+04  0.12260042833E+02  0.50721686217E+03  0.15901004242E+04  0.12699999809E+01 0. -1.
       -4    1    3    3    0  502  0.15069832422E+04 -0.12260042833E+02  0.11624217612E+04  0.19032537311E+04  0.12699999809E+01 0.  1.
</event>
<event>
 5   0  0.2598987E-06  0.3105661E+04  0.7818609E-02  0.8214186E-01
       -1   -1    0    0    0  501  0.00000000000E+00  0.00000000000E+00  0.18430758139E+04  0.18430758139E+04  0.50400001928E-02 0.  1.
        1   -1    0    0  501    0  0.00000000000E+00  0.00000000000E+00 -0.13082929342E+04  0.13082929342E+04  0.50400001928E-02 0. -1.
    10030    2    1    2    0    0  0.00000000000E+00  0.00000000000E+00  0.53478287971E+03  0.31513687481E+04  0.31056613238E+04 0.  0.
        2    1    3    3  502    0 -0.48160682276E+03 -0.49448561565E+03 -0.11440589838E+04  0.13361632064E+04  0.25500000920E-02 0. -1.
       -2    1    3    3    0  502  0.48160682276E+03  0.49448561565E+03  0.16788418635E+04  0.18152055417E+04  0.25500000920E-02 0.  1.
</event>
<event>
 5   0  0.2598987E-06  0.2003648E+04  0.7818609E-02  0.8604917E-01
        1   -1    0    0  501    0  0.00000000000E+00  0.00000000000E+00  0.15070700329E+04  0.15070700329E+04  0.50400001928E-02 0. -1.
       -1   -1    0    0    0  501  0.00000000000E+00  0.00000000000E+00 -0.66596218221E+03  0.66596218223E+03  0.50400001928E-02 0.  1.
    10030    2    1    2    0    0  0.00000000000E+00  0.00000000000E+00  0.84110785067E+03  0.21730322151E+04  0.20036483203E+04 0.  0.
        2    1    3    3  502    0 -0.62070576934E+02 -0.58311049213E+03  0.13014903865E+04  0.14274970504E+04  0.25500000920E-02 0. -1.
       -2    1    3    3    0  502  0.62070576934E+02  0.58311049213E+03 -0.46038253586E+03  0.74553516476E+03  0.25500000920E-02 0.  1.
</event>
<event>
 5   0  0.2624011E-06  0.3091484E+04  0.7818609E-02  0.8218079E-01
        1   -1    0    0  501    0  0.00000000000E+00  0.00000000000E+00  0.14170530911E+04  0.14170530911E+04  0.50400001928E-02 0.  1.
       -1   -1    0    0    0  501  0.00000000000E+00  0.00000000000E+00 -0.16861182148E+04  0.16861182149E+04  0.50400001928E-02 0. -1.
    10030    2    1    2    0    0  0.00000000000E+00  0.00000000000E+00 -0.26906512375E+03  0.31031713060E+04  0.30914844514E+04 0.  0.
        1    1    3    3  502    0  0.13341136931E+04  0.72993554082E+03 -0.41244340772E+03  0.15756823298E+04  0.50400001928E-02 0. -1.
       -1    1    3    3    0  502 -0.13341136931E+04 -0.72993554082E+03  0.14337828397E+03  0.15274889761E+04  0.50400001928E-02 0.  1.
</event>
<event>
 5   0  0.2612331E-06  0.2114327E+04  0.7818609E-02  0.8554958E-01
        1   -1    0    0  501    0  0.00000000000E+00  0.00000000000E+00  0.11398368173E+04  0.11398368173E+04  0.50400001928E-02 0.  1.
       -1   -1    0    0    0  501  0.00000000000E+00  0.00000000000E+00 -0.98048632804E+03  0.98048632805E+03  0.50400001928E-02 0. -1.
    10030    2    1    2    0    0  0.00000000000E+00  0.00000000000E+00  0.15935048921E+03  0.21203231453E+04  0.21143267633E+04 0.  0.
        4    1    3    3  502    0  0.20529012380E+03 -0.41910226066E+03 -0.87159396348E+03  0.98867001062E+03  0.12699999809E+01 0. -1.
       -4    1    3    3    0  502 -0.20529012380E+03  0.41910226066E+03  0.10309444527E+04  0.11316531347E+04  0.12699999809E+01 0.  1.
</event>
<event>
 5   0  0.7363513E-06  0.3036316E+04  0.7818609E-02  0.8233436E-01
        2   -1    0    0  501    0  0.00000000000E+00  0.00000000000E+00  0.19561177942E+04  0.19561177942E+04  0.25500000920E-02 0.  1.
       -2   -1    0    0    0  501  0.00000000000E+00  0.00000000000E+00 -0.11782537913E+04  0.11782537913E+04  0.25500000920E-02 0. -1.
    10030    2    1    2    0    0  0.00000000000E+00  0.00000000000E+00  0.77786400285E+03  0.31343715855E+04  0.30363156669E+04 0.  0.
        4    1    3    3  502    0  0.89411262864E+03  0.20182668554E+03  0.16382343377E+04  0.18772279462E+04  0.12699999809E+01 0.  1.
       -4    1    3    3    0  502 -0.89411262864E+03 -0.20182668554E+03 -0.86037033490E+03  0.12571436393E+04  0.12699999809E+01 0. -1.
</event>
<event>
 5   0  0.7363513E-06  0.2894648E+04  0.7818609E-02  0.8274472E-01
       -2   -1    0    0    0  501  0.00000000000E+00  0.00000000000E+00  0.96179475734E+03  0.96179475734E+03  0.25500000920E-02 0.  1.
        2   -1    0    0  501    0  0.00000000000E+00  0.00000000000E+00 -0.21779558149E+04  0.21779558149E+04  0.25500000920E-02 0. -1.
    10030    2    1    2    0    0  0.00000000000E+00  0.00000000000E+00 -0.12161610576E+04  0.31397505723E+04  0.28946478090E+04 0.  0.
        4    1    3    3  502    0  0.58739588401E+03  0.78532664161E+03 -0.17626211033E+04  0.20170787355E+04  0.12699999809E+01 0. -1.
       -4    1    3    3    0  502 -0.58739588401E+03 -0.78532664161E+03  0.54646004571E+03  0.11226718368E+04  0.12699999809E+01 0.  1.
</event>
<event>
 5   0  0.2517725E-06  0.2159337E+04  0.7818609E-02  0.8535546E-01
        1   -1    0    0  501    0  0.00000000000E+00  0.00000000000E+00  0.55422021873E+03  0.55422021875E+03  0.50400001928E-02 0.  1.
       -1   -1    0    0    0  501  0.00000000000E+00  0.00000000000E+00 -0.21032869580E+04  0.21032869580E+04  0.50400001928E-02 0. -1.
    10030    2    1    2    0    0  0.00000000000E+00  0.00000000000E+00 -0.15490667392E+04  0.26575071767E+04  0.21593370816E+04 0.  0.
        3    1    3    3  502    0 -0.10712631534E+03  0.57089787022E+03 -0.18945992463E+04  0.19816424349E+04  0.10100000352E+00 0. -1.
       -3    1    3    3    0  502  0.10712631534E+03 -0.57089787022E+03  0.34553250701E+03  0.67586474184E+03  0.10100000352E+00 0.  1.
</event>
<event>
 5   0  0.7414808E-06  0.3088542E+04  0.7818609E-02  0.8218889E-01
        2   -1    0    0  501    0  0.00000000000E+00  0.00000000000E+00  0.12866921043E+04  0.12866921043E+04  0.25500000920E-02 0.  1.
       -2   -1    0    0    0  501  0.00000000000E+00  0.00000000000E+00 -0.18534141866E+04  0.18534141866E+04  0.25500000920E-02 0. -1.
    10030    2    1    2    0    0  0.00000000000E+00  0.00000000000E+00 -0.56672208228E+03  0.31401062910E+04  0.30885423099E+04 0.  0.
        2    1    3    3  502    0 -0.42954515910E+03 -0.48084306844E+03 -0.17100182664E+04  0.18275342873E+04  0.25500000920E-02 0. -1.
       -2    1    3    3    0  502  0.42954515910E+03  0.48084306844E+03  0.11432961841E+04  0.13125720036E+04  0.25500000920E-02 0.  1.
</event>
<event>
 5   0  0.2674441E-06  0.3074134E+04  0.7818609E-02  0.8222873E-01
       -1   -1    0    0    0  501  0.00000000000E+00  0.00000000000E+00  0.19377756512E+04  0.19377756513E+04  0.50400001928E-02 0. -1.
        1   -1    0    0  501    0  0.00000000000E+00  0.00000000000E+00 -0.12192197687E+04  0.12192197687E+04  0.50400001928E-02 0.  1.
    10030    2    1    2    0    0  0.00000000000E+00  0.00000000000E+00  0.71855588259E+03  0.31569954199E+04  0.30741336219E+04 0.  0.
        5    1    3    3  502    0  0.49897718838E+03 -0.83067786468E+02 -0.11312834161E+04  0.12392347434E+04  0.46999998093E+01 0.  1.
       -5    1    3    3    0  502 -0.49897718838E+03  0.83067786468E+02  0.18498392987E+04  0.19177606766E+04  0.46999998093E+01 0. -1.
</event>
<event>
 5   0  0.7071012E-06  0.3007592E+04  0.7818609E-02  0.8241566E-01
       -2   -1    0    0    0  501  0.00000000000E+00  0.00000000000E+00  0.17626120861E+04  0.17626120861E+04  0.25500000920E-02 0. -1.
        2   -1    0    0  501    0  0.00000000000E+00  0.00000000000E+00 -0.12829838115E+04  0.12829838115E+04  0.25500000920E-02 0.  1.
    10030    2    1    2    0    0  0.00000000000E+00  0.00000000000E+00  0.47962827461E+03  0.30455958975E+04  0.30075922412E+04 0.  0.
        1    1    3    3  502    0 -0.10866611159E+04  0.94090943957E+03  0.68727985032E+03  0.15932660000E+04  0.50400001928E-02 0. -1.
       -1    1    3    3    0  502  0.10866611159E+04 -0.94090943957E+03 -0.20765157571E+03  0.14523298975E+04  0.50400001928E-02 0.  1.
</event>
<event>
 5   0  0.7363513E-06  0.3126739E+04  0.7818609E-02  0.8208438E-01
       -2   -1    0    0    0  501  0.00000000000E+00  0.00000000000E+00  0.14315455501E+04  0.14315455501E+04  0.25500000920E-02 0. -1.
        2   -1    0    0  501    0  0.00000000000E+00  0.00000000000E+00 -0.17073321656E+04  0.17073321656E+04  0.25500000920E-02 0.  1.
    10030    2    1    2    0    0  0.00000000000E+00  0.00000000000E+00 -0.27578661552E+03  0.31388777157E+04  0.31267387254E+04 0.  0.
        4    1    3    3  502    0 -0.14829398738E+04  0.38740490192E+03 -0.44719484846E+03  0.15966145661E+04  0.12699999809E+01 0.  1.
       -4    1    3    3    0  502  0.14829398738E+04 -0.38740490192E+03  0.17140823294E+03  0.15422631496E+04  0.12699999809E+01 0. -1.
</event>
<event>
 5   0  0.2517725E-06  0.3173145E+04  0.7818609E-02  0.8195946E-01
       -1   -1    0    0    0  501  0.00000000000E+00  0.00000000000E+00  0.16163674701E+04  0.16163674701E+04  0.50400001928E-02 0. -1.
        1   -1    0    0  501    0  0.00000000000E+00  0.00000000000E+00 -0.15573271973E+04  0.15573271973E+04  0.50400001928E-02 0.  1.
    10030    2    1    2    0    0  0.00000000000E+00  0.00000000000E+00  0.59040272735E+02  0.31736946674E+04  0.31731454565E+04 0.  0.
        3    1    3    3  502    0  0.48992211789E+03  0.69994244779E+03 -0.13075993939E+04  0.15619728861E+04  0.10100000352E+00 0.  1.
       -3    1    3    3    0  502 -0.48992211789E+03 -0.69994244779E+03  0.13666396666E+04  0.16117217813E+04  0.10100000352E+00 0. -1.
</event>
<event>
 5   0  0.7363513E-06  0.3201377E+04  0.7818609E-02  0.8188454E-01
       -2   -1    0    0    0  501  0.00000000000E+00  0.00000000000E+00  0.10668732836E+04  0.10668732836E+04  0.25500000920E-02 0. -1.
        2   -1    0    0  501    0  0.00000000000E+00  0.00000000000E+00 -0.24016008650E+04  0.24016008651E+04  0.25500000920E-02 0.  1.
    10030    2    1    2    0    0  0.00000000000E+00  0.00000000000E+00 -0.13347275815E+04  0.34684741486E+04  0.32013770791E+04 0.  0.
        4    1    3    3  502    0 -0.24342587121E+03 -0.33721480860E+03 -0.23420398464E+04  0.23786807766E+04  0.12699999809E+01 0.  1.
       -4    1    3    3    0  502  0.24342587121E+03  0.33721480860E+03  0.10073122649E+04  0.10897933721E+04  0.12699999809E+01 0. -1.
</event>
<event>
 5   0  0.7079223E-06  0.3034143E+04  0.7818609E-02  0.8234048E-01
       -2   -1    0    0    0  501  0.00000000000E+00  0.00000000000E+00  0.96411686926E+03  0.96411686927E+03  0.25500000920E-02 0. -1.
        2   -1    0    0  501    0  0.00000000000E+00  0.00000000000E+00 -0.23871652258E+04  0.23871652258E+04  0.25500000920E-02 0.  1.
    10030    2    1    2    0    0  0.00000000000E+00  0.00000000000E+00 -0.14230483566E+04  0.33512820951E+04  0.30341432161E+04 0.  0.
        5    1    3    3  502    0  0.40957940885E+03 -0.50325608202E+03 -0.22261564768E+04  0.23187963959E+04  0.46999998093E+01 0.  1.
       -5    1    3    3    0  502 -0.40957940885E+03  0.50325608202E+03  0.80310812027E+03  0.10324856992E+04  0.46999998093E+01 0. -1.
</event>
<event>
 5   0  0.7071012E-06  0.3102609E+04  0.7818609E-02  0.8215022E-01
        2   -1    0    0  501    0  0.00000000000E+00  0.00000000000E+00  0.20028538753E+04  0.20028538753E+04  0.25500000920E-02 0. -1.
       -2   -1    0    0    0  501  0.00000000000E+00  0.00000000000E+00 -0.12015584774E+04  0.12015584774E+04  0.25500000920E-02 0.  1.
    10030    2    1    2    0    0  0.00000000000E+00  0.00000000000E+00  0.80129539790E+03  0.32044123527E+04  0.31026092585E+04 0.  0.
        1    1    3    3  502    0  0.11200322065E+04  0.18524907015E+03 -0.69128268866E+03  0.13291580483E+04  0.50400001928E-02 0.  1.
       -1    1    3    3    0  502 -0.11200322065E+04 -0.18524907015E+03  0.14925780866E+04  0.18752543044E+04  0.50400001928E-02 0. -1.
</event>
<event>
 5   0  0.2612331E-06  0.3238793E+04  0.7818609E-02  0.8178646E-01
       -1   -1    0    0    0  501  0.00000000000E+00  0.00000000000E+00  0.15808315257E+04  0.15808315257E+04  0.50400001928E-02 0. -1.
        1   -1    0    0  501    0  0.00000000000E+00  0.00000000000E+00 -0.16589026436E+04  0.16589026436E+04  0.50400001928E-02 0.  1.
    10030    2    1    2    0    0  0.00000000000E+00  0.00000000000E+00 -0.78071117943E+02  0.32397341693E+04  0.32387933537E+04 0.  0.
        4    1    3    3  502    0  0.31445536977E+03  0.85894463204E+03  0.12976818946E+04  0.15876548658E+04  0.12699999809E+01 0. -1.
       -4    1    3    3    0  502 -0.31445536977E+03 -0.85894463204E+03 -0.13757530126E+04  0.16520793035E+04  0.12699999809E+01 0.  1.
</event>
<event>
 5   0  0.7071012E-06  0.3124626E+04  0.7818609E-02  0.8209012E-01
       -2   -1    0    0    0  501  0.00000000000E+00  0.00000000000E+00  0.11502493049E+04  0.11502493049E+04  0.25500000920E-02 0.  1.
        2   -1    0    0  501    0  0.00000000000E+00  0.00000000000E+00 -0.21219932203E+04  0.21219932203E+04  0.25500000920E-02 0. -1.
    10030    2    1    2    0    0  0.00000000000E+00  0.00000000000E+00 -0.97174391533E+03  0.32722425252E+04  0.31246255626E+04 0.  0.
        1    1    3    3  502    0 -0.10026971271E+04 -0.80197897355E+03 -0.14180062143E+04  0.19129331997E+04  0.50400001928E-02 0.  1.
       -1    1    3    3    0  502  0.10026971271E+04  0.80197897355E+03  0.44626229900E+03  0.13593093255E+04  0.50400001928E-02 0. -1.
</event>
<event>
 5   0  0.2598987E-06  0.3128994E+04  0.7818609E-02  0.8207825E-01
       -1   -1    0    0    0  501  0.00000000000E+00  0.00000000000E+00  0.14745738149E+04  0.14745738149E+04  0.50400001928E-02 0.  1.
        1   -1    0    0  501    0  0.00000000000E+00  0.00000000000E+00 -0.16599043898E+04  0.16599043898E+04  0.50400001928E-02 0. -1.
    10030    2    1    2    0    0  0.00000000000E+00  0.00000000000E+00 -0.18533057490E+03  0.31344782047E+04  0.31289944381E+04 0.  0.
        2    1    3    3  502    0 -0.82057645022E+03 -0.13065875381E+04 -0.35222330707E+03  0.15825858471E+04  0.25500000920E-02 0. -1.
       -2    1    3    3    0  502  0.82057645022E+03  0.13065875381E+04  0.16689273217E+03  0.15518923576E+04  0.25500000920E-02 0.  1.
</event>
<event>
 5   0  0.7094341E-06  0.2971115E+04  0.7818609E-02  0.8252027E-01
       -2   -1    0    0    0  501  0.00000000000E+00  0.00000000000E+00  0.15298756012E+04  0.15298756012E+04  0.25500000920E-02 0.  1.
        2   -1    0    0  501    0  0.00000000000E+00  0.00000000000E+00 -0.14425235608E+04  0.14425235608E+04  0.25500000920E-02 0. -1.
    10030    2    1    2    0    0  0.00000000000E+00  0.00000000000E+00  0.87352040420E+02  0.29723991619E+04  0.29711153460E+04 0.  0.
        3    1    3    3  502    0 -0.74267377393E+03 -0.12768349472E+04 -0.11453709760E+03  0.14815500578E+04  0.10100000352E+00 0. -1.
       -3    1    3    3    0  502  0.74267377393E+03  0.12768349472E+04  0.20188913802E+03  0.14908491041E+04  0.10100000352E+00 0.  1.
</event>
<event>
 5   0  0.2612331E-06  0.3092472E+04  0.7818609E-02  0.8217807E-01
        1   -1    0    0  501    0  0.00000000000E+00  0.00000000000E+00  0.17619583381E+04  0.17619583381E+04  0.50400001928E-02 0. -1.
       -1   -1    0    0    0  501  0.00000000000E+00  0.00000000000E+00 -0.13569250354E+04  0.13569250354E+04  0.50400001928E-02 0.  1.
    10030    2    1    2    0    0  0.00000000000E+00  0.00000000000E+00  0.40503330270E+03  0.31188833736E+04  0.30924717495E+04 0.  0.
        4    1    3    3  502    0  0.72228202278E+03 -0.98962838342E+03  0.11538587013E+04  0.16829875737E+04  0.12699999809E+01 0. -1.
       -4    1    3    3    0  502 -0.72228202278E+03  0.98962838342E+03 -0.74882539859E+03  0.14358957999E+04  0.12699999809E+01 0.  1.
</event>
<event>
 5   0  0.2612331E-06  0.3037533E+04  0.7818609E-02  0.8233094E-01
        1   -1    0    0  501    0  0.00000000000E+00  0.00000000000E+00  0.20326922208E+04  0.20326922208E+04  0.50400001928E-02 0. -1.
       -1   -1    0    0    0  501  0.00000000000E+00  0.00000000000E+00 -0.11347768477E+04  0.11347768477E+04  0.50400001928E-02 0.  1.
    10030    2    1    2    0    0  0.00000000000E+00  0.00000000000E+00  0.89791537302E+03  0.31674690685E+04  0.30375332563E+04 0.  0.
        4    1    3    3  502    0 -0.57021735395E+02  0.11784998995E+04  0.14461799676E+04  0.18664274973E+04  0.12699999809E+01 0. -1.
       -4    1    3    3    0  502  0.57021735395E+02 -0.11784998995E+04 -0.54826459455E+03  0.13010415712E+04  0.12699999809E+01 0.  1.
</event>
<event>
 5   0  0.7071012E-06  0.2996012E+04  0.7818609E-02  0.8244870E-01
       -2   -1    0    0    0  501  0.00000000000E+00  0.00000000000E+00  0.22624860950E+04  0.22624860950E+04  0.25500000920E-02 0.  1.
        2   -1    0    0  501    0  0.00000000000E+00  0.00000000000E+00 -0.99183929944E+03  0.99183929944E+03  0.25500000920E-02 0. -1.
    10030    2    1    2    0    0  0.00000000000E+00  0.00000000000E+00  0.12706467956E+04  0.32543253944E+04  0.29960124322E+04 0.  0.
        1    1    3    3  502    0  0.10130362119E+04 -0.64311460350E+03 -0.33875753256E+03  0.12468341613E+04  0.50400001928E-02 0. -1.
       -1    1    3    3    0  502 -0.10130362119E+04  0.64311460350E+03  0.16094043281E+04  0.20074912332E+04  0.50400001928E-02 0.  1.
</event>
<event>
 5   0  0.7363513E-06  0.2919933E+04  0.7818609E-02  0.8266972E-01
       -2   -1    0    0    0  501  0.00000000000E+00  0.00000000000E+00  0.25744550956E+04  0.25744550956E+04  0.25500000920E-02 0. -1.
        2   -1    0    0  501    0  0.00000000000E+00  0.00000000000E+00 -0.82794281847E+03  0.82794281847E+03  0.25500000920E-02 0.  1.
    10030    2    1    2    0    0  0.00000000000E+00  0.00000000000E+00  0.17465122772E+04  0.34023979141E+04  0.29199326074E+04 0.  0.
        4    1    3    3  502    0  0.43970909819E+03  0.13102096409E+04  0.14216664497E+04  0.19827078709E+04  0.12699999809E+01 0. -1.
       -4    1    3    3    0  502 -0.43970909819E+03 -0.13102096409E+04  0.32484582744E+03  0.14196900432E+04  0.12699999809E+01 0.  1.
</event>
<event>
 5   0  0.2674441E-06  0.3128603E+04  0.7818609E-02  0.8207932E-01
       -1   -1    0    0    0  501  0.00000000000E+00  0.00000000000E+00  0.20076323464E+04  0.20076323464E+04  0.50400001928E-02 0. -1.
        1   -1    0    0  501    0  0.00000000000E+00  0.00000000000E+00 -0.12188678891E+04  0.12188678891E+04  0.50400001928E-02 0.  1.
    10030    2    1    2    0    0  0.00000000000E+00  0.00000000000E+00  0.78876445726E+03  0.32265002355E+04  0.31286026274E+04 0.  0.
        5    1    3    3  502    0  0.44921284431E+03  0.10889826492E+04 -0.66706696322E+03  0.13537635736E+04  0.46999998093E+01 0.  1.
       -5    1    3    3    0  502 -0.44921284431E+03 -0.10889826492E+04  0.14558314205E+04  0.18727366619E+04  0.46999998093E+01 0. -1.
</event>
<event>
 5   0  0.7071012E-06  0.3545095E+04  0.7818609E-02  0.8103185E-01
        2   -1    0    0  501    0  0.00000000000E+00  0.00000000000E+00  0.22086311191E+04  0.22086311191E+04  0.25500000920E-02 0.  1.
       -2   -1    0    0    0  501  0.00000000000E+00  0.00000000000E+00 -0.14225665241E+04  0.14225665241E+04  0.25500000920E-02 0. -1.
    10030    2    1    2    0    0  0.00000000000E+00  0.00000000000E+00  0.78606459499E+03  0.36311976432E+04  0.35450950307E+04 0.  0.
        1    1    3    3  502    0  0.14329762214E+04  0.30546912194E+03 -0.62879039813E+03  0.15943994482E+04  0.50400001928E-02 0. -1.
       -1    1    3    3    0  502 -0.14329762214E+04 -0.30546912194E+03  0.14148549931E+04  0.20367981950E+04  0.50400001928E-02 0.  1.
</event>
<event>
 5   0  0.7094341E-06  0.3094965E+04  0.7818609E-02  0.8217121E-01
        2   -1    0    0  501    0  0.00000000000E+00  0.00000000000E+00  0.26139846472E+04  0.26139846472E+04  0.25500000920E-02 0.  1.
       -2   -1    0    0    0  501  0.00000000000E+00  0.00000000000E+00 -0.91611155704E+03  0.91611155704E+03  0.25500000920E-02 0. -1.
    10030    2    1    2    0    0  0.00000000000E+00  0.00000000000E+00  0.16978730901E+04  0.35300962042E+04  0.30949646494E+04 0.  0.
        3    1    3    3  502    0  0.44884221437E+03 -0.10329570034E+04  0.20593861521E+04  0.23472389819E+04  0.10100000352E+00 0. -1.
       -3    1    3    3    0  502 -0.44884221437E+03  0.10329570034E+04 -0.36151306199E+03  0.11828572223E+04  0.10100000352E+00 0.  1.
</event>
<event>
 5   0  0.2624011E-06  0.3140104E+04  0.7818609E-02  0.8204817E-01
        1   -1    0    0  501    0  0.00000000000E+00  0.00000000000E+00  0.10497961860E+04  0.10497961860E+04  0.50400001928E-02 0. -1.
       -1   -1    0    0    0  501  0.00000000000E+00  0.00000000000E+00 -0.23481343748E+04  0.23481343748E+04  0.50400001928E-02 0.  1.
    10030    2    1    2    0    0  0.00000000000E+00  0.00000000000E+00 -0.12983381887E+04  0.33979305608E+04  0.31401035084E+04 0.  0.
        1    1    3    3  502    0 -0.80059331914E+03 -0.13505726504E+04 -0.64035378694E+03  0.16955969802E+04  0.50400001928E-02 0. -1.
       -1    1    3    3    0  502  0.80059331914E+03  0.13505726504E+04 -0.65798440179E+03  0.17023335806E+04  0.50400001928E-02 0.  1.
</event>
<event>
 5   0  0.2612331E-06  0.2994065E+04  0.7818609E-02  0.8245428E-01
        1   -1    0    0  501    0  0.00000000000E+00  0.00000000000E+00  0.99282773761E+03  0.99282773762E+03  0.50400001928E-02 0.  1.
       -1   -1    0    0    0  501  0.00000000000E+00  0.00000000000E+00 -0.22572959704E+04  0.22572959704E+04  0.50400001928E-02 0. -1.
    10030    2    1    2    0    0  0.00000000000E+00  0.00000000000E+00 -0.12644682328E+04  0.32501237080E+04  0.29940648299E+04 0.  0.
        4    1    3    3  502    0  0.86887494689E+03  0.80499641615E+03 -0.16260304117E+04  0.20117006278E+04  0.12699999809E+01 0. -1.
       -4    1    3    3    0  502 -0.86887494689E+03 -0.80499641615E+03  0.36156217893E+03  0.12384230802E+04  0.12699999809E+01 0.  1.
</event>
<event>
 5   0  0.2517725E-06  0.3103283E+04  0.7818609E-02  0.8214838E-01
        1   -1    0    0  501    0  0.00000000000E+00  0.00000000000E+00  0.13894874461E+04  0.13894874461E+04  0.50400001928E-02 0. -1.
       -1   -1    0    0    0  501  0.00000000000E+00  0.00000000000E+00 -0.17327185654E+04  0.17327185654E+04  0.50400001928E-02 0.  1.
    10030    2    1    2    0    0  0.00000000000E+00  0.00000000000E+00 -0.34323111929E+03  0.31222060116E+04  0.31032825810E+04 0.  0.
        3    1    3    3  502    0  0.56794097252E+03 -0.37778787283E+03  0.12305506971E+04  0.14069597199E+04  0.10100000352E+00 0. -1.
       -3    1    3    3    0  502 -0.56794097252E+03  0.37778787283E+03 -0.15737818164E+04  0.17152462916E+04  0.10100000352E+00 0.  1.
</event>
<event>
 5   0  0.2674441E-06  0.2970841E+04  0.7818609E-02  0.8252107E-01
       -1   -1    0    0    0  501  0.00000000000E+00  0.00000000000E+00  0.13142549095E+04  0.13142549095E+04  0.50400001928E-02 0. -1.
        1   -1    0    0  501    0  0.00000000000E+00  0.00000000000E+00 -0.16788783801E+04  0.16788783801E+04  0.50400001928E-02 0.  1.
    10030    2    1    2    0    0  0.00000000000E+00  0.00000000000E+00 -0.36462347061E+03  0.29931332897E+04  0.29708410618E+04 0.  0.
        5    1    3    3  502    0  0.13250502318E+04 -0.64139061057E+03 -0.38207212762E+03  0.15209014540E+04  0.46999998093E+01 0.  1.
       -5    1    3    3    0  502 -0.13250502318E+04  0.64139061057E+03  0.17448657008E+02  0.14722318356E+04  0.46999998093E+01 0. -1.
</event>
<event>
 5   0  0.2517725E-06  0.3093408E+04  0.7818609E-02  0.8217549E-01
       -1   -1    0    0    0  501  0.00000000000E+00  0.00000000000E+00  0.18460549603E+04  0.18460549603E+04  0.50400001928E-02 0. -1.
        1   -1    0    0  501    0  0.00000000000E+00  0.00000000000E+00 -0.12958952907E+04  0.12958952907E+04  0.50400001928E-02 0.  1.
    10030    2    1    2    0    0  0.00000000000E+00  0.00000000000E+00  0.55015966962E+03  0.31419502510E+04  0.30934084305E+04 0.  0.
        3    1    3    3  502    0 -0.62281894755E+03 -0.13955439933E+04  0.51724824890E+03  0.16133791370E+04  0.10100000352E+00 0. -1.
       -3    1    3    3    0  502  0.62281894755E+03  0.13955439933E+04  0.32911420720E+02  0.15285711140E+04  0.10100000352E+00 0.  1.
</event>
<event>
 5   0  0.7363513E-06  0.3092916E+04  0.7818609E-02  0.8217685E-01
        2   -1    0    0  501    0  0.00000000000E+00  0.00000000000E+00  0.21718379257E+04  0.21718379257E+04  0.25500000920E-02 0.  1.
       -2   -1    0    0    0  501  0.00000000000E+00  0.00000000000E+00 -0.11011562299E+04  0.11011562299E+04  0.25500000920E-02 0. -1.
    10030    2    1    2    0    0  0.00000000000E+00  0.00000000000E+00  0.10706816958E+04  0.32729941556E+04  0.30929163340E+04 0.  0.
        4    1    3    3  502    0 -0.61770745933E+03 -0.50983945411E+03  0.19352508343E+04  0.20944441217E+04  0.12699999809E+01 0.  1.
       -4    1    3    3    0  502  0.61770745933E+03  0.50983945411E+03 -0.86456913851E+03  0.11785500339E+04  0.12699999809E+01 0. -1.
</event>
<event>
 5   0  0.7071012E-06  0.3116163E+04  0.7818609E-02  0.8211316E-01
       -2   -1    0    0    0  501  0.00000000000E+00  0.00000000000E+00  0.11391752113E+04  0.11391752113E+04  0.25500000920E-02 0.  1.
        2   -1    0    0  501    0  0.00000000000E+00  0.00000000000E+00 -0.21310308169E+04  0.21310308169E+04  0.25500000920E-02 0. -1.
    10030    2    1    2    0    0  0.00000000000E+00  0.00000000000E+00 -0.99185560565E+03  0.32702060282E+04  0.31161626922E+04 0.  0.
        1    1    3    3  502    0  0.14312022854E+04 -0.13935463517E+02  0.15020578653E+03  0.14391302781E+04  0.50400001928E-02 0.  1.
       -1    1    3    3    0  502 -0.14312022854E+04  0.13935463517E+02 -0.11420613922E+04  0.18310757501E+04  0.50400001928E-02 0. -1.
</event>
<event>
 5   0  0.2598987E-06  0.3063280E+04  0.7818609E-02  0.8225888E-01
       -1   -1    0    0    0  501  0.00000000000E+00  0.00000000000E+00  0.13969150910E+04  0.13969150910E+04  0.50400001928E-02 0.  1.
        1   -1    0    0  501    0  0.00000000000E+00  0.00000000000E+00 -0.16793582098E+04  0.16793582098E+04  0.50400001928E-02 0. -1.
    10030    2    1    2    0    0  0.00000000000E+00  0.00000000000E+00 -0.28244311879E+03  0.30762733008E+04  0.30632798282E+04 0.  0.
        2    1    3    3  502    0 -0.11717371017E+03 -0.18972955947E+03  0.13805256680E+04  0.13984198597E+04  0.25500000920E-02 0.  1.
       -2    1    3    3    0  502  0.11717371017E+03  0.18972955947E+03 -0.16629687868E+04  0.16778534411E+04  0.25500000920E-02 0. -1.
</event>
<event>
 5   0  0.7079223E-06  0.3051559E+04  0.7818609E-02  0.8229159E-01
        2   -1    0    0  501    0  0.00000000000E+00  0.00000000000E+00  0.19714707490E+04  0.19714707490E+04  0.25500000920E-02 0. -1.
       -2   -1    0    0    0  501  0.00000000000E+00  0.00000000000E+00 -0.11808460227E+04  0.11808460227E+04  0.25500000920E-02 0.  1.
    10030    2    1    2    0    0  0.00000000000E+00  0.00000000000E+00  0.79062472634E+03  0.31523167717E+04  0.30515592033E+04 0.  0.
        5    1    3    3  502    0 -0.10053188023E+03 -0.10811982144E+04 -0.71193930803E+03  0.12984513491E+04  0.46999998093E+01 0.  1.
       -5    1    3    3    0  502  0.10053188023E+03  0.10811982144E+04  0.15025640344E+04  0.18538654226E+04  0.46999998093E+01 0. -1.
</event>
<event>
 5   0  0.2598987E-06  0.3138132E+04  0.7818609E-02  0.8205350E-01
        1   -1    0    0  501    0  0.00000000000E+00  0.00000000000E+00  0.16030479611E+04  0.16030479611E+04  0.50400001928E-02 0.  1.
       -1   -1    0    0    0  501  0.00000000000E+00  0.00000000000E+00 -0.15358048424E+04  0.15358048424E+04  0.50400001928E-02 0. -1.
    10030    2    1    2    0    0  0.00000000000E+00  0.00000000000E+00  0.67243118740E+02  0.31388528035E+04  0.31381324518E+04 0.  0.
        2    1    3    3  502    0  0.46268491874E+03  0.14815323605E+04 -0.19654721687E+03  0.15644955346E+04  0.25500000920E-02 0. -1.
       -2    1    3    3    0  502 -0.46268491874E+03 -0.14815323605E+04  0.26379033561E+03  0.15743572690E+04  0.25500000920E-02 0.  1.
</event>
<event>
 5   0  0.7414808E-06  0.2902167E+04  0.7818609E-02  0.8272233E-01
        2   -1    0    0  501    0  0.00000000000E+00  0.00000000000E+00  0.20796075404E+04  0.20796075404E+04  0.25500000920E-02 0.  1.
       -2   -1    0    0    0  501  0.00000000000E+00  0.00000000000E+00 -0.10125197246E+04  0.10125197246E+04  0.25500000920E-02 0. -1.
    10030    2    1    2    0    0  0.00000000000E+00  0.00000000000E+00  0.10670878158E+04  0.30921272650E+04  0.29021672275E+04 0.  0.
        2    1    3    3  502    0  0.96781998906E+02 -0.51896534196E+03  0.19736632390E+04  0.20430463437E+04  0.25500000920E-02 0.  1.
       -2    1    3    3    0  502 -0.96781998906E+02  0.51896534196E+03 -0.90657542323E+03  0.10490809213E+04  0.25500000920E-02 0. -1.
</event>
<event>
 5   0  0.7094341E-06  0.3078733E+04  0.7818609E-02  0.8221599E-01
        2   -1    0    0  501    0  0.00000000000E+00  0.00000000000E+00  0.22673128403E+04  0.22673128403E+04  0.25500000920E-02 0. -1.
       -2   -1    0    0    0  501  0.00000000000E+00  0.00000000000E+00 -0.10451353262E+04  0.10451353262E+04  0.25500000920E-02 0.  1.
    10030    2    1    2    0    0  0.00000000000E+00  0.00000000000E+00  0.12221775141E+04  0.33124481665E+04  0.30787326906E+04 0.  0.
        3    1    3    3  502    0  0.37406315552E+03 -0.21473436690E+03 -0.97879402789E+03  0.10696129449E+04  0.10100000352E+00 0.  1.
       -3    1    3    3    0  502 -0.37406315552E+03  0.21473436690E+03  0.22009715420E+04  0.22428352216E+04  0.10100000352E+00 0. -1.
</event>
<event>
 5   0  0.2393250E-06  0.1942762E+04  0.7818609E-02  0.8633859E-01
        3   -1    0    0  501    0  0.00000000000E+00  0.00000000000E+00  0.71238841827E+03  0.71238842543E+03  0.10100000352E+00 0. -1.
       -3   -1    0    0    0  501  0.00000000000E+00  0.00000000000E+00 -0.13245318463E+04  0.13245318501E+04  0.10100000352E+00 0.  1.
    10030    2    1    2    0    0  0.00000000000E+00  0.00000000000E+00 -0.61214342802E+03  0.20369202756E+04  0.19427621143E+04 0.  0.
        3    1    3    3  502    0  0.54316656329E+03 -0.76363968400E+03 -0.37931414656E+02  0.93787754258E+03  0.10100000352E+00 0.  1.
       -3    1    3    3    0  502 -0.54316656329E+03  0.76363968400E+03 -0.57421201336E+03  0.10990427330E+04  0.10100000352E+00 0. -1.
</event>
<event>
 5   0  0.7071012E-06  0.2760565E+04  0.7818609E-02  0.8315617E-01
       -2   -1    0    0    0  501  0.00000000000E+00  0.00000000000E+00  0.87131411471E+03  0.87131411471E+03  0.25500000920E-02 0.  1.
        2   -1    0    0  501    0  0.00000000000E+00  0.00000000000E+00 -0.21865592857E+04  0.21865592857E+04  0.25500000920E-02 0. -1.
    10030    2    1    2    0    0  0.00000000000E+00  0.00000000000E+00 -0.13152451710E+04  0.30578734004E+04  0.27605651366E+04 0.  0.
        1    1    3    3  502    0  0.13095379800E+04  0.13922235176E+03 -0.11155555583E+04  0.17259017319E+04  0.50400001928E-02 0. -1.
       -1    1    3    3    0  502 -0.13095379800E+04 -0.13922235176E+03 -0.19968961273E+03  0.13319716686E+04  0.50400001928E-02 0.  1.
</event>
<event>
 5   0  0.7363513E-06  0.3089160E+04  0.7818609E-02  0.8218719E-01
       -2   -1    0    0    0  501  0.00000000000E+00  0.00000000000E+00  0.29952473771E+04  0.29952473771E+04  0.25500000920E-02 0.  1.
        2   -1    0    0  501    0  0.00000000000E+00  0.00000000000E+00 -0.79650407157E+03  0.79650407158E+03  0.25500000920E-02 0. -1.
    10030    2    1    2    0    0  0.00000000000E+00  0.00000000000E+00  0.21987433056E+04  0.37917514487E+04  0.30891595823E+04 0.  0.
        4    1    3    3  502    0 -0.27681871330E+03  0.89389714375E+03 -0.40895143223E+03  0.10212363049E+04  0.12699999809E+01 0. -1.
       -4    1    3    3    0  502  0.27681871330E+03 -0.89389714375E+03  0.26076947378E+04  0.27705151438E+04  0.12699999809E+01 0.  1.
</event>
<event>
 5   0  0.2674441E-06  0.3080793E+04  0.7818609E-02  0.8221029E-01
        1   -1    0    0  501    0  0.00000000000E+00  0.00000000000E+00  0.17363754320E+04  0.17363754320E+04  0.50400001928E-02 0. -1.
       -1   -1    0    0    0  501  0.00000000000E+00  0.00000000000E+00 -0.13665372350E+04  0.13665372350E+04  0.50400001928E-02 0.  1.
    10030    2    1    2    0    0  0.00000000000E+00  0.00000000000E+00  0.36983819698E+03  0.31029126670E+04  0.30807931977E+04 0.  0.
        5    1    3    3  502    0  0.40946776521E+03 -0.82603145550E+03 -0.10579619000E+04  0.14033165317E+04  0.46999998093E+01 0.  1.
       -5    1    3    3    0  502 -0.40946776521E+03  0.82603145550E+03  0.14278000970E+04  0.16995961353E+04  0.46999998093E+01 0. -1.
</event>
<event>
 5   0  0.2612331E-06  0.2500697E+04  0.7818609E-02  0.8402737E-01
       -1   -1    0    0    0  501  0.00000000000E+00  0.00000000000E+00  0.96632387242E+03  0.96632387243E+03  0.50400001928E-02 0. -1.
        1   -1    0    0  501    0  0.00000000000E+00  0.00000000000E+00 -0.16178538935E+04  0.16178538935E+04  0.50400001928E-02 0.  1.
    10030    2    1    2    0    0  0.00000000000E+00  0.00000000000E+00 -0.65153002111E+03  0.25841777660E+04  0.25006965745E+04 0.  0.
        4    1    3    3  502    0 -0.81762144537E+03 -0.78262971393E+02 -0.12999660314E+04  0.15377071295E+04  0.12699999809E+01 0.  1.
       -4    1    3    3    0  502  0.81762144537E+03  0.78262971393E+02  0.64843601025E+03  0.10464706364E+04  0.12699999809E+01 0. -1.
</event>
<event>
 5   0  0.2674441E-06  0.2982074E+04  0.7818609E-02  0.8248868E-01
       -1   -1    0    0    0  501  0.00000000000E+00  0.00000000000E+00  0.30013936845E+04  0.30013936845E+04  0.50400001928E-02 0.  1.
        1   -1    0    0  501    0  0.00000000000E+00  0.00000000000E+00 -0.74071990612E+03  0.74071990614E+03  0.50400001928E-02 0. -1.
    10030    2    1    2    0    0  0.00000000000E+00  0.00000000000E+00  0.22606737784E+04  0.37421135906E+04  0.29820744781E+04 0.  0.
        5    1    3    3  502    0 -0.30472084089E+03  0.13881462082E+04  0.16962332177E+04  0.22129242882E+04  0.46999998093E+01 0.  1.
       -5    1    3    3    0  502  0.30472084089E+03 -0.13881462082E+04  0.56444056066E+03  0.15291893025E+04  0.46999998093E+01 0. -1.
</event>
<event>
 5   0  0.7094341E-06  0.2291566E+04  0.7818609E-02  0.8481254E-01
        2   -1    0    0  501    0  0.00000000000E+00  0.00000000000E+00  0.11995566652E+04  0.11995566652E+04  0.25500000920E-02 0.  1.
       -2   -1    0    0    0  501  0.00000000000E+00  0.00000000000E+00 -0.10944202360E+04  0.10944202360E+04  0.25500000920E-02 0. -1.
    10030    2    1    2    0    0  0.00000000000E+00  0.00000000000E+00  0.10513642924E+03  0.22939769012E+04  0.22915663539E+04 0.  0.
        3    1    3    3  502    0  0.38553334224E+03  0.10641129572E+04 -0.12607604244E+03  0.11388009142E+04  0.10100000352E+00 0. -1.
       -3    1    3    3    0  502 -0.38553334224E+03 -0.10641129572E+04  0.23121247168E+03  0.11551759869E+04  0.10100000352E+00 0.  1.
</event>
<event>
 5   0  0.7414808E-06  0.3111194E+04  0.7818609E-02  0.8212672E-01
        2   -1    0    0  501    0  0.00000000000E+00  0.00000000000E+00  0.24206620679E+04  0.24206620679E+04  0.25500000920E-02 0. -1.
       -2   -1    0    0    0  501  0.00000000000E+00  0.00000000000E+00 -0.99967804448E+03  0.99967804448E+03  0.25500000920E-02 0.  1.
    10030    2    1    2    0    0  0.00000000000E+00  0.00000000000E+00  0.14209840234E+04  0.34203401123E+04  0.31111944474E+04 0.  0.
        2    1    3    3  502    0  0.11702210174E+04 -0.73071368867E+03  0.15006009414E+04  0.20384216712E+04  0.25500000920E-02 0. -1.
       -2    1    3    3    0  502 -0.11702210174E+04  0.73071368867E+03 -0.79616917976E+02  0.13819184412E+04  0.25500000920E-02 0.  1.
</event>
<event>
 5   0  0.7079223E-06  0.3123006E+04  0.7818609E-02  0.8209452E-01
       -2   -1    0    0    0  501  0.00000000000E+00  0.00000000000E+00  0.12521237127E+04  0.12521237127E+04  0.25500000920E-02 0. -1.
        2   -1    0    0  501    0  0.00000000000E+00  0.00000000000E+00 -0.19473248008E+04  0.19473248008E+04  0.25500000920E-02 0.  1.
    10030    2    1    2    0    0  0.00000000000E+00  0.00000000000E+00 -0.69520108818E+03  0.31994485135E+04  0.31230059618E+04 0.  0.
        5    1    3    3  502    0 -0.11094048951E+04 -0.10888965647E+04 -0.49884378002E+03  0.16325875648E+04  0.46999998093E+01 0. -1.
       -5    1    3    3    0  502  0.11094048951E+04  0.10888965647E+04 -0.19635730817E+03  0.15668609487E+04  0.46999998093E+01 0.  1.
</event>
<event>
 5   0  0.2612331E-06  0.3221405E+04  0.7818609E-02  0.8183187E-01
        1   -1    0    0  501    0  0.00000000000E+00  0.00000000000E+00  0.20090919728E+04  0.20090919728E+04  0.50400001928E-02 0. -1.
       -1   -1    0    0    0  501  0.00000000000E+00  0.00000000000E+00 -0.12913109009E+04  0.12913109009E+04  0.50400001928E-02 0.  1.
    10030    2    1    2    0    0  0.00000000000E+00  0.00000000000E+00  0.71778107185E+03  0.33004028737E+04  0.32214048894E+04 0.  0.
        4    1    3    3  502    0  0.15520297545E+03 -0.22219153640E+03  0.19855617141E+04  0.20039745447E+04  0.12699999809E+01 0. -1.
       -4    1    3    3    0  502 -0.15520297545E+03  0.22219153640E+03 -0.12677806423E+04  0.12964283290E+04  0.12699999809E+01 0.  1.
</event>
<event>
 5   0  0.2624011E-06  0.2230276E+04  0.7818609E-02  0.8505931E-01
        1   -1    0    0  501    0  0.00000000000E+00  0.00000000000E+00  0.96908493624E+03  0.96908493626E+03  0.50400001928E-02 0. -1.
       -1   -1    0    0    0  501  0.00000000000E+00  0.00000000000E+00 -0.12832024978E+04  0.12832024978E+04  0.50400001928E-02 0.  1.
    10030    2    1    2    0    0  0.00000000000E+00  0.00000000000E+00 -0.31411756153E+03  0.22522874340E+04  0.22302755083E+04 0.  0.
        1    1    3    3  502    0  0.34239789871E+03  0.97277685905E+02 -0.12242921753E+04  0.12749865096E+04  0.50400001928E-02 0.  1.
       -1    1    3    3    0  502 -0.34239789871E+03 -0.97277685905E+02  0.91017461379E+03  0.97730092439E+03  0.50400001928E-02 0. -1.
</event>
<event>
 5   0  0.7414808E-06  0.3025265E+04  0.7818609E-02  0.8236553E-01
        2   -1    0    0  501    0  0.00000000000E+00  0.00000000000E+00  0.23603423133E+04  0.23603423133E+04  0.25500000920E-02 0.  1.
       -2   -1    0    0    0  501  0.00000000000E+00  0.00000000000E+00 -0.96937518387E+03  0.96937518388E+03  0.25500000920E-02 0. -1.
    10030    2    1    2    0    0  0.00000000000E+00  0.00000000000E+00  0.13909671294E+04  0.33297174971E+04  0.30252651216E+04 0.  0.
        2    1    3    3  502    0 -0.14406279555E+04 -0.28290822641E+03  0.29467757514E+03  0.14974247374E+04  0.25500000920E-02 0.  1.
       -2    1    3    3    0  502  0.14406279555E+04  0.28290822641E+03  0.10962895542E+04  0.18322927598E+04  0.25500000920E-02 0. -1.
</event>
<event>
 5   0  0.2393250E-06  0.3067214E+04  0.7818609E-02  0.8224794E-01
       -3   -1    0    0    0  501  0.00000000000E+00  0.00000000000E+00  0.12808684613E+04  0.12808684653E+04  0.10100000352E+00 0. -1.
        3   -1    0    0  501    0  0.00000000000E+00  0.00000000000E+00 -0.18362151125E+04  0.18362151152E+04  0.10100000352E+00 0.  1.
    10030    2    1    2    0    0  0.00000000000E+00  0.00000000000E+00 -0.55534665113E+03  0.31170835805E+04  0.30672137430E+04 0.  0.
        4    1    3    3  502    0 -0.14941293282E+04  0.28595981422E+02  0.72469188968E+02  0.14961596090E+04  0.12699999809E+01 0. -1.
       -4    1    3    3    0  502  0.14941293282E+04 -0.28595981422E+02 -0.62781584010E+03  0.16209239715E+04  0.12699999809E+01 0.  1.
</event>
<event>
 5   0  0.2612331E-06  0.3116577E+04  0.7818609E-02  0.8211203E-01
        1   -1    0    0  501    0  0.00000000000E+00  0.00000000000E+00  0.12989990211E+04  0.12989990211E+04  0.50400001928E-02 0.  1.
       -1   -1    0    0    0  501  0.00000000000E+00  0.00000000000E+00 -0.18693337235E+04  0.18693337235E+04  0.50400001928E-02 0. -1.
    10030    2    1    2    0    0  0.00000000000E+00  0.00000000000E+00 -0.57033470236E+03  0.31683327446E+04  0.31165767611E+04 0.  0.
        4    1    3    3  502    0 -0.83870124766E+03 -0.10913272918E+04 -0.10279486549E+04  0.17178751674E+04  0.12699999809E+01 0. -1.
       -4    1    3    3    0  502  0.83870124766E+03  0.10913272918E+04  0.45761395256E+03  0.14504575772E+04  0.12699999809E+01 0.  1.
</event>
<event>
 5   0  0.7363513E-06  0.3123115E+04  0.7818609E-02  0.8209423E-01
       -2   -1    0    0    0  501  0.00000000000E+00  0.00000000000E+00  0.13550273523E+04  0.13550273523E+04  0.25500000920E-02 0. -1.
        2   -1    0    0  501    0  0.00000000000E+00  0.00000000000E+00 -0.17995661602E+04  0.17995661602E+04  0.25500000920E-02 0.  1.
    10030    2    1    2    0    0  0.00000000000E+00  0.00000000000E+00 -0.44453880790E+03  0.31545935125E+04  0.31231147077E+04 0.  0.
        4    1    3    3  502    0 -0.21911950623E+03 -0.20872900039E+03 -0.17696629566E+04  0.17953522625E+04  0.12699999809E+01 0.  1.
       -4    1    3    3    0  502  0.21911950623E+03  0.20872900039E+03  0.13251241487E+04  0.13592412501E+04  0.12699999809E+01 0. -1.
</event>
<event>
 5   0  0.2674441E-06  0.3107008E+04  0.7818609E-02  0.8213817E-01
       -1   -1    0    0    0  501  0.00000000000E+00  0.00000000000E+00  0.17501896160E+04  0.17501896160E+04  0.50400001928E-02 0.  1.
        1   -1    0    0  501    0  0.00000000000E+00  0.00000000000E+00 -0.13789216914E+04  0.13789216914E+04  0.50400001928E-02 0. -1.
    10030    2    1    2    0    0  0.00000000000E+00  0.00000000000E+00  0.37126792467E+03  0.31291113074E+04  0.31070078375E+04 0.  0.
        5    1    3    3  502    0 -0.18096332673E+03  0.66789606932E+03  0.15863987422E+04  0.17307558881E+04  0.46999998093E+01 0.  1.
       -5    1    3    3    0  502  0.18096332673E+03 -0.66789606932E+03 -0.12151308175E+04  0.13983554193E+04  0.46999998093E+01 0. -1.
</event>
<event>
 5   0  0.7094341E-06  0.1903634E+04  0.7818609E-02  0.8653050E-01
        2   -1    0    0  501    0  0.00000000000E+00  0.00000000000E+00  0.95870374819E+03  0.95870374819E+03  0.25500000920E-02 0.  1.
       -2   -1    0    0    0  501  0.00000000000E+00  0.00000000000E+00 -0.94497948236E+03  0.94497948237E+03  0.25500000920E-02 0. -1.
    10030    2    1    2    0    0  0.00000000000E+00  0.00000000000E+00  0.13724265823E+02  0.19036832306E+04  0.19036337586E+04 0.  0.
        3    1    3    3  502    0 -0.86357816954E+03 -0.17943853624E+03  0.36462821689E+03  0.95442086626E+03  0.10100000352E+00 0.  1.
       -3    1    3    3    0  502  0.86357816954E+03  0.17943853624E+03 -0.35090395107E+03  0.94926236430E+03  0.10100000352E+00 0. -1.
</event>
<event>
 5   0  0.7071012E-06  0.3041787E+04  0.7818609E-02  0.8231898E-01
        2   -1    0    0  501    0  0.00000000000E+00  0.00000000000E+00  0.15601166259E+04  0.15601166259E+04  0.25500000920E-02 0. -1.
       -2   -1    0    0    0  501  0.00000000000E+00  0.00000000000E+00 -0.14826562867E+04  0.14826562867E+04  0.25500000920E-02 0.  1.
    10030    2    1    2    0    0  0.00000000000E+00  0.00000000000E+00  0.77460339259E+02  0.30427729126E+04  0.30417867929E+04 0.  0.
        1    1    3    3  502    0  0.25935756916E+01 -0.58101814276E+03  0.14447205745E+04  0.15571789709E+04  0.50400001928E-02 0. -1.
       -1    1    3    3    0  502 -0.25935756916E+01  0.58101814276E+03 -0.13672602353E+04  0.14855939418E+04  0.50400001928E-02 0.  1.
</event>
<event>
 5   0  0.2517725E-06  0.3094537E+04  0.7818609E-02  0.8217239E-01
       -1   -1    0    0    0  501  0.00000000000E+00  0.00000000000E+00  0.15147945155E+04  0.15147945155E+04  0.50400001928E-02 0. -1.
        1   -1    0    0  501    0  0.00000000000E+00  0.00000000000E+00 -0.15804383665E+04  0.15804383665E+04  0.50400001928E-02 0.  1.
    10030    2    1    2    0    0  0.00000000000E+00  0.00000000000E+00 -0.65643850917E+02  0.30952328820E+04  0.30945367147E+04 0.  0.
        3    1    3    3  502    0  0.11605878630E+04  0.64409357243E+02  0.98864560041E+03  0.15259531076E+04  0.10100000352E+00 0. -1.
       -3    1    3    3    0  502 -0.11605878630E+04 -0.64409357243E+02 -0.10542894513E+04  0.15692797744E+04  0.10100000352E+00 0.  1.
</event>
<event>
 5   0  0.2598987E-06  0.3078968E+04  0.7818609E-02  0.8221534E-01
        1   -1    0    0  501    0  0.00000000000E+00  0.00000000000E+00  0.13394934142E+04  0.13394934142E+04  0.50400001928E-02 0. -1.
       -1   -1    0    0    0  501  0.00000000000E+00  0.00000000000E+00 -0.17693335315E+04  0.17693335315E+04  0.50400001928E-02 0.  1.
    10030    2    1    2    0    0  0.00000000000E+00  0.00000000000E+00 -0.42984011731E+03  0.31088269458E+04  0.30789677576E+04 0.  0.
        2    1    3    3  502    0  0.11164686281E+04  0.67764818531E+03  0.60803093657E+03  0.14406286407E+04  0.25500000920E-02 0. -1.
       -2    1    3    3    0  502 -0.11164686281E+04 -0.67764818531E+03 -0.10378710539E+04  0.16681983051E+04  0.25500000920E-02 0.  1.
</event>
<event>
 5   0  0.2612331E-06  0.3121180E+04  0.7818609E-02  0.8209949E-01
       -1   -1    0    0    0  501  0.00000000000E+00  0.00000000000E+00  0.24646288410E+04  0.24646288410E+04  0.50400001928E-02 0. -1.
        1   -1    0    0  501    0  0.00000000000E+00  0.00000000000E+00 -0.98815742710E+03  0.98815742711E+03  0.50400001928E-02 0.  1.
    10030    2    1    2    0    0  0.00000000000E+00  0.00000000000E+00  0.14764714139E+04  0.34527862681E+04  0.31211800937E+04 0.  0.
        4    1    3    3  502    0 -0.84488851485E+02  0.12911302110E+03 -0.97969763722E+03  0.99177498028E+03  0.12699999809E+01 0.  1.
       -4    1    3    3    0  502  0.84488851485E+02 -0.12911302110E+03  0.24561690512E+04  0.24610112879E+04  0.12699999809E+01 0. -1.
</event>
<event>
 5   0  0.2612331E-06  0.3128880E+04  0.7818609E-02  0.8207856E-01
       -1   -1    0    0    0  501  0.00000000000E+00  0.00000000000E+00  0.12886455897E+04  0.12886455897E+04  0.50400001928E-02 0.  1.
        1   -1    0    0  501    0  0.00000000000E+00  0.00000000000E+00 -0.18992597312E+04  0.18992597312E+04  0.50400001928E-02 0. -1.
    10030    2    1    2    0    0  0.00000000000E+00  0.00000000000E+00 -0.61061414154E+03  0.31879053210E+04  0.31288801041E+04 0.  0.
        4    1    3    3  502    0  0.87619296423E+03 -0.82959354460E+03 -0.13198484190E+04  0.17882787875E+04  0.12699999809E+01 0. -1.
       -4    1    3    3    0  502 -0.87619296423E+03  0.82959354460E+03  0.70923427749E+03  0.13996265334E+04  0.12699999809E+01 0.  1.
</event>
<event>
 5   0  0.2624011E-06  0.2385257E+04  0.7818609E-02  0.8445044E-01
       -1   -1    0    0    0  501  0.00000000000E+00  0.00000000000E+00  0.86554637524E+03  0.86554637526E+03  0.50400001928E-02 0.  1.
        1   -1    0    0  501    0  0.00000000000E+00  0.00000000000E+00 -0.16433117224E+04  0.16433117224E+04  0.50400001928E-02 0. -1.
    10030    2    1    2    0    0  0.00000000000E+00  0.00000000000E+00 -0.77776534716E+03  0.25088580977E+04  0.23852568036E+04 0.  0.
        1    1    3    3  502    0 -0.20864451598E+03  0.76837382299E+03  0.54506592904E+03  0.96489778367E+03  0.50400001928E-02 0.  1.
       -1    1    3    3    0  502  0.20864451598E+03 -0.76837382299E+03 -0.13228312762E+04  0.15439603140E+04  0.50400001928E-02 0. -1.
</event>
<event>
 5   0  0.7079223E-06  0.2961209E+04  0.7818609E-02  0.8254895E-01
       -2   -1    0    0    0  501  0.00000000000E+00  0.00000000000E+00  0.23457454270E+04  0.23457454270E+04  0.25500000920E-02 0. -1.
        2   -1    0    0  501    0  0.00000000000E+00  0.00000000000E+00 -0.93453888648E+03  0.93453888648E+03  0.25500000920E-02 0.  1.
    10030    2    1    2    0    0  0.00000000000E+00  0.00000000000E+00  0.14112065405E+04  0.32802843135E+04  0.29612094282E+04 0.  0.
        5    1    3    3  502    0  0.26700414885E+03 -0.14181947576E+04  0.10723353620E+04  0.17979134586E+04  0.46999998093E+01 0. -1.
       -5    1    3    3    0  502 -0.26700414885E+03  0.14181947576E+04  0.33887117857E+03  0.14823708549E+04  0.46999998093E+01 0.  1.
</event>
<event>
 5   0  0.7414808E-06  0.2562411E+04  0.7818609E-02  0.8381083E-01
       -2   -1    0    0    0  501  0.00000000000E+00  0.00000000000E+00  0.81950246290E+03  0.81950246291E+03  0.25500000920E-02 0. -1.
        2   -1    0    0  501    0  0.00000000000E+00  0.00000000000E+00 -0.20030294824E+04  0.20030294824E+04  0.25500000920E-02 0.  1.
    10030    2    1    2    0    0  0.00000000000E+00  0.00000000000E+00 -0.11835270195E+04  0.28225319453E+04  0.25624110475E+04 0.  0.
        2    1    3    3  502    0 -0.25797560179E+03 -0.59157244616E+03 -0.18109053944E+04  0.19224691721E+04  0.25500000920E-02 0.  1.
       -2    1    3    3    0  502  0.25797560179E+03  0.59157244616E+03  0.62737837499E+03  0.90006277313E+03  0.25500000920E-02 0. -1.
</event>
<event>
 5   0  0.2598987E-06  0.3157554E+04  0.7818609E-02  0.8200118E-01
       -1   -1    0    0    0  501  0.00000000000E+00  0.00000000000E+00  0.12777077612E+04  0.12777077612E+04  0.50400001928E-02 0. -1.
        1   -1    0    0  501    0  0.00000000000E+00  0.00000000000E+00 -0.19507875020E+04  0.19507875020E+04  0.50400001928E-02 0.  1.
    10030    2    1    2    0    0  0.00000000000E+00  0.00000000000E+00 -0.67307974075E+03  0.32284952632E+04  0.31575536935E+04 0.  0.
        2    1    3    3  502    0 -0.47162209351E+03 -0.98859794043E+03  0.82601171567E+03  0.13718777793E+04  0.25500000920E-02 0. -1.
       -2    1    3    3    0  502  0.47162209351E+03  0.98859794043E+03 -0.14990914564E+04  0.18566174839E+04  0.25500000920E-02 0.  1.
</event>
<event>
 5   0  0.2624011E-06  0.3147175E+04  0.7818609E-02  0.8202909E-01
        1   -1    0    0  501    0  0.00000000000E+00  0.00000000000E+00  0.13913681443E+04  0.13913681443E+04  0.50400001928E-02 0. -1.
       -1   -1    0    0    0  501  0.00000000000E+00  0.00000000000E+00 -0.17796707827E+04  0.17796707827E+04  0.50400001928E-02 0.  1.
    10030    2    1    2    0    0  0.00000000000E+00  0.00000000000E+00 -0.38830263844E+03  0.31710389270E+04  0.31471747548E+04 0.  0.
        1    1    3    3  502    0 -0.47510503242E+03  0.11885992570E+03 -0.17009254336E+04  0.17700281932E+04  0.50400001928E-02 0.  1.
       -1    1    3    3    0  502  0.47510503242E+03 -0.11885992570E+03  0.13126227952E+04  0.14010107338E+04  0.50400001928E-02 0. -1.
</event>
<event>
 5   0  0.2517725E-06  0.1951276E+04  0.7818609E-02  0.8629746E-01
        1   -1    0    0  501    0  0.00000000000E+00  0.00000000000E+00  0.17486419620E+04  0.17486419621E+04  0.50400001928E-02 0.  1.
       -1   -1    0    0    0  501  0.00000000000E+00  0.00000000000E+00 -0.54434808962E+03  0.54434808965E+03  0.50400001928E-02 0. -1.
    10030    2    1    2    0    0  0.00000000000E+00  0.00000000000E+00  0.12042938724E+04  0.22929900517E+04  0.19512764146E+04 0.  0.
        3    1    3    3  502    0 -0.79859604229E+03  0.11305613085E+03 -0.42922426695E+02  0.80770023672E+03  0.10100000352E+00 0. -1.
       -3    1    3    3    0  502  0.79859604229E+03 -0.11305613085E+03  0.12472162991E+04  0.14852898150E+04  0.10100000352E+00 0.  1.
</event>
<event>
 5   0  0.2624011E-06  0.3006329E+04  0.7818609E-02  0.8241926E-01
        1   -1    0    0  501    0  0.00000000000E+00  0.00000000000E+00  0.20898724613E+04  0.20898724613E+04  0.50400001928E-02 0. -1.
       -1   -1    0    0    0  501  0.00000000000E+00  0.00000000000E+00 -0.10811678354E+04  0.10811678354E+04  0.50400001928E-02 0.  1.
    10030    2    1    2    0    0  0.00000000000E+00  0.00000000000E+00  0.10087046259E+04  0.31710402967E+04  0.30063285817E+04 0.  0.
        1    1    3    3  502    0 -0.11992266135E+04  0.57427868114E+03  0.12438803575E+04  0.18207632515E+04  0.50400001928E-02 0. -1.
       -1    1    3    3    0  502  0.11992266135E+04 -0.57427868114E+03 -0.23517573154E+03  0.13502770452E+04  0.50400001928E-02 0.  1.
</event>
<event>
 5   0  0.2612331E-06  0.3080847E+04  0.7818609E-02  0.8221014E-01
        1   -1    0    0  501    0  0.00000000000E+00  0.00000000000E+00  0.21217162679E+04  0.21217162679E+04  0.50400001928E-02 0.  1.
       -1   -1    0    0    0  501  0.00000000000E+00  0.00000000000E+00 -0.11183891557E+04  0.11183891557E+04  0.50400001928E-02 0. -1.
    10030    2    1    2    0    0  0.00000000000E+00  0.00000000000E+00  0.10033271123E+04  0.32401054236E+04  0.30808469391E+04 0.  0.
        4    1    3    3  502    0 -0.68957009493E+03 -0.12962631714E+04  0.11640339034E+02  0.14683127172E+04  0.12699999809E+01 0. -1.
       -4    1    3    3    0  502  0.68957009493E+03  0.12962631714E+04  0.99168677322E+03  0.17717927064E+04  0.12699999809E+01 0.  1.
</event>
<event>
 5   0  0.2612331E-06  0.2485603E+04  0.7818609E-02  0.8408133E-01
       -1   -1    0    0    0  501  0.00000000000E+00  0.00000000000E+00  0.10834194961E+04  0.10834194961E+04  0.50400001928E-02 0.  1.
        1   -1    0    0  501    0  0.00000000000E+00  0.00000000000E+00 -0.14256300001E+04  0.14256300002E+04  0.50400001928E-02 0. -1.
    10030    2    1    2    0    0  0.00000000000E+00  0.00000000000E+00 -0.34221050409E+03  0.25090494962E+04  0.24856028133E+04 0.  0.
        4    1    3    3  502    0 -0.66087899481E+03  0.53440870339E+03 -0.10864111003E+04  0.13793637663E+04  0.12699999809E+01 0. -1.
       -4    1    3    3    0  502  0.66087899481E+03 -0.53440870339E+03  0.74420059623E+03  0.11296857299E+04  0.12699999809E+01 0.  1.
</event>
<event>
 5   0  0.2517725E-06  0.3026238E+04  0.7818609E-02  0.8236278E-01
        1   -1    0    0  501    0  0.00000000000E+00  0.00000000000E+00  0.15473124003E+04  0.15473124003E+04  0.50400001928E-02 0. -1.
       -1   -1    0    0    0  501  0.00000000000E+00  0.00000000000E+00 -0.14796815517E+04  0.14796815517E+04  0.50400001928E-02 0.  1.
    10030    2    1    2    0    0  0.00000000000E+00  0.00000000000E+00  0.67630848608E+02  0.30269939521E+04  0.30262383340E+04 0.  0.
        3    1    3    3  502    0  0.76070323968E+03 -0.11039836460E+04 -0.66784407896E+03  0.14978200938E+04  0.10100000352E+00 0.  1.
       -3    1    3    3    0  502 -0.76070323968E+03  0.11039836460E+04  0.73547492757E+03  0.15291738582E+04  0.10100000352E+00 0. -1.
</event>
<event>
 5   0  0.7414808E-06  0.3261380E+04  0.7818609E-02  0.8172792E-01
       -2   -1    0    0    0  501  0.00000000000E+00  0.00000000000E+00  0.13674280321E+04  0.13674280321E+04  0.25500000920E-02 0. -1.
        2   -1    0    0  501    0  0.00000000000E+00  0.00000000000E+00 -0.19446360645E+04  0.19446360645E+04  0.25500000920E-02 0.  1.
    10030    2    1    2    0    0  0.00000000000E+00  0.00000000000E+00 -0.57720803240E+03  0.33120640966E+04  0.32613799944E+04 0.  0.
        2    1    3    3  502    0 -0.10570906077E+04  0.10822799186E+04  0.32944197767E+03  0.15483224444E+04  0.25500000920E-02 0. -1.
       -2    1    3    3    0  502  0.10570906077E+04 -0.10822799186E+04 -0.90665001007E+03  0.17637416523E+04  0.25500000920E-02 0.  1.
</event>
<event>
 5   0  0.2674441E-06  0.3112755E+04  0.7818609E-02  0.8212246E-01
        1   -1    0    0  501    0  0.00000000000E+00  0.00000000000E+00  0.92451903995E+03  0.92451903997E+03  0.50400001928E-02 0. -1.
       -1   -1    0    0    0  501  0.00000000000E+00  0.00000000000E+00 -0.26200773868E+04  0.26200773868E+04  0.50400001928E-02 0.  1.
    10030    2    1    2    0    0  0.00000000000E+00  0.00000000000E+00 -0.16955583468E+04  0.35445964267E+04  0.31127553262E+04 0.  0.
        5    1    3    3  502    0  0.39879679878E+03 -0.46236428455E+02 -0.25600912115E+04  0.25913829889E+04  0.46999998093E+01 0.  1.
       -5    1    3    3    0  502 -0.39879679878E+03  0.46236428455E+02  0.86453286466E+03  0.95321343785E+03  0.46999998093E+01 0. -1.
</event>
<event>
 5   0  0.7071012E-06  0.3048628E+04  0.7818609E-02  0.8229980E-01
       -2   -1    0    0    0  501  0.00000000000E+00  0.00000000000E+00  0.13762139474E+04  0.13762139474E+04  0.25500000920E-02 0. -1.
        2   -1    0    0  501    0  0.00000000000E+00  0.00000000000E+00 -0.16883511840E+04  0.16883511840E+04  0.25500000920E-02 0.  1.
    10030    2    1    2    0    0  0.00000000000E+00  0.00000000000E+00 -0.31213723656E+03  0.30645651314E+04  0.30486275256E+04 0.  0.
        1    1    3    3  502    0 -0.24455294059E+03 -0.10482373684E+04  0.92889061751E+03  0.14217754748E+04  0.50400001928E-02 0. -1.
       -1    1    3    3    0  502  0.24455294059E+03  0.10482373684E+04 -0.12410278541E+04  0.16427896566E+04  0.50400001928E-02 0.  1.
</event>
<event>
 5   0  0.2517725E-06  0.3075165E+04  0.7818609E-02  0.8222587E-01
       -1   -1    0    0    0  501  0.00000000000E+00  0.00000000000E+00  0.13306435143E+04  0.13306435143E+04  0.50400001928E-02 0. -1.
        1   -1    0    0  501    0  0.00000000000E+00  0.00000000000E+00 -0.17767040913E+04  0.17767040913E+04  0.50400001928E-02 0.  1.
    10030    2    1    2    0    0  0.00000000000E+00  0.00000000000E+00 -0.44606057709E+03  0.31073476056E+04  0.30751648905E+04 0.  0.
        3    1    3    3  502    0 -0.12228583211E+03 -0.13845947145E+04 -0.88725538652E+03  0.16490234927E+04  0.10100000352E+00 0.  1.
       -3    1    3    3    0  502  0.12228583211E+03  0.13845947145E+04  0.44119480943E+03  0.14583241129E+04  0.10100000352E+00 0. -1.
</event>
<event>
 5   0  0.7071012E-06  0.3139047E+04  0.7818609E-02  0.8205103E-01
        2   -1    0    0  501    0  0.00000000000E+00  0.00000000000E+00  0.16246863109E+04  0.16246863109E+04  0.25500000920E-02 0. -1.
       -2   -1    0    0    0  501  0.00000000000E+00  0.00000000000E+00 -0.15162339720E+04  0.15162339720E+04  0.25500000920E-02 0.  1.
    10030    2    1    2    0    0  0.00000000000E+00  0.00000000000E+00  0.10845233890E+03  0.31409202828E+04  0.31390473576E+04 0.  0.
        1    1    3    3  502    0 -0.63715766219E+03  0.89318303308E+03  0.11772410271E+04  0.16092365436E+04  0.50400001928E-02 0. -1.
       -1    1    3    3    0  502  0.63715766219E+03 -0.89318303308E+03 -0.10687886883E+04  0.15316837393E+04  0.50400001928E-02 0.  1.
</event>
<event>
 5   0  0.2624011E-06  0.2058898E+04  0.7818609E-02  0.8579568E-01
        1   -1    0    0  501    0  0.00000000000E+00  0.00000000000E+00  0.72997957253E+03  0.72997957254E+03  0.50400001928E-02 0.  1.
       -1   -1    0    0    0  501  0.00000000000E+00  0.00000000000E+00 -0.14517744624E+04  0.14517744624E+04  0.50400001928E-02 0. -1.
    10030    2    1    2    0    0  0.00000000000E+00  0.00000000000E+00 -0.72179488989E+03  0.21817540350E+04  0.20588984448E+04 0.  0.
        1    1    3    3  502    0  0.41430548440E+03 -0.57661821992E+03 -0.11507807982E+04  0.13521960108E+04  0.50400001928E-02 0. -1.
       -1    1    3    3    0  502 -0.41430548440E+03  0.57661821992E+03  0.42898590833E+03  0.82955802421E+03  0.50400001928E-02 0.  1.
</event>
<event>
 5   0  0.7079223E-06  0.3120769E+04  0.7818609E-02  0.8210061E-01
        2   -1    0    0  501    0  0.00000000000E+00  0.00000000000E+00  0.18934696122E+04  0.18934696122E+04  0.25500000920E-02 0. -1.
       -2   -1    0    0    0  501  0.00000000000E+00  0.00000000000E+00 -0.12858933933E+04  0.12858933933E+04  0.25500000920E-02 0.  1.
    10030    2    1    2    0    0  0.00000000000E+00  0.00000000000E+00  0.60757621897E+03  0.31793630055E+04  0.31207691774E+04 0.  0.
        5    1    3    3  502    0  0.12247777010E+03 -0.55326594443E+03 -0.11773565181E+04  0.13066347884E+04  0.46999998093E+01 0.  1.
       -5    1    3    3    0  502 -0.12247777010E+03  0.55326594443E+03  0.17849327371E+04  0.18727282171E+04  0.46999998093E+01 0. -1.
</event>
<event>
 5   0  0.2598987E-06  0.3111855E+04  0.7818609E-02  0.8212492E-01
       -1   -1    0    0    0  501  0.00000000000E+00  0.00000000000E+00  0.10185488226E+04  0.10185488226E+04  0.50400001928E-02 0. -1.
        1   -1    0    0  501    0  0.00000000000E+00  0.00000000000E+00 -0.23768236294E+04  0.23768236294E+04  0.50400001928E-02 0.  1.
    10030    2    1    2    0    0  0.00000000000E+00  0.00000000000E+00 -0.13582748068E+04  0.33953724520E+04  0.31118553368E+04 0.  0.
        2    1    3    3  502    0 -0.10498565524E+04  0.87690234037E+03  0.12986979124E+03  0.13740533679E+04  0.25500000920E-02 0. -1.
       -2    1    3    3    0  502  0.10498565524E+04 -0.87690234037E+03 -0.14881445980E+04  0.20213190841E+04  0.25500000920E-02 0.  1.
</event>
<event>
 5   0  0.7094341E-06  0.2078318E+04  0.7818609E-02  0.8570855E-01
        2   -1    0    0  501    0  0.00000000000E+00  0.00000000000E+00  0.11593792064E+04  0.11593792064E+04  0.25500000920E-02 0.  1.
       -2   -1    0    0    0  501  0.00000000000E+00  0.00000000000E+00 -0.93140473421E+03  0.93140473421E+03  0.25500000920E-02 0. -1.
    10030    2    1    2    0    0  0.00000000000E+00  0.00000000000E+00  0.22797447224E+03  0.20907839407E+04  0.20783178598E+04 0.  0.
        3    1    3    3  502    0 -0.85791978434E+03  0.58085771782E+03  0.19465064218E+03  0.10541873303E+04  0.10100000352E+00 0. -1.
       -3    1    3    3    0  502  0.85791978434E+03 -0.58085771782E+03  0.33323830058E+02  0.10365966103E+04  0.10100000352E+00 0.  1.
</event>
<event>
 5   0  0.7414808E-06  0.3203330E+04  0.7818609E-02  0.8187938E-01
        2   -1    0    0  501    0  0.00000000000E+00  0.00000000000E+00  0.12893316871E+04  0.12893316871E+04  0.25500000920E-02 0.  1.
       -2   -1    0    0    0  501  0.00000000000E+00  0.00000000000E+00 -0.19896591796E+04  0.19896591796E+04  0.25500000920E-02 0. -1.
    10030    2    1    2    0    0  0.00000000000E+00  0.00000000000E+00 -0.70032749258E+03  0.32789908667E+04  0.32033299092E+04 0.  0.
        2    1    3    3  502    0  0.12171019840E+04 -0.89310272028E+03 -0.89793017450E+03  0.17564874912E+04  0.25500000920E-02 0. -1.
       -2    1    3    3    0  502 -0.12171019840E+04  0.89310272028E+03  0.19760268192E+03  0.15225033755E+04  0.25500000920E-02 0.  1.
</event>
<event>
 5   0  0.2598987E-06  0.3089142E+04  0.7818609E-02  0.8218724E-01
        1   -1    0    0  501    0  0.00000000000E+00  0.00000000000E+00  0.13969088521E+04  0.13969088521E+04  0.50400001928E-02 0.  1.
       -1   -1    0    0    0  501  0.00000000000E+00  0.00000000000E+00 -0.17078416678E+04  0.17078416678E+04  0.50400001928E-02 0. -1.
    10030    2    1    2    0    0  0.00000000000E+00  0.00000000000E+00 -0.31093281573E+03  0.31047505199E+04  0.30891417214E+04 0.  0.
        2    1    3    3  502    0 -0.28017810567E+03  0.10174974398E+04  0.97801675793E+03  0.14388598228E+04  0.25500000920E-02 0.  1.
       -2    1    3    3    0  502  0.28017810567E+03 -0.10174974398E+04 -0.12889495737E+04  0.16658906970E+04  0.25500000920E-02 0. -1.
</event>
<event>
 5   0  0.7079223E-06  0.3020811E+04  0.7818609E-02  0.8237813E-01
       -2   -1    0    0    0  501  0.00000000000E+00  0.00000000000E+00  0.14801332841E+04  0.14801332841E+04  0.25500000920E-02 0.  1.
        2   -1    0    0  501    0  0.00000000000E+00  0.00000000000E+00 -0.15412972582E+04  0.15412972582E+04  0.25500000920E-02 0. -1.
    10030    2    1    2    0    0  0.00000000000E+00  0.00000000000E+00 -0.61163974088E+02  0.30214305423E+04  0.30208113960E+04 0.  0.
        5    1    3    3  502    0 -0.11544212736E+04  0.27086616013E+03  0.90515576847E+03  0.14917727739E+04  0.46999998093E+01 0.  1.
       -5    1    3    3    0  502  0.11544212736E+04 -0.27086616013E+03 -0.96631974256E+03  0.15296577684E+04  0.46999998093E+01 0. -1.
</event>
<event>
 5   0  0.7079223E-06  0.3059920E+04  0.7818609E-02  0.8226824E-01
        2   -1    0    0  501    0  0.00000000000E+00  0.00000000000E+00  0.16479294355E+04  0.16479294355E+04  0.25500000920E-02 0. -1.
       -2   -1    0    0    0  501  0.00000000000E+00  0.00000000000E+00 -0.14204353934E+04  0.14204353934E+04  0.25500000920E-02 0.  1.
    10030    2    1    2    0    0  0.00000000000E+00  0.00000000000E+00  0.22749404212E+03  0.30683648289E+04  0.30599198003E+04 0.  0.
        5    1    3    3  502    0 -0.39458711295E+03 -0.13827803100E+04  0.63765891107E+03  0.15730261766E+04  0.46999998093E+01 0.  1.
       -5    1    3    3    0  502  0.39458711295E+03  0.13827803100E+04 -0.41016486896E+03  0.14953386523E+04  0.46999998093E+01 0. -1.
</event>
<event>
 5   0  0.7094341E-06  0.3070218E+04  0.7818609E-02  0.8223959E-01
       -2   -1    0    0    0  501  0.00000000000E+00  0.00000000000E+00  0.11742930663E+04  0.11742930663E+04  0.25500000920E-02 0. -1.
        2   -1    0    0  501    0  0.00000000000E+00  0.00000000000E+00 -0.20067906386E+04  0.20067906386E+04  0.25500000920E-02 0.  1.
    10030    2    1    2    0    0  0.00000000000E+00  0.00000000000E+00 -0.83249757227E+03  0.31810837050E+04  0.30702184499E+04 0.  0.
        3    1    3    3  502    0 -0.28990286191E+02  0.69376015447E+03  0.10022824264E+04  0.12193086816E+04  0.10100000352E+00 0. -1.
       -3    1    3    3    0  502  0.28990286191E+02 -0.69376015447E+03 -0.18347799986E+04  0.19617750234E+04  0.10100000352E+00 0.  1.
</event>
<event>
 5   0  0.7071012E-06  0.3113290E+04  0.7818609E-02  0.8212100E-01
        2   -1    0    0  501    0  0.00000000000E+00  0.00000000000E+00  0.14751196556E+04  0.14751196556E+04  0.25500000920E-02 0. -1.
       -2   -1    0    0    0  501  0.00000000000E+00  0.00000000000E+00 -0.16426759202E+04  0.16426759202E+04  0.25500000920E-02 0.  1.
    10030    2    1    2    0    0  0.00000000000E+00  0.00000000000E+00 -0.16755626466E+03  0.31177955758E+04  0.31132899240E+04 0.  0.
        1    1    3    3  502    0  0.15500811657E+04  0.13184570517E+03 -0.28847793418E+02  0.15559457270E+04  0.50400001928E-02 0.  1.
       -1    1    3    3    0  502 -0.15500811657E+04 -0.13184570517E+03 -0.13870847124E+03  0.15618498488E+04  0.50400001928E-02 0. -1.
</event>
<event>
 5   0  0.2674441E-06  0.2571802E+04  0.7818609E-02  0.8377843E-01
       -1   -1    0    0    0  501  0.00000000000E+00  0.00000000000E+00  0.96876989207E+03  0.96876989208E+03  0.50400001928E-02 0.  1.
        1   -1    0    0  501    0  0.00000000000E+00  0.00000000000E+00 -0.17068464651E+04  0.17068464651E+04  0.50400001928E-02 0. -1.
    10030    2    1    2    0    0  0.00000000000E+00  0.00000000000E+00 -0.73807657300E+03  0.26756163572E+04  0.25718020653E+04 0.  0.
        5    1    3    3  502    0  0.13363299613E+03  0.24501469472E+03 -0.16749485620E+04  0.16980473355E+04  0.46999998093E+01 0. -1.
       -5    1    3    3    0  502 -0.13363299613E+03 -0.24501469472E+03  0.93687198901E+03  0.97756902164E+03  0.46999998093E+01 0.  1.
</event>
<event>
 5   0  0.2624011E-06  0.3090598E+04  0.7818609E-02  0.8218323E-01
        1   -1    0    0  501    0  0.00000000000E+00  0.00000000000E+00  0.22552093753E+04  0.22552093753E+04  0.50400001928E-02 0.  1.
       -1   -1    0    0    0  501  0.00000000000E+00  0.00000000000E+00 -0.10588591322E+04  0.10588591322E+04  0.50400001928E-02 0. -1.
    10030    2    1    2    0    0  0.00000000000E+00  0.00000000000E+00  0.11963502431E+04  0.33140685074E+04  0.30905980276E+04 0.  0.
        1    1    3    3  502    0  0.10418232114E+03  0.12689685973E+04 -0.34082125086E+03  0.13180646350E+04  0.50400001928E-02 0. -1.
       -1    1    3    3    0  502 -0.10418232114E+03 -0.12689685973E+04  0.15371714939E+04  0.19960038724E+04  0.50400001928E-02 0.  1.
</event>
<event>
 5   0  0.7414808E-06  0.3033008E+04  0.7818609E-02  0.8234368E-01
        2   -1    0    0  501    0  0.00000000000E+00  0.00000000000E+00  0.22151750232E+04  0.22151750232E+04  0.25500000920E-02 0. -1.
       -2   -1    0    0    0  501  0.00000000000E+00  0.00000000000E+00 -0.10381951730E+04  0.10381951730E+04  0.25500000920E-02 0.  1.
    10030    2    1    2    0    0  0.00000000000E+00  0.00000000000E+00  0.11769798502E+04  0.32533701962E+04  0.30330077589E+04 0.  0.
        2    1    3    3  502    0 -0.69338747955E+03 -0.98276542768E+03  0.15792710712E+04  0.19851224645E+04  0.25500000920E-02 0. -1.
       -2    1    3    3    0  502  0.69338747955E+03  0.98276542768E+03 -0.40229122098E+03  0.12682477318E+04  0.25500000920E-02 0.  1.
</event>
<event>
 5   0  0.2598987E-06  0.3122328E+04  0.7818609E-02  0.8209637E-01
        1   -1    0    0  501    0  0.00000000000E+00  0.00000000000E+00  0.17637097055E+04  0.17637097055E+04  0.50400001928E-02 0. -1.
       -1   -1    0    0    0  501  0.00000000000E+00  0.00000000000E+00 -0.13818790243E+04  0.13818790243E+04  0.50400001928E-02 0.  1.
    10030    2    1    2    0    0  0.00000000000E+00  0.00000000000E+00  0.38183068119E+03  0.31455887298E+04  0.31223282640E+04 0.  0.
        2    1    3    3  502    0  0.60099408603E+03 -0.10672582348E+04 -0.78428319359E+03  0.14544188389E+04  0.25500000920E-02 0.  1.
       -2    1    3    3    0  502 -0.60099408603E+03  0.10672582348E+04  0.11661138748E+04  0.16911698910E+04  0.25500000920E-02 0. -1.
</event>
<event>
 5   0  0.7071012E-06  0.3129052E+04  0.7818609E-02  0.8207810E-01
       -2   -1    0    0    0  501  0.00000000000E+00  0.00000000000E+00  0.16158291055E+04  0.16158291055E+04  0.25500000920E-02 0. -1.
        2   -1    0    0  501    0  0.00000000000E+00  0.00000000000E+00 -0.15148516929E+04  0.15148516929E+04  0.25500000920E-02 0.  1.
    10030    2    1    2    0    0  0.00000000000E+00  0.00000000000E+00  0.10097741257E+03  0.31306807984E+04  0.31290519049E+04 0.  0.
        1    1    3    3  502    0  0.18432976521E+03 -0.86279081500E+03 -0.12422194943E+04  0.15236452097E+04  0.50400001928E-02 0.  1.
       -1    1    3    3    0  502 -0.18432976521E+03  0.86279081500E+03  0.13431969069E+04  0.16070355888E+04  0.50400001928E-02 0. -1.
</event>
<event>
 5   0  0.7079223E-06  0.3171937E+04  0.7818609E-02  0.8196268E-01
       -2   -1    0    0    0  501  0.00000000000E+00  0.00000000000E+00  0.20987910933E+04  0.20987910933E+04  0.25500000920E-02 0. -1.
        2   -1    0    0  501    0  0.00000000000E+00  0.00000000000E+00 -0.11984499494E+04  0.11984499494E+04  0.25500000920E-02 0.  1.
    10030    2    1    2    0    0  0.00000000000E+00  0.00000000000E+00  0.90034114388E+03  0.32972410427E+04  0.31719369978E+04 0.  0.
        5    1    3    3  502    0 -0.54258309951E+03  0.12098593977E+04 -0.45432797801E+03  0.14016391061E+04  0.46999998093E+01 0. -1.
       -5    1    3    3    0  502  0.54258309951E+03 -0.12098593977E+04  0.13546691219E+04  0.18956019366E+04  0.46999998093E+01 0.  1.
</event>
<event>
 5   0  0.2517725E-06  0.3110924E+04  0.7818609E-02  0.8212746E-01
        1   -1    0    0  501    0  0.00000000000E+00  0.00000000000E+00  0.19279362579E+04  0.19279362579E+04  0.50400001928E-02 0. -1.
       -1   -1    0    0    0  501  0.00000000000E+00  0.00000000000E+00 -0.12549493962E+04  0.12549493962E+04  0.50400001928E-02 0.  1.
    10030    2    1    2    0    0  0.00000000000E+00  0.00000000000E+00  0.67298686174E+03  0.31828856541E+04  0.31109242631E+04 0.  0.
        3    1    3    3  502    0  0.37338049526E+03  0.14478599471E+04 -0.10208419079E+03  0.14987103166E+04  0.10100000352E+00 0.  1.
       -3    1    3    3    0  502 -0.37338049526E+03 -0.14478599471E+04  0.77507105253E+03  0.16841753375E+04  0.10100000352E+00 0. -1.
</event>
<event>
 5   0  0.2674441E-06  0.3101701E+04  0.7818609E-02  0.8215271E-01
       -1   -1    0    0    0  501  0.00000000000E+00  0.00000000000E+00  0.11509622151E+04  0.11509622151E+04  0.50400001928E-02 0. -1.
        1   -1    0    0  501    0  0.00000000000E+00  0.00000000000E+00 -0.20896754706E+04  0.20896754706E+04  0.50400001928E-02 0.  1.
    10030    2    1    2    0    0  0.00000000000E+00  0.00000000000E+00 -0.93871325551E+03  0.32406376857E+04  0.31017011516E+04 0.  0.
        5    1    3    3  502    0  0.13874490352E+04 -0.63443419979E+03 -0.76039090879E+03  0.17046225398E+04  0.46999998093E+01 0.  1.
       -5    1    3    3    0  502 -0.13874490352E+04  0.63443419979E+03 -0.17832234671E+03  0.15360151459E+04  0.46999998093E+01 0. -1.
</event>
<event>
 5   0  0.7071012E-06  0.2094317E+04  0.7818609E-02  0.8563751E-01
        2   -1    0    0  501    0  0.00000000000E+00  0.00000000000E+00  0.13682905385E+04  0.13682905385E+04  0.25500000920E-02 0.  1.
       -2   -1    0    0    0  501  0.00000000000E+00  0.00000000000E+00 -0.80139465532E+03  0.80139465532E+03  0.25500000920E-02 0. -1.
    10030    2    1    2    0    0  0.00000000000E+00  0.00000000000E+00  0.56689588321E+03  0.21696851939E+04  0.20943168094E+04 0.  0.
        1    1    3    3  502    0 -0.11472385642E+03  0.44367201210E+03 -0.69199556068E+03  0.82997847778E+03  0.50400001928E-02 0. -1.
       -1    1    3    3    0  502  0.11472385642E+03 -0.44367201210E+03  0.12588914439E+04  0.13397067161E+04  0.50400001928E-02 0.  1.
</event>
<event>
 5   0  0.7363513E-06  0.3137562E+04  0.7818609E-02  0.8205504E-01
        2   -1    0    0  501    0  0.00000000000E+00  0.00000000000E+00  0.19509363902E+04  0.19509363902E+04  0.25500000920E-02 0. -1.
       -2   -1    0    0    0  501  0.00000000000E+00  0.00000000000E+00 -0.12614835349E+04  0.12614835349E+04  0.25500000920E-02 0.  1.
    10030    2    1    2    0    0  0.00000000000E+00  0.00000000000E+00  0.68945285529E+03  0.32124199251E+04  0.31375621963E+04 0.  0.
        4    1    3    3  502    0  0.11029756930E+04 -0.28368717698E+03  0.14493738462E+04  0.18432905232E+04  0.12699999809E+01 0. -1.
       -4    1    3    3    0  502 -0.11029756930E+04  0.28368717698E+03 -0.75992099094E+03  0.13691294019E+04  0.12699999809E+01 0.  1.
</event>
<event>
 5   0  0.2393250E-06  0.3074048E+04  0.7818609E-02  0.8222897E-01
       -4   -1    0    0    0  501  0.00000000000E+00  0.00000000000E+00  0.16364980675E+04  0.16364985603E+04  0.12699999809E+01 0. -1.
        4   -1    0    0  501    0  0.00000000000E+00  0.00000000000E+00 -0.14435952704E+04  0.14435958290E+04  0.12699999809E+01 0.  1.
    10030    2    1    2    0    0  0.00000000000E+00  0.00000000000E+00  0.19290279711E+03  0.30800943893E+04  0.30740478132E+04 0.  0.
        5    1    3    3  502    0 -0.73699402268E+03 -0.51014571372E+01  0.14478943315E+04  0.16246865235E+04  0.46999998093E+01 0. -1.
       -5    1    3    3    0  502  0.73699402268E+03  0.51014571372E+01 -0.12549915344E+04  0.14554078658E+04  0.46999998093E+01 0.  1.
</event>
<event>
 5   0  0.2612331E-06  0.2454432E+04  0.7818609E-02  0.8419402E-01
       -1   -1    0    0    0  501  0.00000000000E+00  0.00000000000E+00  0.95523866482E+03  0.95523866484E+03  0.50400001928E-02 0.  1.
        1   -1    0    0  501    0  0.00000000000E+00  0.00000000000E+00 -0.15766308499E+04  0.15766308500E+04  0.50400001928E-02 0. -1.
    10030    2    1    2    0    0  0.00000000000E+00  0.00000000000E+00 -0.62139218512E+03  0.25318695148E+04  0.24544317045E+04 0.  0.
        4    1    3    3  502    0  0.26940688928E+02  0.10789679744E+04  0.29182057703E+03  0.11180601739E+04  0.12699999809E+01 0.  1.
       -4    1    3    3    0  502 -0.26940688928E+02 -0.10789679744E+04 -0.91321276215E+03  0.14138093409E+04  0.12699999809E+01 0. -1.
</event>
<event>
 5   0  0.7094341E-06  0.3263469E+04  0.7818609E-02  0.8172253E-01
        2   -1    0    0  501    0  0.00000000000E+00  0.00000000000E+00  0.21937121901E+04  0.21937121901E+04  0.25500000920E-02 0.  1.
       -2   -1    0    0    0  501  0.00000000000E+00  0.00000000000E+00 -0.12137221969E+04  0.12137221969E+04  0.25500000920E-02 0. -1.
    10030    2    1    2    0    0  0.00000000000E+00  0.00000000000E+00  0.97998999320E+03  0.34074343870E+04  0.32634688163E+04 0.  0.
        3    1    3    3  502    0  0.12238581240E+04  0.10618812877E+04  0.69120476219E+03  0.17615858226E+04  0.10100000352E+00 0. -1.
       -3    1    3    3    0  502 -0.12238581240E+04 -0.10618812877E+04  0.28878523101E+03  0.16458485644E+04  0.10100000352E+00 0.  1.
</event>
<event>
 5   0  0.2624011E-06  0.3078972E+04  0.7818609E-02  0.8221533E-01
       -1   -1    0    0    0  501  0.00000000000E+00  0.00000000000E+00  0.18918704010E+04  0.18918704010E+04  0.50400001928E-02 0. -1.
        1   -1    0    0  501    0  0.00000000000E+00  0.00000000000E+00 -0.12527377690E+04  0.12527377690E+04  0.50400001928E-02 0.  1.
    10030    2    1    2    0    0  0.00000000000E+00  0.00000000000E+00  0.63913263205E+03  0.31446081700E+04  0.30789722346E+04 0.  0.
        1    1    3    3  502    0 -0.57978878847E+03  0.81037514540E+03  0.15181051572E+04  0.18159036824E+04  0.50400001928E-02 0. -1.
       -1    1    3    3    0  502  0.57978878847E+03 -0.81037514540E+03 -0.87897252511E+03  0.13287044876E+04  0.50400001928E-02 0.  1.
</event>
<event>
 5   0  0.7094341E-06  0.3148755E+04  0.7818609E-02  0.8202483E-01
        2   -1    0    0  501    0  0.00000000000E+00  0.00000000000E+00  0.17756795148E+04  0.17756795148E+04  0.25500000920E-02 0. -1.
       -2   -1    0    0    0  501  0.00000000000E+00  0.00000000000E+00 -0.13958967636E+04  0.13958967636E+04  0.25500000920E-02 0.  1.
    10030    2    1    2    0    0  0.00000000000E+00  0.00000000000E+00  0.37978275122E+03  0.31715762784E+04  0.31487554926E+04 0.  0.
        3    1    3    3  502    0 -0.98606480970E+03  0.27498788916E+02 -0.10460244794E+04  0.14377924795E+04  0.10100000352E+00 0.  1.
       -3    1    3    3    0  502  0.98606480970E+03 -0.27498788916E+02  0.14258072307E+04  0.17337837989E+04  0.10100000352E+00 0. -1.
</event>
<event>
 5   0  0.2598987E-06  0.3037864E+04  0.7818609E-02  0.8233001E-01
        1   -1    0    0  501    0  0.00000000000E+00  0.00000000000E+00  0.18775397918E+04  0.18775397918E+04  0.50400001928E-02 0. -1.
       -1   -1    0    0    0  501  0.00000000000E+00  0.00000000000E+00 -0.12288176581E+04  0.12288176581E+04  0.50400001928E-02 0.  1.
    10030    2    1    2    0    0  0.00000000000E+00  0.00000000000E+00  0.64872213369E+03  0.31063574498E+04  0.30378637559E+04 0.  0.
        2    1    3    3  502    0 -0.59002556493E+03 -0.12946431173E+04  0.86825889665E+03  0.16667646745E+04  0.25500000920E-02 0.  1.
       -2    1    3    3    0  502  0.59002556493E+03  0.12946431173E+04 -0.21953676296E+03  0.14395927753E+04  0.25500000920E-02 0. -1.
</event>
<event>
 5   0  0.7071012E-06  0.3097612E+04  0.7818609E-02  0.8216394E-01
       -2   -1    0    0    0  501  0.00000000000E+00  0.00000000000E+00  0.19315804126E+04  0.19315804126E+04  0.25500000920E-02 0.  1.
        2   -1    0    0  501    0  0.00000000000E+00  0.00000000000E+00 -0.12418847277E+04  0.12418847277E+04  0.25500000920E-02 0. -1.
    10030    2    1    2    0    0  0.00000000000E+00  0.00000000000E+00  0.68969568498E+03  0.31734651403E+04  0.30976121221E+04 0.  0.
        1    1    3    3  502    0 -0.13905706268E+04 -0.14356901980E+03 -0.33818770129E+03  0.14382870551E+04  0.50400001928E-02 0. -1.
       -1    1    3    3    0  502  0.13905706268E+04  0.14356901980E+03  0.10278833863E+04  0.17351780852E+04  0.50400001928E-02 0.  1.
</event>
<event>
 5   0  0.7414808E-06  0.3127341E+04  0.7818609E-02  0.8208274E-01
        2   -1    0    0  501    0  0.00000000000E+00  0.00000000000E+00  0.16491177044E+04  0.16491177044E+04  0.25500000920E-02 0.  1.
       -2   -1    0    0    0  501  0.00000000000E+00  0.00000000000E+00 -0.14826505125E+04  0.14826505125E+04  0.25500000920E-02 0. -1.
    10030    2    1    2    0    0  0.00000000000E+00  0.00000000000E+00  0.16646719195E+03  0.31317682169E+04  0.31273408574E+04 0.  0.
        2    1    3    3  502    0 -0.11979204042E+04 -0.89423083672E+02 -0.91921073873E+03  0.15125998033E+04  0.25500000920E-02 0. -1.
       -2    1    3    3    0  502  0.11979204042E+04  0.89423083672E+02  0.10856779307E+04  0.16191684137E+04  0.25500000920E-02 0.  1.
</event>
<event>
 5   0  0.2393250E-06  0.2944129E+04  0.7818609E-02  0.8259868E-01
       -3   -1    0    0    0  501  0.00000000000E+00  0.00000000000E+00  0.11729398515E+04  0.11729398559E+04  0.10100000352E+00 0. -1.
        3   -1    0    0  501    0  0.00000000000E+00  0.00000000000E+00 -0.18474725198E+04  0.18474725226E+04  0.10100000352E+00 0.  1.
    10030    2    1    2    0    0  0.00000000000E+00  0.00000000000E+00 -0.67453266831E+03  0.30204123784E+04  0.29441291777E+04 0.  0.
        2    1    3    3  502    0 -0.59392850976E+03  0.87433406564E+03  0.71386023824E+03  0.12754636697E+04  0.25500000920E-02 0. -1.
       -2    1    3    3    0  502  0.59392850976E+03 -0.87433406564E+03 -0.13883929065E+04  0.17449487087E+04  0.25500000920E-02 0.  1.
</event>
<event>
 5   0  0.2612331E-06  0.3090136E+04  0.7818609E-02  0.8218450E-01
       -1   -1    0    0    0  501  0.00000000000E+00  0.00000000000E+00  0.11566419770E+04  0.11566419770E+04  0.50400001928E-02 0.  1.
        1   -1    0    0  501    0  0.00000000000E+00  0.00000000000E+00 -0.20639360115E+04  0.20639360115E+04  0.50400001928E-02 0. -1.
    10030    2    1    2    0    0  0.00000000000E+00  0.00000000000E+00 -0.90729403455E+03  0.32205779885E+04  0.30901359379E+04 0.  0.
        4    1    3    3  502    0 -0.35131815894E+03  0.12389725485E+04  0.43606059119E+03  0.13596425548E+04  0.12699999809E+01 0.  1.
       -4    1    3    3    0  502  0.35131815894E+03 -0.12389725485E+04 -0.13433546257E+04  0.18609354337E+04  0.12699999809E+01 0. -1.
</event>
<event>
 5   0  0.2393250E-06  0.3174875E+04  0.7818609E-02  0.8195484E-01
        3   -1    0    0  501    0  0.00000000000E+00  0.00000000000E+00  0.10199978183E+04  0.10199978233E+04  0.10100000352E+00 0.  1.
       -3   -1    0    0    0  501  0.00000000000E+00  0.00000000000E+00 -0.24705523591E+04  0.24705523612E+04  0.10100000352E+00 0. -1.
    10030    2    1    2    0    0  0.00000000000E+00  0.00000000000E+00 -0.14505545408E+04  0.34905501845E+04  0.31748751336E+04 0.  0.
        5    1    3    3  502    0 -0.56394598356E+03 -0.65343929464E+03 -0.21900032286E+04  0.23539656360E+04  0.46999998093E+01 0. -1.
       -5    1    3    3    0  502  0.56394598356E+03  0.65343929464E+03  0.73944868771E+03  0.11365845485E+04  0.46999998093E+01 0.  1.
</event>
<event>
 5   0  0.7363513E-06  0.3081523E+04  0.7818609E-02  0.8220827E-01
       -2   -1    0    0    0  501  0.00000000000E+00  0.00000000000E+00  0.12571505190E+04  0.12571505190E+04  0.25500000920E-02 0. -1.
        2   -1    0    0  501    0  0.00000000000E+00  0.00000000000E+00 -0.18883544343E+04  0.18883544343E+04  0.25500000920E-02 0.  1.
    10030    2    1    2    0    0  0.00000000000E+00  0.00000000000E+00 -0.63120391523E+03  0.31455049533E+04  0.30815228425E+04 0.  0.
        4    1    3    3  502    0  0.11519871735E+04  0.74738429101E+03  0.39768174980E+03  0.14296188700E+04  0.12699999809E+01 0. -1.
       -4    1    3    3    0  502 -0.11519871735E+04 -0.74738429101E+03 -0.10288856650E+04  0.17158860833E+04  0.12699999809E+01 0.  1.
</event>
<event>
 5   0  0.7079223E-06  0.2963278E+04  0.7818609E-02  0.8254295E-01
       -2   -1    0    0    0  501  0.00000000000E+00  0.00000000000E+00  0.16078494474E+04  0.16078494474E+04  0.25500000920E-02 0.  1.
        2   -1    0    0  501    0  0.00000000000E+00  0.00000000000E+00 -0.13653356958E+04  0.13653356958E+04  0.25500000920E-02 0. -1.
    10030    2    1    2    0    0  0.00000000000E+00  0.00000000000E+00  0.24251375163E+03  0.29731851431E+04  0.29632780794E+04 0.  0.
        5    1    3    3  502    0 -0.81569172533E+02  0.85707671314E+03  0.13311067116E+04  0.15852763765E+04  0.46999998093E+01 0.  1.
       -5    1    3    3    0  502  0.81569172533E+02 -0.85707671314E+03 -0.10885929600E+04  0.13879087667E+04  0.46999998093E+01 0. -1.
</event>
<event>
 5   0  0.2624011E-06  0.3099581E+04  0.7818609E-02  0.8215853E-01
       -1   -1    0    0    0  501  0.00000000000E+00  0.00000000000E+00  0.80163802104E+03  0.80163802106E+03  0.50400001928E-02 0.  1.
        1   -1    0    0  501    0  0.00000000000E+00  0.00000000000E+00 -0.29961783856E+04  0.29961783856E+04  0.50400001928E-02 0. -1.
    10030    2    1    2    0    0  0.00000000000E+00  0.00000000000E+00 -0.21945403646E+04  0.37978164067E+04  0.30995809470E+04 0.  0.
        1    1    3    3  502    0  0.14649280637E+04  0.20767089777E+03 -0.16623684766E+04  0.22254461094E+04  0.50400001928E-02 0. -1.
       -1    1    3    3    0  502 -0.14649280637E+04 -0.20767089777E+03 -0.53217188796E+03  0.15723702973E+04  0.50400001928E-02 0.  1.
</event>
<event>
 5   0  0.7363513E-06  0.2855012E+04  0.7818609E-02  0.8286390E-01
        2   -1    0    0  501    0  0.00000000000E+00  0.00000000000E+00  0.13431554068E+04  0.13431554068E+04  0.25500000920E-02 0. -1.
       -2   -1    0    0    0  501  0.00000000000E+00  0.00000000000E+00 -0.15171541740E+04  0.15171541740E+04  0.25500000920E-02 0.  1.
    10030    2    1    2    0    0  0.00000000000E+00  0.00000000000E+00 -0.17399876715E+03  0.28603095808E+04  0.28550123164E+04 0.  0.
        4    1    3    3  502    0  0.12333491524E+04 -0.71324999273E+03  0.20279433836E+01  0.14247390671E+04  0.12699999809E+01 0. -1.
       -4    1    3    3    0  502 -0.12333491524E+04  0.71324999273E+03 -0.17602671054E+03  0.14355705137E+04  0.12699999809E+01 0.  1.
</event>
<event>
 5   0  0.2393250E-06  0.3043010E+04  0.7818609E-02  0.8231555E-01
       -3   -1    0    0    0  501  0.00000000000E+00  0.00000000000E+00  0.24305612699E+04  0.24305612720E+04  0.10100000352E+00 0. -1.
        3   -1    0    0  501    0  0.00000000000E+00  0.00000000000E+00 -0.95244573415E+03  0.95244573950E+03  0.10100000352E+00 0.  1.
    10030    2    1    2    0    0  0.00000000000E+00  0.00000000000E+00  0.14781155358E+04  0.33830070115E+04  0.30430101713E+04 0.  0.
        3    1    3    3  502    0  0.71284776940E+02  0.15190232605E+04  0.68386698252E+03  0.16673893502E+04  0.10100000352E+00 0.  1.
       -3    1    3    3    0  502 -0.71284776940E+02 -0.15190232605E+04  0.79424855326E+03  0.17156176613E+04  0.10100000352E+00 0. -1.
</event>
<event>
 5   0  0.2517725E-06  0.2937202E+04  0.7818609E-02  0.8261894E-01
       -1   -1    0    0    0  501  0.00000000000E+00  0.00000000000E+00  0.12506423901E+04  0.12506423901E+04  0.50400001928E-02 0. -1.
        1   -1    0    0  501    0  0.00000000000E+00  0.00000000000E+00 -0.17245444431E+04  0.17245444432E+04  0.50400001928E-02 0.  1.
    10030    2    1    2    0    0  0.00000000000E+00  0.00000000000E+00 -0.47390205303E+03  0.29751868333E+04  0.29372016507E+04 0.  0.
        3    1    3    3  502    0  0.17945836948E+03  0.78829491744E+03 -0.14788467597E+04  0.16854085357E+04  0.10100000352E+00 0.  1.
       -3    1    3    3    0  502 -0.17945836948E+03 -0.78829491744E+03  0.10049447067E+04  0.12897782976E+04  0.10100000352E+00 0. -1.
</event>
<event>
 5   0  0.2598987E-06  0.2416140E+04  0.7818609E-02  0.8433486E-01
        1   -1    0    0  501    0  0.00000000000E+00  0.00000000000E+00  0.18304671264E+04  0.18304671264E+04  0.50400001928E-02 0.  1.
       -1   -1    0    0    0  501  0.00000000000E+00  0.00000000000E+00 -0.79730063553E+03  0.79730063555E+03  0.50400001928E-02 0. -1.
    10030    2    1    2    0    0  0.00000000000E+00  0.00000000000E+00  0.10331664909E+04  0.26277677619E+04  0.24161395682E+04 0.  0.
        2    1    3    3  502    0 -0.52519169210E+03  0.10774525548E+04  0.35271314508E+03  0.12494546346E+04  0.25500000920E-02 0.  1.
       -2    1    3    3    0  502  0.52519169210E+03 -0.10774525548E+04  0.68045334578E+03  0.13783131273E+04  0.25500000920E-02 0. -1.
</event>
<event>
 5   0  0.2598987E-06  0.3099768E+04  0.7818609E-02  0.8215802E-01
        1   -1    0    0  501    0  0.00000000000E+00  0.00000000000E+00  0.21576818586E+04  0.21576818586E+04  0.50400001928E-02 0. -1.
       -1   -1    0    0    0  501  0.00000000000E+00  0.00000000000E+00 -0.11132968752E+04  0.11132968752E+04  0.50400001928E-02 0.  1.
    10030    2    1    2    0    0  0.00000000000E+00  0.00000000000E+00  0.10443849834E+04  0.32709787338E+04  0.30997680370E+04 0.  0.
        2    1    3    3  502    0 -0.26509415833E+03  0.65385620858E+03  0.19783907185E+04  0.21004363093E+04  0.25500000920E-02 0. -1.
       -2    1    3    3    0  502  0.26509415833E+03 -0.65385620858E+03 -0.93400573509E+03  0.11705424245E+04  0.25500000920E-02 0.  1.
</event>
<event>
 5   0  0.2624011E-06  0.3115090E+04  0.7818609E-02  0.8211609E-01
        1   -1    0    0  501    0  0.00000000000E+00  0.00000000000E+00  0.21620274834E+04  0.21620274834E+04  0.50400001928E-02 0.  1.
       -1   -1    0    0    0  501  0.00000000000E+00  0.00000000000E+00 -0.11220700536E+04  0.11220700536E+04  0.50400001928E-02 0. -1.
    10030    2    1    2    0    0  0.00000000000E+00  0.00000000000E+00  0.10399574298E+04  0.32840975369E+04  0.31150899147E+04 0.  0.
        1    1    3    3  502    0  0.68954508082E+03 -0.13284818473E+04  0.97417751069E+03  0.17858774480E+04  0.50400001928E-02 0.  1.
       -1    1    3    3    0  502 -0.68954508082E+03  0.13284818473E+04  0.65779919101E+02  0.14982200889E+04  0.50400001928E-02 0. -1.
</event>
<event>
 5   0  0.2674441E-06  0.3142899E+04  0.7818609E-02  0.8204062E-01
       -1   -1    0    0    0  501  0.00000000000E+00  0.00000000000E+00  0.10958519862E+04  0.10958519862E+04  0.50400001928E-02 0. -1.
        1   -1    0    0  501    0  0.00000000000E+00  0.00000000000E+00 -0.22534556014E+04  0.22534556014E+04  0.50400001928E-02 0.  1.
    10030    2    1    2    0    0  0.00000000000E+00  0.00000000000E+00 -0.11576036153E+04  0.33493075876E+04  0.31428991690E+04 0.  0.
        5    1    3    3  502    0 -0.81126876023E+03 -0.13396639406E+04 -0.71600189508E+03  0.17220735405E+04  0.46999998093E+01 0.  1.
       -5    1    3    3    0  502  0.81126876023E+03  0.13396639406E+04 -0.44160172018E+03  0.16272340472E+04  0.46999998093E+01 0. -1.
</event>
<event>
 5   0  0.2598987E-06  0.3053754E+04  0.7818609E-02  0.8228546E-01
       -1   -1    0    0    0  501  0.00000000000E+00  0.00000000000E+00  0.10965655379E+04  0.10965655379E+04  0.50400001928E-02 0.  1.
        1   -1    0    0  501    0  0.00000000000E+00  0.00000000000E+00 -0.21260503072E+04  0.21260503072E+04  0.50400001928E-02 0. -1.
    10030    2    1    2    0    0  0.00000000000E+00  0.00000000000E+00 -0.10294847693E+04  0.32226158451E+04  0.30537540822E+04 0.  0.
        2    1    3    3  502    0  0.12944282265E+04  0.65275235043E+03 -0.10205404078E+04  0.17728882617E+04  0.25500000920E-02 0. -1.
       -2    1    3    3    0  502 -0.12944282265E+04 -0.65275235043E+03 -0.89443614869E+01  0.14497275834E+04  0.25500000920E-02 0.  1.
</event>
<event>
 5   0  0.7363513E-06  0.3122810E+04  0.7818609E-02  0.8209506E-01
        2   -1    0    0  501    0  0.00000000000E+00  0.00000000000E+00  0.21865120032E+04  0.21865120032E+04  0.25500000920E-02 0.  1.
       -2   -1    0    0    0  501  0.00000000000E+00  0.00000000000E+00 -0.11150113626E+04  0.11150113626E+04  0.25500000920E-02 0. -1.
    10030    2    1    2    0    0  0.00000000000E+00  0.00000000000E+00  0.10715006406E+04  0.33015233658E+04  0.31228100987E+04 0.  0.
        4    1    3    3  502    0  0.37529509760E+02  0.11121518725E+04  0.16937382134E+04  0.20265835784E+04  0.12699999809E+01 0.  1.
       -4    1    3    3    0  502 -0.37529509760E+02 -0.11121518725E+04 -0.62223757286E+03  0.12749397874E+04  0.12699999809E+01 0. -1.
</event>
<event>
 5   0  0.7363513E-06  0.2978228E+04  0.7818609E-02  0.8249975E-01
        2   -1    0    0  501    0  0.00000000000E+00  0.00000000000E+00  0.22131055291E+04  0.22131055291E+04  0.25500000920E-02 0. -1.
       -2   -1    0    0    0  501  0.00000000000E+00  0.00000000000E+00 -0.10019677632E+04  0.10019677632E+04  0.25500000920E-02 0.  1.
    10030    2    1    2    0    0  0.00000000000E+00  0.00000000000E+00  0.12111377658E+04  0.32150732923E+04  0.29782279273E+04 0.  0.
        4    1    3    3  502    0  0.12033248600E+04  0.34307635428E+03  0.14770922249E+04  0.19358448175E+04  0.12699999809E+01 0. -1.
       -4    1    3    3    0  502 -0.12033248600E+04 -0.34307635428E+03 -0.26595445905E+03  0.12792284748E+04  0.12699999809E+01 0.  1.
</event>
<event>
 5   0  0.7071012E-06  0.3028462E+04  0.7818609E-02  0.8235650E-01
       -2   -1    0    0    0  501  0.00000000000E+00  0.00000000000E+00  0.15131230472E+04  0.15131230472E+04  0.25500000920E-02 0.  1.
        2   -1    0    0  501    0  0.00000000000E+00  0.00000000000E+00 -0.15153395230E+04  0.15153395230E+04  0.25500000920E-02 0. -1.
    10030    2    1    2    0    0  0.00000000000E+00  0.00000000000E+00 -0.22164758043E+01  0.30284625703E+04  0.30284617592E+04 0.  0.
        1    1    3    3  502    0 -0.34546005646E+03  0.77239493887E+03  0.12546622066E+04  0.15133122100E+04  0.50400001928E-02 0.  1.
       -1    1    3    3    0  502  0.34546005646E+03 -0.77239493887E+03 -0.12568786824E+04  0.15151503603E+04  0.50400001928E-02 0. -1.
</event>
<event>
 5   0  0.2612331E-06  0.3111985E+04  0.7818609E-02  0.8212457E-01
        1   -1    0    0  501    0  0.00000000000E+00  0.00000000000E+00  0.28069936418E+04  0.28069936418E+04  0.50400001928E-02 0. -1.
       -1   -1    0    0    0  501  0.00000000000E+00  0.00000000000E+00 -0.86252847553E+03  0.86252847554E+03  0.50400001928E-02 0.  1.
    10030    2    1    2    0    0  0.00000000000E+00  0.00000000000E+00  0.19444651663E+04  0.36695221173E+04  0.31119845415E+04 0.  0.
        4    1    3    3  502    0  0.45458237035E+03  0.43241065493E+03 -0.70676872726E+03  0.94506494627E+03  0.12699999809E+01 0.  1.
       -4    1    3    3    0  502 -0.45458237035E+03 -0.43241065493E+03  0.26512338935E+04  0.27244571711E+04  0.12699999809E+01 0. -1.
</event>
<event>
 5   0  0.2612331E-06  0.3077492E+04  0.7818609E-02  0.8221942E-01
       -1   -1    0    0    0  501  0.00000000000E+00  0.00000000000E+00  0.13191452368E+04  0.13191452368E+04  0.50400001928E-02 0.  1.
        1   -1    0    0  501    0  0.00000000000E+00  0.00000000000E+00 -0.17949046012E+04  0.17949046012E+04  0.50400001928E-02 0. -1.
    10030    2    1    2    0    0  0.00000000000E+00  0.00000000000E+00 -0.47575936439E+03  0.31140498381E+04  0.30774923917E+04 0.  0.
        4    1    3    3  502    0 -0.58563658936E+03  0.86418836717E+03  0.90601201120E+03  0.13822630452E+04  0.12699999809E+01 0.  1.
       -4    1    3    3    0  502  0.58563658936E+03 -0.86418836717E+03 -0.13817713756E+04  0.17317867929E+04  0.12699999809E+01 0. -1.
</event>
<event>
 5   0  0.7079223E-06  0.2990693E+04  0.7818609E-02  0.8246394E-01
        2   -1    0    0  501    0  0.00000000000E+00  0.00000000000E+00  0.23705252484E+04  0.23705252484E+04  0.25500000920E-02 0. -1.
       -2   -1    0    0    0  501  0.00000000000E+00  0.00000000000E+00 -0.94327635975E+03  0.94327635975E+03  0.25500000920E-02 0.  1.
    10030    2    1    2    0    0  0.00000000000E+00  0.00000000000E+00  0.14272488886E+04  0.33138016081E+04  0.29906925131E+04 0.  0.
        5    1    3    3  502    0  0.89507879015E+03  0.59515527854E+03 -0.43823577484E+03  0.11607965069E+04  0.46999998093E+01 0.  1.
       -5    1    3    3    0  502 -0.89507879015E+03 -0.59515527854E+03  0.18654846634E+04  0.21530051012E+04  0.46999998093E+01 0. -1.
</event>
<event>
 5   0  0.2674441E-06  0.2237290E+04  0.7818609E-02  0.8503066E-01
       -1   -1    0    0    0  501  0.00000000000E+00  0.00000000000E+00  0.88645517715E+03  0.88645517717E+03  0.50400001928E-02 0. -1.
        1   -1    0    0  501    0  0.00000000000E+00  0.00000000000E+00 -0.14116523021E+04  0.14116523021E+04  0.50400001928E-02 0.  1.
    10030    2    1    2    0    0  0.00000000000E+00  0.00000000000E+00 -0.52519712499E+03  0.22981074793E+04  0.22372898709E+04 0.  0.
        5    1    3    3  502    0 -0.47958252244E+03  0.73430416363E+03  0.45064152224E+03  0.98605368622E+03  0.46999998093E+01 0. -1.
       -5    1    3    3    0  502  0.47958252244E+03 -0.73430416363E+03 -0.97583864722E+03  0.13120537931E+04  0.46999998093E+01 0.  1.
</event>
<event>
 5   0  0.2674441E-06  0.3079606E+04  0.7818609E-02  0.8221357E-01
       -1   -1    0    0    0  501  0.00000000000E+00  0.00000000000E+00  0.92572771325E+03  0.92572771326E+03  0.50400001928E-02 0.  1.
        1   -1    0    0  501    0  0.00000000000E+00  0.00000000000E+00 -0.25612210529E+04  0.25612210529E+04  0.50400001928E-02 0. -1.
    10030    2    1    2    0    0  0.00000000000E+00  0.00000000000E+00 -0.16354933397E+04  0.34869487662E+04  0.30796060193E+04 0.  0.
        5    1    3    3  502    0 -0.29954113681E+03 -0.25408868111E+03  0.86803925714E+03  0.95278549130E+03  0.46999998093E+01 0.  1.
       -5    1    3    3    0  502  0.29954113681E+03  0.25408868111E+03 -0.25035325968E+04  0.25341632749E+04  0.46999998093E+01 0. -1.
</event>
<event>
 5   0  0.7414808E-06  0.3078655E+04  0.7818609E-02  0.8221620E-01
        2   -1    0    0  501    0  0.00000000000E+00  0.00000000000E+00  0.22739037531E+04  0.22739037531E+04  0.25500000920E-02 0.  1.
       -2   -1    0    0    0  501  0.00000000000E+00  0.00000000000E+00 -0.10420535240E+04  0.10420535240E+04  0.25500000920E-02 0. -1.
    10030    2    1    2    0    0  0.00000000000E+00  0.00000000000E+00  0.12318502291E+04  0.33159572771E+04  0.30786551734E+04 0.  0.
        2    1    3    3  502    0  0.16399044480E+03 -0.73637262715E+03 -0.82928637071E+03  0.11210947313E+04  0.25500000920E-02 0. -1.
       -2    1    3    3    0  502 -0.16399044480E+03  0.73637262715E+03  0.20611365998E+04  0.21948625458E+04  0.25500000920E-02 0.  1.
</event>
<event>
 5   0  0.2517725E-06  0.2789595E+04  0.7818609E-02  0.8306506E-01
       -1   -1    0    0    0  501  0.00000000000E+00  0.00000000000E+00  0.12978262352E+04  0.12978262352E+04  0.50400001928E-02 0. -1.
        1   -1    0    0  501    0  0.00000000000E+00  0.00000000000E+00 -0.14990138451E+04  0.14990138451E+04  0.50400001928E-02 0.  1.
    10030    2    1    2    0    0  0.00000000000E+00  0.00000000000E+00 -0.20118760992E+03  0.27968400803E+04  0.27895945907E+04 0.  0.
        3    1    3    3  502    0 -0.11835640465E+04 -0.73680762970E+03 -0.14253725331E+03  0.14014371959E+04  0.10100000352E+00 0. -1.
       -3    1    3    3    0  502  0.11835640465E+04  0.73680762970E+03 -0.58650356611E+02  0.13954028844E+04  0.10100000352E+00 0.  1.
</event>
<event>
 5   0  0.7094341E-06  0.3098446E+04  0.7818609E-02  0.8216164E-01
       -2   -1    0    0    0  501  0.00000000000E+00  0.00000000000E+00  0.27982609091E+04  0.27982609091E+04  0.25500000920E-02 0.  1.
        2   -1    0    0  501    0  0.00000000000E+00  0.00000000000E+00 -0.85770847718E+03  0.85770847719E+03  0.25500000920E-02 0. -1.
    10030    2    1    2    0    0  0.00000000000E+00  0.00000000000E+00  0.19405524319E+04  0.36559693863E+04  0.30984461287E+04 0.  0.
        3    1    3    3  502    0  0.31511924270E+02  0.42001451512E+03  0.27294054484E+04  0.27617131108E+04  0.10100000352E+00 0.  1.
       -3    1    3    3    0  502 -0.31511924270E+02 -0.42001451512E+03 -0.78885301654E+03  0.89425627545E+03  0.10100000352E+00 0. -1.
</event>
<event>
 5   0  0.2393250E-06  0.3128935E+04  0.7818609E-02  0.8207841E-01
       -3   -1    0    0    0  501  0.00000000000E+00  0.00000000000E+00  0.10615330955E+04  0.10615331003E+04  0.10100000352E+00 0.  1.
        3   -1    0    0  501    0  0.00000000000E+00  0.00000000000E+00 -0.23056831381E+04  0.23056831403E+04  0.10100000352E+00 0. -1.
    10030    2    1    2    0    0  0.00000000000E+00  0.00000000000E+00 -0.12441500426E+04  0.33672162406E+04  0.31289352635E+04 0.  0.
        5    1    3    3  502    0 -0.15052251622E+03  0.67055312532E+02  0.10521603611E+04  0.10649962245E+04  0.46999998093E+01 0.  1.
       -5    1    3    3    0  502  0.15052251622E+03 -0.67055312532E+02 -0.22963104036E+04  0.23022200161E+04  0.46999998093E+01 0. -1.
</event>
<event>
 5   0  0.7363513E-06  0.3009133E+04  0.7818609E-02  0.8241128E-01
       -2   -1    0    0    0  501  0.00000000000E+00  0.00000000000E+00  0.14151642526E+04  0.14151642526E+04  0.25500000920E-02 0.  1.
        2   -1    0    0  501    0  0.00000000000E+00  0.00000000000E+00 -0.15996168766E+04  0.15996168766E+04  0.25500000920E-02 0. -1.
    10030    2    1    2    0    0  0.00000000000E+00  0.00000000000E+00 -0.18445262395E+03  0.30147811292E+04  0.30091331786E+04 0.  0.
        4    1    3    3  502    0  0.75549528174E+03 -0.54252905454E+03  0.10926210352E+04  0.14348983362E+04  0.12699999809E+01 0.  1.
       -4    1    3    3    0  502 -0.75549528174E+03  0.54252905454E+03 -0.12770736592E+04  0.15798827930E+04  0.12699999809E+01 0. -1.
</event>
<event>
 5   0  0.7363513E-06  0.3104784E+04  0.7818609E-02  0.8214426E-01
       -2   -1    0    0    0  501  0.00000000000E+00  0.00000000000E+00  0.17740927199E+04  0.17740927199E+04  0.25500000920E-02 0. -1.
        2   -1    0    0  501    0  0.00000000000E+00  0.00000000000E+00 -0.13583966638E+04  0.13583966638E+04  0.25500000920E-02 0.  1.
    10030    2    1    2    0    0  0.00000000000E+00  0.00000000000E+00  0.41569605613E+03  0.31324893837E+04  0.31047844575E+04 0.  0.
        4    1    3    3  502    0 -0.64314703594E+03  0.13868923064E+04 -0.64396122514E+02  0.15301166142E+04  0.12699999809E+01 0.  1.
       -4    1    3    3    0  502  0.64314703594E+03 -0.13868923064E+04  0.48009217864E+03  0.16023727695E+04  0.12699999809E+01 0. -1.
</event>
<event>
 5   0  0.2598987E-06  0.3117176E+04  0.7818609E-02  0.8211040E-01
       -1   -1    0    0    0  501  0.00000000000E+00  0.00000000000E+00  0.30891560629E+04  0.30891560629E+04  0.50400001928E-02 0.  1.
        1   -1    0    0  501    0  0.00000000000E+00  0.00000000000E+00 -0.78636265533E+03  0.78636265535E+03  0.50400001928E-02 0. -1.
    10030    2    1    2    0    0  0.00000000000E+00  0.00000000000E+00  0.23027934075E+04  0.38755187182E+04  0.31171762635E+04 0.  0.
        2    1    3    3  502    0 -0.75321238206E+03 -0.35535384203E+03 -0.48652170082E+03  0.96452507013E+03  0.25500000920E-02 0. -1.
       -2    1    3    3    0  502  0.75321238206E+03  0.35535384203E+03  0.27893151083E+04  0.29109936481E+04  0.25500000920E-02 0.  1.
</event>
<event>
 5   0  0.7071012E-06  0.2099269E+04  0.7818609E-02  0.8561566E-01
       -2   -1    0    0    0  501  0.00000000000E+00  0.00000000000E+00  0.65262480821E+03  0.65262480822E+03  0.25500000920E-02 0. -1.
        2   -1    0    0  501    0  0.00000000000E+00  0.00000000000E+00 -0.16881557656E+04  0.16881557656E+04  0.25500000920E-02 0.  1.
    10030    2    1    2    0    0  0.00000000000E+00  0.00000000000E+00 -0.10355309574E+04  0.23407805738E+04  0.20992687610E+04 0.  0.
        1    1    3    3  502    0 -0.62905877780E+03 -0.43617268672E+02  0.41788670421E+03  0.75646990002E+03  0.50400001928E-02 0. -1.
       -1    1    3    3    0  502  0.62905877780E+03  0.43617268672E+02 -0.14534176616E+04  0.15843106738E+04  0.50400001928E-02 0.  1.
</event>
<event>
 5   0  0.2624011E-06  0.3066978E+04  0.7818609E-02  0.8224859E-01
        1   -1    0    0  501    0  0.00000000000E+00  0.00000000000E+00  0.12488835119E+04  0.12488835119E+04  0.50400001928E-02 0.  1.
       -1   -1    0    0    0  501  0.00000000000E+00  0.00000000000E+00 -0.18829528806E+04  0.18829528806E+04  0.50400001928E-02 0. -1.
    10030    2    1    2    0    0  0.00000000000E+00  0.00000000000E+00 -0.63406936871E+03  0.31318363925E+04  0.30669781912E+04 0.  0.
        1    1    3    3  502    0  0.31902848477E+03 -0.49864654820E+03 -0.17615741822E+04  0.18583786357E+04  0.50400001928E-02 0. -1.
       -1    1    3    3    0  502 -0.31902848477E+03  0.49864654820E+03  0.11275048135E+04  0.12734577569E+04  0.50400001928E-02 0.  1.
</event>
<event>
 5   0  0.2674441E-06  0.2521644E+04  0.7818609E-02  0.8395315E-01
        1   -1    0    0  501    0  0.00000000000E+00  0.00000000000E+00  0.92744779316E+03  0.92744779317E+03  0.50400001928E-02 0. -1.
       -1   -1    0    0    0  501  0.00000000000E+00  0.00000000000E+00 -0.17140283077E+04  0.17140283077E+04  0.50400001928E-02 0.  1.
    10030    2    1    2    0    0  0.00000000000E+00  0.00000000000E+00 -0.78658051452E+03  0.26414761009E+04  0.25216437269E+04 0.  0.
        5    1    3    3  502    0 -0.67931579642E+03 -0.98792060527E+03 -0.80194800607E+03  0.14424284273E+04  0.46999998093E+01 0.  1.
       -5    1    3    3    0  502  0.67931579642E+03  0.98792060527E+03  0.15367491542E+02  0.11990476735E+04  0.46999998093E+01 0. -1.
</event>
<event>
 5   0  0.7071012E-06  0.3034891E+04  0.7818609E-02  0.8233837E-01
       -2   -1    0    0    0  501  0.00000000000E+00  0.00000000000E+00  0.18337311067E+04  0.18337311067E+04  0.25500000920E-02 0.  1.
        2   -1    0    0  501    0  0.00000000000E+00  0.00000000000E+00 -0.12557137545E+04  0.12557137545E+04  0.25500000920E-02 0. -1.
    10030    2    1    2    0    0  0.00000000000E+00  0.00000000000E+00  0.57801735219E+03  0.30894448613E+04  0.30348913475E+04 0.  0.
        1    1    3    3  502    0 -0.12386726501E+03  0.12212027420E+04  0.11972128753E+04  0.17146422091E+04  0.50400001928E-02 0.  1.
       -1    1    3    3    0  502  0.12386726501E+03 -0.12212027420E+04 -0.61919552314E+03  0.13748026521E+04  0.50400001928E-02 0. -1.
</event>
<event>
 5   0  0.2674441E-06  0.3105347E+04  0.7818609E-02  0.8214272E-01
        1   -1    0    0  501    0  0.00000000000E+00  0.00000000000E+00  0.18813891117E+04  0.18813891117E+04  0.50400001928E-02 0.  1.
       -1   -1    0    0    0  501  0.00000000000E+00  0.00000000000E+00 -0.12813912625E+04  0.12813912625E+04  0.50400001928E-02 0. -1.
    10030    2    1    2    0    0  0.00000000000E+00  0.00000000000E+00  0.59999784919E+03  0.31627803743E+04  0.31053473681E+04 0.  0.
        5    1    3    3  502    0  0.48491432406E+03 -0.45681316509E+03  0.17284187617E+04  0.18523697458E+04  0.46999998093E+01 0.  1.
       -5    1    3    3    0  502 -0.48491432406E+03  0.45681316509E+03 -0.11284209125E+04  0.13104106285E+04  0.46999998093E+01 0. -1.
</event>
<event>
 5   0  0.2517725E-06  0.3000735E+04  0.7818609E-02  0.8243521E-01
        1   -1    0    0  501    0  0.00000000000E+00  0.00000000000E+00  0.19343272186E+04  0.19343272186E+04  0.50400001928E-02 0. -1.
       -1   -1    0    0    0  501  0.00000000000E+00  0.00000000000E+00 -0.11637652488E+04  0.11637652488E+04  0.50400001928E-02 0.  1.
    10030    2    1    2    0    0  0.00000000000E+00  0.00000000000E+00  0.77056196973E+03  0.30980924674E+04  0.30007351078E+04 0.  0.
        3    1    3    3  502    0  0.13905877803E+04 -0.31784333481E+03  0.86549979855E+03  0.16684869408E+04  0.10100000352E+00 0. -1.
       -3    1    3    3    0  502 -0.13905877803E+04  0.31784333481E+03 -0.94937828819E+02  0.14296055266E+04  0.10100000352E+00 0.  1.
</event>
<event>
 5   0  0.2612331E-06  0.3016781E+04  0.7818609E-02  0.8238955E-01
       -1   -1    0    0    0  501  0.00000000000E+00  0.00000000000E+00  0.87397396245E+03  0.87397396247E+03  0.50400001928E-02 0.  1.
        1   -1    0    0  501    0  0.00000000000E+00  0.00000000000E+00 -0.26033295010E+04  0.26033295010E+04  0.50400001928E-02 0. -1.
    10030    2    1    2    0    0  0.00000000000E+00  0.00000000000E+00 -0.17293555385E+04  0.34773034634E+04  0.30167811983E+04 0.  0.
        4    1    3    3  502    0  0.10773493295E+04  0.79598425329E+03 -0.16640644478E+04  0.21362079975E+04  0.12699999809E+01 0. -1.
       -4    1    3    3    0  502 -0.10773493295E+04 -0.79598425329E+03 -0.65291090731E+02  0.13410954659E+04  0.12699999809E+01 0.  1.
</event>
<event>
 5   0  0.7079223E-06  0.2018711E+04  0.7818609E-02  0.8597922E-01
        2   -1    0    0  501    0  0.00000000000E+00  0.00000000000E+00  0.88901743856E+03  0.88901743856E+03  0.25500000920E-02 0. -1.
       -2   -1    0    0    0  501  0.00000000000E+00  0.00000000000E+00 -0.11459830624E+04  0.11459830624E+04  0.25500000920E-02 0.  1.
    10030    2    1    2    0    0  0.00000000000E+00  0.00000000000E+00 -0.25696562380E+03  0.20350005009E+04  0.20187113976E+04 0.  0.
        5    1    3    3  502    0  0.10155800101E+03 -0.12601248187E+03  0.87584120185E+03  0.89068124153E+03  0.46999998093E+01 0. -1.
       -5    1    3    3    0  502 -0.10155800101E+03  0.12601248187E+03 -0.11328068257E+04  0.11443192594E+04  0.46999998093E+01 0.  1.
</event>
<event>
 5   0  0.7071012E-06  0.3051955E+04  0.7818609E-02  0.8229048E-01
       -2   -1    0    0    0  501  0.00000000000E+00  0.00000000000E+00  0.14930650358E+04  0.14930650358E+04  0.25500000920E-02 0.  1.
        2   -1    0    0  501    0  0.00000000000E+00  0.00000000000E+00 -0.15596155012E+04  0.15596155012E+04  0.25500000920E-02 0. -1.
    10030    2    1    2    0    0  0.00000000000E+00  0.00000000000E+00 -0.66550465386E+02  0.30526805370E+04  0.30519550286E+04 0.  0.
        1    1    3    3  502    0 -0.25211038404E+03 -0.74288979709E+03  0.12759142410E+04  0.14977990675E+04  0.50400001928E-02 0.  1.
       -1    1    3    3    0  502  0.25211038404E+03  0.74288979709E+03 -0.13424647064E+04  0.15548814695E+04  0.50400001928E-02 0. -1.
</event>
<event>
 5   0  0.2598987E-06  0.2264428E+04  0.7818609E-02  0.8492080E-01
       -1   -1    0    0    0  501  0.00000000000E+00  0.00000000000E+00  0.13845729897E+04  0.13845729897E+04  0.50400001928E-02 0.  1.
        1   -1    0    0  501    0  0.00000000000E+00  0.00000000000E+00 -0.92585125385E+03  0.92585125387E+03  0.50400001928E-02 0. -1.
    10030    2    1    2    0    0  0.00000000000E+00  0.00000000000E+00  0.45872173587E+03  0.23104242436E+04  0.22644280855E+04 0.  0.
        2    1    3    3  502    0 -0.10841651595E+04 -0.19445599489E+03 -0.38033839408E+02  0.11021224069E+04  0.25500000920E-02 0.  1.
       -2    1    3    3    0  502  0.10841651595E+04  0.19445599489E+03  0.49675557528E+03  0.12083018367E+04  0.25500000920E-02 0. -1.
</event>
<event>
 5   0  0.2674441E-06  0.3071683E+04  0.7818609E-02  0.8223552E-01
       -1   -1    0    0    0  501  0.00000000000E+00  0.00000000000E+00  0.11797927231E+04  0.11797927231E+04  0.50400001928E-02 0.  1.
        1   -1    0    0  501    0  0.00000000000E+00  0.00000000000E+00 -0.19993420318E+04  0.19993420318E+04  0.50400001928E-02 0. -1.
    10030    2    1    2    0    0  0.00000000000E+00  0.00000000000E+00 -0.81954930872E+03  0.31791347549E+04  0.30716830436E+04 0.  0.
        5    1    3    3  502    0  0.90944263659E+03  0.39017797047E+03  0.80581629973E+03  0.12762001241E+04  0.46999998093E+01 0.  1.
       -5    1    3    3    0  502 -0.90944263659E+03 -0.39017797047E+03 -0.16253656085E+04  0.19029346308E+04  0.46999998093E+01 0. -1.
</event>
<event>
 5   0  0.7094341E-06  0.3061980E+04  0.7818609E-02  0.8226250E-01
        2   -1    0    0  501    0  0.00000000000E+00  0.00000000000E+00  0.16013968371E+04  0.16013968371E+04  0.25500000920E-02 0. -1.
       -2   -1    0    0    0  501  0.00000000000E+00  0.00000000000E+00 -0.14636790991E+04  0.14636790991E+04  0.25500000920E-02 0.  1.
    10030    2    1    2    0    0  0.00000000000E+00  0.00000000000E+00  0.13771773800E+03  0.30650759362E+04  0.30619804570E+04 0.  0.
        3    1    3    3  502    0  0.74734156956E+03 -0.90596726858E+03 -0.91429234960E+03  0.14883637405E+04  0.10100000352E+00 0.  1.
       -3    1    3    3    0  502 -0.74734156956E+03  0.90596726858E+03  0.10520100876E+04  0.15767121957E+04  0.10100000352E+00 0. -1.
</event>
<event>
 5   0  0.7071012E-06  0.3053522E+04  0.7818609E-02  0.8228610E-01
        2   -1    0    0  501    0  0.00000000000E+00  0.00000000000E+00  0.25812176011E+04  0.25812176011E+04  0.25500000920E-02 0.  1.
       -2   -1    0    0    0  501  0.00000000000E+00  0.00000000000E+00 -0.90306198730E+03  0.90306198730E+03  0.25500000920E-02 0. -1.
    10030    2    1    2    0    0  0.00000000000E+00  0.00000000000E+00  0.16781556138E+04  0.34842795884E+04  0.30535222262E+04 0.  0.
        1    1    3    3  502    0 -0.33561336144E+03 -0.14886791757E+04  0.89256802614E+03  0.17679026268E+04  0.50400001928E-02 0. -1.
       -1    1    3    3    0  502  0.33561336144E+03  0.14886791757E+04  0.78558758763E+03  0.17163769616E+04  0.50400001928E-02 0.  1.
</event>
<event>
 5   0  0.2674441E-06  0.2901879E+04  0.7818609E-02  0.8272319E-01
        1   -1    0    0  501    0  0.00000000000E+00  0.00000000000E+00  0.15818547363E+04  0.15818547363E+04  0.50400001928E-02 0.  1.
       -1   -1    0    0    0  501  0.00000000000E+00  0.00000000000E+00 -0.13308587548E+04  0.13308587548E+04  0.50400001928E-02 0. -1.
    10030    2    1    2    0    0  0.00000000000E+00  0.00000000000E+00  0.25099598152E+03  0.29127134912E+04  0.29018788567E+04 0.  0.
        5    1    3    3  502    0  0.18786794870E+03  0.19705753344E+03 -0.13049816914E+04  0.13330886477E+04  0.46999998093E+01 0. -1.
       -5    1    3    3    0  502 -0.18786794870E+03 -0.19705753344E+03  0.15559776729E+04  0.15796248435E+04  0.46999998093E+01 0.  1.
</event>
<event>
 5   0  0.2598987E-06  0.3139649E+04  0.7818609E-02  0.8204940E-01
       -1   -1    0    0    0  501  0.00000000000E+00  0.00000000000E+00  0.16347734477E+04  0.16347734477E+04  0.50400001928E-02 0.  1.
        1   -1    0    0  501    0  0.00000000000E+00  0.00000000000E+00 -0.15074561615E+04  0.15074561615E+04  0.50400001928E-02 0. -1.
    10030    2    1    2    0    0  0.00000000000E+00  0.00000000000E+00  0.12731728619E+03  0.31422296091E+04  0.31396492201E+04 0.  0.
        2    1    3    3  502    0  0.22970958096E+03 -0.65833238010E+03  0.14712929177E+04  0.16281495213E+04  0.25500000920E-02 0.  1.
       -2    1    3    3    0  502 -0.22970958096E+03  0.65833238010E+03 -0.13439756315E+04  0.15140800878E+04  0.25500000920E-02 0. -1.
</event>
<event>
 5   0  0.2674441E-06  0.2123451E+04  0.7818609E-02  0.8550983E-01
       -1   -1    0    0    0  501  0.00000000000E+00  0.00000000000E+00  0.13049277625E+04  0.13049277626E+04  0.50400001928E-02 0. -1.
        1   -1    0    0  501    0  0.00000000000E+00  0.00000000000E+00 -0.86384977606E+03  0.86384977608E+03  0.50400001928E-02 0.  1.
    10030    2    1    2    0    0  0.00000000000E+00  0.00000000000E+00  0.44107798648E+03  0.21687775386E+04  0.21234514880E+04 0.  0.
        5    1    3    3  502    0  0.14101942967E+03 -0.78856864381E+03 -0.49112150772E+03  0.93965387824E+03  0.46999998093E+01 0.  1.
       -5    1    3    3    0  502 -0.14101942967E+03  0.78856864381E+03  0.93219949420E+03  0.12291236604E+04  0.46999998093E+01 0. -1.
</event>
<event>
 5   0  0.2598987E-06  0.3112706E+04  0.7818609E-02  0.8212260E-01
        1   -1    0    0  501    0  0.00000000000E+00  0.00000000000E+00  0.16900193445E+04  0.16900193445E+04  0.50400001928E-02 0. -1.
       -1   -1    0    0    0  501  0.00000000000E+00  0.00000000000E+00 -0.14332582044E+04  0.14332582044E+04  0.50400001928E-02 0.  1.
    10030    2    1    2    0    0  0.00000000000E+00  0.00000000000E+00  0.25676114008E+03  0.31232775489E+04  0.31127056341E+04 0.  0.
        2    1    3    3  502    0 -0.87296973180E+03  0.85146420562E+03 -0.84194400725E+03  0.14818694806E+04  0.25500000920E-02 0.  1.
       -2    1    3    3    0  502  0.87296973180E+03 -0.85146420562E+03  0.10987051473E+04  0.16414080684E+04  0.25500000920E-02 0. -1.
</event>
<event>
 5   0  0.2674441E-06  0.3058378E+04  0.7818609E-02  0.8227254E-01
        1   -1    0    0  501    0  0.00000000000E+00  0.00000000000E+00  0.16322075847E+04  0.16322075847E+04  0.50400001928E-02 0.  1.
       -1   -1    0    0    0  501  0.00000000000E+00  0.00000000000E+00 -0.14326723677E+04  0.14326723677E+04  0.50400001928E-02 0. -1.
    10030    2    1    2    0    0  0.00000000000E+00  0.00000000000E+00  0.19953521701E+03  0.30648799524E+04  0.30583778086E+04 0.  0.
        5    1    3    3  502    0  0.13208102419E+04  0.58976731313E+03 -0.39730248651E+03  0.15000788427E+04  0.46999998093E+01 0. -1.
       -5    1    3    3    0  502 -0.13208102419E+04 -0.58976731313E+03  0.59683770352E+03  0.15648011097E+04  0.46999998093E+01 0.  1.
</event>
<event>
 5   0  0.2598987E-06  0.3156315E+04  0.7818609E-02  0.8200450E-01
       -1   -1    0    0    0  501  0.00000000000E+00  0.00000000000E+00  0.10986498186E+04  0.10986498187E+04  0.50400001928E-02 0.  1.
        1   -1    0    0  501    0  0.00000000000E+00  0.00000000000E+00 -0.22669476173E+04  0.22669476173E+04  0.50400001928E-02 0. -1.
    10030    2    1    2    0    0  0.00000000000E+00  0.00000000000E+00 -0.11682977987E+04  0.33655974360E+04  0.31563153129E+04 0.  0.
        2    1    3    3  502    0 -0.13211071407E+04 -0.86137589197E+03 -0.52299568529E+03  0.16615706399E+04  0.25500000920E-02 0. -1.
       -2    1    3    3    0  502  0.13211071407E+04  0.86137589197E+03 -0.64530211339E+03  0.17040267961E+04  0.25500000920E-02 0.  1.
</event>
<event>
 5   0  0.7094341E-06  0.3098750E+04  0.7818609E-02  0.8216081E-01
        2   -1    0    0  501    0  0.00000000000E+00  0.00000000000E+00  0.16613355403E+04  0.16613355403E+04  0.25500000920E-02 0.  1.
       -2   -1    0    0    0  501  0.00000000000E+00  0.00000000000E+00 -0.14449596240E+04  0.14449596240E+04  0.25500000920E-02 0. -1.
    10030    2    1    2    0    0  0.00000000000E+00  0.00000000000E+00  0.21637591631E+03  0.31062951644E+04  0.30987499272E+04 0.  0.
        3    1    3    3  502    0 -0.10423421992E+04  0.14394064436E+03 -0.10318439621E+04  0.14737361167E+04  0.10100000352E+00 0. -1.
       -3    1    3    3    0  502  0.10423421992E+04 -0.14394064436E+03  0.12482198784E+04  0.16325590477E+04  0.10100000352E+00 0.  1.
</event>
<event>
 5   0  0.7414808E-06  0.2902754E+04  0.7818609E-02  0.8272058E-01
        2   -1    0    0  501    0  0.00000000000E+00  0.00000000000E+00  0.10236343831E+04  0.10236343831E+04  0.25500000920E-02 0.  1.
       -2   -1    0    0    0  501  0.00000000000E+00  0.00000000000E+00 -0.20578595741E+04  0.20578595741E+04  0.25500000920E-02 0. -1.
    10030    2    1    2    0    0  0.00000000000E+00  0.00000000000E+00 -0.10342251910E+04  0.30814939572E+04  0.29027544268E+04 0.  0.
        2    1    3    3  502    0  0.12837138991E+04 -0.62951008081E+03 -0.78206350573E+03  0.16296710231E+04  0.25500000920E-02 0. -1.
       -2    1    3    3    0  502 -0.12837138991E+04  0.62951008081E+03 -0.25216168523E+03  0.14518229341E+04  0.25500000920E-02 0.  1.
</event>
<event>
 5   0  0.7071012E-06  0.3158078E+04  0.7818609E-02  0.8199977E-01
        2   -1    0    0  501    0  0.00000000000E+00  0.00000000000E+00  0.27255957877E+04  0.27255957877E+04  0.25500000920E-02 0.  1.
       -2   -1    0    0    0  501  0.00000000000E+00  0.00000000000E+00 -0.91479619466E+03  0.91479619467E+03  0.25500000920E-02 0. -1.
    10030    2    1    2    0    0  0.00000000000E+00  0.00000000000E+00  0.18107995931E+04  0.36403919824E+04  0.31580783111E+04 0.  0.
        1    1    3    3  502    0  0.31282203000E+03 -0.12143409522E+04  0.20115841262E+04  0.23704329282E+04  0.50400001928E-02 0. -1.
       -1    1    3    3    0  502 -0.31282203000E+03  0.12143409522E+04 -0.20078453310E+03  0.12699590542E+04  0.50400001928E-02 0.  1.
</event>
<event>
 5   0  0.2598987E-06  0.2918821E+04  0.7818609E-02  0.8267300E-01
       -1   -1    0    0    0  501  0.00000000000E+00  0.00000000000E+00  0.12793247166E+04  0.12793247166E+04  0.50400001928E-02 0.  1.
        1   -1    0    0  501    0  0.00000000000E+00  0.00000000000E+00 -0.16648463163E+04  0.16648463163E+04  0.50400001928E-02 0. -1.
    10030    2    1    2    0    0  0.00000000000E+00  0.00000000000E+00 -0.38552159967E+03  0.29441710329E+04  0.29188210235E+04 0.  0.
        2    1    3    3  502    0  0.11306294251E+04 -0.90153712645E+03 -0.39141530130E+03  0.14980981361E+04  0.25500000920E-02 0. -1.
       -2    1    3    3    0  502 -0.11306294251E+04  0.90153712645E+03  0.58937016301E+01  0.14460728968E+04  0.25500000920E-02 0.  1.
</event>
<event>
 5   0  0.7363513E-06  0.3080968E+04  0.7818609E-02  0.8220980E-01
        2   -1    0    0  501    0  0.00000000000E+00  0.00000000000E+00  0.20138030921E+04  0.20138030921E+04  0.25500000920E-02 0. -1.
       -2   -1    0    0    0  501  0.00000000000E+00  0.00000000000E+00 -0.11784128132E+04  0.11784128132E+04  0.25500000920E-02 0.  1.
    10030    2    1    2    0    0  0.00000000000E+00  0.00000000000E+00  0.83539027895E+03  0.31922159053E+04  0.30809682679E+04 0.  0.
        4    1    3    3  502    0 -0.99106905971E+03 -0.67298474109E+03 -0.58576004351E+03  0.13335076994E+04  0.12699999809E+01 0.  1.
       -4    1    3    3    0  502  0.99106905971E+03  0.67298474109E+03  0.14211503225E+04  0.18587082059E+04  0.12699999809E+01 0. -1.
</event>
<event>
 5   0  0.2624011E-06  0.3055079E+04  0.7818609E-02  0.8228175E-01
        1   -1    0    0  501    0  0.00000000000E+00  0.00000000000E+00  0.22882622215E+04  0.22882622215E+04  0.50400001928E-02 0.  1.
       -1   -1    0    0    0  501  0.00000000000E+00  0.00000000000E+00 -0.10197155302E+04  0.10197155302E+04  0.50400001928E-02 0. -1.
    10030    2    1    2    0    0  0.00000000000E+00  0.00000000000E+00  0.12685466913E+04  0.33079777517E+04  0.30550787384E+04 0.  0.
        1    1    3    3  502    0  0.25593098389E+03  0.66177441768E+03 -0.83045628513E+03  0.10922928591E+04  0.50400001928E-02 0. -1.
       -1    1    3    3    0  502 -0.25593098389E+03 -0.66177441768E+03  0.20990029765E+04  0.22156848927E+04  0.50400001928E-02 0.  1.
</event>
<event>
 5   0  0.2612331E-06  0.3113012E+04  0.7818609E-02  0.8212176E-01
       -1   -1    0    0    0  501  0.00000000000E+00  0.00000000000E+00  0.12294153632E+04  0.12294153633E+04  0.50400001928E-02 0.  1.
        1   -1    0    0  501    0  0.00000000000E+00  0.00000000000E+00 -0.19706207175E+04  0.19706207175E+04  0.50400001928E-02 0. -1.
    10030    2    1    2    0    0  0.00000000000E+00  0.00000000000E+00 -0.74120535426E+03  0.32000360808E+04  0.31130122937E+04 0.  0.
        4    1    3    3  502    0 -0.11971105679E+04 -0.84469345457E+03 -0.91077219325E+03  0.17251342977E+04  0.12699999809E+01 0. -1.
       -4    1    3    3    0  502  0.11971105679E+04  0.84469345457E+03  0.16956683899E+03  0.14749017831E+04  0.12699999809E+01 0.  1.
</event>
<event>
 5   0  0.7094341E-06  0.2365843E+04  0.7818609E-02  0.8452403E-01
       -2   -1    0    0    0  501  0.00000000000E+00  0.00000000000E+00  0.11244590743E+04  0.11244590743E+04  0.25500000920E-02 0. -1.
        2   -1    0    0  501    0  0.00000000000E+00  0.00000000000E+00 -0.12444237785E+04  0.12444237785E+04  0.25500000920E-02 0.  1.
    10030    2    1    2    0    0  0.00000000000E+00  0.00000000000E+00 -0.11996470427E+03  0.23688828528E+04  0.23658432831E+04 0.  0.
        3    1    3    3  502    0  0.49710841550E+03 -0.10015770530E+04  0.32655796382E+03  0.11648662944E+04  0.10100000352E+00 0.  1.
       -3    1    3    3    0  502 -0.49710841550E+03  0.10015770530E+04 -0.44652266809E+03  0.12040165585E+04  0.10100000352E+00 0. -1.
</event>
<event>
 5   0  0.2674441E-06  0.3090711E+04  0.7818609E-02  0.8218292E-01
        1   -1    0    0  501    0  0.00000000000E+00  0.00000000000E+00  0.96296828550E+03  0.96296828551E+03  0.50400001928E-02 0.  1.
       -1   -1    0    0    0  501  0.00000000000E+00  0.00000000000E+00 -0.24799605115E+04  0.24799605115E+04  0.50400001928E-02 0. -1.
    10030    2    1    2    0    0  0.00000000000E+00  0.00000000000E+00 -0.15169922260E+04  0.34429287970E+04  0.30907108062E+04 0.  0.
        5    1    3    3  502    0 -0.12189609438E+04  0.15960067143E+03  0.28456750189E+03  0.12618791186E+04  0.46999998093E+01 0.  1.
       -5    1    3    3    0  502  0.12189609438E+04 -0.15960067143E+03 -0.18015597279E+04  0.21810496784E+04  0.46999998093E+01 0. -1.
</event>
<event>
 5   0  0.7094341E-06  0.3066469E+04  0.7818609E-02  0.8225001E-01
        2   -1    0    0  501    0  0.00000000000E+00  0.00000000000E+00  0.31675915290E+04  0.31675915290E+04  0.25500000920E-02 0. -1.
       -2   -1    0    0    0  501  0.00000000000E+00  0.00000000000E+00 -0.74214376295E+03  0.74214376296E+03  0.25500000920E-02 0.  1.
    10030    2    1    2    0    0  0.00000000000E+00  0.00000000000E+00  0.24254477660E+04  0.39097352919E+04  0.30664691727E+04 0.  0.
        3    1    3    3  502    0 -0.10865523817E+04 -0.36987192882E+03  0.25088415892E+04  0.27589286783E+04  0.10100000352E+00 0. -1.
       -3    1    3    3    0  502  0.10865523817E+04  0.36987192882E+03 -0.83393823211E+02  0.11508066136E+04  0.10100000352E+00 0.  1.
</event>
<event>
 5   0  0.2612331E-06  0.3108492E+04  0.7818609E-02  0.8213411E-01
       -1   -1    0    0    0  501  0.00000000000E+00  0.00000000000E+00  0.12778963074E+04  0.12778963074E+04  0.50400001928E-02 0.  1.
        1   -1    0    0  501    0  0.00000000000E+00  0.00000000000E+00 -0.18903574960E+04  0.18903574960E+04  0.50400001928E-02 0. -1.
    10030    2    1    2    0    0  0.00000000000E+00  0.00000000000E+00 -0.61246118860E+03  0.31682538034E+04  0.31084921514E+04 0.  0.
        4    1    3    3  502    0 -0.51947108193E+02  0.11800633214E+04  0.72335409772E+03  0.13850959202E+04  0.12699999809E+01 0.  1.
       -4    1    3    3    0  502  0.51947108193E+02 -0.11800633214E+04 -0.13358152863E+04  0.17831578832E+04  0.12699999809E+01 0. -1.
</event>
<event>
 5   0  0.2674441E-06  0.2809035E+04  0.7818609E-02  0.8300469E-01
       -1   -1    0    0    0  501  0.00000000000E+00  0.00000000000E+00  0.59813590448E+03  0.59813590450E+03  0.50400001928E-02 0. -1.
        1   -1    0    0  501    0  0.00000000000E+00  0.00000000000E+00 -0.32980283270E+04  0.32980283270E+04  0.50400001928E-02 0.  1.
    10030    2    1    2    0    0  0.00000000000E+00  0.00000000000E+00 -0.26998924225E+04  0.38961642315E+04  0.28090348210E+04 0.  0.
        5    1    3    3  502    0 -0.96619326761E+03 -0.18310332394E+02  0.63705479349E+02  0.96847569755E+03  0.46999998093E+01 0. -1.
       -5    1    3    3    0  502  0.96619326761E+03  0.18310332394E+02 -0.27635979019E+04  0.29276885340E+04  0.46999998093E+01 0.  1.
</event>
<event>
 5   0  0.7079223E-06  0.1939175E+04  0.7818609E-02  0.8635598E-01
        2   -1    0    0  501    0  0.00000000000E+00  0.00000000000E+00  0.11175968106E+04  0.11175968106E+04  0.25500000920E-02 0.  1.
       -2   -1    0    0    0  501  0.00000000000E+00  0.00000000000E+00 -0.84118019375E+03  0.84118019375E+03  0.25500000920E-02 0. -1.
    10030    2    1    2    0    0  0.00000000000E+00  0.00000000000E+00  0.27641661683E+03  0.19587770043E+04  0.19391753935E+04 0.  0.
        5    1    3    3  502    0  0.26287475144E+03 -0.28312039544E+03  0.10364767781E+04  0.11061493998E+04  0.46999998093E+01 0.  1.
       -5    1    3    3    0  502 -0.26287475144E+03  0.28312039544E+03 -0.76006016124E+03  0.85262760450E+03  0.46999998093E+01 0. -1.
</event>
<event>
 5   0  0.2624011E-06  0.3106769E+04  0.7818609E-02  0.8213883E-01
        1   -1    0    0  501    0  0.00000000000E+00  0.00000000000E+00  0.27899658613E+04  0.27899658613E+04  0.50400001928E-02 0. -1.
       -1   -1    0    0    0  501  0.00000000000E+00  0.00000000000E+00 -0.86488607791E+03  0.86488607793E+03  0.50400001928E-02 0.  1.
    10030    2    1    2    0    0  0.00000000000E+00  0.00000000000E+00  0.19250797834E+04  0.36548519392E+04  0.31067685021E+04 0.  0.
        1    1    3    3  502    0  0.27849067771E+03 -0.12505528820E+04 -0.70808121732E+02  0.12831419869E+04  0.50400001928E-02 0.  1.
       -1    1    3    3    0  502 -0.27849067771E+03  0.12505528820E+04  0.19958879051E+04  0.23717099524E+04  0.50400001928E-02 0. -1.
</event>
<event>
 5   0  0.7079223E-06  0.3101649E+04  0.7818609E-02  0.8215286E-01
        2   -1    0    0  501    0  0.00000000000E+00  0.00000000000E+00  0.23543556672E+04  0.23543556672E+04  0.25500000920E-02 0. -1.
       -2   -1    0    0    0  501  0.00000000000E+00  0.00000000000E+00 -0.10215349254E+04  0.10215349254E+04  0.25500000920E-02 0.  1.
    10030    2    1    2    0    0  0.00000000000E+00  0.00000000000E+00  0.13328207418E+04  0.33758905927E+04  0.31016489427E+04 0.  0.
        5    1    3    3  502    0 -0.15367615946E+04  0.69141266195E+02  0.45252103303E+03  0.16035005733E+04  0.46999998093E+01 0. -1.
       -5    1    3    3    0  502  0.15367615946E+04 -0.69141266195E+02  0.88029970878E+03  0.17723900193E+04  0.46999998093E+01 0.  1.
</event>
<event>
 5   0  0.2598987E-06  0.3076068E+04  0.7818609E-02  0.8222337E-01
       -1   -1    0    0    0  501  0.00000000000E+00  0.00000000000E+00  0.14434347661E+04  0.14434347661E+04  0.50400001928E-02 0.  1.
        1   -1    0    0  501    0  0.00000000000E+00  0.00000000000E+00 -0.16388329059E+04  0.16388329059E+04  0.50400001928E-02 0. -1.
    10030    2    1    2    0    0  0.00000000000E+00  0.00000000000E+00 -0.19539813986E+03  0.30822676720E+04  0.30760678745E+04 0.  0.
        2    1    3    3  502    0 -0.11674262875E+04 -0.79246383914E+02 -0.10979014131E+04  0.16045409434E+04  0.25500000920E-02 0. -1.
       -2    1    3    3    0  502  0.11674262875E+04  0.79246383914E+02  0.90250327324E+03  0.14777267286E+04  0.25500000920E-02 0.  1.
</event>
<event>
 5   0  0.2517725E-06  0.3032420E+04  0.7818609E-02  0.8234533E-01
        1   -1    0    0  501    0  0.00000000000E+00  0.00000000000E+00  0.25558588454E+04  0.25558588454E+04  0.50400001928E-02 0. -1.
       -1   -1    0    0    0  501  0.00000000000E+00  0.00000000000E+00 -0.89945987057E+03  0.89945987058E+03  0.50400001928E-02 0.  1.
    10030    2    1    2    0    0  0.00000000000E+00  0.00000000000E+00  0.16563989748E+04  0.34553187160E+04  0.30324198036E+04 0.  0.
        3    1    3    3  502    0  0.11850887788E+04  0.78603208358E+03  0.22891477030E+03  0.14403762815E+04  0.10100000352E+00 0. -1.
       -3    1    3    3    0  502 -0.11850887788E+04 -0.78603208358E+03  0.14274842045E+04  0.20149424345E+04  0.10100000352E+00 0.  1.
</event>
<event>
 5   0  0.2674441E-06  0.3066358E+04  0.7818609E-02  0.8225032E-01
        1   -1    0    0  501    0  0.00000000000E+00  0.00000000000E+00  0.28135731588E+04  0.28135731588E+04  0.50400001928E-02 0. -1.
       -1   -1    0    0    0  501  0.00000000000E+00  0.00000000000E+00 -0.83546382981E+03  0.83546382983E+03  0.50400001928E-02 0.  1.
    10030    2    1    2    0    0  0.00000000000E+00  0.00000000000E+00  0.19781093290E+04  0.36490369887E+04  0.30663584962E+04 0.  0.
        5    1    3    3  502    0  0.20149837513E+03 -0.12947340070E+03 -0.81305487838E+03  0.84761151592E+03  0.46999998093E+01 0.  1.
       -5    1    3    3    0  502 -0.20149837513E+03  0.12947340070E+03  0.27911642074E+04  0.28014254727E+04  0.46999998093E+01 0. -1.
</event>
<event>
 5   0  0.7414808E-06  0.3114817E+04  0.7818609E-02  0.8211683E-01
       -2   -1    0    0    0  501  0.00000000000E+00  0.00000000000E+00  0.15909694721E+04  0.15909694721E+04  0.25500000920E-02 0. -1.
        2   -1    0    0  501    0  0.00000000000E+00  0.00000000000E+00 -0.15245553094E+04  0.15245553094E+04  0.25500000920E-02 0.  1.
    10030    2    1    2    0    0  0.00000000000E+00  0.00000000000E+00  0.66414162746E+02  0.31155247815E+04  0.31148168202E+04 0.  0.
        2    1    3    3  502    0 -0.11646970981E+04 -0.37712977862E+03  0.99611730221E+03  0.15782889089E+04  0.25500000920E-02 0. -1.
       -2    1    3    3    0  502  0.11646970981E+04  0.37712977862E+03 -0.92970313946E+03  0.15372358726E+04  0.25500000920E-02 0.  1.
</event>
<event>
 5   0  0.7071012E-06  0.3146724E+04  0.7818609E-02  0.8203031E-01
       -2   -1    0    0    0  501  0.00000000000E+00  0.00000000000E+00  0.13996416118E+04  0.13996416118E+04  0.25500000920E-02 0. -1.
        2   -1    0    0  501    0  0.00000000000E+00  0.00000000000E+00 -0.17686445993E+04  0.17686445993E+04  0.25500000920E-02 0.  1.
    10030    2    1    2    0    0  0.00000000000E+00  0.00000000000E+00 -0.36900298754E+03  0.31682862111E+04  0.31467243779E+04 0.  0.
        1    1    3    3  502    0  0.76520938938E+03 -0.13473584541E+04  0.90404849785E+02  0.15521253978E+04  0.50400001928E-02 0. -1.
       -1    1    3    3    0  502 -0.76520938938E+03  0.13473584541E+04 -0.45940783733E+03  0.16161608133E+04  0.50400001928E-02 0.  1.
</event>
<event>
 5   0  0.2624011E-06  0.2972102E+04  0.7818609E-02  0.8251743E-01
       -1   -1    0    0    0  501  0.00000000000E+00  0.00000000000E+00  0.11827007474E+04  0.11827007474E+04  0.50400001928E-02 0.  1.
        1   -1    0    0  501    0  0.00000000000E+00  0.00000000000E+00 -0.18672069211E+04  0.18672069211E+04  0.50400001928E-02 0. -1.
    10030    2    1    2    0    0  0.00000000000E+00  0.00000000000E+00 -0.68450617363E+03  0.30499076685E+04  0.29721016276E+04 0.  0.
        1    1    3    3  502    0 -0.43145338873E+03 -0.77909280866E+03 -0.15630217910E+04  0.17989371168E+04  0.50400001928E-02 0. -1.
       -1    1    3    3    0  502  0.43145338873E+03  0.77909280866E+03  0.87851561738E+03  0.12509705517E+04  0.50400001928E-02 0.  1.
</event>
<event>
 5   0  0.2517725E-06  0.3108511E+04  0.7818609E-02  0.8213406E-01
        1   -1    0    0  501    0  0.00000000000E+00  0.00000000000E+00  0.17671242729E+04  0.17671242729E+04  0.50400001928E-02 0.  1.
       -1   -1    0    0    0  501  0.00000000000E+00  0.00000000000E+00 -0.13670288271E+04  0.13670288271E+04  0.50400001928E-02 0. -1.
    10030    2    1    2    0    0  0.00000000000E+00  0.00000000000E+00  0.40009544577E+03  0.31341531000E+04  0.31085107831E+04 0.  0.
        3    1    3    3  502    0  0.47727316560E+03  0.76812605402E+03  0.14745569022E+04  0.17297761061E+04  0.10100000352E+00 0.  1.
       -3    1    3    3    0  502 -0.47727316560E+03 -0.76812605402E+03 -0.10744614564E+04  0.14043769939E+04  0.10100000352E+00 0. -1.
</event>
<event>
 5   0  0.2517725E-06  0.2679826E+04  0.7818609E-02  0.8341581E-01
       -1   -1    0    0    0  501  0.00000000000E+00  0.00000000000E+00  0.11659022609E+04  0.11659022609E+04  0.50400001928E-02 0. -1.
        1   -1    0    0  501    0  0.00000000000E+00  0.00000000000E+00 -0.15398944157E+04  0.15398944157E+04  0.50400001928E-02 0.  1.
    10030    2    1    2    0    0  0.00000000000E+00  0.00000000000E+00 -0.37399215486E+03  0.27057966766E+04  0.26798256516E+04 0.  0.
        3    1    3    3  502    0  0.10802151019E+03  0.72062469890E+03  0.94835579159E+03  0.11959712877E+04  0.10100000352E+00 0. -1.
       -3    1    3    3    0  502 -0.10802151019E+03 -0.72062469890E+03 -0.13223479464E+04  0.15098253889E+04  0.10100000352E+00 0.  1.
</event>
<event>
 5   0  0.2598987E-06  0.3089218E+04  0.7818609E-02  0.8218703E-01
        1   -1    0    0  501    0  0.00000000000E+00  0.00000000000E+00  0.15925143320E+04  0.15925143320E+04  0.50400001928E-02 0. -1.
       -1   -1    0    0    0  501  0.00000000000E+00  0.00000000000E+00 -0.14981444134E+04  0.14981444134E+04  0.50400001928E-02 0.  1.
    10030    2    1    2    0    0  0.00000000000E+00  0.00000000000E+00  0.94369918579E+02  0.30906587454E+04  0.30892176678E+04 0.  0.
        2    1    3    3  502    0 -0.48972193254E+03  0.17952552195E+03  0.15017405633E+04  0.15897426532E+04  0.25500000920E-02 0. -1.
       -2    1    3    3    0  502  0.48972193254E+03 -0.17952552195E+03 -0.14073706447E+04  0.15009160922E+04  0.25500000920E-02 0.  1.
</event>
<event>
 5   0  0.7071012E-06  0.3123175E+04  0.7818609E-02  0.8209406E-01
        2   -1    0    0  501    0  0.00000000000E+00  0.00000000000E+00  0.23250105105E+04  0.23250105105E+04  0.25500000920E-02 0. -1.
       -2   -1    0    0    0  501  0.00000000000E+00  0.00000000000E+00 -0.10488365970E+04  0.10488365970E+04  0.25500000920E-02 0.  1.
    10030    2    1    2    0    0  0.00000000000E+00  0.00000000000E+00  0.12761739135E+04  0.33738471075E+04  0.31231753789E+04 0.  0.
        1    1    3    3  502    0 -0.85480261311E+03  0.99819651117E+03  0.15492750428E+04  0.20315848347E+04  0.50400001928E-02 0. -1.
       -1    1    3    3    0  502  0.85480261311E+03 -0.99819651117E+03 -0.27310112925E+03  0.13422622728E+04  0.50400001928E-02 0.  1.
</event>
<event>
 5   0  0.7094341E-06  0.2819390E+04  0.7818609E-02  0.8297274E-01
        2   -1    0    0  501    0  0.00000000000E+00  0.00000000000E+00  0.17568838736E+04  0.17568838736E+04  0.25500000920E-02 0.  1.
       -2   -1    0    0    0  501  0.00000000000E+00  0.00000000000E+00 -0.11311160782E+04  0.11311160782E+04  0.25500000920E-02 0. -1.
    10030    2    1    2    0    0  0.00000000000E+00  0.00000000000E+00  0.62576779544E+03  0.28879999518E+04  0.28193897190E+04 0.  0.
        3    1    3    3  502    0 -0.59902562183E+03 -0.12559460323E+04  0.81539547501E+02  0.13938726053E+04  0.10100000352E+00 0.  1.
       -3    1    3    3    0  502  0.59902562183E+03  0.12559460323E+04  0.54422824794E+03  0.14941273466E+04  0.10100000352E+00 0. -1.
</event>
<event>
 5   0  0.2517725E-06  0.2944453E+04  0.7818609E-02  0.8259773E-01
       -1   -1    0    0    0  501  0.00000000000E+00  0.00000000000E+00  0.13219468668E+04  0.13219468668E+04  0.50400001928E-02 0.  1.
        1   -1    0    0  501    0  0.00000000000E+00  0.00000000000E+00 -0.16395904953E+04  0.16395904953E+04  0.50400001928E-02 0. -1.
    10030    2    1    2    0    0  0.00000000000E+00  0.00000000000E+00 -0.31764362849E+03  0.29615373622E+04  0.29444534421E+04 0.  0.
        3    1    3    3  502    0 -0.28440809465E+03 -0.68873297197E+03  0.11182737267E+04  0.13437921004E+04  0.10100000352E+00 0.  1.
       -3    1    3    3    0  502  0.28440809465E+03  0.68873297197E+03 -0.14359173552E+04  0.16177452618E+04  0.10100000352E+00 0. -1.
</event>
<event>
 5   0  0.7363513E-06  0.3075801E+04  0.7818609E-02  0.8222411E-01
        2   -1    0    0  501    0  0.00000000000E+00  0.00000000000E+00  0.13750528332E+04  0.13750528332E+04  0.25500000920E-02 0.  1.
       -2   -1    0    0    0  501  0.00000000000E+00  0.00000000000E+00 -0.17200337419E+04  0.17200337419E+04  0.25500000920E-02 0. -1.
    10030    2    1    2    0    0  0.00000000000E+00  0.00000000000E+00 -0.34498090871E+03  0.30950865751E+04  0.30758005592E+04 0.  0.
        4    1    3    3  502    0 -0.34857522472E+03  0.17207063905E+03 -0.16697795481E+04  0.17144323679E+04  0.12699999809E+01 0. -1.
       -4    1    3    3    0  502  0.34857522472E+03 -0.17207063905E+03  0.13247986394E+04  0.13806542072E+04  0.12699999809E+01 0.  1.
</event>
<event>
 5   0  0.2517725E-06  0.3068591E+04  0.7818609E-02  0.8224411E-01
        1   -1    0    0  501    0  0.00000000000E+00  0.00000000000E+00  0.89024243925E+03  0.89024243926E+03  0.50400001928E-02 0. -1.
       -1   -1    0    0    0  501  0.00000000000E+00  0.00000000000E+00 -0.26442946489E+04  0.26442946489E+04  0.50400001928E-02 0.  1.
    10030    2    1    2    0    0  0.00000000000E+00  0.00000000000E+00 -0.17540522096E+04  0.35345370881E+04  0.30685914152E+04 0.  0.
        3    1    3    3  502    0  0.20010197238E+03  0.70989388988E+03  0.67265216554E+03  0.99822396297E+03  0.10100000352E+00 0. -1.
       -3    1    3    3    0  502 -0.20010197238E+03 -0.70989388988E+03 -0.24267043752E+04  0.25363131252E+04  0.10100000352E+00 0.  1.
</event>
<event>
 5   0  0.2517725E-06  0.2280748E+04  0.7818609E-02  0.8485551E-01
       -1   -1    0    0    0  501  0.00000000000E+00  0.00000000000E+00  0.97394992122E+03  0.97394992123E+03  0.50400001928E-02 0. -1.
        1   -1    0    0  501    0  0.00000000000E+00  0.00000000000E+00 -0.13352355248E+04  0.13352355248E+04  0.50400001928E-02 0.  1.
    10030    2    1    2    0    0  0.00000000000E+00  0.00000000000E+00 -0.36128560358E+03  0.23091854460E+04  0.22807477144E+04 0.  0.
        3    1    3    3  502    0 -0.54451939416E+03 -0.74547609974E+03  0.49719455795E+03  0.10485410934E+04  0.10100000352E+00 0. -1.
       -3    1    3    3    0  502  0.54451939416E+03  0.74547609974E+03 -0.85848016154E+03  0.12606443526E+04  0.10100000352E+00 0.  1.
</event>
<event>
 5   0  0.7094341E-06  0.2944700E+04  0.7818609E-02  0.8259701E-01
        2   -1    0    0  501    0  0.00000000000E+00  0.00000000000E+00  0.25204714102E+04  0.25204714102E+04  0.25500000920E-02 0. -1.
       -2   -1    0    0    0  501  0.00000000000E+00  0.00000000000E+00 -0.86008281035E+03  0.86008281035E+03  0.25500000920E-02 0.  1.
    10030    2    1    2    0    0  0.00000000000E+00  0.00000000000E+00  0.16603885999E+04  0.33805542206E+04  0.29446997361E+04 0.  0.
        3    1    3    3  502    0  0.38156272367E+03 -0.76708755009E+03 -0.54445299850E+03  0.10151071369E+04  0.10100000352E+00 0.  1.
       -3    1    3    3    0  502 -0.38156272367E+03  0.76708755009E+03  0.22048415984E+04  0.23654470837E+04  0.10100000352E+00 0. -1.
</event>
<event>
 5   0  0.2612331E-06  0.2992711E+04  0.7818609E-02  0.8245815E-01
       -1   -1    0    0    0  501  0.00000000000E+00  0.00000000000E+00  0.73308939252E+03  0.73308939254E+03  0.50400001928E-02 0.  1.
        1   -1    0    0  501    0  0.00000000000E+00  0.00000000000E+00 -0.30543075253E+04  0.30543075253E+04  0.50400001928E-02 0. -1.
    10030    2    1    2    0    0  0.00000000000E+00  0.00000000000E+00 -0.23212181328E+04  0.37873969178E+04  0.29927114451E+04 0.  0.
        4    1    3    3  502    0  0.10096722125E+04  0.85736546477E+03 -0.27965727986E+03  0.13537811211E+04  0.12699999809E+01 0.  1.
       -4    1    3    3    0  502 -0.10096722125E+04 -0.85736546477E+03 -0.20415608529E+04  0.24336157967E+04  0.12699999809E+01 0. -1.
</event>
<event>
 5   0  0.2517725E-06  0.3148748E+04  0.7818609E-02  0.8202485E-01
        1   -1    0    0  501    0  0.00000000000E+00  0.00000000000E+00  0.20552348265E+04  0.20552348265E+04  0.50400001928E-02 0.  1.
       -1   -1    0    0    0  501  0.00000000000E+00  0.00000000000E+00 -0.12060199374E+04  0.12060199374E+04  0.50400001928E-02 0. -1.
    10030    2    1    2    0    0  0.00000000000E+00  0.00000000000E+00  0.84921488905E+03  0.32612547639E+04  0.31487484350E+04 0.  0.
        3    1    3    3  502    0  0.10215845564E+04  0.11974494357E+04  0.45948573184E+03  0.16397095184E+04  0.10100000352E+00 0.  1.
       -3    1    3    3    0  502 -0.10215845564E+04 -0.11974494357E+04  0.38972915720E+03  0.16215452455E+04  0.10100000352E+00 0. -1.
</event>
<event>
 5   0  0.7414808E-06  0.3094313E+04  0.7818609E-02  0.8217300E-01
        2   -1    0    0  501    0  0.00000000000E+00  0.00000000000E+00  0.21391359692E+04  0.21391359692E+04  0.25500000920E-02 0. -1.
       -2   -1    0    0    0  501  0.00000000000E+00  0.00000000000E+00 -0.11189999958E+04  0.11189999958E+04  0.25500000920E-02 0.  1.
    10030    2    1    2    0    0  0.00000000000E+00  0.00000000000E+00  0.10201359733E+04  0.32581359650E+04  0.30943129387E+04 0.  0.
        2    1    3    3  502    0  0.39621453573E+03 -0.54462123811E+03  0.19766841142E+04  0.20882716151E+04  0.25500000920E-02 0. -1.
       -2    1    3    3    0  502 -0.39621453573E+03  0.54462123811E+03 -0.95654814084E+03  0.11698643499E+04  0.25500000920E-02 0.  1.
</event>
<event>
 5   0  0.2612331E-06  0.3094417E+04  0.7818609E-02  0.8217272E-01
        1   -1    0    0  501    0  0.00000000000E+00  0.00000000000E+00  0.16095198237E+04  0.16095198238E+04  0.50400001928E-02 0.  1.
       -1   -1    0    0    0  501  0.00000000000E+00  0.00000000000E+00 -0.14873096990E+04  0.14873096990E+04  0.50400001928E-02 0. -1.
    10030    2    1    2    0    0  0.00000000000E+00  0.00000000000E+00  0.12221012479E+03  0.30968295227E+04  0.30944171952E+04 0.  0.
        4    1    3    3  502    0  0.10812513215E+04 -0.22246596398E+02  0.11684275253E+04  0.15921130067E+04  0.12699999809E+01 0.  1.
       -4    1    3    3    0  502 -0.10812513215E+04  0.22246596398E+02 -0.10462174005E+04  0.15047165160E+04  0.12699999809E+01 0. -1.
</event>
<event>
 5   0  0.7071012E-06  0.3079058E+04  0.7818609E-02  0.8221509E-01
        2   -1    0    0  501    0  0.00000000000E+00  0.00000000000E+00  0.31562131946E+04  0.31562131946E+04  0.25500000920E-02 0. -1.
       -2   -1    0    0    0  501  0.00000000000E+00  0.00000000000E+00 -0.75094717794E+03  0.75094717795E+03  0.25500000920E-02 0.  1.
    10030    2    1    2    0    0  0.00000000000E+00  0.00000000000E+00  0.24052660166E+04  0.39071603725E+04  0.30790579023E+04 0.  0.
        1    1    3    3  502    0 -0.14824182069E+04  0.36217749410E+03  0.14608663560E+04  0.21125498308E+04  0.50400001928E-02 0. -1.
       -1    1    3    3    0  502  0.14824182069E+04 -0.36217749410E+03  0.94439966060E+03  0.17946105417E+04  0.50400001928E-02 0.  1.
</event>
<event>
 5   0  0.2598987E-06  0.3073120E+04  0.7818609E-02  0.8223154E-01
        1   -1    0    0  501    0  0.00000000000E+00  0.00000000000E+00  0.16501800556E+04  0.16501800557E+04  0.50400001928E-02 0.  1.
       -1   -1    0    0    0  501  0.00000000000E+00  0.00000000000E+00 -0.14307633758E+04  0.14307633758E+04  0.50400001928E-02 0. -1.
    10030    2    1    2    0    0  0.00000000000E+00  0.00000000000E+00  0.21941667987E+03  0.30809434314E+04  0.30731203602E+04 0.  0.
        2    1    3    3  502    0 -0.19161029687E+03  0.88162082871E+03 -0.11372615417E+04  0.14516658037E+04  0.25500000920E-02 0. -1.
       -2    1    3    3    0  502  0.19161029687E+03 -0.88162082871E+03  0.13566782215E+04  0.16292776277E+04  0.25500000920E-02 0.  1.
</event>
<event>
 5   0  0.2612331E-06  0.3052871E+04  0.7818609E-02  0.8228792E-01
       -1   -1    0    0    0  501  0.00000000000E+00  0.00000000000E+00  0.97534968774E+03  0.97534968775E+03  0.50400001928E-02 0.  1.
        1   -1    0    0  501    0  0.00000000000E+00  0.00000000000E+00 -0.23888923590E+04  0.23888923590E+04  0.50400001928E-02 0. -1.
    10030    2    1    2    0    0  0.00000000000E+00  0.00000000000E+00 -0.14135426713E+04  0.33642420468E+04  0.30528710529E+04 0.  0.
        4    1    3    3  502    0 -0.26622481127E+01 -0.34995383513E+03 -0.23440853724E+04  0.23700659528E+04  0.12699999809E+01 0. -1.
       -4    1    3    3    0  502  0.26622481127E+01  0.34995383513E+03  0.93054270116E+03  0.99417609400E+03  0.12699999809E+01 0.  1.
</event>
<event>
 5   0  0.7094341E-06  0.3139061E+04  0.7818609E-02  0.8205099E-01
        2   -1    0    0  501    0  0.00000000000E+00  0.00000000000E+00  0.16921229701E+04  0.16921229701E+04  0.25500000920E-02 0. -1.
       -2   -1    0    0    0  501  0.00000000000E+00  0.00000000000E+00 -0.14558194879E+04  0.14558194879E+04  0.25500000920E-02 0.  1.
    10030    2    1    2    0    0  0.00000000000E+00  0.00000000000E+00  0.23630348218E+03  0.31479424579E+04  0.31390607485E+04 0.  0.
        3    1    3    3  502    0  0.14444508069E+04  0.36165343162E+02 -0.49650949472E+03  0.15278310621E+04  0.10100000352E+00 0.  1.
       -3    1    3    3    0  502 -0.14444508069E+04 -0.36165343162E+02  0.73281297691E+03  0.16201113959E+04  0.10100000352E+00 0. -1.
</event>
<event>
 5   0  0.2517725E-06  0.3150643E+04  0.7818609E-02  0.8201975E-01
        1   -1    0    0  501    0  0.00000000000E+00  0.00000000000E+00  0.19051325395E+04  0.19051325395E+04  0.50400001928E-02 0. -1.
       -1   -1    0    0    0  501  0.00000000000E+00  0.00000000000E+00 -0.13026066098E+04  0.13026066098E+04  0.50400001928E-02 0.  1.
    10030    2    1    2    0    0  0.00000000000E+00  0.00000000000E+00  0.60252592976E+03  0.32077391493E+04  0.31506432603E+04 0.  0.
        3    1    3    3  502    0  0.32334290039E+03 -0.10229215039E+04 -0.87320999741E+03  0.13832623555E+04  0.10100000352E+00 0.  1.
       -3    1    3    3    0  502 -0.32334290039E+03  0.10229215039E+04  0.14757359272E+04  0.18244767938E+04  0.10100000352E+00 0. -1.
</event>
<event>
 5   0  0.7414808E-06  0.2808312E+04  0.7818609E-02  0.8300692E-01
        2   -1    0    0  501    0  0.00000000000E+00  0.00000000000E+00  0.20065633024E+04  0.20065633024E+04  0.25500000920E-02 0.  1.
       -2   -1    0    0    0  501  0.00000000000E+00  0.00000000000E+00 -0.98260252682E+03  0.98260252683E+03  0.25500000920E-02 0. -1.
    10030    2    1    2    0    0  0.00000000000E+00  0.00000000000E+00  0.10239607756E+04  0.29891658293E+04  0.28083120704E+04 0.  0.
        2    1    3    3  502    0  0.11952759299E+04 -0.71410040207E+03  0.31853405682E+03  0.14283164489E+04  0.25500000920E-02 0.  1.
       -2    1    3    3    0  502 -0.11952759299E+04  0.71410040207E+03  0.70542671880E+03  0.15608493804E+04  0.25500000920E-02 0. -1.
</event>
<event>
 5   0  0.7094341E-06  0.2992418E+04  0.7818609E-02  0.8245899E-01
       -2   -1    0    0    0  501  0.00000000000E+00  0.00000000000E+00  0.15218726626E+04  0.15218726626E+04  0.25500000920E-02 0. -1.
        2   -1    0    0  501    0  0.00000000000E+00  0.00000000000E+00 -0.14709782860E+04  0.14709782860E+04  0.25500000920E-02 0.  1.
    10030    2    1    2    0    0  0.00000000000E+00  0.00000000000E+00  0.50894376600E+02  0.29928509487E+04  0.29924181799E+04 0.  0.
        3    1    3    3  502    0  0.11481822220E+04 -0.72441745709E+03 -0.60356233372E+03  0.14857289686E+04  0.10100000352E+00 0.  1.
       -3    1    3    3    0  502 -0.11481822220E+04  0.72441745709E+03  0.65445671032E+03  0.15071219801E+04  0.10100000352E+00 0. -1.
</event>
<event>
 5   0  0.7414808E-06  0.1970654E+04  0.7818609E-02  0.8620465E-01
       -2   -1    0    0    0  501  0.00000000000E+00  0.00000000000E+00  0.55127623594E+03  0.55127623594E+03  0.25500000920E-02 0. -1.
        2   -1    0    0  501    0  0.00000000000E+00  0.00000000000E+00 -0.17611308245E+04  0.17611308245E+04  0.25500000920E-02 0.  1.
    10030    2    1    2    0    0  0.00000000000E+00  0.00000000000E+00 -0.12098545885E+04  0.23124070604E+04  0.19706542791E+04 0.  0.
        2    1    3    3  502    0  0.41842981649E+03  0.83361934646E+03 -0.23225787168E+03  0.96122237025E+03  0.25500000920E-02 0. -1.
       -2    1    3    3    0  502 -0.41842981649E+03 -0.83361934646E+03 -0.97759671686E+03  0.13511846902E+04  0.25500000920E-02 0.  1.
</event>
<event>
 5   0  0.7414808E-06  0.3095153E+04  0.7818609E-02  0.8217069E-01
       -2   -1    0    0    0  501  0.00000000000E+00  0.00000000000E+00  0.14809176602E+04  0.14809176602E+04  0.25500000920E-02 0. -1.
        2   -1    0    0  501    0  0.00000000000E+00  0.00000000000E+00 -0.16172353615E+04  0.16172353615E+04  0.25500000920E-02 0.  1.
    10030    2    1    2    0    0  0.00000000000E+00  0.00000000000E+00 -0.13631770128E+03  0.30981530217E+04  0.30951526021E+04 0.  0.
        2    1    3    3  502    0 -0.13582349355E+04  0.73809794808E+03 -0.14172626424E+03  0.15523134525E+04  0.25500000920E-02 0.  1.
       -2    1    3    3    0  502  0.13582349355E+04 -0.73809794808E+03  0.54085629552E+01  0.15458395691E+04  0.25500000920E-02 0. -1.
</event>
<event>
 5   0  0.2674441E-06  0.2810871E+04  0.7818609E-02  0.8299901E-01
       -1   -1    0    0    0  501  0.00000000000E+00  0.00000000000E+00  0.20415549883E+04  0.20415549883E+04  0.50400001928E-02 0. -1.
        1   -1    0    0  501    0  0.00000000000E+00  0.00000000000E+00 -0.96752193048E+03  0.96752193049E+03  0.50400001928E-02 0.  1.
    10030    2    1    2    0    0  0.00000000000E+00  0.00000000000E+00  0.10740330578E+04  0.30090769187E+04  0.28108711984E+04 0.  0.
        5    1    3    3  502    0  0.70702034557E+03 -0.11267997913E+04  0.10225056489E+04  0.16778246126E+04  0.46999998093E+01 0.  1.
       -5    1    3    3    0  502 -0.70702034557E+03  0.11267997913E+04  0.51527408902E+02  0.13312523061E+04  0.46999998093E+01 0. -1.
</event>
<event>
 5   0  0.2612331E-06  0.3060632E+04  0.7818609E-02  0.8226626E-01
        1   -1    0    0  501    0  0.00000000000E+00  0.00000000000E+00  0.12159560193E+04  0.12159560193E+04  0.50400001928E-02 0.  1.
       -1   -1    0    0    0  501  0.00000000000E+00  0.00000000000E+00 -0.19259466102E+04  0.19259466102E+04  0.50400001928E-02 0. -1.
    10030    2    1    2    0    0  0.00000000000E+00  0.00000000000E+00 -0.70999059094E+03  0.31419026295E+04  0.30606315515E+04 0.  0.
        4    1    3    3  502    0 -0.88187257934E+03 -0.99890247375E+03 -0.11275472805E+04  0.17455285391E+04  0.12699999809E+01 0. -1.
       -4    1    3    3    0  502  0.88187257934E+03  0.99890247375E+03  0.41755668958E+03  0.13963740903E+04  0.12699999809E+01 0.  1.
</event>
<event>
 5   0  0.7414808E-06  0.3083214E+04  0.7818609E-02  0.8220360E-01
        2   -1    0    0  501    0  0.00000000000E+00  0.00000000000E+00  0.16827399259E+04  0.16827399259E+04  0.25500000920E-02 0. -1.
       -2   -1    0    0    0  501  0.00000000000E+00  0.00000000000E+00 -0.14123107767E+04  0.14123107767E+04  0.25500000920E-02 0.  1.
    10030    2    1    2    0    0  0.00000000000E+00  0.00000000000E+00  0.27042914922E+03  0.30950507026E+04  0.30832137336E+04 0.  0.
        2    1    3    3  502    0  0.80284409010E+02 -0.15272874991E+04 -0.59175557020E+02  0.15305405704E+04  0.25500000920E-02 0.  1.
       -2    1    3    3    0  502 -0.80284409010E+02  0.15272874991E+04  0.32960470624E+03  0.15645101321E+04  0.25500000920E-02 0. -1.
</event>
<event>
 5   0  0.7414808E-06  0.2632044E+04  0.7818609E-02  0.8357397E-01
       -2   -1    0    0    0  501  0.00000000000E+00  0.00000000000E+00  0.96528259162E+03  0.96528259163E+03  0.25500000920E-02 0.  1.
        2   -1    0    0  501    0  0.00000000000E+00  0.00000000000E+00 -0.17942036982E+04  0.17942036982E+04  0.25500000920E-02 0. -1.
    10030    2    1    2    0    0  0.00000000000E+00  0.00000000000E+00 -0.82892110655E+03  0.27594862898E+04  0.26320437653E+04 0.  0.
        2    1    3    3  502    0  0.48252317064E+03  0.66777750229E+03 -0.14903854065E+04  0.17029398294E+04  0.25500000920E-02 0. -1.
       -2    1    3    3    0  502 -0.48252317064E+03 -0.66777750229E+03  0.66146429996E+03  0.10565464604E+04  0.25500000920E-02 0.  1.
</event>
<event>
 5   0  0.2393250E-06  0.2049685E+04  0.7818609E-02  0.8583737E-01
       -3   -1    0    0    0  501  0.00000000000E+00  0.00000000000E+00  0.66734181629E+03  0.66734182393E+03  0.10100000352E+00 0. -1.
        3   -1    0    0  501    0  0.00000000000E+00  0.00000000000E+00 -0.15738590266E+04  0.15738590299E+04  0.10100000352E+00 0.  1.
    10030    2    1    2    0    0  0.00000000000E+00  0.00000000000E+00 -0.90651721033E+03  0.22412008538E+04  0.20496848086E+04 0.  0.
        1    1    3    3  502    0  0.73182077455E+03 -0.68137069859E+03 -0.20760182385E+03  0.10212375788E+04  0.50400001928E-02 0. -1.
       -1    1    3    3    0  502 -0.73182077455E+03  0.68137069859E+03 -0.69891538648E+03  0.12199632750E+04  0.50400001928E-02 0.  1.
</event>
<event>
 5   0  0.7094341E-06  0.3074448E+04  0.7818609E-02  0.8222786E-01
        2   -1    0    0  501    0  0.00000000000E+00  0.00000000000E+00  0.14286223768E+04  0.14286223768E+04  0.25500000920E-02 0.  1.
       -2   -1    0    0    0  501  0.00000000000E+00  0.00000000000E+00 -0.16540813235E+04  0.16540813235E+04  0.25500000920E-02 0. -1.
    10030    2    1    2    0    0  0.00000000000E+00  0.00000000000E+00 -0.22545894664E+03  0.30827037003E+04  0.30744479777E+04 0.  0.
        3    1    3    3  502    0 -0.35687686570E+03  0.10394064102E+04  0.96501997787E+03  0.14625287521E+04  0.10100000352E+00 0.  1.
       -3    1    3    3    0  502  0.35687686570E+03 -0.10394064102E+04 -0.11904789245E+04  0.16201749482E+04  0.10100000352E+00 0. -1.
</event>
<event>
 5   0  0.2598987E-06  0.3090719E+04  0.7818609E-02  0.8218290E-01
        1   -1    0    0  501    0  0.00000000000E+00  0.00000000000E+00  0.21616866233E+04  0.21616866233E+04  0.50400001928E-02 0.  1.
       -1   -1    0    0    0  501  0.00000000000E+00  0.00000000000E+00 -0.11047558343E+04  0.11047558343E+04  0.50400001928E-02 0. -1.
    10030    2    1    2    0    0  0.00000000000E+00  0.00000000000E+00  0.10569307890E+04  0.32664424576E+04  0.30907189513E+04 0.  0.
        2    1    3    3  502    0 -0.47631312561E+03  0.14700095399E+04  0.50916026177E+03  0.16269746197E+04  0.25500000920E-02 0. -1.
       -2    1    3    3    0  502  0.47631312561E+03 -0.14700095399E+04  0.54777052720E+03  0.16394678379E+04  0.25500000920E-02 0.  1.
</event>
<event>
 5   0  0.2624011E-06  0.3040047E+04  0.7818609E-02  0.8232387E-01
        1   -1    0    0  501    0  0.00000000000E+00  0.00000000000E+00  0.26282688300E+04  0.26282688300E+04  0.50400001928E-02 0.  1.
       -1   -1    0    0    0  501  0.00000000000E+00  0.00000000000E+00 -0.87908462804E+03  0.87908462806E+03  0.50400001928E-02 0. -1.
    10030    2    1    2    0    0  0.00000000000E+00  0.00000000000E+00  0.17491842020E+04  0.35073534581E+04  0.30400465305E+04 0.  0.
        1    1    3    3  502    0 -0.99739739863E+03 -0.82048290938E+03  0.17993500644E+04  0.22148711993E+04  0.50400001928E-02 0.  1.
       -1    1    3    3    0  502  0.99739739863E+03  0.82048290938E+03 -0.50165862416E+02  0.12924822587E+04  0.50400001928E-02 0. -1.
</event>
<event>
 5   0  0.7414808E-06  0.3090656E+04  0.7818609E-02  0.8218307E-01
        2   -1    0    0  501    0  0.00000000000E+00  0.00000000000E+00  0.14988875166E+04  0.14988875167E+04  0.25500000920E-02 0.  1.
       -2   -1    0    0    0  501  0.00000000000E+00  0.00000000000E+00 -0.15932073415E+04  0.15932073415E+04  0.25500000920E-02 0. -1.
    10030    2    1    2    0    0  0.00000000000E+00  0.00000000000E+00 -0.94319824863E+02  0.30920948582E+04  0.30906559793E+04 0.  0.
        2    1    3    3  502    0 -0.13607241607E+03 -0.15237412583E+04  0.17142629155E+03  0.15393797771E+04  0.25500000920E-02 0. -1.
       -2    1    3    3    0  502  0.13607241607E+03  0.15237412583E+04 -0.26574611641E+03  0.15527150811E+04  0.25500000920E-02 0.  1.
</event>
<event>
 5   0  0.7079223E-06  0.3119923E+04  0.7818609E-02  0.8210291E-01
       -2   -1    0    0    0  501  0.00000000000E+00  0.00000000000E+00  0.96689775437E+03  0.96689775437E+03  0.25500000920E-02 0.  1.
        2   -1    0    0  501    0  0.00000000000E+00  0.00000000000E+00 -0.25167915151E+04  0.25167915151E+04  0.25500000920E-02 0. -1.
    10030    2    1    2    0    0  0.00000000000E+00  0.00000000000E+00 -0.15498937607E+04  0.34836892695E+04  0.31199231171E+04 0.  0.
        5    1    3    3  502    0 -0.66179315190E+03 -0.47733894694E+03 -0.22594867139E+04  0.24023165791E+04  0.46999998093E+01 0. -1.
       -5    1    3    3    0  502  0.66179315190E+03  0.47733894694E+03  0.70959295318E+03  0.10813726903E+04  0.46999998093E+01 0.  1.
</event>
<event>
 5   0  0.2393250E-06  0.3093226E+04  0.7818609E-02  0.8217599E-01
       -4   -1    0    0    0  501  0.00000000000E+00  0.00000000000E+00  0.15720765034E+04  0.15720770164E+04  0.12699999809E+01 0. -1.
        4   -1    0    0  501    0  0.00000000000E+00  0.00000000000E+00 -0.15215613671E+04  0.15215618972E+04  0.12699999809E+01 0.  1.
    10030    2    1    2    0    0  0.00000000000E+00  0.00000000000E+00  0.50515136281E+02  0.30936389136E+04  0.30932264625E+04 0.  0.
        5    1    3    3  502    0 -0.12284887648E+04  0.65267948179E+03 -0.65071364253E+03  0.15357817181E+04  0.46999998093E+01 0.  1.
       -5    1    3    3    0  502  0.12284887648E+04 -0.65267948179E+03  0.70122877881E+03  0.15578571954E+04  0.46999998093E+01 0. -1.
</event>
<event>
 5   0  0.2674441E-06  0.3060325E+04  0.7818609E-02  0.8226712E-01
       -1   -1    0    0    0  501  0.00000000000E+00  0.00000000000E+00  0.88679285470E+03  0.88679285472E+03  0.50400001928E-02 0. -1.
        1   -1    0    0  501    0  0.00000000000E+00  0.00000000000E+00 -0.26402974596E+04  0.26402974596E+04  0.50400001928E-02 0.  1.
    10030    2    1    2    0    0  0.00000000000E+00  0.00000000000E+00 -0.17535046049E+04  0.35270903143E+04  0.30603247681E+04 0.  0.
        5    1    3    3  502    0  0.13140449876E+04 -0.68209627586E+03 -0.43126838984E+03  0.15420713579E+04  0.46999998093E+01 0. -1.
       -5    1    3    3    0  502 -0.13140449876E+04  0.68209627586E+03 -0.13222362150E+04  0.19850189564E+04  0.46999998093E+01 0.  1.
</event>
<event>
 5   0  0.7363513E-06  0.3035669E+04  0.7818609E-02  0.8233618E-01
       -2   -1    0    0    0  501  0.00000000000E+00  0.00000000000E+00  0.12724508058E+04  0.12724508058E+04  0.25500000920E-02 0.  1.
        2   -1    0    0  501    0  0.00000000000E+00  0.00000000000E+00 -0.18105384505E+04  0.18105384505E+04  0.25500000920E-02 0. -1.
    10030    2    1    2    0    0  0.00000000000E+00  0.00000000000E+00 -0.53808764474E+03  0.30829892563E+04  0.30356686975E+04 0.  0.
        4    1    3    3  502    0 -0.90848618646E+03  0.18349135186E+03  0.95169286514E+03  0.13284340968E+04  0.12699999809E+01 0.  1.
       -4    1    3    3    0  502  0.90848618646E+03 -0.18349135186E+03 -0.14897805099E+04  0.17545551595E+04  0.12699999809E+01 0. -1.
</event>
<event>
 5   0  0.2517725E-06  0.3107074E+04  0.7818609E-02  0.8213799E-01
        1   -1    0    0  501    0  0.00000000000E+00  0.00000000000E+00  0.10450312194E+04  0.10450312194E+04  0.50400001928E-02 0.  1.
       -1   -1    0    0    0  501  0.00000000000E+00  0.00000000000E+00 -0.23094787168E+04  0.23094787168E+04  0.50400001928E-02 0. -1.
    10030    2    1    2    0    0  0.00000000000E+00  0.00000000000E+00 -0.12644474974E+04  0.33545099363E+04  0.31070740961E+04 0.  0.
        3    1    3    3  502    0 -0.78913522941E+03 -0.60012784459E+03  0.65909956049E+03  0.11905041289E+04  0.10100000352E+00 0.  1.
       -3    1    3    3    0  502  0.78913522941E+03  0.60012784459E+03 -0.19235470579E+04  0.21640058073E+04  0.10100000352E+00 0. -1.
</event>
<event>
 5   0  0.2598987E-06  0.3071815E+04  0.7818609E-02  0.8223516E-01
        1   -1    0    0  501    0  0.00000000000E+00  0.00000000000E+00  0.20450244041E+04  0.20450244041E+04  0.50400001928E-02 0. -1.
       -1   -1    0    0    0  501  0.00000000000E+00  0.00000000000E+00 -0.11535376000E+04  0.11535376000E+04  0.50400001928E-02 0.  1.
    10030    2    1    2    0    0  0.00000000000E+00  0.00000000000E+00  0.89148680406E+03  0.31985620041E+04  0.30718154522E+04 0.  0.
        2    1    3    3  502    0 -0.10420432288E+03 -0.79903787431E+03  0.18072465620E+04  0.19787521829E+04  0.25500000920E-02 0. -1.
       -2    1    3    3    0  502  0.10420432288E+03  0.79903787431E+03 -0.91575975795E+03  0.12198098212E+04  0.25500000920E-02 0.  1.
</event>
<event>
 5   0  0.7414808E-06  0.2092416E+04  0.7818609E-02  0.8564592E-01
        2   -1    0    0  501    0  0.00000000000E+00  0.00000000000E+00  0.12870249449E+04  0.12870249449E+04  0.25500000920E-02 0.  1.
       -2   -1    0    0    0  501  0.00000000000E+00  0.00000000000E+00 -0.85045026514E+03  0.85045026515E+03  0.25500000920E-02 0. -1.
    10030    2    1    2    0    0  0.00000000000E+00  0.00000000000E+00  0.43657467972E+03  0.21374752100E+04  0.20924155473E+04 0.  0.
        2    1    3    3  502    0 -0.84862251339E+03  0.49075823889E+03  0.59159769056E+03  0.11449854352E+04  0.25500000920E-02 0.  1.
       -2    1    3    3    0  502  0.84862251339E+03 -0.49075823889E+03 -0.15502301084E+03  0.99248977484E+03  0.25500000920E-02 0. -1.
</event>
<event>
 5   0  0.7094341E-06  0.3138594E+04  0.7818609E-02  0.8205225E-01
        2   -1    0    0  501    0  0.00000000000E+00  0.00000000000E+00  0.22549220338E+04  0.22549220338E+04  0.25500000920E-02 0. -1.
       -2   -1    0    0    0  501  0.00000000000E+00  0.00000000000E+00 -0.10921412654E+04  0.10921412654E+04  0.25500000920E-02 0.  1.
    10030    2    1    2    0    0  0.00000000000E+00  0.00000000000E+00  0.11627807684E+04  0.33470632992E+04  0.31385942098E+04 0.  0.
        3    1    3    3  502    0 -0.51546695326E+02  0.96193475320E+03  0.19025127057E+04  0.21324938773E+04  0.10100000352E+00 0. -1.
       -3    1    3    3    0  502  0.51546695326E+02 -0.96193475320E+03 -0.73973193735E+03  0.12145694219E+04  0.10100000352E+00 0.  1.
</event>
<event>
 5   0  0.2612331E-06  0.2621713E+04  0.7818609E-02  0.8360863E-01
       -1   -1    0    0    0  501  0.00000000000E+00  0.00000000000E+00  0.17941838037E+04  0.17941838037E+04  0.50400001928E-02 0.  1.
        1   -1    0    0  501    0  0.00000000000E+00  0.00000000000E+00 -0.95773080939E+03  0.95773080941E+03  0.50400001928E-02 0. -1.
    10030    2    1    2    0    0  0.00000000000E+00  0.00000000000E+00  0.83645299433E+03  0.27519146131E+04  0.26217132616E+04 0.  0.
        4    1    3    3  502    0  0.12383515410E+04 -0.23171353616E+03  0.38112644767E+02  0.12604205205E+04  0.12699999809E+01 0. -1.
       -4    1    3    3    0  502 -0.12383515410E+04  0.23171353616E+03  0.79834034956E+03  0.14914940927E+04  0.12699999809E+01 0.  1.
</event>
<event>
 5   0  0.7094341E-06  0.3030657E+04  0.7818609E-02  0.8235030E-01
        2   -1    0    0  501    0  0.00000000000E+00  0.00000000000E+00  0.13476858417E+04  0.13476858417E+04  0.25500000920E-02 0. -1.
       -2   -1    0    0    0  501  0.00000000000E+00  0.00000000000E+00 -0.17038247935E+04  0.17038247935E+04  0.25500000920E-02 0.  1.
    10030    2    1    2    0    0  0.00000000000E+00  0.00000000000E+00 -0.35613895178E+03  0.30515106352E+04  0.30306570581E+04 0.  0.
        3    1    3    3  502    0 -0.39080413220E+03  0.11009947547E+04 -0.11497503289E+04  0.16391592810E+04  0.10100000352E+00 0.  1.
       -3    1    3    3    0  502  0.39080413220E+03 -0.11009947547E+04  0.79361137712E+03  0.14123513542E+04  0.10100000352E+00 0. -1.
</event>
<event>
 5   0  0.2517725E-06  0.3063665E+04  0.7818609E-02  0.8225781E-01
        1   -1    0    0  501    0  0.00000000000E+00  0.00000000000E+00  0.18872859554E+04  0.18872859554E+04  0.50400001928E-02 0.  1.
       -1   -1    0    0    0  501  0.00000000000E+00  0.00000000000E+00 -0.12433251624E+04  0.12433251625E+04  0.50400001928E-02 0. -1.
    10030    2    1    2    0    0  0.00000000000E+00  0.00000000000E+00  0.64396079294E+03  0.31306111178E+04  0.30636645489E+04 0.  0.
        3    1    3    3  502    0 -0.44890104886E+02  0.12732925208E+04  0.11909877846E+04  0.17440587370E+04  0.10100000352E+00 0.  1.
       -3    1    3    3    0  502  0.44890104886E+02 -0.12732925208E+04 -0.54702699167E+03  0.13865523808E+04  0.10100000352E+00 0. -1.
</event>
<event>
 5   0  0.7414808E-06  0.3100448E+04  0.7818609E-02  0.8215615E-01
        2   -1    0    0  501    0  0.00000000000E+00  0.00000000000E+00  0.16515619959E+04  0.16515619959E+04  0.25500000920E-02 0.  1.
       -2   -1    0    0    0  501  0.00000000000E+00  0.00000000000E+00 -0.14551039061E+04  0.14551039061E+04  0.25500000920E-02 0. -1.
    10030    2    1    2    0    0  0.00000000000E+00  0.00000000000E+00  0.19645808980E+03  0.31066659020E+04  0.31004479105E+04 0.  0.
        2    1    3    3  502    0 -0.10997620201E+04 -0.85957946979E+03 -0.57754248071E+03  0.15105987829E+04  0.25500000920E-02 0. -1.
       -2    1    3    3    0  502  0.10997620201E+04  0.85957946979E+03  0.77400057051E+03  0.15960671192E+04  0.25500000920E-02 0.  1.
</event>
<event>
 5   0  0.7094341E-06  0.3115957E+04  0.7818609E-02  0.8211372E-01
       -2   -1    0    0    0  501  0.00000000000E+00  0.00000000000E+00  0.10173417276E+04  0.10173417276E+04  0.25500000920E-02 0. -1.
        2   -1    0    0  501    0  0.00000000000E+00  0.00000000000E+00 -0.23859216283E+04  0.23859216283E+04  0.25500000920E-02 0.  1.
    10030    2    1    2    0    0  0.00000000000E+00  0.00000000000E+00 -0.13685799007E+04  0.34032633559E+04  0.31159574010E+04 0.  0.
        3    1    3    3  502    0 -0.52025255757E+03 -0.14650061269E+04 -0.57294962649E+03  0.16568575558E+04  0.10100000352E+00 0. -1.
       -3    1    3    3    0  502  0.52025255757E+03  0.14650061269E+04 -0.79563027420E+03  0.17464058002E+04  0.10100000352E+00 0.  1.
</event>
<event>
 5   0  0.7071012E-06  0.3174245E+04  0.7818609E-02  0.8195652E-01
       -2   -1    0    0    0  501  0.00000000000E+00  0.00000000000E+00  0.14836316446E+04  0.14836316446E+04  0.25500000920E-02 0.  1.
        2   -1    0    0  501    0  0.00000000000E+00  0.00000000000E+00 -0.16978319497E+04  0.16978319497E+04  0.25500000920E-02 0. -1.
    10030    2    1    2    0    0  0.00000000000E+00  0.00000000000E+00 -0.21420030512E+03  0.31814635943E+04  0.31742446080E+04 0.  0.
        1    1    3    3  502    0 -0.11859780643E+04  0.80201137820E+03  0.57943281694E+03  0.15445091807E+04  0.50400001928E-02 0.  1.
       -1    1    3    3    0  502  0.11859780643E+04 -0.80201137820E+03 -0.79363312206E+03  0.16369544136E+04  0.50400001928E-02 0. -1.
</event>
<event>
 5   0  0.2624011E-06  0.3153238E+04  0.7818609E-02  0.8201277E-01
       -1   -1    0    0    0  501  0.00000000000E+00  0.00000000000E+00  0.11405932365E+04  0.11405932365E+04  0.50400001928E-02 0.  1.
        1   -1    0    0  501    0  0.00000000000E+00  0.00000000000E+00 -0.21793291563E+04  0.21793291563E+04  0.50400001928E-02 0. -1.
    10030    2    1    2    0    0  0.00000000000E+00  0.00000000000E+00 -0.10387359198E+04  0.33199223928E+04  0.31532383962E+04 0.  0.
        1    1    3    3  502    0  0.13756043785E+04 -0.34534872968E+03 -0.12443719996E+04  0.18868001550E+04  0.50400001928E-02 0. -1.
       -1    1    3    3    0  502 -0.13756043785E+04  0.34534872968E+03  0.20563607977E+03  0.14331222379E+04  0.50400001928E-02 0.  1.
</event>
<event>
 5   0  0.7094341E-06  0.2944457E+04  0.7818609E-02  0.8259772E-01
       -2   -1    0    0    0  501  0.00000000000E+00  0.00000000000E+00  0.14586386217E+04  0.14586386217E+04  0.25500000920E-02 0. -1.
        2   -1    0    0  501    0  0.00000000000E+00  0.00000000000E+00 -0.14859452721E+04  0.14859452721E+04  0.25500000920E-02 0.  1.
    10030    2    1    2    0    0  0.00000000000E+00  0.00000000000E+00 -0.27306650424E+02  0.29445838938E+04  0.29444572767E+04 0.  0.
        3    1    3    3  502    0  0.13680091084E+04  0.53473090054E+03  0.86705844714E+02  0.14713612644E+04  0.10100000352E+00 0. -1.
       -3    1    3    3    0  502 -0.13680091084E+04 -0.53473090054E+03 -0.11401249514E+03  0.14732226294E+04  0.10100000352E+00 0.  1.
</event>
<event>
 5   0  0.2612331E-06  0.3091913E+04  0.7818609E-02  0.8217961E-01
       -1   -1    0    0    0  501  0.00000000000E+00  0.00000000000E+00  0.17343259929E+04  0.17343259930E+04  0.50400001928E-02 0. -1.
        1   -1    0    0  501    0  0.00000000000E+00  0.00000000000E+00 -0.13780461102E+04  0.13780461102E+04  0.50400001928E-02 0.  1.
    10030    2    1    2    0    0  0.00000000000E+00  0.00000000000E+00  0.35627988276E+03  0.31123721031E+04  0.30919127985E+04 0.  0.
        4    1    3    3  502    0 -0.25635608742E+01  0.52150706256E+03  0.16431061330E+04  0.17238838607E+04  0.12699999809E+01 0. -1.
       -4    1    3    3    0  502  0.25635608742E+01 -0.52150706256E+03 -0.12868262502E+04  0.13884882424E+04  0.12699999809E+01 0.  1.
</event>
<event>
 5   0  0.7079223E-06  0.3238555E+04  0.7818609E-02  0.8178709E-01
        2   -1    0    0  501    0  0.00000000000E+00  0.00000000000E+00  0.17313365770E+04  0.17313365770E+04  0.25500000920E-02 0. -1.
       -2   -1    0    0    0  501  0.00000000000E+00  0.00000000000E+00 -0.15144709524E+04  0.15144709524E+04  0.25500000920E-02 0.  1.
    10030    2    1    2    0    0  0.00000000000E+00  0.00000000000E+00  0.21686562467E+03  0.32458075294E+04  0.32385545879E+04 0.  0.
        5    1    3    3  502    0  0.62431975345E+03  0.32333576171E+03 -0.13535031188E+04  0.15252258691E+04  0.46999998093E+01 0.  1.
       -5    1    3    3    0  502 -0.62431975345E+03 -0.32333576171E+03  0.15703687434E+04  0.17205816603E+04  0.46999998093E+01 0. -1.
</event>
<event>
 5   0  0.2612331E-06  0.3108534E+04  0.7818609E-02  0.8213400E-01
        1   -1    0    0  501    0  0.00000000000E+00  0.00000000000E+00  0.12632174383E+04  0.12632174383E+04  0.50400001928E-02 0. -1.
       -1   -1    0    0    0  501  0.00000000000E+00  0.00000000000E+00 -0.19123751124E+04  0.19123751124E+04  0.50400001928E-02 0.  1.
    10030    2    1    2    0    0  0.00000000000E+00  0.00000000000E+00 -0.64915767405E+03  0.31755925507E+04  0.31085337962E+04 0.  0.
        4    1    3    3  502    0  0.68815903515E+03 -0.64851005480E+03  0.93556955560E+03  0.13301955327E+04  0.12699999809E+01 0. -1.
       -4    1    3    3    0  502 -0.68815903515E+03  0.64851005480E+03 -0.15847272297E+04  0.18453970180E+04  0.12699999809E+01 0.  1.
</event>
<event>
 5   0  0.2517725E-06  0.3098944E+04  0.7818609E-02  0.8216028E-01
        1   -1    0    0  501    0  0.00000000000E+00  0.00000000000E+00  0.22878255950E+04  0.22878255950E+04  0.50400001928E-02 0. -1.
       -1   -1    0    0    0  501  0.00000000000E+00  0.00000000000E+00 -0.10494084674E+04  0.10494084674E+04  0.50400001928E-02 0.  1.
    10030    2    1    2    0    0  0.00000000000E+00  0.00000000000E+00  0.12384171277E+04  0.33372340624E+04  0.30989440468E+04 0.  0.
        3    1    3    3  502    0 -0.59070577064E+03  0.66133497399E+03 -0.74915301864E+03  0.11608305263E+04  0.10100000352E+00 0.  1.
       -3    1    3    3    0  502  0.59070577064E+03 -0.66133497399E+03  0.19875701463E+04  0.21764035361E+04  0.10100000352E+00 0. -1.
</event>
<event>
 5   0  0.7071012E-06  0.3048629E+04  0.7818609E-02  0.8229979E-01
       -2   -1    0    0    0  501  0.00000000000E+00  0.00000000000E+00  0.12451550116E+04  0.12451550116E+04  0.25500000920E-02 0.  1.
        2   -1    0    0  501    0  0.00000000000E+00  0.00000000000E+00 -0.18660606049E+04  0.18660606049E+04  0.25500000920E-02 0. -1.
    10030    2    1    2    0    0  0.00000000000E+00  0.00000000000E+00 -0.62090559322E+03  0.31112156165E+04  0.30486290126E+04 0.  0.
        1    1    3    3  502    0 -0.10830601774E+04 -0.41340398508E+03 -0.13205256363E+04  0.17571881399E+04  0.50400001928E-02 0. -1.
       -1    1    3    3    0  502  0.10830601774E+04  0.41340398508E+03  0.69962004309E+03  0.13540274766E+04  0.50400001928E-02 0.  1.
</event>
<event>
 5   0  0.7363513E-06  0.3094084E+04  0.7818609E-02  0.8217363E-01
        2   -1    0    0  501    0  0.00000000000E+00  0.00000000000E+00  0.92221912713E+03  0.92221912713E+03  0.25500000920E-02 0.  1.
       -2   -1    0    0    0  501  0.00000000000E+00  0.00000000000E+00 -0.25951962650E+04  0.25951962650E+04  0.25500000920E-02 0. -1.
    10030    2    1    2    0    0  0.00000000000E+00  0.00000000000E+00 -0.16729771379E+04  0.35174153921E+04  0.30940844424E+04 0.  0.
        4    1    3    3  502    0 -0.64430483663E+03 -0.13999743393E+04 -0.68278171576E+03  0.16856005925E+04  0.12699999809E+01 0.  1.
       -4    1    3    3    0  502  0.64430483663E+03  0.13999743393E+04 -0.99019542211E+03  0.18318147996E+04  0.12699999809E+01 0. -1.
</event>
<event>
 5   0  0.7094341E-06  0.3271569E+04  0.7818609E-02  0.8170167E-01
       -2   -1    0    0    0  501  0.00000000000E+00  0.00000000000E+00  0.10424559663E+04  0.10424559663E+04  0.25500000920E-02 0.  1.
        2   -1    0    0  501    0  0.00000000000E+00  0.00000000000E+00 -0.25668148077E+04  0.25668148077E+04  0.25500000920E-02 0. -1.
    10030    2    1    2    0    0  0.00000000000E+00  0.00000000000E+00 -0.15243588414E+04  0.36092707740E+04  0.32715692935E+04 0.  0.
        3    1    3    3  502    0  0.16054533341E+04  0.30586977932E+03 -0.68610764435E+03  0.17725068236E+04  0.10100000352E+00 0. -1.
       -3    1    3    3    0  502 -0.16054533341E+04 -0.30586977932E+03 -0.83825119708E+03  0.18367639504E+04  0.10100000352E+00 0.  1.
</event>
<event>
 5   0  0.2598987E-06  0.2949627E+04  0.7818609E-02  0.8258263E-01
       -1   -1    0    0    0  501  0.00000000000E+00  0.00000000000E+00  0.16100363140E+04  0.16100363141E+04  0.50400001928E-02 0.  1.
        1   -1    0    0  501    0  0.00000000000E+00  0.00000000000E+00 -0.13509472563E+04  0.13509472563E+04  0.50400001928E-02 0. -1.
    10030    2    1    2    0    0  0.00000000000E+00  0.00000000000E+00  0.25908905774E+03  0.29609835704E+04  0.29496265127E+04 0.  0.
        2    1    3    3  502    0  0.11325839228E+04 -0.93170596307E+03 -0.26784969130E+02  0.14668127960E+04  0.25500000920E-02 0.  1.
       -2    1    3    3    0  502 -0.11325839228E+04  0.93170596307E+03  0.28587402687E+03  0.14941707744E+04  0.25500000920E-02 0. -1.
</event>
<event>
 5   0  0.2598987E-06  0.3055367E+04  0.7818609E-02  0.8228095E-01
       -1   -1    0    0    0  501  0.00000000000E+00  0.00000000000E+00  0.18970120028E+04  0.18970120028E+04  0.50400001928E-02 0. -1.
        1   -1    0    0  501    0  0.00000000000E+00  0.00000000000E+00 -0.12302597503E+04  0.12302597503E+04  0.50400001928E-02 0.  1.
    10030    2    1    2    0    0  0.00000000000E+00  0.00000000000E+00  0.66675225250E+03  0.31272717531E+04  0.30553674168E+04 0.  0.
        2    1    3    3  502    0 -0.13085076929E+04 -0.25140098949E+03 -0.43148695867E+03  0.14005626853E+04  0.25500000920E-02 0.  1.
       -2    1    3    3    0  502  0.13085076929E+04  0.25140098949E+03  0.10982392112E+04  0.17267090678E+04  0.25500000920E-02 0. -1.
</event>
<event>
 5   0  0.7079223E-06  0.3117615E+04  0.7818609E-02  0.8210920E-01
        2   -1    0    0  501    0  0.00000000000E+00  0.00000000000E+00  0.20928833622E+04  0.20928833622E+04  0.25500000920E-02 0.  1.
       -2   -1    0    0    0  501  0.00000000000E+00  0.00000000000E+00 -0.11610206435E+04  0.11610206435E+04  0.25500000920E-02 0. -1.
    10030    2    1    2    0    0  0.00000000000E+00  0.00000000000E+00  0.93186271870E+03  0.32539040057E+04  0.31176149781E+04 0.  0.
        5    1    3    3  502    0  0.14114835203E+04 -0.25883795508E+02  0.11558132901E+04  0.18245224445E+04  0.46999998093E+01 0.  1.
       -5    1    3    3    0  502 -0.14114835203E+04  0.25883795508E+02 -0.22395057143E+03  0.14293815612E+04  0.46999998093E+01 0. -1.
</event>
<event>
 5   0  0.2624011E-06  0.3112939E+04  0.7818609E-02  0.8212196E-01
       -1   -1    0    0    0  501  0.00000000000E+00  0.00000000000E+00  0.19660873229E+04  0.19660873229E+04  0.50400001928E-02 0. -1.
        1   -1    0    0  501    0  0.00000000000E+00  0.00000000000E+00 -0.12321917448E+04  0.12321917448E+04  0.50400001928E-02 0.  1.
    10030    2    1    2    0    0  0.00000000000E+00  0.00000000000E+00  0.73389557810E+03  0.31982790678E+04  0.31129385275E+04 0.  0.
        1    1    3    3  502    0  0.11254135103E+04 -0.71505746254E+03 -0.45801818984E+03  0.14098380780E+04  0.50400001928E-02 0. -1.
       -1    1    3    3    0  502 -0.11254135103E+04  0.71505746254E+03  0.11919137679E+04  0.17884409898E+04  0.50400001928E-02 0.  1.
</event>
<event>
 5   0  0.7094341E-06  0.2268549E+04  0.7818609E-02  0.8490426E-01
        2   -1    0    0  501    0  0.00000000000E+00  0.00000000000E+00  0.97063379159E+03  0.97063379159E+03  0.25500000920E-02 0. -1.
       -2   -1    0    0    0  501  0.00000000000E+00  0.00000000000E+00 -0.13255034834E+04  0.13255034834E+04  0.25500000920E-02 0.  1.
    10030    2    1    2    0    0  0.00000000000E+00  0.00000000000E+00 -0.35486969179E+03  0.22961372750E+04  0.22685488506E+04 0.  0.
        3    1    3    3  502    0  0.92462080346E+03 -0.65632020902E+03 -0.14709338634E+03  0.11433793428E+04  0.10100000352E+00 0. -1.
       -3    1    3    3    0  502 -0.92462080346E+03  0.65632020902E+03 -0.20777630545E+03  0.11527579322E+04  0.10100000352E+00 0.  1.
</event>
<event>
 5   0  0.2598987E-06  0.3173655E+04  0.7818609E-02  0.8195810E-01
       -1   -1    0    0    0  501  0.00000000000E+00  0.00000000000E+00  0.91739790225E+03  0.91739790226E+03  0.50400001928E-02 0.  1.
        1   -1    0    0  501    0  0.00000000000E+00  0.00000000000E+00 -0.27447422271E+04  0.27447422271E+04  0.50400001928E-02 0. -1.
    10030    2    1    2    0    0  0.00000000000E+00  0.00000000000E+00 -0.18273443249E+04  0.36621401294E+04  0.31736545253E+04 0.  0.
        2    1    3    3  502    0 -0.11254423554E+04  0.42648174745E+03  0.27967955374E+03  0.12356082830E+04  0.25500000920E-02 0.  1.
       -2    1    3    3    0  502  0.11254423554E+04 -0.42648174745E+03 -0.21070238786E+04  0.24265318464E+04  0.25500000920E-02 0. -1.
</event>
<event>
 5   0  0.2612331E-06  0.2101422E+04  0.7818609E-02  0.8560617E-01
        1   -1    0    0  501    0  0.00000000000E+00  0.00000000000E+00  0.21128208907E+04  0.21128208907E+04  0.50400001928E-02 0.  1.
       -1   -1    0    0    0  501  0.00000000000E+00  0.00000000000E+00 -0.52252135030E+03  0.52252135032E+03  0.50400001928E-02 0. -1.
    10030    2    1    2    0    0  0.00000000000E+00  0.00000000000E+00  0.15902995404E+04  0.26353422410E+04  0.21014223990E+04 0.  0.
        4    1    3    3  502    0 -0.74906822198E+03 -0.22582325033E+03 -0.84397162369E+02  0.78690776809E+03  0.12699999809E+01 0. -1.
       -4    1    3    3    0  502  0.74906822198E+03  0.22582325033E+03  0.16746967028E+04  0.18484344729E+04  0.12699999809E+01 0.  1.
</event>
<event>
 5   0  0.2674441E-06  0.3077760E+04  0.7818609E-02  0.8221868E-01
       -1   -1    0    0    0  501  0.00000000000E+00  0.00000000000E+00  0.12365081037E+04  0.12365081037E+04  0.50400001928E-02 0.  1.
        1   -1    0    0  501    0  0.00000000000E+00  0.00000000000E+00 -0.19151928084E+04  0.19151928085E+04  0.50400001928E-02 0. -1.
    10030    2    1    2    0    0  0.00000000000E+00  0.00000000000E+00 -0.67868470476E+03  0.31517009122E+04  0.30777598527E+04 0.  0.
        5    1    3    3  502    0 -0.97857254890E+03  0.87854924170E+03  0.47902949161E+03  0.13996229304E+04  0.46999998093E+01 0. -1.
       -5    1    3    3    0  502  0.97857254890E+03 -0.87854924170E+03 -0.11577141964E+04  0.17520779817E+04  0.46999998093E+01 0.  1.
</event>
<event>
 5   0  0.7363513E-06  0.3095980E+04  0.7818609E-02  0.8216842E-01
       -2   -1    0    0    0  501  0.00000000000E+00  0.00000000000E+00  0.12701257707E+04  0.12701257707E+04  0.25500000920E-02 0.  1.
        2   -1    0    0  501    0  0.00000000000E+00  0.00000000000E+00 -0.18866426433E+04  0.18866426433E+04  0.25500000920E-02 0. -1.
    10030    2    1    2    0    0  0.00000000000E+00  0.00000000000E+00 -0.61651687258E+03  0.31567684139E+04  0.30959802592E+04 0.  0.
        4    1    3    3  502    0 -0.14120108386E+04 -0.12755637355E+02 -0.95501103790E+03  0.17046949903E+04  0.12699999809E+01 0.  1.
       -4    1    3    3    0  502  0.14120108386E+04  0.12755637355E+02  0.33849416532E+03  0.14520734236E+04  0.12699999809E+01 0. -1.
</event>
<event>
 5   0  0.2674441E-06  0.3096380E+04  0.7818609E-02  0.8216732E-01
       -1   -1    0    0    0  501  0.00000000000E+00  0.00000000000E+00  0.12933163276E+04  0.12933163276E+04  0.50400001928E-02 0.  1.
        1   -1    0    0  501    0  0.00000000000E+00  0.00000000000E+00 -0.18532910611E+04  0.18532910611E+04  0.50400001928E-02 0. -1.
    10030    2    1    2    0    0  0.00000000000E+00  0.00000000000E+00 -0.55997473355E+03  0.31466073887E+04  0.30963795563E+04 0.  0.
        5    1    3    3  502    0 -0.49477360248E+03 -0.10163433578E+04 -0.13550299781E+04  0.17646198090E+04  0.46999998093E+01 0.  1.
       -5    1    3    3    0  502  0.49477360248E+03  0.10163433578E+04  0.79505524452E+03  0.13819875797E+04  0.46999998093E+01 0. -1.
</event>
<event>
 5   0  0.7414808E-06  0.2315660E+04  0.7818609E-02  0.8471772E-01
        2   -1    0    0  501    0  0.00000000000E+00  0.00000000000E+00  0.11949804149E+04  0.11949804149E+04  0.25500000920E-02 0.  1.
       -2   -1    0    0    0  501  0.00000000000E+00  0.00000000000E+00 -0.11218347059E+04  0.11218347059E+04  0.25500000920E-02 0. -1.
    10030    2    1    2    0    0  0.00000000000E+00  0.00000000000E+00  0.73145709006E+02  0.23168151208E+04  0.23156601670E+04 0.  0.
        2    1    3    3  502    0  0.43529545743E+02  0.74226038235E+03  0.92455436892E+03  0.11864426146E+04  0.25500000920E-02 0.  1.
       -2    1    3    3    0  502 -0.43529545743E+02 -0.74226038235E+03 -0.85140865992E+03  0.11303725062E+04  0.25500000920E-02 0. -1.
</event>
<event>
 5   0  0.2598987E-06  0.3048445E+04  0.7818609E-02  0.8230031E-01
        1   -1    0    0  501    0  0.00000000000E+00  0.00000000000E+00  0.21802378673E+04  0.21802378673E+04  0.50400001928E-02 0.  1.
       -1   -1    0    0    0  501  0.00000000000E+00  0.00000000000E+00 -0.10655967997E+04  0.10655967997E+04  0.50400001928E-02 0. -1.
    10030    2    1    2    0    0  0.00000000000E+00  0.00000000000E+00  0.11146410677E+04  0.32458346670E+04  0.30484451735E+04 0.  0.
        2    1    3    3  502    0  0.14850239655E+04  0.31733748986E+03  0.69718533210E+03  0.16709478292E+04  0.25500000920E-02 0.  1.
       -2    1    3    3    0  502 -0.14850239655E+04 -0.31733748986E+03  0.41745573555E+03  0.15748868378E+04  0.25500000920E-02 0. -1.
</event>
<event>
 5   0  0.2624011E-06  0.3153700E+04  0.7818609E-02  0.8201153E-01
       -1   -1    0    0    0  501  0.00000000000E+00  0.00000000000E+00  0.11276792173E+04  0.11276792173E+04  0.50400001928E-02 0. -1.
        1   -1    0    0  501    0  0.00000000000E+00  0.00000000000E+00 -0.22049324070E+04  0.22049324070E+04  0.50400001928E-02 0.  1.
    10030    2    1    2    0    0  0.00000000000E+00  0.00000000000E+00 -0.10772531897E+04  0.33326116244E+04  0.31537003352E+04 0.  0.
        1    1    3    3  502    0  0.54387612490E+03  0.11424503479E+04  0.45574645703E+03  0.13448787566E+04  0.50400001928E-02 0. -1.
       -1    1    3    3    0  502 -0.54387612490E+03 -0.11424503479E+04 -0.15329996468E+04  0.19877328678E+04  0.50400001928E-02 0.  1.
</event>
<event>
 5   0  0.7414808E-06  0.3067227E+04  0.7818609E-02  0.8224790E-01
       -2   -1    0    0    0  501  0.00000000000E+00  0.00000000000E+00  0.86803393983E+03  0.86803393983E+03  0.25500000920E-02 0. -1.
        2   -1    0    0  501    0  0.00000000000E+00  0.00000000000E+00 -0.27095377487E+04  0.27095377487E+04  0.25500000920E-02 0.  1.
    10030    2    1    2    0    0  0.00000000000E+00  0.00000000000E+00 -0.18415038089E+04  0.35775716886E+04  0.30672272346E+04 0.  0.
        2    1    3    3  502    0 -0.11582509068E+04  0.90946437581E+03 -0.14201234127E+04  0.20458301790E+04  0.25500000920E-02 0.  1.
       -2    1    3    3    0  502  0.11582509068E+04 -0.90946437581E+03 -0.42138039618E+03  0.15317415096E+04  0.25500000920E-02 0. -1.
</event>
<event>
 5   0  0.7071012E-06  0.3134491E+04  0.7818609E-02  0.8206335E-01
       -2   -1    0    0    0  501  0.00000000000E+00  0.00000000000E+00  0.90311076904E+03  0.90311076904E+03  0.25500000920E-02 0. -1.
        2   -1    0    0  501    0  0.00000000000E+00  0.00000000000E+00 -0.27197756005E+04  0.27197756005E+04  0.25500000920E-02 0.  1.
    10030    2    1    2    0    0  0.00000000000E+00  0.00000000000E+00 -0.18166648315E+04  0.36228863696E+04  0.31344911129E+04 0.  0.
        1    1    3    3  502    0 -0.98916952128E+03  0.16891923309E+03 -0.22997648070E+04  0.25091648445E+04  0.50400001928E-02 0.  1.
       -1    1    3    3    0  502  0.98916952128E+03 -0.16891923309E+03  0.48309997551E+03  0.11137215251E+04  0.50400001928E-02 0. -1.
</event>
<event>
 5   0  0.2598987E-06  0.2610456E+04  0.7818609E-02  0.8364658E-01
       -1   -1    0    0    0  501  0.00000000000E+00  0.00000000000E+00  0.11109705885E+04  0.11109705885E+04  0.50400001928E-02 0. -1.
        1   -1    0    0  501    0  0.00000000000E+00  0.00000000000E+00 -0.15334524983E+04  0.15334524983E+04  0.50400001928E-02 0.  1.
    10030    2    1    2    0    0  0.00000000000E+00  0.00000000000E+00 -0.42248190979E+03  0.26444230868E+04  0.26104563773E+04 0.  0.
        2    1    3    3  502    0  0.34515851725E+03 -0.12528509469E+04 -0.87791732027E+02  0.13024888811E+04  0.25500000920E-02 0.  1.
       -2    1    3    3    0  502 -0.34515851725E+03  0.12528509469E+04 -0.33469017776E+03  0.13419342057E+04  0.25500000920E-02 0. -1.
</event>
<event>
 5   0  0.2624011E-06  0.3069168E+04  0.7818609E-02  0.8224251E-01
       -1   -1    0    0    0  501  0.00000000000E+00  0.00000000000E+00  0.70033729936E+03  0.70033729938E+03  0.50400001928E-02 0. -1.
        1   -1    0    0  501    0  0.00000000000E+00  0.00000000000E+00 -0.33625903964E+04  0.33625903964E+04  0.50400001928E-02 0.  1.
    10030    2    1    2    0    0  0.00000000000E+00  0.00000000000E+00 -0.26622530970E+04  0.40629276958E+04  0.30691676247E+04 0.  0.
        1    1    3    3  502    0 -0.52657979455E+03  0.92583639377E+03  0.13133774756E+03  0.10731770180E+04  0.50400001928E-02 0. -1.
       -1    1    3    3    0  502  0.52657979455E+03 -0.92583639377E+03 -0.27935908446E+04  0.29897506777E+04  0.50400001928E-02 0.  1.
</event>
<event>
 5   0  0.2612331E-06  0.3080461E+04  0.7818609E-02  0.8221121E-01
       -1   -1    0    0    0  501  0.00000000000E+00  0.00000000000E+00  0.14272648468E+04  0.14272648468E+04  0.50400001928E-02 0. -1.
        1   -1    0    0  501    0  0.00000000000E+00  0.00000000000E+00 -0.16621374946E+04  0.16621374947E+04  0.50400001928E-02 0.  1.
    10030    2    1    2    0    0  0.00000000000E+00  0.00000000000E+00 -0.23487264787E+03  0.30894023414E+04  0.30804612750E+04 0.  0.
        4    1    3    3  502    0  0.16697616512E+03  0.77067892791E+02  0.14162138876E+04  0.14281049989E+04  0.12699999809E+01 0. -1.
       -4    1    3    3    0  502 -0.16697616512E+03 -0.77067892791E+02 -0.16510865354E+04  0.16612973425E+04  0.12699999809E+01 0.  1.
</event>
<event>
 5   0  0.7363513E-06  0.3090722E+04  0.7818609E-02  0.8218289E-01
        2   -1    0    0  501    0  0.00000000000E+00  0.00000000000E+00  0.11839096829E+04  0.11839096829E+04  0.25500000920E-02 0. -1.
       -2   -1    0    0    0  501  0.00000000000E+00  0.00000000000E+00 -0.20171641885E+04  0.20171641885E+04  0.25500000920E-02 0.  1.
    10030    2    1    2    0    0  0.00000000000E+00  0.00000000000E+00 -0.83325450553E+03  0.32010738714E+04  0.30907217376E+04 0.  0.
        4    1    3    3  502    0  0.61478044842E+03  0.14177077071E+04 -0.39903675355E+03  0.15959580465E+04  0.12699999809E+01 0. -1.
       -4    1    3    3    0  502 -0.61478044842E+03 -0.14177077071E+04 -0.43421775197E+03  0.16051158249E+04  0.12699999809E+01 0.  1.
</event>
<event>
 5   0  0.2517725E-06  0.1914984E+04  0.7818609E-02  0.8647434E-01
       -1   -1    0    0    0  501  0.00000000000E+00  0.00000000000E+00  0.91155170886E+03  0.91155170888E+03  0.50400001928E-02 0. -1.
        1   -1    0    0  501    0  0.00000000000E+00  0.00000000000E+00 -0.10057472137E+04  0.10057472138E+04  0.50400001928E-02 0.  1.
    10030    2    1    2    0    0  0.00000000000E+00  0.00000000000E+00 -0.94195504880E+02  0.19172989226E+04  0.19149836463E+04 0.  0.
        3    1    3    3  502    0 -0.94950950630E+02 -0.21911072062E+03  0.88125865252E+03  0.91303998475E+03  0.10100000352E+00 0. -1.
       -3    1    3    3    0  502  0.94950950630E+02  0.21911072062E+03 -0.97545415740E+03  0.10042589379E+04  0.10100000352E+00 0.  1.
</event>
<event>
 5   0  0.2624011E-06  0.2996876E+04  0.7818609E-02  0.8244624E-01
       -1   -1    0    0    0  501  0.00000000000E+00  0.00000000000E+00  0.16626701942E+04  0.16626701942E+04  0.50400001928E-02 0.  1.
        1   -1    0    0  501    0  0.00000000000E+00  0.00000000000E+00 -0.13504280768E+04  0.13504280768E+04  0.50400001928E-02 0. -1.
    10030    2    1    2    0    0  0.00000000000E+00  0.00000000000E+00  0.31224211745E+03  0.30130982710E+04  0.29968760486E+04 0.  0.
        1    1    3    3  502    0  0.28013613605E+03 -0.70924915152E+03 -0.11407471535E+04  0.13721569451E+04  0.50400001928E-02 0. -1.
       -1    1    3    3    0  502 -0.28013613605E+03  0.70924915152E+03  0.14529892709E+04  0.16409413259E+04  0.50400001928E-02 0.  1.
</event>
<event>
 5   0  0.2624011E-06  0.3041920E+04  0.7818609E-02  0.8231861E-01
       -1   -1    0    0    0  501  0.00000000000E+00  0.00000000000E+00  0.11256498393E+04  0.11256498393E+04  0.50400001928E-02 0.  1.
        1   -1    0    0  501    0  0.00000000000E+00  0.00000000000E+00 -0.20550961322E+04  0.20550961322E+04  0.50400001928E-02 0. -1.
    10030    2    1    2    0    0  0.00000000000E+00  0.00000000000E+00 -0.92944629291E+03  0.31807459716E+04  0.30419195460E+04 0.  0.
        1    1    3    3  502    0  0.49548183832E+03  0.41822880176E+02  0.10382578401E+04  0.11511866695E+04  0.50400001928E-02 0.  1.
       -1    1    3    3    0  502 -0.49548183832E+03 -0.41822880176E+02 -0.19677041330E+04  0.20295593021E+04  0.50400001928E-02 0. -1.
</event>
<event>
 5   0  0.7363513E-06  0.3082688E+04  0.7818609E-02  0.8220505E-01
        2   -1    0    0  501    0  0.00000000000E+00  0.00000000000E+00  0.16885173215E+04  0.16885173215E+04  0.25500000920E-02 0. -1.
       -2   -1    0    0    0  501  0.00000000000E+00  0.00000000000E+00 -0.14069989183E+04  0.14069989183E+04  0.25500000920E-02 0.  1.
    10030    2    1    2    0    0  0.00000000000E+00  0.00000000000E+00  0.28151840320E+03  0.30955162397E+04  0.30826884661E+04 0.  0.
        4    1    3    3  502    0  0.52395205925E+03 -0.10731011298E+04  0.11193237927E+04  0.16367526267E+04  0.12699999809E+01 0. -1.
       -4    1    3    3    0  502 -0.52395205925E+03  0.10731011298E+04 -0.83780538954E+03  0.14587636130E+04  0.12699999809E+01 0.  1.
</event>
<event>
 5   0  0.7094341E-06  0.3021905E+04  0.7818609E-02  0.8237503E-01
       -2   -1    0    0    0  501  0.00000000000E+00  0.00000000000E+00  0.83231057251E+03  0.83231057251E+03  0.25500000920E-02 0.  1.
        2   -1    0    0  501    0  0.00000000000E+00  0.00000000000E+00 -0.27429390390E+04  0.27429390390E+04  0.25500000920E-02 0. -1.
    10030    2    1    2    0    0  0.00000000000E+00  0.00000000000E+00 -0.19106284665E+04  0.35752496115E+04  0.30219048046E+04 0.  0.
        3    1    3    3  502    0 -0.49391389265E+02  0.14826008508E+04 -0.12949977358E+04  0.19691531017E+04  0.10100000352E+00 0.  1.
       -3    1    3    3    0  502  0.49391389265E+02 -0.14826008508E+04 -0.61563073070E+03  0.16060965098E+04  0.10100000352E+00 0. -1.
</event>
<event>
 5   0  0.7079223E-06  0.4092170E+04  0.7818609E-02  0.7986207E-01
        2   -1    0    0  501    0  0.00000000000E+00  0.00000000000E+00  0.33700250011E+04  0.33700250011E+04  0.25500000920E-02 0.  1.
       -2   -1    0    0    0  501  0.00000000000E+00  0.00000000000E+00 -0.12422647491E+04  0.12422647491E+04  0.25500000920E-02 0. -1.
    10030    2    1    2    0    0  0.00000000000E+00  0.00000000000E+00  0.21277602521E+04  0.46122897502E+04  0.40921697239E+04 0.  0.
        5    1    3    3  502    0  0.14172760879E+04 -0.17743336469E+03 -0.58734712945E+03  0.15443940069E+04  0.46999998093E+01 0. -1.
       -5    1    3    3    0  502 -0.14172760879E+04  0.17743336469E+03  0.27151073815E+04  0.30678957433E+04  0.46999998093E+01 0.  1.
</event>
<event>
 5   0  0.7094341E-06  0.3144054E+04  0.7818609E-02  0.8203751E-01
        2   -1    0    0  501    0  0.00000000000E+00  0.00000000000E+00  0.14847004272E+04  0.14847004272E+04  0.25500000920E-02 0. -1.
       -2   -1    0    0    0  501  0.00000000000E+00  0.00000000000E+00 -0.16644898936E+04  0.16644898936E+04  0.25500000920E-02 0.  1.
    10030    2    1    2    0    0  0.00000000000E+00  0.00000000000E+00 -0.17978946637E+03  0.31491903208E+04  0.31440539792E+04 0.  0.
        3    1    3    3  502    0  0.65741283001E+03 -0.33917857433E+03  0.12994672489E+04  0.14952755182E+04  0.10100000352E+00 0. -1.
       -3    1    3    3    0  502 -0.65741283001E+03  0.33917857433E+03 -0.14792567152E+04  0.16539148026E+04  0.10100000352E+00 0.  1.
</event>
<event>
 5   0  0.2674441E-06  0.3096737E+04  0.7818609E-02  0.8216634E-01
       -1   -1    0    0    0  501  0.00000000000E+00  0.00000000000E+00  0.10087561198E+04  0.10087561199E+04  0.50400001928E-02 0. -1.
        1   -1    0    0  501    0  0.00000000000E+00  0.00000000000E+00 -0.23766355987E+04  0.23766355987E+04  0.50400001928E-02 0.  1.
    10030    2    1    2    0    0  0.00000000000E+00  0.00000000000E+00 -0.13678794789E+04  0.33853917186E+04  0.30967374476E+04 0.  0.
        5    1    3    3  502    0  0.11969190435E+04  0.87579820908E+03 -0.19775399325E+03  0.14962507917E+04  0.46999998093E+01 0. -1.
       -5    1    3    3    0  502 -0.11969190435E+04 -0.87579820908E+03 -0.11701254856E+04  0.18891409269E+04  0.46999998093E+01 0.  1.
</event>
<event>
 5   0  0.7079223E-06  0.3103203E+04  0.7818609E-02  0.8214859E-01
       -2   -1    0    0    0  501  0.00000000000E+00  0.00000000000E+00  0.96320216828E+03  0.96320216829E+03  0.25500000920E-02 0. -1.
        2   -1    0    0  501    0  0.00000000000E+00  0.00000000000E+00 -0.24994416985E+04  0.24994416985E+04  0.25500000920E-02 0.  1.
    10030    2    1    2    0    0  0.00000000000E+00  0.00000000000E+00 -0.15362395302E+04  0.34626438668E+04  0.31032032892E+04 0.  0.
        5    1    3    3  502    0  0.13189792840E+04 -0.57060399288E+03 -0.14208084227E+04  0.20208943397E+04  0.46999998093E+01 0. -1.
       -5    1    3    3    0  502 -0.13189792840E+04  0.57060399288E+03 -0.11543110752E+03  0.14417495271E+04  0.46999998093E+01 0.  1.
</event>
<event>
 5   0  0.7414808E-06  0.3127045E+04  0.7818609E-02  0.8208355E-01
       -2   -1    0    0    0  501  0.00000000000E+00  0.00000000000E+00  0.14178571306E+04  0.14178571306E+04  0.25500000920E-02 0. -1.
        2   -1    0    0  501    0  0.00000000000E+00  0.00000000000E+00 -0.17241529825E+04  0.17241529825E+04  0.25500000920E-02 0.  1.
    10030    2    1    2    0    0  0.00000000000E+00  0.00000000000E+00 -0.30629585194E+03  0.31420101131E+04  0.31270449952E+04 0.  0.
        2    1    3    3  502    0 -0.51641977374E+03 -0.28804314786E+03  0.13011711308E+04  0.14292321537E+04  0.25500000920E-02 0. -1.
       -2    1    3    3    0  502  0.51641977374E+03  0.28804314786E+03 -0.16074669827E+04  0.17127779594E+04  0.25500000920E-02 0.  1.
</event>
<event>
 5   0  0.7079223E-06  0.3022605E+04  0.7818609E-02  0.8237305E-01
       -2   -1    0    0    0  501  0.00000000000E+00  0.00000000000E+00  0.70471459456E+03  0.70471459456E+03  0.25500000920E-02 0.  1.
        2   -1    0    0  501    0  0.00000000000E+00  0.00000000000E+00 -0.32410776976E+04  0.32410776976E+04  0.25500000920E-02 0. -1.
    10030    2    1    2    0    0  0.00000000000E+00  0.00000000000E+00 -0.25363631031E+04  0.39457922922E+04  0.30226046752E+04 0.  0.
        5    1    3    3  502    0  0.23045531660E+02  0.10959197131E+04 -0.26263545682E+04  0.28459324521E+04  0.46999998093E+01 0.  1.
       -5    1    3    3    0  502 -0.23045531660E+02 -0.10959197131E+04  0.89991465117E+02  0.10998598401E+04  0.46999998093E+01 0. -1.
</event>
<event>
 5   0  0.2624011E-06  0.2662550E+04  0.7818609E-02  0.8347259E-01
        1   -1    0    0  501    0  0.00000000000E+00  0.00000000000E+00  0.25958778213E+04  0.25958778213E+04  0.50400001928E-02 0.  1.
       -1   -1    0    0    0  501  0.00000000000E+00  0.00000000000E+00 -0.68273369975E+03  0.68273369977E+03  0.50400001928E-02 0. -1.
    10030    2    1    2    0    0  0.00000000000E+00  0.00000000000E+00  0.19131441215E+04  0.32786115211E+04  0.26625501077E+04 0.  0.
        1    1    3    3  502    0  0.47121220017E+03 -0.66477751464E+03  0.22529313398E+04  0.23957607776E+04  0.50400001928E-02 0.  1.
       -1    1    3    3    0  502 -0.47121220017E+03  0.66477751464E+03 -0.33978721825E+03  0.88285074348E+03  0.50400001928E-02 0. -1.
</event>
<event>
 5   0  0.7414808E-06  0.3074015E+04  0.7818609E-02  0.8222906E-01
        2   -1    0    0  501    0  0.00000000000E+00  0.00000000000E+00  0.26014399302E+04  0.26014399302E+04  0.25500000920E-02 0. -1.
       -2   -1    0    0    0  501  0.00000000000E+00  0.00000000000E+00 -0.90810934604E+03  0.90810934605E+03  0.25500000920E-02 0.  1.
    10030    2    1    2    0    0  0.00000000000E+00  0.00000000000E+00  0.16933305841E+04  0.35095492762E+04  0.30740149081E+04 0.  0.
        2    1    3    3  502    0  0.77214386270E+03  0.58132907054E+03 -0.51774918222E+03  0.10964551284E+04  0.25500000920E-02 0.  1.
       -2    1    3    3    0  502 -0.77214386270E+03 -0.58132907054E+03  0.22110797663E+04  0.24130941478E+04  0.25500000920E-02 0. -1.
</event>
<event>
 5   0  0.2674441E-06  0.2989074E+04  0.7818609E-02  0.8246858E-01
        1   -1    0    0  501    0  0.00000000000E+00  0.00000000000E+00  0.17589639761E+04  0.17589639761E+04  0.50400001928E-02 0.  1.
       -1   -1    0    0    0  501  0.00000000000E+00  0.00000000000E+00 -0.12698613064E+04  0.12698613065E+04  0.50400001928E-02 0. -1.
    10030    2    1    2    0    0  0.00000000000E+00  0.00000000000E+00  0.48910266969E+03  0.30288252826E+04  0.29890736309E+04 0.  0.
        5    1    3    3  502    0  0.10837903777E+04  0.42348028703E+03  0.11949377741E+04  0.16678835422E+04  0.46999998093E+01 0.  1.
       -5    1    3    3    0  502 -0.10837903777E+04 -0.42348028703E+03 -0.70583510438E+03  0.13609417404E+04  0.46999998093E+01 0. -1.
</event>
<event>
 5   0  0.2517725E-06  0.3105858E+04  0.7818609E-02  0.8214132E-01
       -1   -1    0    0    0  501  0.00000000000E+00  0.00000000000E+00  0.14088553748E+04  0.14088553748E+04  0.50400001928E-02 0.  1.
        1   -1    0    0  501    0  0.00000000000E+00  0.00000000000E+00 -0.17117358224E+04  0.17117358224E+04  0.50400001928E-02 0. -1.
    10030    2    1    2    0    0  0.00000000000E+00  0.00000000000E+00 -0.30288044752E+03  0.31205911972E+04  0.31058578291E+04 0.  0.
        3    1    3    3  502    0 -0.12115189901E+04 -0.45766571672E+03  0.70956831310E+03  0.14767272507E+04  0.10100000352E+00 0.  1.
       -3    1    3    3    0  502  0.12115189901E+04  0.45766571672E+03 -0.10124487606E+04  0.16438639465E+04  0.10100000352E+00 0. -1.
</event>
<event>
 5   0  0.7363513E-06  0.3088053E+04  0.7818609E-02  0.8219024E-01
       -2   -1    0    0    0  501  0.00000000000E+00  0.00000000000E+00  0.84272829778E+03  0.84272829779E+03  0.25500000920E-02 0.  1.
        2   -1    0    0  501    0  0.00000000000E+00  0.00000000000E+00 -0.28289285795E+04  0.28289285795E+04  0.25500000920E-02 0. -1.
    10030    2    1    2    0    0  0.00000000000E+00  0.00000000000E+00 -0.19862002817E+04  0.36716568773E+04  0.30880532161E+04 0.  0.
        4    1    3    3  502    0  0.11505277571E+04  0.90505921055E+03 -0.15770010989E+04  0.21516924440E+04  0.12699999809E+01 0.  1.
       -4    1    3    3    0  502 -0.11505277571E+04 -0.90505921055E+03 -0.40919918279E+03  0.15199644333E+04  0.12699999809E+01 0. -1.
</event>
<event>
 5   0  0.2517725E-06  0.3065602E+04  0.7818609E-02  0.8225242E-01
        1   -1    0    0  501    0  0.00000000000E+00  0.00000000000E+00  0.19222875778E+04  0.19222875778E+04  0.50400001928E-02 0.  1.
       -1   -1    0    0    0  501  0.00000000000E+00  0.00000000000E+00 -0.12222308923E+04  0.12222308923E+04  0.50400001928E-02 0. -1.
    10030    2    1    2    0    0  0.00000000000E+00  0.00000000000E+00  0.70005668544E+03  0.31445184701E+04  0.30656022322E+04 0.  0.
        3    1    3    3  502    0 -0.63391754849E+03  0.98394138124E+03 -0.66513918640E+03  0.13462548969E+04  0.10100000352E+00 0. -1.
       -3    1    3    3    0  502  0.63391754849E+03 -0.98394138124E+03  0.13651958718E+04  0.17982635732E+04  0.10100000352E+00 0.  1.
</event>
<event>
 5   0  0.2612331E-06  0.2159206E+04  0.7818609E-02  0.8535602E-01
        1   -1    0    0  501    0  0.00000000000E+00  0.00000000000E+00  0.95927703241E+03  0.95927703243E+03  0.50400001928E-02 0.  1.
       -1   -1    0    0    0  501  0.00000000000E+00  0.00000000000E+00 -0.12150222115E+04  0.12150222115E+04  0.50400001928E-02 0. -1.
    10030    2    1    2    0    0  0.00000000000E+00  0.00000000000E+00 -0.25574517912E+03  0.21742992440E+04  0.21592062444E+04 0.  0.
        4    1    3    3  502    0 -0.35359436361E+03  0.27755767003E+03  0.86055577408E+03  0.97088881308E+03  0.12699999809E+01 0.  1.
       -4    1    3    3    0  502  0.35359436361E+03 -0.27755767003E+03 -0.11163009532E+04  0.12034104309E+04  0.12699999809E+01 0. -1.
</event>
<event>
 5   0  0.2517725E-06  0.3069909E+04  0.7818609E-02  0.8224045E-01
        1   -1    0    0  501    0  0.00000000000E+00  0.00000000000E+00  0.21950891309E+04  0.21950891309E+04  0.50400001928E-02 0.  1.
       -1   -1    0    0    0  501  0.00000000000E+00  0.00000000000E+00 -0.10733436140E+04  0.10733436140E+04  0.50400001928E-02 0. -1.
    10030    2    1    2    0    0  0.00000000000E+00  0.00000000000E+00  0.11217455168E+04  0.32684327449E+04  0.30699087288E+04 0.  0.
        3    1    3    3  502    0  0.15156781673E+04  0.10399235281E+03  0.79410589508E+03  0.17142633692E+04  0.10100000352E+00 0. -1.
       -3    1    3    3    0  502 -0.15156781673E+04 -0.10399235281E+03  0.32763962176E+03  0.15541693757E+04  0.10100000352E+00 0.  1.
</event>
<event>
 5   0  0.7079223E-06  0.3200813E+04  0.7818609E-02  0.8188602E-01
       -2   -1    0    0    0  501  0.00000000000E+00  0.00000000000E+00  0.10348208998E+04  0.10348208998E+04  0.25500000920E-02 0. -1.
        2   -1    0    0  501    0  0.00000000000E+00  0.00000000000E+00 -0.24751156181E+04  0.24751156181E+04  0.25500000920E-02 0.  1.
    10030    2    1    2    0    0  0.00000000000E+00  0.00000000000E+00 -0.14402947183E+04  0.35099365179E+04  0.32008132535E+04 0.  0.
        5    1    3    3  502    0  0.12996096516E+04 -0.91044350046E+03 -0.49173633111E+03  0.16612402967E+04  0.46999998093E+01 0.  1.
       -5    1    3    3    0  502 -0.12996096516E+04  0.91044350046E+03 -0.94855838717E+03  0.18486962211E+04  0.46999998093E+01 0. -1.
</event>
<event>
 5   0  0.2612331E-06  0.3098100E+04  0.7818609E-02  0.8216260E-01
        1   -1    0    0  501    0  0.00000000000E+00  0.00000000000E+00  0.14133644276E+04  0.14133644276E+04  0.50400001928E-02 0. -1.
       -1   -1    0    0    0  501  0.00000000000E+00  0.00000000000E+00 -0.16977611893E+04  0.16977611893E+04  0.50400001928E-02 0.  1.
    10030    2    1    2    0    0  0.00000000000E+00  0.00000000000E+00 -0.28439676169E+03  0.31111256169E+04  0.30980995927E+04 0.  0.
        4    1    3    3  502    0  0.23712476451E+03  0.27445860708E+03  0.13701209508E+04  0.14173174357E+04  0.12699999809E+01 0. -1.
       -4    1    3    3    0  502 -0.23712476451E+03 -0.27445860708E+03 -0.16545177125E+04  0.16938081812E+04  0.12699999809E+01 0.  1.
</event>
<event>
 5   0  0.2674441E-06  0.3110905E+04  0.7818609E-02  0.8212751E-01
        1   -1    0    0  501    0  0.00000000000E+00  0.00000000000E+00  0.11578731167E+04  0.11578731168E+04  0.50400001928E-02 0.  1.
       -1   -1    0    0    0  501  0.00000000000E+00  0.00000000000E+00 -0.20895490497E+04  0.20895490497E+04  0.50400001928E-02 0. -1.
    10030    2    1    2    0    0  0.00000000000E+00  0.00000000000E+00 -0.93167593293E+03  0.32474221664E+04  0.31109051228E+04 0.  0.
        5    1    3    3  502    0  0.10141889455E+04 -0.55092378551E+03  0.62266481665E+03  0.13114228146E+04  0.46999998093E+01 0.  1.
       -5    1    3    3    0  502 -0.10141889455E+04  0.55092378551E+03 -0.15543407496E+04  0.19359993519E+04  0.46999998093E+01 0. -1.
</event>
<event>
 5   0  0.7079223E-06  0.3104151E+04  0.7818609E-02  0.8214600E-01
       -2   -1    0    0    0  501  0.00000000000E+00  0.00000000000E+00  0.15732940896E+04  0.15732940896E+04  0.25500000920E-02 0.  1.
        2   -1    0    0  501    0  0.00000000000E+00  0.00000000000E+00 -0.15311434607E+04  0.15311434607E+04  0.25500000920E-02 0. -1.
    10030    2    1    2    0    0  0.00000000000E+00  0.00000000000E+00  0.42150628951E+02  0.31044375503E+04  0.31041513861E+04 0.  0.
        5    1    3    3  502    0 -0.79315996031E+03 -0.11094660858E+03 -0.13085227050E+04  0.15341661032E+04  0.46999998093E+01 0. -1.
       -5    1    3    3    0  502  0.79315996031E+03  0.11094660858E+03  0.13506733340E+04  0.15702714471E+04  0.46999998093E+01 0.  1.
</event>
<event>
 5   0  0.2674441E-06  0.2909089E+04  0.7818609E-02  0.8270178E-01
       -1   -1    0    0    0  501  0.00000000000E+00  0.00000000000E+00  0.91134161491E+03  0.91134161492E+03  0.50400001928E-02 0. -1.
        1   -1    0    0  501    0  0.00000000000E+00  0.00000000000E+00 -0.23215215657E+04  0.23215215657E+04  0.50400001928E-02 0.  1.
    10030    2    1    2    0    0  0.00000000000E+00  0.00000000000E+00 -0.14101799508E+04  0.32328631807E+04  0.29090886633E+04 0.  0.
        5    1    3    3  502    0 -0.67813325214E+03  0.12858960562E+04 -0.65198264983E+03  0.15932660923E+04  0.46999998093E+01 0.  1.
       -5    1    3    3    0  502  0.67813325214E+03 -0.12858960562E+04 -0.75819730100E+03  0.16395970884E+04  0.46999998093E+01 0. -1.
</event>
<event>
 5   0  0.7363513E-06  0.3096992E+04  0.7818609E-02  0.8216564E-01
        2   -1    0    0  501    0  0.00000000000E+00  0.00000000000E+00  0.18018077688E+04  0.18018077688E+04  0.25500000920E-02 0. -1.
       -2   -1    0    0    0  501  0.00000000000E+00  0.00000000000E+00 -0.13307965422E+04  0.13307965422E+04  0.25500000920E-02 0.  1.
    10030    2    1    2    0    0  0.00000000000E+00  0.00000000000E+00  0.47101122666E+03  0.31326043110E+04  0.30969917975E+04 0.  0.
        4    1    3    3  502    0 -0.46397776714E+03  0.14600924899E+04  0.46324455048E+03  0.16005444618E+04  0.12699999809E+01 0. -1.
       -4    1    3    3    0  502  0.46397776714E+03 -0.14600924899E+04  0.77666761724E+01  0.15320598493E+04  0.12699999809E+01 0.  1.
</event>
<event>
 5   0  0.2612331E-06  0.3058777E+04  0.7818609E-02  0.8227143E-01
       -1   -1    0    0    0  501  0.00000000000E+00  0.00000000000E+00  0.16660755035E+04  0.16660755035E+04  0.50400001928E-02 0.  1.
        1   -1    0    0  501    0  0.00000000000E+00  0.00000000000E+00 -0.14039159342E+04  0.14039159342E+04  0.50400001928E-02 0. -1.
    10030    2    1    2    0    0  0.00000000000E+00  0.00000000000E+00  0.26215956931E+03  0.30699914377E+04  0.30587774989E+04 0.  0.
        4    1    3    3  502    0 -0.12579147209E+04 -0.56757371928E+03 -0.53053261927E+03  0.14784978339E+04  0.12699999809E+01 0. -1.
       -4    1    3    3    0  502  0.12579147209E+04  0.56757371928E+03  0.79269218857E+03  0.15914936037E+04  0.12699999809E+01 0.  1.
</event>
<event>
 5   0  0.2598987E-06  0.3187380E+04  0.7818609E-02  0.8192158E-01
       -1   -1    0    0    0  501  0.00000000000E+00  0.00000000000E+00  0.17685986605E+04  0.17685986605E+04  0.50400001928E-02 0. -1.
        1   -1    0    0  501    0  0.00000000000E+00  0.00000000000E+00 -0.14360793086E+04  0.14360793086E+04  0.50400001928E-02 0.  1.
    10030    2    1    2    0    0  0.00000000000E+00  0.00000000000E+00  0.33251935193E+03  0.32046779691E+04  0.31873800787E+04 0.  0.
        2    1    3    3  502    0  0.58669503899E+03  0.10339488116E+04  0.12334278284E+04  0.17130690067E+04  0.25500000920E-02 0. -1.
       -2    1    3    3    0  502 -0.58669503899E+03 -0.10339488116E+04 -0.90090847644E+03  0.14916089624E+04  0.25500000920E-02 0.  1.
</event>
<event>
 5   0  0.2517725E-06  0.3114279E+04  0.7818609E-02  0.8211830E-01
        1   -1    0    0  501    0  0.00000000000E+00  0.00000000000E+00  0.13577219349E+04  0.13577219349E+04  0.50400001928E-02 0. -1.
       -1   -1    0    0    0  501  0.00000000000E+00  0.00000000000E+00 -0.17858464079E+04  0.17858464079E+04  0.50400001928E-02 0.  1.
    10030    2    1    2    0    0  0.00000000000E+00  0.00000000000E+00 -0.42812447304E+03  0.31435683428E+04  0.31142786261E+04 0.  0.
        3    1    3    3  502    0  0.10868778257E+04 -0.12252770318E+03  0.90467837279E+03  0.14194222115E+04  0.10100000352E+00 0. -1.
       -3    1    3    3    0  502 -0.10868778257E+04  0.12252770318E+03 -0.13328028458E+04  0.17241461313E+04  0.10100000352E+00 0.  1.
</event>
<event>
 5   0  0.7094341E-06  0.3117766E+04  0.7818609E-02  0.8210879E-01
       -2   -1    0    0    0  501  0.00000000000E+00  0.00000000000E+00  0.12027257810E+04  0.12027257810E+04  0.25500000920E-02 0. -1.
        2   -1    0    0  501    0  0.00000000000E+00  0.00000000000E+00 -0.20205071328E+04  0.20205071328E+04  0.25500000920E-02 0.  1.
    10030    2    1    2    0    0  0.00000000000E+00  0.00000000000E+00 -0.81778135178E+03  0.32232329139E+04  0.31177658792E+04 0.  0.
        3    1    3    3  502    0 -0.79889401844E+03  0.10050636300E+04  0.50517412077E+03  0.13797048437E+04  0.10100000352E+00 0. -1.
       -3    1    3    3    0  502  0.79889401844E+03 -0.10050636300E+04 -0.13229554725E+04  0.18435280702E+04  0.10100000352E+00 0.  1.
</event>
<event>
 5   0  0.2598987E-06  0.2988365E+04  0.7818609E-02  0.8247061E-01
        1   -1    0    0  501    0  0.00000000000E+00  0.00000000000E+00  0.19427509567E+04  0.19427509567E+04  0.50400001928E-02 0.  1.
       -1   -1    0    0    0  501  0.00000000000E+00  0.00000000000E+00 -0.11491857791E+04  0.11491857791E+04  0.50400001928E-02 0. -1.
    10030    2    1    2    0    0  0.00000000000E+00  0.00000000000E+00  0.79356517757E+03  0.30919367358E+04  0.29883652867E+04 0.  0.
        2    1    3    3  502    0  0.24903903360E+03  0.34317755709E+03  0.18791956419E+04  0.19264390820E+04  0.25500000920E-02 0.  1.
       -2    1    3    3    0  502 -0.24903903360E+03 -0.34317755709E+03 -0.10856304643E+04  0.11654976538E+04  0.25500000920E-02 0. -1.
</event>
<event>
 5   0  0.2598987E-06  0.3347055E+04  0.7818609E-02  0.8151024E-01
       -1   -1    0    0    0  501  0.00000000000E+00  0.00000000000E+00  0.16945162578E+04  0.16945162578E+04  0.50400001928E-02 0. -1.
        1   -1    0    0  501    0  0.00000000000E+00  0.00000000000E+00 -0.16527984187E+04  0.16527984187E+04  0.50400001928E-02 0.  1.
    10030    2    1    2    0    0  0.00000000000E+00  0.00000000000E+00  0.41717839055E+02  0.33473146765E+04  0.33470547001E+04 0.  0.
        2    1    3    3  502    0 -0.12000778532E+04  0.99340854804E+03 -0.59045478160E+03  0.16660384888E+04  0.25500000920E-02 0.  1.
       -2    1    3    3    0  502  0.12000778532E+04 -0.99340854804E+03  0.63217262065E+03  0.16812761877E+04  0.25500000920E-02 0. -1.
</event>
<event>
 5   0  0.7079223E-06  0.2386672E+04  0.7818609E-02  0.8444510E-01
       -2   -1    0    0    0  501  0.00000000000E+00  0.00000000000E+00  0.11839685488E+04  0.11839685488E+04  0.25500000920E-02 0. -1.
        2   -1    0    0  501    0  0.00000000000E+00  0.00000000000E+00 -0.12027779343E+04  0.12027779343E+04  0.25500000920E-02 0.  1.
    10030    2    1    2    0    0  0.00000000000E+00  0.00000000000E+00 -0.18809385535E+02  0.23867464832E+04  0.23866723658E+04 0.  0.
        5    1    3    3  502    0  0.13962598005E+02  0.11101487728E+03 -0.11975114084E+04  0.12027364301E+04  0.46999998093E+01 0.  1.
       -5    1    3    3    0  502 -0.13962598005E+02 -0.11101487728E+03  0.11787020228E+04  0.11840100531E+04  0.46999998093E+01 0. -1.
</event>
<event>
 5   0  0.7363513E-06  0.3056594E+04  0.7818609E-02  0.8227752E-01
       -2   -1    0    0    0  501  0.00000000000E+00  0.00000000000E+00  0.12470897823E+04  0.12470897823E+04  0.25500000920E-02 0. -1.
        2   -1    0    0  501    0  0.00000000000E+00  0.00000000000E+00 -0.18729142710E+04  0.18729142710E+04  0.25500000920E-02 0.  1.
    10030    2    1    2    0    0  0.00000000000E+00  0.00000000000E+00 -0.62582448866E+03  0.31200040533E+04  0.30565943470E+04 0.  0.
        4    1    3    3  502    0 -0.96178730767E+03 -0.19249596089E+03 -0.15092330902E+04  0.17999654590E+04  0.12699999809E+01 0.  1.
       -4    1    3    3    0  502  0.96178730767E+03  0.19249596089E+03  0.88340860158E+03  0.13200385943E+04  0.12699999809E+01 0. -1.
</event>
<event>
 5   0  0.2598987E-06  0.2244269E+04  0.7818609E-02  0.8500225E-01
       -1   -1    0    0    0  501  0.00000000000E+00  0.00000000000E+00  0.76438064649E+03  0.76438064651E+03  0.50400001928E-02 0.  1.
        1   -1    0    0  501    0  0.00000000000E+00  0.00000000000E+00 -0.16473287625E+04  0.16473287625E+04  0.50400001928E-02 0. -1.
    10030    2    1    2    0    0  0.00000000000E+00  0.00000000000E+00 -0.88294811605E+03  0.24117094091E+04  0.22442693462E+04 0.  0.
        2    1    3    3  502    0  0.53397043814E+03 -0.94976914941E+03 -0.15312580158E+03  0.11002878610E+04  0.25500000920E-02 0.  1.
       -2    1    3    3    0  502 -0.53397043814E+03  0.94976914941E+03 -0.72982231447E+03  0.13114215480E+04  0.25500000920E-02 0. -1.
</event>
<event>
 5   0  0.2624011E-06  0.3105098E+04  0.7818609E-02  0.8214340E-01
        1   -1    0    0  501    0  0.00000000000E+00  0.00000000000E+00  0.15341535002E+04  0.15341535002E+04  0.50400001928E-02 0. -1.
       -1   -1    0    0    0  501  0.00000000000E+00  0.00000000000E+00 -0.15711650627E+04  0.15711650627E+04  0.50400001928E-02 0.  1.
    10030    2    1    2    0    0  0.00000000000E+00  0.00000000000E+00 -0.37011562534E+02  0.31053185629E+04  0.31050979890E+04 0.  0.
        1    1    3    3  502    0  0.42877373432E+03 -0.19787079043E+03  0.14605883321E+04  0.15350303061E+04  0.50400001928E-02 0. -1.
       -1    1    3    3    0  502 -0.42877373432E+03  0.19787079043E+03 -0.14975998946E+04  0.15702882567E+04  0.50400001928E-02 0.  1.
</event>
<event>
 5   0  0.2517725E-06  0.3111368E+04  0.7818609E-02  0.8212625E-01
        1   -1    0    0  501    0  0.00000000000E+00  0.00000000000E+00  0.21186857544E+04  0.21186857545E+04  0.50400001928E-02 0. -1.
       -1   -1    0    0    0  501  0.00000000000E+00  0.00000000000E+00 -0.11422898333E+04  0.11422898333E+04  0.50400001928E-02 0.  1.
    10030    2    1    2    0    0  0.00000000000E+00  0.00000000000E+00  0.97639592119E+03  0.32609755877E+04  0.31113683145E+04 0.  0.
        3    1    3    3  502    0 -0.20781338609E+01 -0.14155317547E+04  0.11645319994E+04  0.18329946140E+04  0.10100000352E+00 0. -1.
       -3    1    3    3    0  502  0.20781338609E+01  0.14155317547E+04 -0.18813607818E+03  0.14279809737E+04  0.10100000352E+00 0.  1.
</event>
<event>
 5   0  0.7414808E-06  0.3123922E+04  0.7818609E-02  0.8209203E-01
        2   -1    0    0  501    0  0.00000000000E+00  0.00000000000E+00  0.17091080173E+04  0.17091080173E+04  0.25500000920E-02 0.  1.
       -2   -1    0    0    0  501  0.00000000000E+00  0.00000000000E+00 -0.14274827091E+04  0.14274827091E+04  0.25500000920E-02 0. -1.
    10030    2    1    2    0    0  0.00000000000E+00  0.00000000000E+00  0.28162530825E+03  0.31365907264E+04  0.31239219854E+04 0.  0.
        2    1    3    3  502    0 -0.39384013758E+02  0.84091337170E+03  0.14618366069E+04  0.16869062405E+04  0.25500000920E-02 0.  1.
       -2    1    3    3    0  502  0.39384013758E+02 -0.84091337170E+03 -0.11802112986E+04  0.14496844859E+04  0.25500000920E-02 0. -1.
</event>
<event>
 5   0  0.2624011E-06  0.3089082E+04  0.7818609E-02  0.8218741E-01
        1   -1    0    0  501    0  0.00000000000E+00  0.00000000000E+00  0.13085850482E+04  0.13085850482E+04  0.50400001928E-02 0.  1.
       -1   -1    0    0    0  501  0.00000000000E+00  0.00000000000E+00 -0.18230427410E+04  0.18230427410E+04  0.50400001928E-02 0. -1.
    10030    2    1    2    0    0  0.00000000000E+00  0.00000000000E+00 -0.51445769278E+03  0.31316277892E+04  0.30890817231E+04 0.  0.
        1    1    3    3  502    0 -0.74753665167E+03  0.86056624398E+02  0.11101964329E+04  0.13411759422E+04  0.50400001928E-02 0.  1.
       -1    1    3    3    0  502  0.74753665167E+03 -0.86056624398E+02 -0.16246541257E+04  0.17904518470E+04  0.50400001928E-02 0. -1.
</event>
<event>
 5   0  0.7079223E-06  0.3136148E+04  0.7818609E-02  0.8205887E-01
       -2   -1    0    0    0  501  0.00000000000E+00  0.00000000000E+00  0.14600008296E+04  0.14600008296E+04  0.25500000920E-02 0.  1.
        2   -1    0    0  501    0  0.00000000000E+00  0.00000000000E+00 -0.16841466439E+04  0.16841466439E+04  0.25500000920E-02 0. -1.
    10030    2    1    2    0    0  0.00000000000E+00  0.00000000000E+00 -0.22414581433E+03  0.31441474735E+04  0.31361476351E+04 0.  0.
        5    1    3    3  502    0 -0.11012448372E+04  0.11042120789E+04 -0.27622480611E+03  0.15837761017E+04  0.46999998093E+01 0.  1.
       -5    1    3    3    0  502  0.11012448372E+04 -0.11042120789E+04  0.52078991782E+02  0.15603713718E+04  0.46999998093E+01 0. -1.
</event>
<event>
 5   0  0.2517725E-06  0.3118695E+04  0.7818609E-02  0.8210626E-01
       -1   -1    0    0    0  501  0.00000000000E+00  0.00000000000E+00  0.16209661312E+04  0.16209661312E+04  0.50400001928E-02 0. -1.
        1   -1    0    0  501    0  0.00000000000E+00  0.00000000000E+00 -0.15000709681E+04  0.15000709681E+04  0.50400001928E-02 0.  1.
    10030    2    1    2    0    0  0.00000000000E+00  0.00000000000E+00  0.12089516310E+03  0.31210370993E+04  0.31186947486E+04 0.  0.
        3    1    3    3  502    0  0.95561130604E+03  0.10482342066E+04 -0.58778601877E+03  0.15354088492E+04  0.10100000352E+00 0.  1.
       -3    1    3    3    0  502 -0.95561130604E+03 -0.10482342066E+04  0.70868118187E+03  0.15856282502E+04  0.10100000352E+00 0. -1.
</event>
<event>
 5   0  0.7414808E-06  0.3119794E+04  0.7818609E-02  0.8210327E-01
       -2   -1    0    0    0  501  0.00000000000E+00  0.00000000000E+00  0.13346635206E+04  0.13346635206E+04  0.25500000920E-02 0. -1.
        2   -1    0    0  501    0  0.00000000000E+00  0.00000000000E+00 -0.18231399024E+04  0.18231399024E+04  0.25500000920E-02 0.  1.
    10030    2    1    2    0    0  0.00000000000E+00  0.00000000000E+00 -0.48847638182E+03  0.31578034230E+04  0.31197937885E+04 0.  0.
        2    1    3    3  502    0 -0.15305092732E+04 -0.29151660412E+03 -0.32157426719E+03  0.15908647256E+04  0.25500000920E-02 0. -1.
       -2    1    3    3    0  502  0.15305092732E+04  0.29151660412E+03 -0.16690211462E+03  0.15669386975E+04  0.25500000920E-02 0.  1.
</event>
<event>
 5   0  0.2393250E-06  0.3093147E+04  0.7818609E-02  0.8217621E-01
        3   -1    0    0  501    0  0.00000000000E+00  0.00000000000E+00  0.20564963010E+04  0.20564963035E+04  0.10100000352E+00 0.  1.
       -3   -1    0    0    0  501  0.00000000000E+00  0.00000000000E+00 -0.11630893122E+04  0.11630893166E+04  0.10100000352E+00 0. -1.
    10030    2    1    2    0    0  0.00000000000E+00  0.00000000000E+00  0.89340698881E+03  0.32195856201E+04  0.30931465399E+04 0.  0.
        4    1    3    3  502    0 -0.70598361380E+03  0.31512908323E+03  0.18409226475E+04  0.19966764908E+04  0.12699999809E+01 0.  1.
       -4    1    3    3    0  502  0.70598361380E+03 -0.31512908323E+03 -0.94751565867E+03  0.12229091292E+04  0.12699999809E+01 0. -1.
</event>
<event>
 5   0  0.7079223E-06  0.3062651E+04  0.7818609E-02  0.8226063E-01
        2   -1    0    0  501    0  0.00000000000E+00  0.00000000000E+00  0.14073410903E+04  0.14073410903E+04  0.25500000920E-02 0.  1.
       -2   -1    0    0    0  501  0.00000000000E+00  0.00000000000E+00 -0.16662328631E+04  0.16662328631E+04  0.25500000920E-02 0. -1.
    10030    2    1    2    0    0  0.00000000000E+00  0.00000000000E+00 -0.25889177276E+03  0.30735739534E+04  0.30626511223E+04 0.  0.
        5    1    3    3  502    0  0.47332653952E+02  0.35309945493E+03  0.13651662493E+04  0.14108935408E+04  0.46999998093E+01 0.  1.
       -5    1    3    3    0  502 -0.47332653952E+02 -0.35309945493E+03 -0.16240580221E+04  0.16626804126E+04  0.46999998093E+01 0. -1.
</event>
<event>
 5   0  0.2624011E-06  0.3093564E+04  0.7818609E-02  0.8217506E-01
        1   -1    0    0  501    0  0.00000000000E+00  0.00000000000E+00  0.17649903852E+04  0.17649903852E+04  0.50400001928E-02 0.  1.
       -1   -1    0    0    0  501  0.00000000000E+00  0.00000000000E+00 -0.13555510277E+04  0.13555510277E+04  0.50400001928E-02 0. -1.
    10030    2    1    2    0    0  0.00000000000E+00  0.00000000000E+00  0.40943935752E+03  0.31205414129E+04  0.30935639839E+04 0.  0.
        1    1    3    3  502    0  0.57973992783E+03 -0.10089354472E+04  0.12326674453E+04  0.16951454661E+04  0.50400001928E-02 0.  1.
       -1    1    3    3    0  502 -0.57973992783E+03  0.10089354472E+04 -0.82322808778E+03  0.14253959468E+04  0.50400001928E-02 0. -1.
</event>
<event>
 5   0  0.2598987E-06  0.3146582E+04  0.7818609E-02  0.8203069E-01
       -1   -1    0    0    0  501  0.00000000000E+00  0.00000000000E+00  0.10825725464E+04  0.10825725465E+04  0.50400001928E-02 0. -1.
        1   -1    0    0  501    0  0.00000000000E+00  0.00000000000E+00 -0.22864467533E+04  0.22864467533E+04  0.50400001928E-02 0.  1.
    10030    2    1    2    0    0  0.00000000000E+00  0.00000000000E+00 -0.12038742068E+04  0.33690192997E+04  0.31465819449E+04 0.  0.
        2    1    3    3  502    0 -0.70971930290E+03  0.13499244104E+04 -0.18830201194E+03  0.15367026552E+04  0.25500000920E-02 0. -1.
       -2    1    3    3    0  502  0.70971930290E+03 -0.13499244104E+04 -0.10155721949E+04  0.18323166445E+04  0.25500000920E-02 0.  1.
</event>
<event>
 5   0  0.7094341E-06  0.3043513E+04  0.7818609E-02  0.8231413E-01
        2   -1    0    0  501    0  0.00000000000E+00  0.00000000000E+00  0.20446133148E+04  0.20446133148E+04  0.25500000920E-02 0. -1.
       -2   -1    0    0    0  501  0.00000000000E+00  0.00000000000E+00 -0.11326069273E+04  0.11326069273E+04  0.25500000920E-02 0.  1.
    10030    2    1    2    0    0  0.00000000000E+00  0.00000000000E+00  0.91200638751E+03  0.31772202421E+04  0.30435132357E+04 0.  0.
        3    1    3    3  502    0  0.12825572764E+04 -0.47939881491E+03  0.11492295625E+04  0.17875975466E+04  0.10100000352E+00 0. -1.
       -3    1    3    3    0  502 -0.12825572764E+04  0.47939881491E+03 -0.23722317502E+03  0.13896226955E+04  0.10100000352E+00 0.  1.
</event>
<event>
 5   0  0.2517725E-06  0.3039264E+04  0.7818609E-02  0.8232607E-01
       -1   -1    0    0    0  501  0.00000000000E+00  0.00000000000E+00  0.14436796073E+04  0.14436796074E+04  0.50400001928E-02 0.  1.
        1   -1    0    0  501    0  0.00000000000E+00  0.00000000000E+00 -0.15995797449E+04  0.15995797449E+04  0.50400001928E-02 0. -1.
    10030    2    1    2    0    0  0.00000000000E+00  0.00000000000E+00 -0.15590013752E+03  0.30432593522E+04  0.30392635016E+04 0.  0.
        3    1    3    3  502    0 -0.31408589672E+03 -0.13995796882E+04  0.42451381354E+03  0.14958894485E+04  0.10100000352E+00 0.  1.
       -3    1    3    3    0  502  0.31408589672E+03  0.13995796882E+04 -0.58041395105E+03  0.15473699037E+04  0.10100000352E+00 0. -1.
</event>
<event>
 5   0  0.7071012E-06  0.1912996E+04  0.7818609E-02  0.8648414E-01
       -2   -1    0    0    0  501  0.00000000000E+00  0.00000000000E+00  0.39289961886E+03  0.39289961887E+03  0.25500000920E-02 0. -1.
        2   -1    0    0  501    0  0.00000000000E+00  0.00000000000E+00 -0.23285549483E+04  0.23285549483E+04  0.25500000920E-02 0.  1.
    10030    2    1    2    0    0  0.00000000000E+00  0.00000000000E+00 -0.19356553294E+04  0.27214545672E+04  0.19129959244E+04 0.  0.
        1    1    3    3  502    0 -0.83595446889E+03 -0.46479872608E+03 -0.97569998530E+03  0.13663265317E+04  0.50400001928E-02 0.  1.
       -1    1    3    3    0  502  0.83595446889E+03  0.46479872608E+03 -0.95995534414E+03  0.13551280355E+04  0.50400001928E-02 0. -1.
</event>
<event>
 5   0  0.2624011E-06  0.3084433E+04  0.7818609E-02  0.8220023E-01
        1   -1    0    0  501    0  0.00000000000E+00  0.00000000000E+00  0.17519693244E+04  0.17519693244E+04  0.50400001928E-02 0.  1.
       -1   -1    0    0    0  501  0.00000000000E+00  0.00000000000E+00 -0.13575761326E+04  0.13575761326E+04  0.50400001928E-02 0. -1.
    10030    2    1    2    0    0  0.00000000000E+00  0.00000000000E+00  0.39439319184E+03  0.31095454570E+04  0.30844330045E+04 0.  0.
        1    1    3    3  502    0 -0.52938756755E+03  0.13141346038E+04 -0.41705113514E+03  0.14768658040E+04  0.50400001928E-02 0. -1.
       -1    1    3    3    0  502  0.52938756755E+03 -0.13141346038E+04  0.81144432698E+03  0.16326796530E+04  0.50400001928E-02 0.  1.
</event>
<event>
 5   0  0.7414808E-06  0.3062247E+04  0.7818609E-02  0.8226176E-01
        2   -1    0    0  501    0  0.00000000000E+00  0.00000000000E+00  0.22000755646E+04  0.22000755646E+04  0.25500000920E-02 0.  1.
       -2   -1    0    0    0  501  0.00000000000E+00  0.00000000000E+00 -0.10655717780E+04  0.10655717780E+04  0.25500000920E-02 0. -1.
    10030    2    1    2    0    0  0.00000000000E+00  0.00000000000E+00  0.11345037866E+04  0.32656473426E+04  0.30622465160E+04 0.  0.
        2    1    3    3  502    0 -0.22498508662E+02  0.83720765497E+03  0.19341519443E+04  0.21076922413E+04  0.25500000920E-02 0.  1.
       -2    1    3    3    0  502  0.22498508662E+02 -0.83720765497E+03 -0.79964815776E+03  0.11579551013E+04  0.25500000920E-02 0. -1.
</event>
<event>
 5   0  0.2517725E-06  0.2214755E+04  0.7818609E-02  0.8512312E-01
        1   -1    0    0  501    0  0.00000000000E+00  0.00000000000E+00  0.20056552812E+04  0.20056552812E+04  0.50400001928E-02 0. -1.
       -1   -1    0    0    0  501  0.00000000000E+00  0.00000000000E+00 -0.61141341047E+03  0.61141341049E+03  0.50400001928E-02 0.  1.
    10030    2    1    2    0    0  0.00000000000E+00  0.00000000000E+00  0.13942418708E+04  0.26170686917E+04  0.22147546462E+04 0.  0.
        3    1    3    3  502    0 -0.31330366026E+03 -0.62692889552E+03  0.17102351975E+04  0.18482703981E+04  0.10100000352E+00 0. -1.
       -3    1    3    3    0  502  0.31330366026E+03  0.62692889552E+03 -0.31599332671E+03  0.76879829364E+03  0.10100000352E+00 0.  1.
</event>
<event>
 5   0  0.7363513E-06  0.3079222E+04  0.7818609E-02  0.8221464E-01
       -2   -1    0    0    0  501  0.00000000000E+00  0.00000000000E+00  0.11189590882E+04  0.11189590882E+04  0.25500000920E-02 0.  1.
        2   -1    0    0  501    0  0.00000000000E+00  0.00000000000E+00 -0.21183987646E+04  0.21183987646E+04  0.25500000920E-02 0. -1.
    10030    2    1    2    0    0  0.00000000000E+00  0.00000000000E+00 -0.99943967642E+03  0.32373578528E+04  0.30792216874E+04 0.  0.
        4    1    3    3  502    0  0.70295372624E+03 -0.95568221479E+03  0.53196380805E+03  0.13001767353E+04  0.12699999809E+01 0.  1.
       -4    1    3    3    0  502 -0.70295372624E+03  0.95568221479E+03 -0.15314034845E+04  0.19371811175E+04  0.12699999809E+01 0. -1.
</event>
<event>
 5   0  0.7071012E-06  0.3126551E+04  0.7818609E-02  0.8208489E-01
        2   -1    0    0  501    0  0.00000000000E+00  0.00000000000E+00  0.17968369794E+04  0.17968369794E+04  0.25500000920E-02 0. -1.
       -2   -1    0    0    0  501  0.00000000000E+00  0.00000000000E+00 -0.13600732090E+04  0.13600732090E+04  0.25500000920E-02 0.  1.
    10030    2    1    2    0    0  0.00000000000E+00  0.00000000000E+00  0.43676377039E+03  0.31569101884E+04  0.31265507107E+04 0.  0.
        1    1    3    3  502    0 -0.25816657380E+03  0.11850429904E+04  0.12142924826E+04  0.17162409803E+04  0.50400001928E-02 0. -1.
       -1    1    3    3    0  502  0.25816657380E+03 -0.11850429904E+04 -0.77752871220E+03  0.14406692082E+04  0.50400001928E-02 0.  1.
</event>
<event>
 5   0  0.2517725E-06  0.3080527E+04  0.7818609E-02  0.8221102E-01
       -1   -1    0    0    0  501  0.00000000000E+00  0.00000000000E+00  0.19959543099E+04  0.19959543099E+04  0.50400001928E-02 0.  1.
        1   -1    0    0  501    0  0.00000000000E+00  0.00000000000E+00 -0.11886105122E+04  0.11886105122E+04  0.50400001928E-02 0. -1.
    10030    2    1    2    0    0  0.00000000000E+00  0.00000000000E+00  0.80734379773E+03  0.31845648220E+04  0.30805274058E+04 0.  0.
        3    1    3    3  502    0 -0.10826398827E+04  0.49867321846E+03 -0.60478806500E+03  0.13366198817E+04  0.10100000352E+00 0. -1.
       -3    1    3    3    0  502  0.10826398827E+04 -0.49867321846E+03  0.14121318627E+04  0.18479449403E+04  0.10100000352E+00 0.  1.
</event>
<event>
 5   0  0.2674441E-06  0.3080069E+04  0.7818609E-02  0.8221229E-01
       -1   -1    0    0    0  501  0.00000000000E+00  0.00000000000E+00  0.83512725097E+03  0.83512725098E+03  0.50400001928E-02 0. -1.
        1   -1    0    0  501    0  0.00000000000E+00  0.00000000000E+00 -0.28399346551E+04  0.28399346551E+04  0.50400001928E-02 0.  1.
    10030    2    1    2    0    0  0.00000000000E+00  0.00000000000E+00 -0.20048074041E+04  0.36750619061E+04  0.30800693638E+04 0.  0.
        5    1    3    3  502    0  0.69500133841E+02  0.12742182197E+04 -0.20310440488E+04  0.23986713735E+04  0.46999998093E+01 0.  1.
       -5    1    3    3    0  502 -0.69500133841E+02 -0.12742182197E+04  0.26236644666E+02  0.12763905325E+04  0.46999998093E+01 0. -1.
</event>
<event>
 5   0  0.2517725E-06  0.2242557E+04  0.7818609E-02  0.8500921E-01
       -1   -1    0    0    0  501  0.00000000000E+00  0.00000000000E+00  0.10133645721E+04  0.10133645721E+04  0.50400001928E-02 0. -1.
        1   -1    0    0  501    0  0.00000000000E+00  0.00000000000E+00 -0.12406837643E+04  0.12406837643E+04  0.50400001928E-02 0.  1.
    10030    2    1    2    0    0  0.00000000000E+00  0.00000000000E+00 -0.22731919217E+03  0.22540483364E+04  0.22425565518E+04 0.  0.
        3    1    3    3  502    0 -0.25183285558E+03 -0.94669350171E+03  0.43467846025E+03  0.10717246602E+04  0.10100000352E+00 0. -1.
       -3    1    3    3    0  502  0.25183285558E+03  0.94669350171E+03 -0.66199765242E+03  0.11823236762E+04  0.10100000352E+00 0.  1.
</event>
<event>
 5   0  0.2674441E-06  0.3059243E+04  0.7818609E-02  0.8227013E-01
        1   -1    0    0  501    0  0.00000000000E+00  0.00000000000E+00  0.25738559042E+04  0.25738559042E+04  0.50400001928E-02 0. -1.
       -1   -1    0    0    0  501  0.00000000000E+00  0.00000000000E+00 -0.90904153539E+03  0.90904153540E+03  0.50400001928E-02 0.  1.
    10030    2    1    2    0    0  0.00000000000E+00  0.00000000000E+00  0.16648143688E+04  0.34828974396E+04  0.30592429933E+04 0.  0.
        5    1    3    3  502    0 -0.12329445186E+04  0.29573658442E+03  0.18065309655E+04  0.22070769204E+04  0.46999998093E+01 0. -1.
       -5    1    3    3    0  502  0.12329445186E+04 -0.29573658442E+03 -0.14171659669E+03  0.12758205192E+04  0.46999998093E+01 0.  1.
</event>
<event>
 5   0  0.7414808E-06  0.2885651E+04  0.7818609E-02  0.8277160E-01
       -2   -1    0    0    0  501  0.00000000000E+00  0.00000000000E+00  0.12602086234E+04  0.12602086234E+04  0.25500000920E-02 0.  1.
        2   -1    0    0  501    0  0.00000000000E+00  0.00000000000E+00 -0.16519052447E+04  0.16519052447E+04  0.25500000920E-02 0. -1.
    10030    2    1    2    0    0  0.00000000000E+00  0.00000000000E+00 -0.39169662137E+03  0.29121138681E+04  0.28856508690E+04 0.  0.
        2    1    3    3  502    0  0.47666478662E+02 -0.14275698366E+04 -0.40147532932E+03  0.14837149901E+04  0.25500000920E-02 0. -1.
       -2    1    3    3    0  502 -0.47666478662E+02  0.14275698366E+04  0.97787079463E+01  0.14283988781E+04  0.25500000920E-02 0.  1.
</event>
<event>
 5   0  0.2517725E-06  0.3084810E+04  0.7818609E-02  0.8219919E-01
        1   -1    0    0  501    0  0.00000000000E+00  0.00000000000E+00  0.17666086342E+04  0.17666086342E+04  0.50400001928E-02 0.  1.
       -1   -1    0    0    0  501  0.00000000000E+00  0.00000000000E+00 -0.13466555717E+04  0.13466555717E+04  0.50400001928E-02 0. -1.
    10030    2    1    2    0    0  0.00000000000E+00  0.00000000000E+00  0.41995306249E+03  0.31132642059E+04  0.30848101143E+04 0.  0.
        3    1    3    3  502    0  0.58351336917E+02  0.12076596674E+04 -0.75654527663E+03  0.14262564694E+04  0.10100000352E+00 0. -1.
       -3    1    3    3    0  502 -0.58351336917E+02 -0.12076596674E+04  0.11764983391E+04  0.16870077365E+04  0.10100000352E+00 0.  1.
</event>
<event>
 5   0  0.7071012E-06  0.3114427E+04  0.7818609E-02  0.8211790E-01
        2   -1    0    0  501    0  0.00000000000E+00  0.00000000000E+00  0.19973164652E+04  0.19973164652E+04  0.25500000920E-02 0. -1.
       -2   -1    0    0    0  501  0.00000000000E+00  0.00000000000E+00 -0.12140861299E+04  0.12140861299E+04  0.25500000920E-02 0.  1.
    10030    2    1    2    0    0  0.00000000000E+00  0.00000000000E+00  0.78323033531E+03  0.32114025951E+04  0.31144272137E+04 0.  0.
        1    1    3    3  502    0  0.98094219550E+02 -0.14927537035E+04  0.83748897970E+03  0.17144456499E+04  0.50400001928E-02 0. -1.
       -1    1    3    3    0  502 -0.98094219550E+02  0.14927537035E+04 -0.54258644392E+02  0.14969569452E+04  0.50400001928E-02 0.  1.
</event>
<event>
 5   0  0.7363513E-06  0.3066521E+04  0.7818609E-02  0.8224987E-01
        2   -1    0    0  501    0  0.00000000000E+00  0.00000000000E+00  0.15535365717E+04  0.15535365718E+04  0.25500000920E-02 0.  1.
       -2   -1    0    0    0  501  0.00000000000E+00  0.00000000000E+00 -0.15132485985E+04  0.15132485985E+04  0.25500000920E-02 0. -1.
    10030    2    1    2    0    0  0.00000000000E+00  0.00000000000E+00  0.40287973259E+02  0.30667851702E+04  0.30665205298E+04 0.  0.
        4    1    3    3  502    0 -0.21462422837E+03 -0.12148837732E+04 -0.89036266125E+03  0.15214313732E+04  0.12699999809E+01 0. -1.
       -4    1    3    3    0  502  0.21462422837E+03  0.12148837732E+04  0.93065063451E+03  0.15453537971E+04  0.12699999809E+01 0.  1.
</event>
<event>
 5   0  0.2517725E-06  0.3022712E+04  0.7818609E-02  0.8237275E-01
        1   -1    0    0  501    0  0.00000000000E+00  0.00000000000E+00  0.25350677993E+04  0.25350677993E+04  0.50400001928E-02 0.  1.
       -1   -1    0    0    0  501  0.00000000000E+00  0.00000000000E+00 -0.90103951136E+03  0.90103951137E+03  0.50400001928E-02 0. -1.
    10030    2    1    2    0    0  0.00000000000E+00  0.00000000000E+00  0.16340282880E+04  0.34361073107E+04  0.30227115318E+04 0.  0.
        3    1    3    3  502    0 -0.30135108204E+03 -0.14401636865E+04  0.42435775780E+03  0.15313273443E+04  0.10100000352E+00 0.  1.
       -3    1    3    3    0  502  0.30135108204E+03  0.14401636865E+04  0.12096705302E+04  0.19047799664E+04  0.10100000352E+00 0. -1.
</event>
<event>
 5   0  0.7094341E-06  0.2895400E+04  0.7818609E-02  0.8274248E-01
       -2   -1    0    0    0  501  0.00000000000E+00  0.00000000000E+00  0.10769407804E+04  0.10769407804E+04  0.25500000920E-02 0.  1.
        2   -1    0    0  501    0  0.00000000000E+00  0.00000000000E+00 -0.19461001376E+04  0.19461001377E+04  0.25500000920E-02 0. -1.
    10030    2    1    2    0    0  0.00000000000E+00  0.00000000000E+00 -0.86915935724E+03  0.30230409181E+04  0.28953995241E+04 0.  0.
        3    1    3    3  502    0  0.35913729587E+03  0.78920065250E+02  0.10273718509E+04  0.10911924231E+04  0.10100000352E+00 0.  1.
       -3    1    3    3    0  502 -0.35913729587E+03 -0.78920065250E+02 -0.18965312081E+04  0.19318484950E+04  0.10100000352E+00 0. -1.
</event>
<event>
 5   0  0.7094341E-06  0.1955278E+04  0.7818609E-02  0.8627820E-01
        2   -1    0    0  501    0  0.00000000000E+00  0.00000000000E+00  0.16591802693E+04  0.16591802694E+04  0.25500000920E-02 0.  1.
       -2   -1    0    0    0  501  0.00000000000E+00  0.00000000000E+00 -0.57605446042E+03  0.57605446043E+03  0.25500000920E-02 0. -1.
    10030    2    1    2    0    0  0.00000000000E+00  0.00000000000E+00  0.10831258089E+04  0.22352347298E+04  0.19552781846E+04 0.  0.
        3    1    3    3  502    0  0.24948156446E+02  0.42649790143E+03  0.15468174337E+04  0.16047327048E+04  0.10100000352E+00 0.  1.
       -3    1    3    3    0  502 -0.24948156446E+02 -0.42649790143E+03 -0.46369162477E+03  0.63050202499E+03  0.10100000352E+00 0. -1.
</event>
<event>
 5   0  0.2598987E-06  0.3143841E+04  0.7818609E-02  0.8203808E-01
        1   -1    0    0  501    0  0.00000000000E+00  0.00000000000E+00  0.10050142800E+04  0.10050142800E+04  0.50400001928E-02 0.  1.
       -1   -1    0    0    0  501  0.00000000000E+00  0.00000000000E+00 -0.24586051443E+04  0.24586051443E+04  0.50400001928E-02 0. -1.
    10030    2    1    2    0    0  0.00000000000E+00  0.00000000000E+00 -0.14535908643E+04  0.34636194243E+04  0.31438405042E+04 0.  0.
        2    1    3    3  502    0  0.67159432341E+03 -0.86922006031E+03 -0.19656018900E+04  0.22517045185E+04  0.25500000920E-02 0. -1.
       -2    1    3    3    0  502 -0.67159432341E+03  0.86922006031E+03  0.51201102574E+03  0.12119149058E+04  0.25500000920E-02 0.  1.
</event>
<event>
 5   0  0.2674441E-06  0.2788301E+04  0.7818609E-02  0.8306910E-01
        1   -1    0    0  501    0  0.00000000000E+00  0.00000000000E+00  0.18517210211E+04  0.18517210211E+04  0.50400001928E-02 0. -1.
       -1   -1    0    0    0  501  0.00000000000E+00  0.00000000000E+00 -0.10496479738E+04  0.10496479738E+04  0.50400001928E-02 0.  1.
    10030    2    1    2    0    0  0.00000000000E+00  0.00000000000E+00  0.80207304731E+03  0.29013689950E+04  0.27883007140E+04 0.  0.
        5    1    3    3  502    0 -0.20922257810E+03 -0.12600842904E+04 -0.18022703754E+03  0.12899962718E+04  0.46999998093E+01 0. -1.
       -5    1    3    3    0  502  0.20922257810E+03  0.12600842904E+04  0.98230008486E+03  0.16113727232E+04  0.46999998093E+01 0.  1.
</event>
<event>
 5   0  0.2624011E-06  0.2637653E+04  0.7818609E-02  0.8355523E-01
        1   -1    0    0  501    0  0.00000000000E+00  0.00000000000E+00  0.18033426983E+04  0.18033426983E+04  0.50400001928E-02 0.  1.
       -1   -1    0    0    0  501  0.00000000000E+00  0.00000000000E+00 -0.96448816878E+03  0.96448816880E+03  0.50400001928E-02 0. -1.
    10030    2    1    2    0    0  0.00000000000E+00  0.00000000000E+00  0.83885452953E+03  0.27678308671E+04  0.26376525145E+04 0.  0.
        1    1    3    3  502    0 -0.51920531889E+03  0.11413589313E+04  0.84828873361E+03  0.15138917229E+04  0.50400001928E-02 0.  1.
       -1    1    3    3    0  502  0.51920531889E+03 -0.11413589313E+04 -0.94342040773E+01  0.12539391442E+04  0.50400001928E-02 0. -1.
</event>
<event>
 5   0  0.7079223E-06  0.3077351E+04  0.7818609E-02  0.8221981E-01
       -2   -1    0    0    0  501  0.00000000000E+00  0.00000000000E+00  0.99604478639E+03  0.99604478639E+03  0.25500000920E-02 0.  1.
        2   -1    0    0  501    0  0.00000000000E+00  0.00000000000E+00 -0.23769241437E+04  0.23769241437E+04  0.25500000920E-02 0. -1.
    10030    2    1    2    0    0  0.00000000000E+00  0.00000000000E+00 -0.13808793573E+04  0.33729689301E+04  0.30773513943E+04 0.  0.
        5    1    3    3  502    0 -0.93010572994E+03  0.11833278759E+04 -0.10407328308E+04  0.18298930149E+04  0.46999998093E+01 0. -1.
       -5    1    3    3    0  502  0.93010572994E+03 -0.11833278759E+04 -0.34014652652E+03  0.15430759153E+04  0.46999998093E+01 0.  1.
</event>
<event>
 5   0  0.7094341E-06  0.3051191E+04  0.7818609E-02  0.8229262E-01
       -2   -1    0    0    0  501  0.00000000000E+00  0.00000000000E+00  0.83232475931E+03  0.83232475931E+03  0.25500000920E-02 0.  1.
        2   -1    0    0  501    0  0.00000000000E+00  0.00000000000E+00 -0.27963149254E+04  0.27963149254E+04  0.25500000920E-02 0. -1.
    10030    2    1    2    0    0  0.00000000000E+00  0.00000000000E+00 -0.19639901660E+04  0.36286396847E+04  0.30511913393E+04 0.  0.
        3    1    3    3  502    0  0.15074865479E+04 -0.11716621053E+02 -0.12603646451E+04  0.19649865191E+04  0.10100000352E+00 0. -1.
       -3    1    3    3    0  502 -0.15074865479E+04  0.11716621053E+02 -0.70362552091E+03  0.16636531656E+04  0.10100000352E+00 0.  1.
</event>
<event>
 5   0  0.7363513E-06  0.3073454E+04  0.7818609E-02  0.8223061E-01
       -2   -1    0    0    0  501  0.00000000000E+00  0.00000000000E+00  0.92513368696E+03  0.92513368696E+03  0.25500000920E-02 0.  1.
        2   -1    0    0  501    0  0.00000000000E+00  0.00000000000E+00 -0.25526366176E+04  0.25526366176E+04  0.25500000920E-02 0. -1.
    10030    2    1    2    0    0  0.00000000000E+00  0.00000000000E+00 -0.16275029306E+04  0.34777703045E+04  0.30734541646E+04 0.  0.
        4    1    3    3  502    0  0.12479062446E+04  0.10621985459E+03 -0.18213885376E+04  0.22104321909E+04  0.12699999809E+01 0. -1.
       -4    1    3    3    0  502 -0.12479062446E+04 -0.10621985459E+03  0.19388560696E+03  0.12673381136E+04  0.12699999809E+01 0.  1.
</event>
<event>
 5   0  0.7094341E-06  0.2459798E+04  0.7818609E-02  0.8417449E-01
       -2   -1    0    0    0  501  0.00000000000E+00  0.00000000000E+00  0.12045122937E+04  0.12045122937E+04  0.25500000920E-02 0.  1.
        2   -1    0    0  501    0  0.00000000000E+00  0.00000000000E+00 -0.12558212244E+04  0.12558212244E+04  0.25500000920E-02 0. -1.
    10030    2    1    2    0    0  0.00000000000E+00  0.00000000000E+00 -0.51308930734E+02  0.24603335181E+04  0.24597984498E+04 0.  0.
        3    1    3    3  502    0 -0.70439816336E+03  0.77214653548E+03  0.62276507850E+03  0.12166443186E+04  0.10100000352E+00 0.  1.
       -3    1    3    3    0  502  0.70439816336E+03 -0.77214653548E+03 -0.67407400923E+03  0.12436891995E+04  0.10100000352E+00 0. -1.
</event>
<event>
 5   0  0.2674441E-06  0.2382785E+04  0.7818609E-02  0.8445977E-01
       -1   -1    0    0    0  501  0.00000000000E+00  0.00000000000E+00  0.99492211958E+03  0.99492211959E+03  0.50400001928E-02 0. -1.
        1   -1    0    0  501    0  0.00000000000E+00  0.00000000000E+00 -0.14266600681E+04  0.14266600681E+04  0.50400001928E-02 0.  1.
    10030    2    1    2    0    0  0.00000000000E+00  0.00000000000E+00 -0.43173794852E+03  0.24215821877E+04  0.23827846389E+04 0.  0.
        5    1    3    3  502    0  0.63445713042E+03  0.59537557837E+03  0.61125360361E+03  0.10633254382E+04  0.46999998093E+01 0. -1.
       -5    1    3    3    0  502 -0.63445713042E+03 -0.59537557837E+03 -0.10429915521E+04  0.13582567495E+04  0.46999998093E+01 0.  1.
</event>
<event>
 5   0  0.2612331E-06  0.3072980E+04  0.7818609E-02  0.8223193E-01
       -1   -1    0    0    0  501  0.00000000000E+00  0.00000000000E+00  0.92270880500E+03  0.92270880502E+03  0.50400001928E-02 0.  1.
        1   -1    0    0  501    0  0.00000000000E+00  0.00000000000E+00 -0.25585549337E+04  0.25585549337E+04  0.50400001928E-02 0. -1.
    10030    2    1    2    0    0  0.00000000000E+00  0.00000000000E+00 -0.16358461286E+04  0.34812637387E+04  0.30729797692E+04 0.  0.
        4    1    3    3  502    0 -0.14991611063E+04 -0.53781354658E+02 -0.44147316568E+03  0.15637380298E+04  0.12699999809E+01 0. -1.
       -4    1    3    3    0  502  0.14991611063E+04  0.53781354658E+02 -0.11943729630E+04  0.19175257089E+04  0.12699999809E+01 0.  1.
</event>
<event>
 5   0  0.2674441E-06  0.3133432E+04  0.7818609E-02  0.8206622E-01
       -1   -1    0    0    0  501  0.00000000000E+00  0.00000000000E+00  0.94768228643E+03  0.94768228644E+03  0.50400001928E-02 0. -1.
        1   -1    0    0  501    0  0.00000000000E+00  0.00000000000E+00 -0.25901072971E+04  0.25901072971E+04  0.50400001928E-02 0.  1.
    10030    2    1    2    0    0  0.00000000000E+00  0.00000000000E+00 -0.16424250107E+04  0.35377895835E+04  0.31334318601E+04 0.  0.
        5    1    3    3  502    0  0.50328078006E+03 -0.78125126791E+03  0.60287770801E+03  0.11077584159E+04  0.46999998093E+01 0. -1.
       -5    1    3    3    0  502 -0.50328078006E+03  0.78125126791E+03 -0.22453027187E+04  0.24300311676E+04  0.46999998093E+01 0.  1.
</event>
<event>
 5   0  0.2612331E-06  0.3056945E+04  0.7818609E-02  0.8227654E-01
       -1   -1    0    0    0  501  0.00000000000E+00  0.00000000000E+00  0.12787314353E+04  0.12787314353E+04  0.50400001928E-02 0.  1.
        1   -1    0    0  501    0  0.00000000000E+00  0.00000000000E+00 -0.18269883388E+04  0.18269883388E+04  0.50400001928E-02 0. -1.
    10030    2    1    2    0    0  0.00000000000E+00  0.00000000000E+00 -0.54825690351E+03  0.31057197741E+04  0.30569445012E+04 0.  0.
        4    1    3    3  502    0  0.50918228203E+03 -0.11962295187E+04 -0.10906901513E+04  0.16970086260E+04  0.12699999809E+01 0. -1.
       -4    1    3    3    0  502 -0.50918228203E+03  0.11962295187E+04  0.54243324780E+03  0.14087111481E+04  0.12699999809E+01 0.  1.
</event>
<event>
 5   0  0.7094341E-06  0.3111713E+04  0.7818609E-02  0.8212531E-01
       -2   -1    0    0    0  501  0.00000000000E+00  0.00000000000E+00  0.19671071203E+04  0.19671071203E+04  0.25500000920E-02 0. -1.
        2   -1    0    0  501    0  0.00000000000E+00  0.00000000000E+00 -0.12305832812E+04  0.12305832812E+04  0.25500000920E-02 0.  1.
    10030    2    1    2    0    0  0.00000000000E+00  0.00000000000E+00  0.73652383915E+03  0.31976904015E+04  0.31117127982E+04 0.  0.
        3    1    3    3  502    0  0.79870030294E+03 -0.13083493987E+04  0.94462937450E+02  0.15357810976E+04  0.10100000352E+00 0.  1.
       -3    1    3    3    0  502 -0.79870030294E+03  0.13083493987E+04  0.64206090170E+03  0.16619093040E+04  0.10100000352E+00 0. -1.
</event>
<event>
 5   0  0.2517725E-06  0.3250260E+04  0.7818609E-02  0.8175668E-01
       -1   -1    0    0    0  501  0.00000000000E+00  0.00000000000E+00  0.11153269566E+04  0.11153269566E+04  0.50400001928E-02 0.  1.
        1   -1    0    0  501    0  0.00000000000E+00  0.00000000000E+00 -0.23679583323E+04  0.23679583323E+04  0.50400001928E-02 0. -1.
    10030    2    1    2    0    0  0.00000000000E+00  0.00000000000E+00 -0.12526313757E+04  0.34832852888E+04  0.32502601496E+04 0.  0.
        3    1    3    3  502    0  0.63327141626E+03 -0.13975860404E+04 -0.52415310024E+02  0.15352611510E+04  0.10100000352E+00 0.  1.
       -3    1    3    3    0  502 -0.63327141626E+03  0.13975860404E+04 -0.12002160657E+04  0.19480241378E+04  0.10100000352E+00 0. -1.
</event>
<event>
 5   0  0.7079223E-06  0.3027497E+04  0.7818609E-02  0.8235922E-01
        2   -1    0    0  501    0  0.00000000000E+00  0.00000000000E+00  0.21642662479E+04  0.21642662479E+04  0.25500000920E-02 0.  1.
       -2   -1    0    0    0  501  0.00000000000E+00  0.00000000000E+00 -0.10587584497E+04  0.10587584497E+04  0.25500000920E-02 0. -1.
    10030    2    1    2    0    0  0.00000000000E+00  0.00000000000E+00  0.11055077982E+04  0.32230246976E+04  0.30274974334E+04 0.  0.
        5    1    3    3  502    0 -0.30303591772E+03  0.12544148385E+04  0.13950716296E+04  0.19004300292E+04  0.46999998093E+01 0.  1.
       -5    1    3    3    0  502  0.30303591772E+03 -0.12544148385E+04 -0.28956383133E+03  0.13225946684E+04  0.46999998093E+01 0. -1.
</event>
<event>
 5   0  0.7094341E-06  0.3114662E+04  0.7818609E-02  0.8211725E-01
       -2   -1    0    0    0  501  0.00000000000E+00  0.00000000000E+00  0.89567374473E+03  0.89567374473E+03  0.25500000920E-02 0.  1.
        2   -1    0    0  501    0  0.00000000000E+00  0.00000000000E+00 -0.27077723296E+04  0.27077723296E+04  0.25500000920E-02 0. -1.
    10030    2    1    2    0    0  0.00000000000E+00  0.00000000000E+00 -0.18120985849E+04  0.36034460744E+04  0.31146624744E+04 0.  0.
        3    1    3    3  502    0 -0.24952112935E+03 -0.12330892371E+04 -0.19679765106E+04  0.23357442962E+04  0.10100000352E+00 0. -1.
       -3    1    3    3    0  502  0.24952112935E+03  0.12330892371E+04  0.15587792568E+03  0.12677017782E+04  0.10100000352E+00 0.  1.
</event>
<event>
 5   0  0.2517725E-06  0.3202340E+04  0.7818609E-02  0.8188199E-01
       -1   -1    0    0    0  501  0.00000000000E+00  0.00000000000E+00  0.18781684506E+04  0.18781684506E+04  0.50400001928E-02 0. -1.
        1   -1    0    0  501    0  0.00000000000E+00  0.00000000000E+00 -0.13650240876E+04  0.13650240877E+04  0.50400001928E-02 0.  1.
    10030    2    1    2    0    0  0.00000000000E+00  0.00000000000E+00  0.51314436297E+03  0.32431925383E+04  0.32023398794E+04 0.  0.
        3    1    3    3  502    0  0.11697831323E+04  0.10087543734E+04 -0.17043101684E+03  0.15540349753E+04  0.10100000352E+00 0.  1.
       -3    1    3    3    0  502 -0.11697831323E+04 -0.10087543734E+04  0.68357537982E+03  0.16891575630E+04  0.10100000352E+00 0. -1.
</event>
<event>
 5   0  0.7363513E-06  0.3001266E+04  0.7818609E-02  0.8243369E-01
        2   -1    0    0  501    0  0.00000000000E+00  0.00000000000E+00  0.23071886547E+04  0.23071886547E+04  0.25500000920E-02 0.  1.
       -2   -1    0    0    0  501  0.00000000000E+00  0.00000000000E+00 -0.97603638355E+03  0.97603638356E+03  0.25500000920E-02 0. -1.
    10030    2    1    2    0    0  0.00000000000E+00  0.00000000000E+00  0.13311522712E+04  0.32832250383E+04  0.30012664465E+04 0.  0.
        4    1    3    3  502    0 -0.97305204962E+02 -0.77789339110E+03  0.20653627111E+04  0.22091426328E+04  0.12699999809E+01 0.  1.
       -4    1    3    3    0  502  0.97305204962E+02  0.77789339110E+03 -0.73421043990E+03  0.10740824055E+04  0.12699999809E+01 0. -1.
</event>
<event>
 5   0  0.7079223E-06  0.3074747E+04  0.7818609E-02  0.8222703E-01
       -2   -1    0    0    0  501  0.00000000000E+00  0.00000000000E+00  0.12605671228E+04  0.12605671228E+04  0.25500000920E-02 0.  1.
        2   -1    0    0  501    0  0.00000000000E+00  0.00000000000E+00 -0.18749633545E+04  0.18749633545E+04  0.25500000920E-02 0. -1.
    10030    2    1    2    0    0  0.00000000000E+00  0.00000000000E+00 -0.61439623169E+03  0.31355304774E+04  0.30747469237E+04 0.  0.
        5    1    3    3  502    0 -0.68260137704E+03 -0.13356454683E+04 -0.65090948857E+03  0.16351142802E+04  0.46999998093E+01 0. -1.
       -5    1    3    3    0  502  0.68260137704E+03  0.13356454683E+04  0.36513256875E+02  0.15004161972E+04  0.46999998093E+01 0.  1.
</event>
<event>
 5   0  0.2598987E-06  0.3325427E+04  0.7818609E-02  0.8156455E-01
        1   -1    0    0  501    0  0.00000000000E+00  0.00000000000E+00  0.17355477784E+04  0.17355477784E+04  0.50400001928E-02 0.  1.
       -1   -1    0    0    0  501  0.00000000000E+00  0.00000000000E+00 -0.15929358733E+04  0.15929358733E+04  0.50400001928E-02 0. -1.
    10030    2    1    2    0    0  0.00000000000E+00  0.00000000000E+00  0.14261190512E+03  0.33284836517E+04  0.33254270800E+04 0.  0.
        2    1    3    3  502    0  0.27879985228E+03 -0.11470286186E+04 -0.11007581110E+04  0.16140236765E+04  0.25500000920E-02 0. -1.
       -2    1    3    3    0  502 -0.27879985228E+03  0.11470286186E+04  0.12433700161E+04  0.17144599752E+04  0.25500000920E-02 0.  1.
</event>
<event>
 5   0  0.2612331E-06  0.3080370E+04  0.7818609E-02  0.8221146E-01
       -1   -1    0    0    0  501  0.00000000000E+00  0.00000000000E+00  0.25654548525E+04  0.25654548525E+04  0.50400001928E-02 0. -1.
        1   -1    0    0  501    0  0.00000000000E+00  0.00000000000E+00 -0.92465878798E+03  0.92465878800E+03  0.50400001928E-02 0.  1.
    10030    2    1    2    0    0  0.00000000000E+00  0.00000000000E+00  0.16407960646E+04  0.34901136405E+04  0.30803703509E+04 0.  0.
        4    1    3    3  502    0  0.77568657039E+03  0.84728415751E+03 -0.34202974031E+03  0.11985683356E+04  0.12699999809E+01 0.  1.
       -4    1    3    3    0  502 -0.77568657039E+03 -0.84728415751E+03  0.19828258049E+04  0.22915453049E+04  0.12699999809E+01 0. -1.
</event>
<event>
 5   0  0.2517725E-06  0.3091102E+04  0.7818609E-02  0.8218184E-01
        1   -1    0    0  501    0  0.00000000000E+00  0.00000000000E+00  0.16122597840E+04  0.16122597840E+04  0.50400001928E-02 0.  1.
       -1   -1    0    0    0  501  0.00000000000E+00  0.00000000000E+00 -0.14816020202E+04  0.14816020202E+04  0.50400001928E-02 0. -1.
    10030    2    1    2    0    0  0.00000000000E+00  0.00000000000E+00  0.13065776377E+03  0.30938618042E+04  0.30911016502E+04 0.  0.
        3    1    3    3  502    0  0.11762683943E+04  0.41829730556E+03 -0.84660892818E+03  0.15084185953E+04  0.10100000352E+00 0. -1.
       -3    1    3    3    0  502 -0.11762683943E+04 -0.41829730556E+03  0.97726669195E+03  0.15854432089E+04  0.10100000352E+00 0.  1.
</event>
<event>
 5   0  0.2674441E-06  0.3224181E+04  0.7818609E-02  0.8182460E-01
       -1   -1    0    0    0  501  0.00000000000E+00  0.00000000000E+00  0.14633423376E+04  0.14633423376E+04  0.50400001928E-02 0. -1.
        1   -1    0    0  501    0  0.00000000000E+00  0.00000000000E+00 -0.17759589427E+04  0.17759589427E+04  0.50400001928E-02 0.  1.
    10030    2    1    2    0    0  0.00000000000E+00  0.00000000000E+00 -0.31261660518E+03  0.32393012803E+04  0.32241810810E+04 0.  0.
        5    1    3    3  502    0 -0.10475900558E+04  0.76511587420E+03 -0.11178579988E+04  0.17124473194E+04  0.46999998093E+01 0.  1.
       -5    1    3    3    0  502  0.10475900558E+04 -0.76511587420E+03  0.80524139364E+03  0.15268539610E+04  0.46999998093E+01 0. -1.
</event>
<event>
 5   0  0.7094341E-06  0.3130840E+04  0.7818609E-02  0.8207325E-01
        2   -1    0    0  501    0  0.00000000000E+00  0.00000000000E+00  0.19524628261E+04  0.19524628261E+04  0.25500000920E-02 0.  1.
       -2   -1    0    0    0  501  0.00000000000E+00  0.00000000000E+00 -0.12551022152E+04  0.12551022152E+04  0.25500000920E-02 0. -1.
    10030    2    1    2    0    0  0.00000000000E+00  0.00000000000E+00  0.69736061083E+03  0.32075650413E+04  0.31308404100E+04 0.  0.
        3    1    3    3  502    0 -0.11285840451E+04  0.41964119884E+03  0.13735652438E+04  0.18266039997E+04  0.10100000352E+00 0.  1.
       -3    1    3    3    0  502  0.11285840451E+04 -0.41964119884E+03 -0.67620463299E+03  0.13809610416E+04  0.10100000352E+00 0. -1.
</event>
<event>
 5   0  0.2624011E-06  0.3087155E+04  0.7818609E-02  0.8219272E-01
       -1   -1    0    0    0  501  0.00000000000E+00  0.00000000000E+00  0.12161450427E+04  0.12161450427E+04  0.50400001928E-02 0. -1.
        1   -1    0    0  501    0  0.00000000000E+00  0.00000000000E+00 -0.19591666583E+04  0.19591666583E+04  0.50400001928E-02 0.  1.
    10030    2    1    2    0    0  0.00000000000E+00  0.00000000000E+00 -0.74302161555E+03  0.31753117010E+04  0.30871545600E+04 0.  0.
        1    1    3    3  502    0 -0.18346491644E+03  0.68618990709E+03 -0.17810886506E+04  0.19174964786E+04  0.50400001928E-02 0.  1.
       -1    1    3    3    0  502  0.18346491644E+03 -0.68618990709E+03  0.10380670351E+04  0.12578152223E+04  0.50400001928E-02 0. -1.
</event>
<event>
 5   0  0.7071012E-06  0.2168291E+04  0.7818609E-02  0.8531743E-01
       -2   -1    0    0    0  501  0.00000000000E+00  0.00000000000E+00  0.98630539194E+03  0.98630539194E+03  0.25500000920E-02 0.  1.
        2   -1    0    0  501    0  0.00000000000E+00  0.00000000000E+00 -0.11916911739E+04  0.11916911739E+04  0.25500000920E-02 0. -1.
    10030    2    1    2    0    0  0.00000000000E+00  0.00000000000E+00 -0.20538578192E+03  0.21779965658E+04  0.21682909678E+04 0.  0.
        1    1    3    3  502    0  0.43658439380E+03 -0.41057531827E+03 -0.10101710276E+04  0.11745737652E+04  0.50400001928E-02 0. -1.
       -1    1    3    3    0  502 -0.43658439380E+03  0.41057531827E+03  0.80478524573E+03  0.10034228005E+04  0.50400001928E-02 0.  1.
</event>
<event>
 5   0  0.2517725E-06  0.3154096E+04  0.7818609E-02  0.8201046E-01
        1   -1    0    0  501    0  0.00000000000E+00  0.00000000000E+00  0.27207200261E+04  0.27207200261E+04  0.50400001928E-02 0. -1.
       -1   -1    0    0    0  501  0.00000000000E+00  0.00000000000E+00 -0.91412602479E+03  0.91412602481E+03  0.50400001928E-02 0.  1.
    10030    2    1    2    0    0  0.00000000000E+00  0.00000000000E+00  0.18065940013E+04  0.36348460509E+04  0.31540963727E+04 0.  0.
        3    1    3    3  502    0 -0.43445859167E+03 -0.53612696349E+03 -0.73090491312E+03  0.10051907237E+04  0.10100000352E+00 0.  1.
       -3    1    3    3    0  502  0.43445859167E+03  0.53612696349E+03  0.25374989144E+04  0.26296553272E+04  0.10100000352E+00 0. -1.
</event>
<event>
 5   0  0.2598987E-06  0.3292925E+04  0.7818609E-02  0.8164698E-01
        1   -1    0    0  501    0  0.00000000000E+00  0.00000000000E+00  0.25784976871E+04  0.25784976871E+04  0.50400001928E-02 0.  1.
       -1   -1    0    0    0  501  0.00000000000E+00  0.00000000000E+00 -0.10513247048E+04  0.10513247048E+04  0.50400001928E-02 0. -1.
    10030    2    1    2    0    0  0.00000000000E+00  0.00000000000E+00  0.15271729823E+04  0.36298223919E+04  0.32929247302E+04 0.  0.
        2    1    3    3  502    0 -0.10340518545E+04 -0.30244716256E+03  0.21359954402E+04  0.23923239841E+04  0.25500000920E-02 0.  1.
       -2    1    3    3    0  502  0.10340518545E+04  0.30244716256E+03 -0.60882245794E+03  0.12374984078E+04  0.25500000920E-02 0. -1.
</event>
<event>
 5   0  0.2674441E-06  0.3073697E+04  0.7818609E-02  0.8222994E-01
        1   -1    0    0  501    0  0.00000000000E+00  0.00000000000E+00  0.19467908548E+04  0.19467908548E+04  0.50400001928E-02 0.  1.
       -1   -1    0    0    0  501  0.00000000000E+00  0.00000000000E+00 -0.12132293752E+04  0.12132293752E+04  0.50400001928E-02 0. -1.
    10030    2    1    2    0    0  0.00000000000E+00  0.00000000000E+00  0.73356147959E+03  0.31600202299E+04  0.30736973516E+04 0.  0.
        5    1    3    3  502    0  0.70640248619E+03  0.57542399420E+03 -0.90562248886E+03  0.12846366910E+04  0.46999998093E+01 0. -1.
       -5    1    3    3    0  502 -0.70640248619E+03 -0.57542399420E+03  0.16391839685E+04  0.18753835389E+04  0.46999998093E+01 0.  1.
</event>
<event>
 5   0  0.7079223E-06  0.2953225E+04  0.7818609E-02  0.8257215E-01
       -2   -1    0    0    0  501  0.00000000000E+00  0.00000000000E+00  0.72998156648E+03  0.72998156648E+03  0.25500000920E-02 0.  1.
        2   -1    0    0  501    0  0.00000000000E+00  0.00000000000E+00 -0.29869024768E+04  0.29869024768E+04  0.25500000920E-02 0. -1.
    10030    2    1    2    0    0  0.00000000000E+00  0.00000000000E+00 -0.22569209104E+04  0.37168840433E+04  0.29532245082E+04 0.  0.
        5    1    3    3  502    0 -0.71551167416E+03 -0.32306916001E+03  0.44554136380E+03  0.90269587064E+03  0.46999998093E+01 0.  1.
       -5    1    3    3    0  502  0.71551167416E+03  0.32306916001E+03 -0.27024622742E+04  0.28141881727E+04  0.46999998093E+01 0. -1.
</event>
<event>
 5   0  0.7079223E-06  0.3097924E+04  0.7818609E-02  0.8216308E-01
        2   -1    0    0  501    0  0.00000000000E+00  0.00000000000E+00  0.19849414432E+04  0.19849414432E+04  0.25500000920E-02 0. -1.
       -2   -1    0    0    0  501  0.00000000000E+00  0.00000000000E+00 -0.12087429875E+04  0.12087429875E+04  0.25500000920E-02 0.  1.
    10030    2    1    2    0    0  0.00000000000E+00  0.00000000000E+00  0.77619845569E+03  0.31936844307E+04  0.30979244988E+04 0.  0.
        5    1    3    3  502    0 -0.94792113944E+02 -0.76896441880E+03  0.17708157399E+04  0.19328999708E+04  0.46999998093E+01 0. -1.
       -5    1    3    3    0  502  0.94792113944E+02  0.76896441880E+03 -0.99461728424E+03  0.12607844599E+04  0.46999998093E+01 0.  1.
</event>
<event>
 5   0  0.7079223E-06  0.3081975E+04  0.7818609E-02  0.8220702E-01
       -2   -1    0    0    0  501  0.00000000000E+00  0.00000000000E+00  0.13295816914E+04  0.13295816914E+04  0.25500000920E-02 0. -1.
        2   -1    0    0  501    0  0.00000000000E+00  0.00000000000E+00 -0.17860074833E+04  0.17860074833E+04  0.25500000920E-02 0.  1.
    10030    2    1    2    0    0  0.00000000000E+00  0.00000000000E+00 -0.45642579185E+03  0.31155891747E+04  0.30819752436E+04 0.  0.
        5    1    3    3  502    0  0.39772106611E+02 -0.13996531031E+04 -0.87866679990E+03  0.16530844094E+04  0.46999998093E+01 0.  1.
       -5    1    3    3    0  502 -0.39772106611E+02  0.13996531031E+04  0.42224100805E+03  0.14625047652E+04  0.46999998093E+01 0. -1.
</event>
<event>
 5   0  0.2612331E-06  0.3148030E+04  0.7818609E-02  0.8202679E-01
       -1   -1    0    0    0  501  0.00000000000E+00  0.00000000000E+00  0.11539197180E+04  0.11539197180E+04  0.50400001928E-02 0.  1.
        1   -1    0    0  501    0  0.00000000000E+00  0.00000000000E+00 -0.21470500090E+04  0.21470500090E+04  0.50400001928E-02 0. -1.
    10030    2    1    2    0    0  0.00000000000E+00  0.00000000000E+00 -0.99313029102E+03  0.33009697270E+04  0.31480300767E+04 0.  0.
        4    1    3    3  502    0 -0.11857803205E+04  0.92195476419E+03 -0.31224123971E+01  0.15020276023E+04  0.12699999809E+01 0.  1.
       -4    1    3    3    0  502  0.11857803205E+04 -0.92195476419E+03 -0.99000787863E+03  0.17989421248E+04  0.12699999809E+01 0. -1.
</event>
<event>
 5   0  0.7414808E-06  0.2139058E+04  0.7818609E-02  0.8544230E-01
       -2   -1    0    0    0  501  0.00000000000E+00  0.00000000000E+00  0.12658880242E+04  0.12658880242E+04  0.25500000920E-02 0.  1.
        2   -1    0    0  501    0  0.00000000000E+00  0.00000000000E+00 -0.90362850713E+03  0.90362850713E+03  0.25500000920E-02 0. -1.
    10030    2    1    2    0    0  0.00000000000E+00  0.00000000000E+00  0.36225951706E+03  0.21695165313E+04  0.21390582091E+04 0.  0.
        2    1    3    3  502    0 -0.17054791359E+03 -0.25394156489E+03 -0.85831423727E+03  0.91119495121E+03  0.25500000920E-02 0. -1.
       -2    1    3    3    0  502  0.17054791359E+03  0.25394156489E+03  0.12205737543E+04  0.12583215801E+04  0.25500000920E-02 0.  1.
</event>
<event>
 5   0  0.7094341E-06  0.3070433E+04  0.7818609E-02  0.8223899E-01
        2   -1    0    0  501    0  0.00000000000E+00  0.00000000000E+00  0.21481597968E+04  0.21481597968E+04  0.25500000920E-02 0.  1.
       -2   -1    0    0    0  501  0.00000000000E+00  0.00000000000E+00 -0.10971667997E+04  0.10971667997E+04  0.25500000920E-02 0. -1.
    10030    2    1    2    0    0  0.00000000000E+00  0.00000000000E+00  0.10509929971E+04  0.32453265965E+04  0.30704329398E+04 0.  0.
        3    1    3    3  502    0  0.55128313759E+03 -0.11452056014E+04  0.14356375389E+04  0.19174107856E+04  0.10100000352E+00 0.  1.
       -3    1    3    3    0  502 -0.55128313759E+03  0.11452056014E+04 -0.38464454175E+03  0.13279158110E+04  0.10100000352E+00 0. -1.
</event>
<event>
 5   0  0.2624011E-06  0.3408551E+04  0.7818609E-02  0.8135811E-01
        1   -1    0    0  501    0  0.00000000000E+00  0.00000000000E+00  0.24206405392E+04  0.24206405392E+04  0.50400001928E-02 0.  1.
       -1   -1    0    0    0  501  0.00000000000E+00  0.00000000000E+00 -0.11999117950E+04  0.11999117950E+04  0.50400001928E-02 0. -1.
    10030    2    1    2    0    0  0.00000000000E+00  0.00000000000E+00  0.12207287442E+04  0.36205523343E+04  0.34085510907E+04 0.  0.
        1    1    3    3  502    0  0.10959372927E+04 -0.13326700025E+03 -0.76874048899E+03  0.13452882896E+04  0.50400001928E-02 0. -1.
       -1    1    3    3    0  502 -0.10959372927E+04  0.13326700025E+03  0.19894692332E+04  0.22752640446E+04  0.50400001928E-02 0.  1.
</event>
<event>
 5   0  0.7094341E-06  0.3134349E+04  0.7818609E-02  0.8206374E-01
       -2   -1    0    0    0  501  0.00000000000E+00  0.00000000000E+00  0.14433449222E+04  0.14433449222E+04  0.25500000920E-02 0.  1.
        2   -1    0    0  501    0  0.00000000000E+00  0.00000000000E+00 -0.17016276276E+04  0.17016276276E+04  0.25500000920E-02 0. -1.
    10030    2    1    2    0    0  0.00000000000E+00  0.00000000000E+00 -0.25828270540E+03  0.31449725497E+04  0.31343487972E+04 0.  0.
        3    1    3    3  502    0  0.11207336480E+03  0.14236308703E+04  0.51860875101E+03  0.15192894197E+04  0.10100000352E+00 0.  1.
       -3    1    3    3    0  502 -0.11207336480E+03 -0.14236308703E+04 -0.77689145641E+03  0.16256831300E+04  0.10100000352E+00 0. -1.
</event>
<event>
 5   0  0.2612331E-06  0.3027945E+04  0.7818609E-02  0.8235796E-01
        1   -1    0    0  501    0  0.00000000000E+00  0.00000000000E+00  0.16209330743E+04  0.16209330743E+04  0.50400001928E-02 0.  1.
       -1   -1    0    0    0  501  0.00000000000E+00  0.00000000000E+00 -0.14140696489E+04  0.14140696489E+04  0.50400001928E-02 0. -1.
    10030    2    1    2    0    0  0.00000000000E+00  0.00000000000E+00  0.20686342539E+03  0.30350027231E+04  0.30279446912E+04 0.  0.
        4    1    3    3  502    0 -0.96877841562E+03 -0.95180752285E+02 -0.10588053616E+04  0.14382841864E+04  0.12699999809E+01 0. -1.
       -4    1    3    3    0  502  0.96877841562E+03  0.95180752285E+02  0.12656687870E+04  0.15967185367E+04  0.12699999809E+01 0.  1.
</event>
<event>
 5   0  0.7079223E-06  0.2956257E+04  0.7818609E-02  0.8256334E-01
       -2   -1    0    0    0  501  0.00000000000E+00  0.00000000000E+00  0.13672857539E+04  0.13672857539E+04  0.25500000920E-02 0.  1.
        2   -1    0    0  501    0  0.00000000000E+00  0.00000000000E+00 -0.15979566122E+04  0.15979566122E+04  0.25500000920E-02 0. -1.
    10030    2    1    2    0    0  0.00000000000E+00  0.00000000000E+00 -0.23067085831E+03  0.29652423661E+04  0.29562566270E+04 0.  0.
        5    1    3    3  502    0  0.12021441359E+04  0.46385507846E+03  0.61110981501E+03  0.14261098672E+04  0.46999998093E+01 0.  1.
       -5    1    3    3    0  502 -0.12021441359E+04 -0.46385507846E+03 -0.84178067333E+03  0.15391324989E+04  0.46999998093E+01 0. -1.
</event>
<event>
 5   0  0.2517725E-06  0.3073220E+04  0.7818609E-02  0.8223126E-01
       -1   -1    0    0    0  501  0.00000000000E+00  0.00000000000E+00  0.10120164244E+04  0.10120164244E+04  0.50400001928E-02 0.  1.
        1   -1    0    0  501    0  0.00000000000E+00  0.00000000000E+00 -0.23331349449E+04  0.23331349449E+04  0.50400001928E-02 0. -1.
    10030    2    1    2    0    0  0.00000000000E+00  0.00000000000E+00 -0.13211185206E+04  0.33451513693E+04  0.30732203856E+04 0.  0.
        3    1    3    3  502    0 -0.36070503510E+03  0.11978518311E+04  0.31070387195E+03  0.12889895414E+04  0.10100000352E+00 0.  1.
       -3    1    3    3    0  502  0.36070503510E+03 -0.11978518311E+04 -0.16318223925E+04  0.20561618279E+04  0.10100000352E+00 0. -1.
</event>
<event>
 5   0  0.7414808E-06  0.2840796E+04  0.7818609E-02  0.8290713E-01
       -2   -1    0    0    0  501  0.00000000000E+00  0.00000000000E+00  0.82306145824E+03  0.82306145825E+03  0.25500000920E-02 0.  1.
        2   -1    0    0  501    0  0.00000000000E+00  0.00000000000E+00 -0.24512521728E+04  0.24512521728E+04  0.25500000920E-02 0. -1.
    10030    2    1    2    0    0  0.00000000000E+00  0.00000000000E+00 -0.16281907145E+04  0.32743136310E+04  0.28407964995E+04 0.  0.
        2    1    3    3  502    0  0.93900164675E+03  0.55677513590E+03 -0.18615128862E+04  0.21579974212E+04  0.25500000920E-02 0. -1.
       -2    1    3    3    0  502 -0.93900164675E+03 -0.55677513590E+03  0.23332217163E+03  0.11163162098E+04  0.25500000920E-02 0.  1.
</event>
<event>
 5   0  0.2674441E-06  0.3121440E+04  0.7818609E-02  0.8209879E-01
        1   -1    0    0  501    0  0.00000000000E+00  0.00000000000E+00  0.22287991774E+04  0.22287991775E+04  0.50400001928E-02 0. -1.
       -1   -1    0    0    0  501  0.00000000000E+00  0.00000000000E+00 -0.10928962083E+04  0.10928962083E+04  0.50400001928E-02 0.  1.
    10030    2    1    2    0    0  0.00000000000E+00  0.00000000000E+00  0.11359029692E+04  0.33216953857E+04  0.31214395205E+04 0.  0.
        5    1    3    3  502    0 -0.15243624011E+04 -0.32007541372E+03  0.67273201007E+03  0.16966789465E+04  0.46999998093E+01 0. -1.
       -5    1    3    3    0  502  0.15243624011E+04  0.32007541372E+03  0.46317095912E+03  0.16250164392E+04  0.46999998093E+01 0.  1.
</event>
<event>
 5   0  0.2598987E-06  0.3447711E+04  0.7818609E-02  0.8126295E-01
        1   -1    0    0  501    0  0.00000000000E+00  0.00000000000E+00  0.27133954607E+04  0.27133954607E+04  0.50400001928E-02 0. -1.
       -1   -1    0    0    0  501  0.00000000000E+00  0.00000000000E+00 -0.10951878656E+04  0.10951878656E+04  0.50400001928E-02 0.  1.
    10030    2    1    2    0    0  0.00000000000E+00  0.00000000000E+00  0.16182075951E+04  0.38085833263E+04  0.34477109990E+04 0.  0.
        2    1    3    3  502    0 -0.45545986723E+03 -0.13377700661E+04  0.18996573614E+04  0.23676508465E+04  0.25500000920E-02 0. -1.
       -2    1    3    3    0  502  0.45545986723E+03  0.13377700661E+04 -0.28144976630E+03  0.14409324798E+04  0.25500000920E-02 0.  1.
</event>
<event>
 5   0  0.2674441E-06  0.3154128E+04  0.7818609E-02  0.8201038E-01
       -1   -1    0    0    0  501  0.00000000000E+00  0.00000000000E+00  0.14768545932E+04  0.14768545932E+04  0.50400001928E-02 0.  1.
        1   -1    0    0  501    0  0.00000000000E+00  0.00000000000E+00 -0.16840727660E+04  0.16840727660E+04  0.50400001928E-02 0. -1.
    10030    2    1    2    0    0  0.00000000000E+00  0.00000000000E+00 -0.20721817275E+03  0.31609273592E+04  0.31541278349E+04 0.  0.
        5    1    3    3  502    0 -0.14224238481E+04  0.50657752783E+03 -0.55978056037E+03  0.16103685172E+04  0.46999998093E+01 0. -1.
       -5    1    3    3    0  502  0.14224238481E+04 -0.50657752783E+03  0.35256238761E+03  0.15505588420E+04  0.46999998093E+01 0.  1.
</event>
<event>
 5   0  0.7079223E-06  0.3194538E+04  0.7818609E-02  0.8190261E-01
       -2   -1    0    0    0  501  0.00000000000E+00  0.00000000000E+00  0.14013338851E+04  0.14013338851E+04  0.25500000920E-02 0.  1.
        2   -1    0    0  501    0  0.00000000000E+00  0.00000000000E+00 -0.18205998702E+04  0.18205998702E+04  0.25500000920E-02 0. -1.
    10030    2    1    2    0    0  0.00000000000E+00  0.00000000000E+00 -0.41926598510E+03  0.32219337554E+04  0.31945380195E+04 0.  0.
        5    1    3    3  502    0  0.72564498973E+03 -0.53934319620E+03  0.11183953744E+04  0.14381522999E+04  0.46999998093E+01 0.  1.
       -5    1    3    3    0  502 -0.72564498973E+03  0.53934319620E+03 -0.15376613595E+04  0.17837814555E+04  0.46999998093E+01 0. -1.
</event>
<event>
 5   0  0.2674441E-06  0.2694701E+04  0.7818609E-02  0.8336726E-01
        1   -1    0    0  501    0  0.00000000000E+00  0.00000000000E+00  0.20311293414E+04  0.20311293414E+04  0.50400001928E-02 0. -1.
       -1   -1    0    0    0  501  0.00000000000E+00  0.00000000000E+00 -0.89376566137E+03  0.89376566138E+03  0.50400001928E-02 0.  1.
    10030    2    1    2    0    0  0.00000000000E+00  0.00000000000E+00  0.11373636800E+04  0.29248950028E+04  0.26947012147E+04 0.  0.
        5    1    3    3  502    0  0.46191752102E+03  0.72992016733E+03 -0.55365996789E+03  0.10260178833E+04  0.46999998093E+01 0.  1.
       -5    1    3    3    0  502 -0.46191752102E+03 -0.72992016733E+03  0.16910236479E+04  0.18988771194E+04  0.46999998093E+01 0. -1.
</event>
<event>
 5   0  0.7071012E-06  0.3120803E+04  0.7818609E-02  0.8210052E-01
       -2   -1    0    0    0  501  0.00000000000E+00  0.00000000000E+00  0.76541740613E+03  0.76541740614E+03  0.25500000920E-02 0. -1.
        2   -1    0    0  501    0  0.00000000000E+00  0.00000000000E+00 -0.31810794439E+04  0.31810794439E+04  0.25500000920E-02 0.  1.
    10030    2    1    2    0    0  0.00000000000E+00  0.00000000000E+00 -0.24156620378E+04  0.39464968501E+04  0.31208034714E+04 0.  0.
        1    1    3    3  502    0  0.12773388721E+04  0.74119977532E+03 -0.18450096304E+04  0.23632672801E+04  0.50400001928E-02 0.  1.
       -1    1    3    3    0  502 -0.12773388721E+04 -0.74119977532E+03 -0.57065240740E+03  0.15832295699E+04  0.50400001928E-02 0. -1.
</event>
<event>
 5   0  0.7079223E-06  0.3115806E+04  0.7818609E-02  0.8211413E-01
       -2   -1    0    0    0  501  0.00000000000E+00  0.00000000000E+00  0.14976201572E+04  0.14976201572E+04  0.25500000920E-02 0.  1.
        2   -1    0    0  501    0  0.00000000000E+00  0.00000000000E+00 -0.16206128445E+04  0.16206128445E+04  0.25500000920E-02 0. -1.
    10030    2    1    2    0    0  0.00000000000E+00  0.00000000000E+00 -0.12299268732E+03  0.31182330017E+04  0.31158064529E+04 0.  0.
        5    1    3    3  502    0  0.80123044104E+02  0.14660194671E+04 -0.58287000490E+03  0.15796810795E+04  0.46999998093E+01 0. -1.
       -5    1    3    3    0  502 -0.80123044104E+02 -0.14660194671E+04  0.45987731758E+03  0.15385519222E+04  0.46999998093E+01 0.  1.
</event>
<event>
 5   0  0.7079223E-06  0.3160943E+04  0.7818609E-02  0.8199209E-01
        2   -1    0    0  501    0  0.00000000000E+00  0.00000000000E+00  0.17975140251E+04  0.17975140251E+04  0.25500000920E-02 0. -1.
       -2   -1    0    0    0  501  0.00000000000E+00  0.00000000000E+00 -0.13896363289E+04  0.13896363289E+04  0.25500000920E-02 0.  1.
    10030    2    1    2    0    0  0.00000000000E+00  0.00000000000E+00  0.40787769620E+03  0.31871503540E+04  0.31609433978E+04 0.  0.
        5    1    3    3  502    0 -0.27143913983E+03 -0.14552059405E+04 -0.35433493685E+03  0.15221297163E+04  0.46999998093E+01 0.  1.
       -5    1    3    3    0  502  0.27143913983E+03  0.14552059405E+04  0.76221263305E+03  0.16650206377E+04  0.46999998093E+01 0. -1.
</event>
<event>
 5   0  0.2674441E-06  0.3018819E+04  0.7818609E-02  0.8238377E-01
       -1   -1    0    0    0  501  0.00000000000E+00  0.00000000000E+00  0.18750773687E+04  0.18750773687E+04  0.50400001928E-02 0.  1.
        1   -1    0    0  501    0  0.00000000000E+00  0.00000000000E+00 -0.12150523428E+04  0.12150523428E+04  0.50400001928E-02 0. -1.
    10030    2    1    2    0    0  0.00000000000E+00  0.00000000000E+00  0.66002502591E+03  0.30901297116E+04  0.30188190737E+04 0.  0.
        5    1    3    3  502    0  0.11323393035E+04 -0.52654968127E+03  0.11978895901E+04  0.17304359061E+04  0.46999998093E+01 0.  1.
       -5    1    3    3    0  502 -0.11323393035E+04  0.52654968127E+03 -0.53786456419E+03  0.13596938054E+04  0.46999998093E+01 0. -1.
</event>
<event>
 5   0  0.2674441E-06  0.3056131E+04  0.7818609E-02  0.8227881E-01
        1   -1    0    0  501    0  0.00000000000E+00  0.00000000000E+00  0.26154912308E+04  0.26154912308E+04  0.50400001928E-02 0. -1.
       -1   -1    0    0    0  501  0.00000000000E+00  0.00000000000E+00 -0.89275183133E+03  0.89275183134E+03  0.50400001928E-02 0.  1.
    10030    2    1    2    0    0  0.00000000000E+00  0.00000000000E+00  0.17227393995E+04  0.35082430622E+04  0.30561312708E+04 0.  0.
        5    1    3    3  502    0  0.15208259142E+04  0.85867556559E+02  0.72229500434E+03  0.16858282421E+04  0.46999998093E+01 0. -1.
       -5    1    3    3    0  502 -0.15208259142E+04 -0.85867556559E+02  0.10004443951E+04  0.18224148201E+04  0.46999998093E+01 0.  1.
</event>
<event>
 5   0  0.7079223E-06  0.3054113E+04  0.7818609E-02  0.8228445E-01
        2   -1    0    0  501    0  0.00000000000E+00  0.00000000000E+00  0.19567968647E+04  0.19567968647E+04  0.25500000920E-02 0.  1.
       -2   -1    0    0    0  501  0.00000000000E+00  0.00000000000E+00 -0.11916930133E+04  0.11916930133E+04  0.25500000920E-02 0. -1.
    10030    2    1    2    0    0  0.00000000000E+00  0.00000000000E+00  0.76510385141E+03  0.31484898780E+04  0.30541127367E+04 0.  0.
        5    1    3    3  502    0  0.26911000607E+03  0.14935541753E+04  0.20773947759E+03  0.15317643586E+04  0.46999998093E+01 0. -1.
       -5    1    3    3    0  502 -0.26911000607E+03 -0.14935541753E+04  0.55736437382E+03  0.16167255194E+04  0.46999998093E+01 0.  1.
</event>
<event>
 5   0  0.2612331E-06  0.2880384E+04  0.7818609E-02  0.8278738E-01
       -1   -1    0    0    0  501  0.00000000000E+00  0.00000000000E+00  0.16255173915E+04  0.16255173915E+04  0.50400001928E-02 0.  1.
        1   -1    0    0  501    0  0.00000000000E+00  0.00000000000E+00 -0.12759955213E+04  0.12759955213E+04  0.50400001928E-02 0. -1.
    10030    2    1    2    0    0  0.00000000000E+00  0.00000000000E+00  0.34952187024E+03  0.29015129128E+04  0.28803839406E+04 0.  0.
        4    1    3    3  502    0  0.31588812559E+03 -0.96197327901E+03 -0.85694603527E+03  0.13264750347E+04  0.12699999809E+01 0. -1.
       -4    1    3    3    0  502 -0.31588812559E+03  0.96197327901E+03  0.12064679055E+04  0.15750378781E+04  0.12699999809E+01 0.  1.
</event>
<event>
 5   0  0.7071012E-06  0.3111791E+04  0.7818609E-02  0.8212509E-01
        2   -1    0    0  501    0  0.00000000000E+00  0.00000000000E+00  0.18455450027E+04  0.18455450027E+04  0.25500000920E-02 0.  1.
       -2   -1    0    0    0  501  0.00000000000E+00  0.00000000000E+00 -0.13117054309E+04  0.13117054309E+04  0.25500000920E-02 0. -1.
    10030    2    1    2    0    0  0.00000000000E+00  0.00000000000E+00  0.53383957184E+03  0.31572504336E+04  0.31117913831E+04 0.  0.
        1    1    3    3  502    0 -0.14257919825E+04 -0.46370804531E+03  0.68881093843E+03  0.16499601321E+04  0.50400001928E-02 0.  1.
       -1    1    3    3    0  502  0.14257919825E+04  0.46370804531E+03 -0.15497136659E+03  0.15072903015E+04  0.50400001928E-02 0. -1.
</event>
<event>
 5   0  0.2674441E-06  0.2923731E+04  0.7818609E-02  0.8265852E-01
       -1   -1    0    0    0  501  0.00000000000E+00  0.00000000000E+00  0.16948320448E+04  0.16948320448E+04  0.50400001928E-02 0.  1.
        1   -1    0    0  501    0  0.00000000000E+00  0.00000000000E+00 -0.12609217724E+04  0.12609217724E+04  0.50400001928E-02 0. -1.
    10030    2    1    2    0    0  0.00000000000E+00  0.00000000000E+00  0.43391027240E+03  0.29557538173E+04  0.29237309219E+04 0.  0.
        5    1    3    3  502    0  0.12746957011E+04 -0.53252673915E+03 -0.26639730395E+03  0.14069198527E+04  0.46999998093E+01 0. -1.
       -5    1    3    3    0  502 -0.12746957011E+04  0.53252673915E+03  0.70030757635E+03  0.15488339646E+04  0.46999998093E+01 0.  1.
</event>
<event>
 5   0  0.2624011E-06  0.2799431E+04  0.7818609E-02  0.8303445E-01
       -1   -1    0    0    0  501  0.00000000000E+00  0.00000000000E+00  0.16947575796E+04  0.16947575796E+04  0.50400001928E-02 0. -1.
        1   -1    0    0  501    0  0.00000000000E+00  0.00000000000E+00 -0.11560380048E+04  0.11560380048E+04  0.50400001928E-02 0.  1.
    10030    2    1    2    0    0  0.00000000000E+00  0.00000000000E+00  0.53871957482E+03  0.28507955845E+04  0.27994314930E+04 0.  0.
        1    1    3    3  502    0  0.12304875384E+04 -0.33847964081E+02 -0.40916797025E+03  0.12971752753E+04  0.50400001928E-02 0.  1.
       -1    1    3    3    0  502 -0.12304875384E+04  0.33847964081E+02  0.94788754507E+03  0.15536203092E+04  0.50400001928E-02 0. -1.
</event>
<event>
 5   0  0.2624011E-06  0.3146630E+04  0.7818609E-02  0.8203056E-01
       -1   -1    0    0    0  501  0.00000000000E+00  0.00000000000E+00  0.14302051970E+04  0.14302051970E+04  0.50400001928E-02 0.  1.
        1   -1    0    0  501    0  0.00000000000E+00  0.00000000000E+00 -0.17307444856E+04  0.17307444856E+04  0.50400001928E-02 0. -1.
    10030    2    1    2    0    0  0.00000000000E+00  0.00000000000E+00 -0.30053928858E+03  0.31609496826E+04  0.31466297895E+04 0.  0.
        1    1    3    3  502    0 -0.10831170798E+04  0.55285997900E+02  0.99470710788E+03  0.14716118308E+04  0.50400001928E-02 0.  1.
       -1    1    3    3    0  502  0.10831170798E+04 -0.55285997900E+02 -0.12952463965E+04  0.16893378518E+04  0.50400001928E-02 0. -1.
</event>
<event>
 5   0  0.2612331E-06  0.3128288E+04  0.7818609E-02  0.8208017E-01
       -1   -1    0    0    0  501  0.00000000000E+00  0.00000000000E+00  0.30962738768E+04  0.30962738768E+04  0.50400001928E-02 0.  1.
        1   -1    0    0  501    0  0.00000000000E+00  0.00000000000E+00 -0.79015816479E+03  0.79015816481E+03  0.50400001928E-02 0. -1.
    10030    2    1    2    0    0  0.00000000000E+00  0.00000000000E+00  0.23061157120E+04  0.38864320416E+04  0.31282877644E+04 0.  0.
        4    1    3    3  502    0  0.15395459790E+04  0.14952870923E+03  0.86440479441E+03  0.17719362059E+04  0.12699999809E+01 0. -1.
       -4    1    3    3    0  502 -0.15395459790E+04 -0.14952870923E+03  0.14417109176E+04  0.21144958357E+04  0.12699999809E+01 0.  1.
</event>
<event>
 5   0  0.7363513E-06  0.3119798E+04  0.7818609E-02  0.8210325E-01
        2   -1    0    0  501    0  0.00000000000E+00  0.00000000000E+00  0.16645973767E+04  0.16645973767E+04  0.25500000920E-02 0. -1.
       -2   -1    0    0    0  501  0.00000000000E+00  0.00000000000E+00 -0.14617857924E+04  0.14617857924E+04  0.25500000920E-02 0.  1.
    10030    2    1    2    0    0  0.00000000000E+00  0.00000000000E+00  0.20281158429E+03  0.31263831691E+04  0.31197979391E+04 0.  0.
        4    1    3    3  502    0  0.32340917860E+03 -0.13504891359E+04 -0.61063519688E+03  0.15170007777E+04  0.12699999809E+01 0.  1.
       -4    1    3    3    0  502 -0.32340917860E+03  0.13504891359E+04  0.81344678117E+03  0.16093823914E+04  0.12699999809E+01 0. -1.
</event>
<event>
 5   0  0.7094341E-06  0.3088617E+04  0.7818609E-02  0.8218869E-01
       -2   -1    0    0    0  501  0.00000000000E+00  0.00000000000E+00  0.95145580098E+03  0.95145580099E+03  0.25500000920E-02 0.  1.
        2   -1    0    0  501    0  0.00000000000E+00  0.00000000000E+00 -0.25065673213E+04  0.25065673213E+04  0.25500000920E-02 0. -1.
    10030    2    1    2    0    0  0.00000000000E+00  0.00000000000E+00 -0.15551115203E+04  0.34580231223E+04  0.30886165307E+04 0.  0.
        3    1    3    3  502    0 -0.62281088202E+03 -0.10072281395E+04  0.33219922907E+03  0.12299423799E+04  0.10100000352E+00 0.  1.
       -3    1    3    3    0  502  0.62281088202E+03  0.10072281395E+04 -0.18873107494E+04  0.22280807424E+04  0.10100000352E+00 0. -1.
</event>
<event>
 5   0  0.2612331E-06  0.3084614E+04  0.7818609E-02  0.8219973E-01
        1   -1    0    0  501    0  0.00000000000E+00  0.00000000000E+00  0.26134964207E+04  0.26134964207E+04  0.50400001928E-02 0.  1.
       -1   -1    0    0    0  501  0.00000000000E+00  0.00000000000E+00 -0.91016430809E+03  0.91016430811E+03  0.50400001928E-02 0. -1.
    10030    2    1    2    0    0  0.00000000000E+00  0.00000000000E+00  0.17033321126E+04  0.35236607288E+04  0.30846141811E+04 0.  0.
        4    1    3    3  502    0  0.56984954057E+03 -0.99199893427E+02  0.24849007602E+04  0.25513334786E+04  0.12699999809E+01 0.  1.
       -4    1    3    3    0  502 -0.56984954057E+03  0.99199893427E+02 -0.78156864762E+03  0.97232725025E+03  0.12699999809E+01 0. -1.
</event>
<event>
 5   0  0.7079223E-06  0.2984139E+04  0.7818609E-02  0.8248275E-01
        2   -1    0    0  501    0  0.00000000000E+00  0.00000000000E+00  0.19797904958E+04  0.19797904958E+04  0.25500000920E-02 0.  1.
       -2   -1    0    0    0  501  0.00000000000E+00  0.00000000000E+00 -0.11244982023E+04  0.11244982023E+04  0.25500000920E-02 0. -1.
    10030    2    1    2    0    0  0.00000000000E+00  0.00000000000E+00  0.85529229354E+03  0.31042886981E+04  0.29841386385E+04 0.  0.
        5    1    3    3  502    0 -0.97548428402E+02  0.11556938444E+04 -0.54881932883E+03  0.12831089991E+04  0.46999998093E+01 0. -1.
       -5    1    3    3    0  502  0.97548428402E+02 -0.11556938444E+04  0.14041116224E+04  0.18211796990E+04  0.46999998093E+01 0.  1.
</event>
<event>
 5   0  0.7094341E-06  0.3092581E+04  0.7818609E-02  0.8217777E-01
        2   -1    0    0  501    0  0.00000000000E+00  0.00000000000E+00  0.22925872161E+04  0.22925872161E+04  0.25500000920E-02 0.  1.
       -2   -1    0    0    0  501  0.00000000000E+00  0.00000000000E+00 -0.10429327235E+04  0.10429327235E+04  0.25500000920E-02 0. -1.
    10030    2    1    2    0    0  0.00000000000E+00  0.00000000000E+00  0.12496544927E+04  0.33355199396E+04  0.30925809474E+04 0.  0.
        3    1    3    3  502    0  0.62214155862E+03  0.78840243114E+03 -0.64327862028E+03  0.11926633665E+04  0.10100000352E+00 0. -1.
       -3    1    3    3    0  502 -0.62214155862E+03 -0.78840243114E+03  0.18929331129E+04  0.21428565730E+04  0.10100000352E+00 0.  1.
</event>
<event>
 5   0  0.7363513E-06  0.3042763E+04  0.7818609E-02  0.8231624E-01
       -2   -1    0    0    0  501  0.00000000000E+00  0.00000000000E+00  0.12631546606E+04  0.12631546606E+04  0.25500000920E-02 0. -1.
        2   -1    0    0  501    0  0.00000000000E+00  0.00000000000E+00 -0.18323980845E+04  0.18323980845E+04  0.25500000920E-02 0.  1.
    10030    2    1    2    0    0  0.00000000000E+00  0.00000000000E+00 -0.56924342395E+03  0.30955527451E+04  0.30427633365E+04 0.  0.
        4    1    3    3  502    0 -0.30143031494E+03 -0.14817612376E+04 -0.11401020188E+03  0.15164024991E+04  0.12699999809E+01 0. -1.
       -4    1    3    3    0  502  0.30143031494E+03  0.14817612376E+04 -0.45523322206E+03  0.15791502460E+04  0.12699999809E+01 0.  1.
</event>
<event>
 5   0  0.7414808E-06  0.2728247E+04  0.7818609E-02  0.8325898E-01
       -2   -1    0    0    0  501  0.00000000000E+00  0.00000000000E+00  0.92636351145E+03  0.92636351146E+03  0.25500000920E-02 0. -1.
        2   -1    0    0  501    0  0.00000000000E+00  0.00000000000E+00 -0.20087500048E+04  0.20087500048E+04  0.25500000920E-02 0.  1.
    10030    2    1    2    0    0  0.00000000000E+00  0.00000000000E+00 -0.10823864933E+04  0.29351135162E+04  0.27282468423E+04 0.  0.
        2    1    3    3  502    0 -0.75962027583E+03  0.42154022036E+03  0.59027170225E+03  0.10503046241E+04  0.25500000920E-02 0. -1.
       -2    1    3    3    0  502  0.75962027583E+03 -0.42154022036E+03 -0.16726581956E+04  0.18848088922E+04  0.25500000920E-02 0.  1.
</event>
<event>
 5   0  0.7414808E-06  0.2360602E+04  0.7818609E-02  0.8454403E-01
       -2   -1    0    0    0  501  0.00000000000E+00  0.00000000000E+00  0.73972815008E+03  0.73972815009E+03  0.25500000920E-02 0.  1.
        2   -1    0    0  501    0  0.00000000000E+00  0.00000000000E+00 -0.18832735990E+04  0.18832735990E+04  0.25500000920E-02 0. -1.
    10030    2    1    2    0    0  0.00000000000E+00  0.00000000000E+00 -0.11435454490E+04  0.26230017491E+04  0.23606020381E+04 0.  0.
        2    1    3    3  502    0 -0.41493892636E+03  0.80150635285E+03  0.27338234045E+03  0.94304011067E+03  0.25500000920E-02 0.  1.
       -2    1    3    3    0  502  0.41493892636E+03 -0.80150635285E+03 -0.14169277894E+04  0.16799616385E+04  0.25500000920E-02 0. -1.
</event>
<event>
 5   0  0.7414808E-06  0.3061293E+04  0.7818609E-02  0.8226442E-01
       -2   -1    0    0    0  501  0.00000000000E+00  0.00000000000E+00  0.16506886854E+04  0.16506886854E+04  0.25500000920E-02 0. -1.
        2   -1    0    0  501    0  0.00000000000E+00  0.00000000000E+00 -0.14193341177E+04  0.14193341177E+04  0.25500000920E-02 0.  1.
    10030    2    1    2    0    0  0.00000000000E+00  0.00000000000E+00  0.23135456766E+03  0.30700228031E+04  0.30612930398E+04 0.  0.
        2    1    3    3  502    0 -0.85867635852E+03  0.10977076307E+04  0.75040525440E+03  0.15828440154E+04  0.25500000920E-02 0. -1.
       -2    1    3    3    0  502  0.85867635852E+03 -0.10977076307E+04 -0.51905068675E+03  0.14871787877E+04  0.25500000920E-02 0.  1.
</event>
<event>
 5   0  0.7094341E-06  0.3082414E+04  0.7818609E-02  0.8220581E-01
       -2   -1    0    0    0  501  0.00000000000E+00  0.00000000000E+00  0.91884175708E+03  0.91884175709E+03  0.25500000920E-02 0. -1.
        2   -1    0    0  501    0  0.00000000000E+00  0.00000000000E+00 -0.25851235225E+04  0.25851235225E+04  0.25500000920E-02 0.  1.
    10030    2    1    2    0    0  0.00000000000E+00  0.00000000000E+00 -0.16662817654E+04  0.35039652795E+04  0.30824142743E+04 0.  0.
        3    1    3    3  502    0 -0.50739199300E+03  0.10376974657E+04 -0.19930020069E+04  0.23035450234E+04  0.10100000352E+00 0. -1.
       -3    1    3    3    0  502  0.50739199300E+03 -0.10376974657E+04  0.32672024156E+03  0.12004202562E+04  0.10100000352E+00 0.  1.
</event>
<event>
 5   0  0.7363513E-06  0.3023763E+04  0.7818609E-02  0.8236977E-01
       -2   -1    0    0    0  501  0.00000000000E+00  0.00000000000E+00  0.91614078400E+03  0.91614078401E+03  0.25500000920E-02 0.  1.
        2   -1    0    0  501    0  0.00000000000E+00  0.00000000000E+00 -0.24950165372E+04  0.24950165372E+04  0.25500000920E-02 0. -1.
    10030    2    1    2    0    0  0.00000000000E+00  0.00000000000E+00 -0.15788757532E+04  0.34111573212E+04  0.30237634871E+04 0.  0.
        4    1    3    3  502    0  0.16633678453E+03  0.12663665614E+04 -0.17020503356E+04  0.21279871126E+04  0.12699999809E+01 0. -1.
       -4    1    3    3    0  502 -0.16633678453E+03 -0.12663665614E+04  0.12317458235E+03  0.12831702086E+04  0.12699999809E+01 0.  1.
</event>
<event>
 5   0  0.7071012E-06  0.3099785E+04  0.7818609E-02  0.8215797E-01
       -2   -1    0    0    0  501  0.00000000000E+00  0.00000000000E+00  0.19095960268E+04  0.19095960268E+04  0.25500000920E-02 0. -1.
        2   -1    0    0  501    0  0.00000000000E+00  0.00000000000E+00 -0.12579447842E+04  0.12579447842E+04  0.25500000920E-02 0.  1.
    10030    2    1    2    0    0  0.00000000000E+00  0.00000000000E+00  0.65165124266E+03  0.31675408110E+04  0.30997847421E+04 0.  0.
        1    1    3    3  502    0  0.37346994987E+03 -0.10843369793E+04 -0.73950755523E+03  0.13646017413E+04  0.50400001928E-02 0.  1.
       -1    1    3    3    0  502 -0.37346994987E+03  0.10843369793E+04  0.13911587979E+04  0.18029390697E+04  0.50400001928E-02 0. -1.
</event>
<event>
 5   0  0.2624011E-06  0.3068311E+04  0.7818609E-02  0.8224489E-01
       -1   -1    0    0    0  501  0.00000000000E+00  0.00000000000E+00  0.87575631292E+03  0.87575631293E+03  0.50400001928E-02 0.  1.
        1   -1    0    0  501    0  0.00000000000E+00  0.00000000000E+00 -0.26875431622E+04  0.26875431622E+04  0.50400001928E-02 0. -1.
    10030    2    1    2    0    0  0.00000000000E+00  0.00000000000E+00 -0.18117868493E+04  0.35632994752E+04  0.30683108647E+04 0.  0.
        1    1    3    3  502    0  0.77787771985E+03  0.53240360815E+03 -0.23115669237E+04  0.24963751705E+04  0.50400001928E-02 0. -1.
       -1    1    3    3    0  502 -0.77787771985E+03 -0.53240360815E+03  0.49978007443E+03  0.10669243046E+04  0.50400001928E-02 0.  1.
</event>
<event>
 5   0  0.2517725E-06  0.3312536E+04  0.7818609E-02  0.8159713E-01
        1   -1    0    0  501    0  0.00000000000E+00  0.00000000000E+00  0.15294358059E+04  0.15294358059E+04  0.50400001928E-02 0.  1.
       -1   -1    0    0    0  501  0.00000000000E+00  0.00000000000E+00 -0.17936176481E+04  0.17936176481E+04  0.50400001928E-02 0. -1.
    10030    2    1    2    0    0  0.00000000000E+00  0.00000000000E+00 -0.26418184220E+03  0.33230534540E+04  0.33125356168E+04 0.  0.
        3    1    3    3  502    0 -0.13702632133E+04  0.65608080136E+03 -0.79385186275E+03  0.17141365412E+04  0.10100000352E+00 0.  1.
       -3    1    3    3    0  502  0.13702632133E+04 -0.65608080136E+03  0.52967002055E+03  0.16089169128E+04  0.10100000352E+00 0. -1.
</event>
<event>
 5   0  0.2624011E-06  0.2978484E+04  0.7818609E-02  0.8249902E-01
        1   -1    0    0  501    0  0.00000000000E+00  0.00000000000E+00  0.19880958607E+04  0.19880958607E+04  0.50400001928E-02 0.  1.
       -1   -1    0    0    0  501  0.00000000000E+00  0.00000000000E+00 -0.11155607105E+04  0.11155607105E+04  0.50400001928E-02 0. -1.
    10030    2    1    2    0    0  0.00000000000E+00  0.00000000000E+00  0.87253515016E+03  0.31036565712E+04  0.29784839304E+04 0.  0.
        1    1    3    3  502    0  0.43392796127E+03 -0.63149445725E+03 -0.89441297805E+03  0.11777322703E+04  0.50400001928E-02 0. -1.
       -1    1    3    3    0  502 -0.43392796127E+03  0.63149445725E+03  0.17669481282E+04  0.19259243009E+04  0.50400001928E-02 0.  1.
</event>
<event>
 5   0  0.7363513E-06  0.3118319E+04  0.7818609E-02  0.8210728E-01
        2   -1    0    0  501    0  0.00000000000E+00  0.00000000000E+00  0.24776453016E+04  0.24776453016E+04  0.25500000920E-02 0.  1.
       -2   -1    0    0    0  501  0.00000000000E+00  0.00000000000E+00 -0.98116473067E+03  0.98116473067E+03  0.25500000920E-02 0. -1.
    10030    2    1    2    0    0  0.00000000000E+00  0.00000000000E+00  0.14964805709E+04  0.34588100323E+04  0.31183188965E+04 0.  0.
        4    1    3    3  502    0 -0.22004700707E+03 -0.14005497451E+04  0.14679471379E+04  0.20407916813E+04  0.12699999809E+01 0.  1.
       -4    1    3    3    0  502  0.22004700707E+03  0.14005497451E+04  0.28533433002E+02  0.14180183509E+04  0.12699999809E+01 0. -1.
</event>
<event>
 5   0  0.7414808E-06  0.3102331E+04  0.7818609E-02  0.8215099E-01
        2   -1    0    0  501    0  0.00000000000E+00  0.00000000000E+00  0.22200093837E+04  0.22200093837E+04  0.25500000920E-02 0. -1.
       -2   -1    0    0    0  501  0.00000000000E+00  0.00000000000E+00 -0.10838304587E+04  0.10838304587E+04  0.25500000920E-02 0.  1.
    10030    2    1    2    0    0  0.00000000000E+00  0.00000000000E+00  0.11361789250E+04  0.33038398424E+04  0.31023306005E+04 0.  0.
        2    1    3    3  502    0  0.26932673816E+03 -0.42187624192E+03  0.21316500995E+04  0.21896229360E+04  0.25500000920E-02 0. -1.
       -2    1    3    3    0  502 -0.26932673816E+03  0.42187624192E+03 -0.99547117447E+03  0.11142169064E+04  0.25500000920E-02 0.  1.
</event>
<event>
 5   0  0.7414808E-06  0.3108197E+04  0.7818609E-02  0.8213492E-01
        2   -1    0    0  501    0  0.00000000000E+00  0.00000000000E+00  0.13069950966E+04  0.13069950966E+04  0.25500000920E-02 0.  1.
       -2   -1    0    0    0  501  0.00000000000E+00  0.00000000000E+00 -0.18479197545E+04  0.18479197545E+04  0.25500000920E-02 0. -1.
    10030    2    1    2    0    0  0.00000000000E+00  0.00000000000E+00 -0.54092465787E+03  0.31549148511E+04  0.31081969423E+04 0.  0.
        2    1    3    3  502    0  0.85101048680E+03  0.12931310356E+04 -0.13123160471E+03  0.15535856777E+04  0.25500000920E-02 0.  1.
       -2    1    3    3    0  502 -0.85101048680E+03 -0.12931310356E+04 -0.40969305316E+03  0.16013291734E+04  0.25500000920E-02 0. -1.
</event>
<event>
 5   0  0.7071012E-06  0.3104444E+04  0.7818609E-02  0.8214519E-01
       -2   -1    0    0    0  501  0.00000000000E+00  0.00000000000E+00  0.13698162998E+04  0.13698162998E+04  0.25500000920E-02 0.  1.
        2   -1    0    0  501    0  0.00000000000E+00  0.00000000000E+00 -0.17589174803E+04  0.17589174803E+04  0.25500000920E-02 0. -1.
    10030    2    1    2    0    0  0.00000000000E+00  0.00000000000E+00 -0.38910118051E+03  0.31287337802E+04  0.31044444493E+04 0.  0.
        1    1    3    3  502    0  0.28411705206E+03  0.11722931012E+04 -0.11791282643E+04  0.16868126979E+04  0.50400001928E-02 0. -1.
       -1    1    3    3    0  502 -0.28411705206E+03 -0.11722931012E+04  0.79002708376E+03  0.14419210822E+04  0.50400001928E-02 0.  1.
</event>
<event>
 5   0  0.7079223E-06  0.3145654E+04  0.7818609E-02  0.8203319E-01
        2   -1    0    0  501    0  0.00000000000E+00  0.00000000000E+00  0.28168335247E+04  0.28168335247E+04  0.25500000920E-02 0.  1.
       -2   -1    0    0    0  501  0.00000000000E+00  0.00000000000E+00 -0.87821460658E+03  0.87821460658E+03  0.25500000920E-02 0. -1.
    10030    2    1    2    0    0  0.00000000000E+00  0.00000000000E+00  0.19386189181E+04  0.36950481313E+04  0.31456537290E+04 0.  0.
        5    1    3    3  502    0 -0.42384287703E+03 -0.10569857916E+04 -0.30501218859E+03  0.11789471037E+04  0.46999998093E+01 0. -1.
       -5    1    3    3    0  502  0.42384287703E+03  0.10569857916E+04  0.22436311067E+04  0.25161010276E+04  0.46999998093E+01 0.  1.
</event>
<event>
 5   0  0.2598987E-06  0.2356637E+04  0.7818609E-02  0.8455919E-01
       -1   -1    0    0    0  501  0.00000000000E+00  0.00000000000E+00  0.67015518376E+03  0.67015518378E+03  0.50400001928E-02 0. -1.
        1   -1    0    0  501    0  0.00000000000E+00  0.00000000000E+00 -0.20718099216E+04  0.20718099216E+04  0.50400001928E-02 0.  1.
    10030    2    1    2    0    0  0.00000000000E+00  0.00000000000E+00 -0.14016547378E+04  0.27419651054E+04  0.23566367210E+04 0.  0.
        2    1    3    3  502    0 -0.31447594786E+03 -0.77766576446E+03 -0.16636432165E+04  0.18631607324E+04  0.25500000920E-02 0.  1.
       -2    1    3    3    0  502  0.31447594786E+03  0.77766576446E+03  0.26198847866E+03  0.87880437297E+03  0.25500000920E-02 0. -1.
</event>
<event>
 5   0  0.2517725E-06  0.3012515E+04  0.7818609E-02  0.8240166E-01
       -1   -1    0    0    0  501  0.00000000000E+00  0.00000000000E+00  0.11891525584E+04  0.11891525584E+04  0.50400001928E-02 0. -1.
        1   -1    0    0  501    0  0.00000000000E+00  0.00000000000E+00 -0.19079229358E+04  0.19079229358E+04  0.50400001928E-02 0.  1.
    10030    2    1    2    0    0  0.00000000000E+00  0.00000000000E+00 -0.71877037742E+03  0.30970754942E+04  0.30125148566E+04 0.  0.
        3    1    3    3  502    0 -0.13353722810E+04  0.27663874058E+03 -0.10169186487E+04  0.17011383453E+04  0.10100000352E+00 0.  1.
       -3    1    3    3    0  502  0.13353722810E+04 -0.27663874058E+03  0.29814827131E+03  0.13959371488E+04  0.10100000352E+00 0. -1.
</event>
<event>
 5   0  0.2624011E-06  0.3139807E+04  0.7818609E-02  0.8204897E-01
       -1   -1    0    0    0  501  0.00000000000E+00  0.00000000000E+00  0.10977195934E+04  0.10977195934E+04  0.50400001928E-02 0. -1.
        1   -1    0    0  501    0  0.00000000000E+00  0.00000000000E+00 -0.22451969161E+04  0.22451969161E+04  0.50400001928E-02 0.  1.
    10030    2    1    2    0    0  0.00000000000E+00  0.00000000000E+00 -0.11474773227E+04  0.33429165095E+04  0.31398067748E+04 0.  0.
        1    1    3    3  502    0  0.65483147326E+03  0.93974936790E+03  0.56933411292E+03  0.12790912653E+04  0.50400001928E-02 0. -1.
       -1    1    3    3    0  502 -0.65483147326E+03 -0.93974936790E+03 -0.17168114357E+04  0.20638252442E+04  0.50400001928E-02 0.  1.
</event>
<event>
 5   0  0.2598987E-06  0.2703558E+04  0.7818609E-02  0.8333851E-01
        1   -1    0    0  501    0  0.00000000000E+00  0.00000000000E+00  0.13499376608E+04  0.13499376608E+04  0.50400001928E-02 0.  1.
       -1   -1    0    0    0  501  0.00000000000E+00  0.00000000000E+00 -0.13536229326E+04  0.13536229326E+04  0.50400001928E-02 0. -1.
    10030    2    1    2    0    0  0.00000000000E+00  0.00000000000E+00 -0.36852718333E+01  0.27035605934E+04  0.27035580816E+04 0.  0.
        2    1    3    3  502    0  0.12422676433E+04 -0.44702523838E+03  0.28840944468E+03  0.13513846489E+04  0.25500000920E-02 0.  1.
       -2    1    3    3    0  502 -0.12422676433E+04  0.44702523838E+03 -0.29209471651E+03  0.13521759445E+04  0.25500000920E-02 0. -1.
</event>
<event>
 5   0  0.7094341E-06  0.3063605E+04  0.7818609E-02  0.8225798E-01
       -2   -1    0    0    0  501  0.00000000000E+00  0.00000000000E+00  0.14806581492E+04  0.14806581492E+04  0.25500000920E-02 0. -1.
        2   -1    0    0  501    0  0.00000000000E+00  0.00000000000E+00 -0.15847136226E+04  0.15847136226E+04  0.25500000920E-02 0.  1.
    10030    2    1    2    0    0  0.00000000000E+00  0.00000000000E+00 -0.10405547346E+03  0.30653717718E+04  0.30636051570E+04 0.  0.
        3    1    3    3  502    0 -0.61606285718E+03  0.26620880875E+03 -0.14297816509E+04  0.15794543846E+04  0.10100000352E+00 0.  1.
       -3    1    3    3    0  502  0.61606285718E+03 -0.26620880875E+03  0.13257261774E+04  0.14859173872E+04  0.10100000352E+00 0. -1.
</event>
<event>
 5   0  0.2598987E-06  0.3087015E+04  0.7818609E-02  0.8219311E-01
       -1   -1    0    0    0  501  0.00000000000E+00  0.00000000000E+00  0.12433757087E+04  0.12433757087E+04  0.50400001928E-02 0.  1.
        1   -1    0    0  501    0  0.00000000000E+00  0.00000000000E+00 -0.19160862437E+04  0.19160862437E+04  0.50400001928E-02 0. -1.
    10030    2    1    2    0    0  0.00000000000E+00  0.00000000000E+00 -0.67271053497E+03  0.31594619523E+04  0.30870147982E+04 0.  0.
        2    1    3    3  502    0 -0.71263092109E+03  0.11766783914E+04  0.38007274411E+03  0.14271896010E+04  0.25500000920E-02 0.  1.
       -2    1    3    3    0  502  0.71263092109E+03 -0.11766783914E+04 -0.10527832791E+04  0.17322723513E+04  0.25500000920E-02 0. -1.
</event>
<event>
 5   0  0.7079223E-06  0.3082429E+04  0.7818609E-02  0.8220577E-01
       -2   -1    0    0    0  501  0.00000000000E+00  0.00000000000E+00  0.16366403913E+04  0.16366403913E+04  0.25500000920E-02 0. -1.
        2   -1    0    0  501    0  0.00000000000E+00  0.00000000000E+00 -0.14513525540E+04  0.14513525540E+04  0.25500000920E-02 0.  1.
    10030    2    1    2    0    0  0.00000000000E+00  0.00000000000E+00  0.18528783727E+03  0.30879929453E+04  0.30824290499E+04 0.  0.
        5    1    3    3  502    0  0.72903909990E+03 -0.96053143510E+03  0.10541687909E+04  0.16016905371E+04  0.46999998093E+01 0. -1.
       -5    1    3    3    0  502 -0.72903909990E+03  0.96053143510E+03 -0.86888095362E+03  0.14863024082E+04  0.46999998093E+01 0.  1.
</event>
<event>
 5   0  0.7071012E-06  0.3713611E+04  0.7818609E-02  0.8064952E-01
        2   -1    0    0  501    0  0.00000000000E+00  0.00000000000E+00  0.28712588886E+04  0.28712588886E+04  0.25500000920E-02 0.  1.
       -2   -1    0    0    0  501  0.00000000000E+00  0.00000000000E+00 -0.12007714977E+04  0.12007714977E+04  0.25500000920E-02 0. -1.
    10030    2    1    2    0    0  0.00000000000E+00  0.00000000000E+00  0.16704873909E+04  0.40720303863E+04  0.37136105536E+04 0.  0.
        1    1    3    3  502    0 -0.49830221918E+03 -0.12839239536E+04 -0.53032940608E+03  0.14758099807E+04  0.50400001928E-02 0. -1.
       -1    1    3    3    0  502  0.49830221918E+03  0.12839239536E+04  0.22008167970E+04  0.25962204055E+04  0.50400001928E-02 0.  1.
</event>
<event>
 5   0  0.2674441E-06  0.2735567E+04  0.7818609E-02  0.8323556E-01
       -1   -1    0    0    0  501  0.00000000000E+00  0.00000000000E+00  0.14448061314E+04  0.14448061314E+04  0.50400001928E-02 0. -1.
        1   -1    0    0  501    0  0.00000000000E+00  0.00000000000E+00 -0.12948665170E+04  0.12948665170E+04  0.50400001928E-02 0.  1.
    10030    2    1    2    0    0  0.00000000000E+00  0.00000000000E+00  0.14993961440E+03  0.27396726485E+04  0.27355665470E+04 0.  0.
        5    1    3    3  502    0 -0.48446666480E+03 -0.12787279881E+04  0.10593184386E+03  0.13715308463E+04  0.46999998093E+01 0.  1.
       -5    1    3    3    0  502  0.48446666480E+03  0.12787279881E+04  0.44007770541E+02  0.13681418021E+04  0.46999998093E+01 0. -1.
</event>
<event>
 5   0  0.2517725E-06  0.3039640E+04  0.7818609E-02  0.8232501E-01
        1   -1    0    0  501    0  0.00000000000E+00  0.00000000000E+00  0.17771691773E+04  0.17771691773E+04  0.50400001928E-02 0. -1.
       -1   -1    0    0    0  501  0.00000000000E+00  0.00000000000E+00 -0.12997369760E+04  0.12997369760E+04  0.50400001928E-02 0.  1.
    10030    2    1    2    0    0  0.00000000000E+00  0.00000000000E+00  0.47743220135E+03  0.30769061533E+04  0.30396397762E+04 0.  0.
        3    1    3    3  502    0  0.11523469940E+04  0.79527388203E+03  0.83713937603E+03  0.16313082134E+04  0.10100000352E+00 0. -1.
       -3    1    3    3    0  502 -0.11523469940E+04 -0.79527388203E+03 -0.35970717468E+03  0.14455979399E+04  0.10100000352E+00 0.  1.
</event>
<event>
 5   0  0.2612331E-06  0.2290932E+04  0.7818609E-02  0.8481505E-01
       -1   -1    0    0    0  501  0.00000000000E+00  0.00000000000E+00  0.13561419343E+04  0.13561419343E+04  0.50400001928E-02 0. -1.
        1   -1    0    0  501    0  0.00000000000E+00  0.00000000000E+00 -0.96751880260E+03  0.96751880262E+03  0.50400001928E-02 0.  1.
    10030    2    1    2    0    0  0.00000000000E+00  0.00000000000E+00  0.38862313172E+03  0.23236607370E+04  0.22909324045E+04 0.  0.
        4    1    3    3  502    0  0.19641289793E+03 -0.70329287247E+03 -0.70084531516E+03  0.10121188960E+04  0.12699999809E+01 0.  1.
       -4    1    3    3    0  502 -0.19641289793E+03  0.70329287247E+03  0.10894684469E+04  0.13115418410E+04  0.12699999809E+01 0. -1.
</event>
<event>
 5   0  0.2674441E-06  0.3120704E+04  0.7818609E-02  0.8210079E-01
       -1   -1    0    0    0  501  0.00000000000E+00  0.00000000000E+00  0.17359048255E+04  0.17359048255E+04  0.50400001928E-02 0. -1.
        1   -1    0    0  501    0  0.00000000000E+00  0.00000000000E+00 -0.14025533203E+04  0.14025533203E+04  0.50400001928E-02 0.  1.
    10030    2    1    2    0    0  0.00000000000E+00  0.00000000000E+00  0.33335150517E+03  0.31384581458E+04  0.31207044569E+04 0.  0.
        5    1    3    3  502    0  0.13633880453E+04  0.48147422730E+03  0.75655551209E+03  0.16318831841E+04  0.46999998093E+01 0. -1.
       -5    1    3    3    0  502 -0.13633880453E+04 -0.48147422730E+03 -0.42320400691E+03  0.15065749617E+04  0.46999998093E+01 0.  1.
</event>
<event>
 5   0  0.7414808E-06  0.3130481E+04  0.7818609E-02  0.8207422E-01
       -2   -1    0    0    0  501  0.00000000000E+00  0.00000000000E+00  0.11912109199E+04  0.11912109199E+04  0.25500000920E-02 0. -1.
        2   -1    0    0  501    0  0.00000000000E+00  0.00000000000E+00 -0.20567116163E+04  0.20567116163E+04  0.25500000920E-02 0.  1.
    10030    2    1    2    0    0  0.00000000000E+00  0.00000000000E+00 -0.86550069638E+03  0.32479225362E+04  0.31304806893E+04 0.  0.
        2    1    3    3  502    0  0.13877082052E+03 -0.18033292646E+03  0.11739590562E+04  0.11958081663E+04  0.25500000920E-02 0. -1.
       -2    1    3    3    0  502 -0.13877082052E+03  0.18033292646E+03 -0.20394597526E+04  0.20521143699E+04  0.25500000920E-02 0.  1.
</event>
<event>
 5   0  0.2598987E-06  0.3282469E+04  0.7818609E-02  0.8167370E-01
        1   -1    0    0  501    0  0.00000000000E+00  0.00000000000E+00  0.17263419664E+04  0.17263419664E+04  0.50400001928E-02 0. -1.
       -1   -1    0    0    0  501  0.00000000000E+00  0.00000000000E+00 -0.15603228580E+04  0.15603228580E+04  0.50400001928E-02 0.  1.
    10030    2    1    2    0    0  0.00000000000E+00  0.00000000000E+00  0.16601910836E+03  0.32866648244E+04  0.32824690895E+04 0.  0.
        2    1    3    3  502    0  0.16014316886E+04 -0.31539714720E+03 -0.89233634374E+02  0.16346319021E+04  0.25500000920E-02 0.  1.
       -2    1    3    3    0  502 -0.16014316886E+04  0.31539714720E+03  0.25525274273E+03  0.16520329223E+04  0.25500000920E-02 0. -1.
</event>
<event>
 5   0  0.7079223E-06  0.3075243E+04  0.7818609E-02  0.8222565E-01
        2   -1    0    0  501    0  0.00000000000E+00  0.00000000000E+00  0.21900429828E+04  0.21900429828E+04  0.25500000920E-02 0.  1.
       -2   -1    0    0    0  501  0.00000000000E+00  0.00000000000E+00 -0.10795589840E+04  0.10795589840E+04  0.25500000920E-02 0. -1.
    10030    2    1    2    0    0  0.00000000000E+00  0.00000000000E+00  0.11104839988E+04  0.32696019669E+04  0.30752434554E+04 0.  0.
        5    1    3    3  502    0  0.94766629022E+03  0.11902631926E+04  0.31878881288E+03  0.15544922845E+04  0.46999998093E+01 0. -1.
       -5    1    3    3    0  502 -0.94766629022E+03 -0.11902631926E+04  0.79169518596E+03  0.17151096824E+04  0.46999998093E+01 0.  1.
</event>
<event>
 5   0  0.2624011E-06  0.3116422E+04  0.7818609E-02  0.8211245E-01
        1   -1    0    0  501    0  0.00000000000E+00  0.00000000000E+00  0.23457380587E+04  0.23457380587E+04  0.50400001928E-02 0.  1.
       -1   -1    0    0    0  501  0.00000000000E+00  0.00000000000E+00 -0.10350780698E+04  0.10350780698E+04  0.50400001928E-02 0. -1.
    10030    2    1    2    0    0  0.00000000000E+00  0.00000000000E+00  0.13106599889E+04  0.33808161285E+04  0.31164223219E+04 0.  0.
        1    1    3    3  502    0 -0.94699868381E+03  0.90520609229E+03 -0.25994070382E+03  0.13355799288E+04  0.50400001928E-02 0. -1.
       -1    1    3    3    0  502  0.94699868381E+03 -0.90520609229E+03  0.15706006927E+04  0.20452361997E+04  0.50400001928E-02 0.  1.
</event>
<event>
 5   0  0.7094341E-06  0.3096187E+04  0.7818609E-02  0.8216785E-01
       -2   -1    0    0    0  501  0.00000000000E+00  0.00000000000E+00  0.12830365089E+04  0.12830365089E+04  0.25500000920E-02 0. -1.
        2   -1    0    0  501    0  0.00000000000E+00  0.00000000000E+00 -0.18679069491E+04  0.18679069491E+04  0.25500000920E-02 0.  1.
    10030    2    1    2    0    0  0.00000000000E+00  0.00000000000E+00 -0.58487044019E+03  0.31509434580E+04  0.30961865647E+04 0.  0.
        3    1    3    3  502    0  0.12228947544E+04  0.40513796503E+03 -0.11660956188E+04  0.17376384415E+04  0.10100000352E+00 0.  1.
       -3    1    3    3    0  502 -0.12228947544E+04 -0.40513796503E+03  0.58122517866E+03  0.14133050164E+04  0.10100000352E+00 0. -1.
</event>
<event>
 5   0  0.7079223E-06  0.3145089E+04  0.7818609E-02  0.8203472E-01
       -2   -1    0    0    0  501  0.00000000000E+00  0.00000000000E+00  0.16665961736E+04  0.16665961736E+04  0.25500000920E-02 0. -1.
        2   -1    0    0  501    0  0.00000000000E+00  0.00000000000E+00 -0.14838001201E+04  0.14838001201E+04  0.25500000920E-02 0.  1.
    10030    2    1    2    0    0  0.00000000000E+00  0.00000000000E+00  0.18279605346E+03  0.31503962937E+04  0.31450886172E+04 0.  0.
        5    1    3    3  502    0  0.70083523453E+03  0.13139434700E+04  0.59747935957E+03  0.16045626019E+04  0.46999998093E+01 0. -1.
       -5    1    3    3    0  502 -0.70083523453E+03 -0.13139434700E+04 -0.41468330610E+03  0.15458336918E+04  0.46999998093E+01 0.  1.
</event>
<event>
 5   0  0.7079223E-06  0.3035783E+04  0.7818609E-02  0.8233586E-01
        2   -1    0    0  501    0  0.00000000000E+00  0.00000000000E+00  0.11401651972E+04  0.11401651972E+04  0.25500000920E-02 0.  1.
       -2   -1    0    0    0  501  0.00000000000E+00  0.00000000000E+00 -0.20207551972E+04  0.20207551972E+04  0.25500000920E-02 0. -1.
    10030    2    1    2    0    0  0.00000000000E+00  0.00000000000E+00 -0.88058999996E+03  0.31609203944E+04  0.30357830936E+04 0.  0.
        5    1    3    3  502    0  0.60587368024E+03 -0.88818004873E+03 -0.15559211144E+04  0.18912586601E+04  0.46999998093E+01 0. -1.
       -5    1    3    3    0  502 -0.60587368024E+03  0.88818004873E+03  0.67533111440E+03  0.12696617343E+04  0.46999998093E+01 0.  1.
</event>
<event>
 5   0  0.7094341E-06  0.3108244E+04  0.7818609E-02  0.8213479E-01
       -2   -1    0    0    0  501  0.00000000000E+00  0.00000000000E+00  0.13533342777E+04  0.13533342777E+04  0.25500000920E-02 0.  1.
        2   -1    0    0  501    0  0.00000000000E+00  0.00000000000E+00 -0.17846991968E+04  0.17846991968E+04  0.25500000920E-02 0. -1.
    10030    2    1    2    0    0  0.00000000000E+00  0.00000000000E+00 -0.43136491905E+03  0.31380334745E+04  0.31082436188E+04 0.  0.
        3    1    3    3  502    0  0.11804765023E+04  0.93576571191E+03  0.17022749499E+03  0.15159682221E+04  0.10100000352E+00 0. -1.
       -3    1    3    3    0  502 -0.11804765023E+04 -0.93576571191E+03 -0.60159241404E+03  0.16220652524E+04  0.10100000352E+00 0.  1.
</event>
<event>
 5   0  0.2624011E-06  0.3078767E+04  0.7818609E-02  0.8221589E-01
       -1   -1    0    0    0  501  0.00000000000E+00  0.00000000000E+00  0.12682130862E+04  0.12682130862E+04  0.50400001928E-02 0.  1.
        1   -1    0    0  501    0  0.00000000000E+00  0.00000000000E+00 -0.18685363145E+04  0.18685363145E+04  0.50400001928E-02 0. -1.
    10030    2    1    2    0    0  0.00000000000E+00  0.00000000000E+00 -0.60032322826E+03  0.31367494007E+04  0.30787674197E+04 0.  0.
        1    1    3    3  502    0 -0.50391011028E+03 -0.13723385623E+04  0.19106342216E+03  0.14743621536E+04  0.50400001928E-02 0.  1.
       -1    1    3    3    0  502  0.50391011028E+03  0.13723385623E+04 -0.79138665043E+03  0.16623872471E+04  0.50400001928E-02 0. -1.
</event>
<event>
 5   0  0.2598987E-06  0.2837986E+04  0.7818609E-02  0.8291571E-01
       -1   -1    0    0    0  501  0.00000000000E+00  0.00000000000E+00  0.80581542374E+03  0.80581542376E+03  0.50400001928E-02 0.  1.
        1   -1    0    0  501    0  0.00000000000E+00  0.00000000000E+00 -0.24987626096E+04  0.24987626096E+04  0.50400001928E-02 0. -1.
    10030    2    1    2    0    0  0.00000000000E+00  0.00000000000E+00 -0.16929471858E+04  0.33045780333E+04  0.28379862234E+04 0.  0.
        2    1    3    3  502    0 -0.12749365379E+04  0.29552148200E+03 -0.20790849986E+03  0.13251498278E+04  0.25500000920E-02 0.  1.
       -2    1    3    3    0  502  0.12749365379E+04 -0.29552148200E+03 -0.14850386860E+04  0.19794282055E+04  0.25500000920E-02 0. -1.
</event>
<event>
 5   0  0.2674441E-06  0.3093293E+04  0.7818609E-02  0.8217581E-01
        1   -1    0    0  501    0  0.00000000000E+00  0.00000000000E+00  0.20772320553E+04  0.20772320553E+04  0.50400001928E-02 0. -1.
       -1   -1    0    0    0  501  0.00000000000E+00  0.00000000000E+00 -0.11515879368E+04  0.11515879368E+04  0.50400001928E-02 0.  1.
    10030    2    1    2    0    0  0.00000000000E+00  0.00000000000E+00  0.92564411847E+03  0.32288199921E+04  0.30932929876E+04 0.  0.
        5    1    3    3  502    0  0.12073100492E+04  0.70019617535E+03 -0.23287848443E+03  0.14149652707E+04  0.46999998093E+01 0.  1.
       -5    1    3    3    0  502 -0.12073100492E+04 -0.70019617535E+03  0.11585226029E+04  0.18138547214E+04  0.46999998093E+01 0. -1.
</event>
<event>
 5   0  0.7414808E-06  0.2490871E+04  0.7818609E-02  0.8406245E-01
       -2   -1    0    0    0  501  0.00000000000E+00  0.00000000000E+00  0.72153693640E+03  0.72153693641E+03  0.25500000920E-02 0. -1.
        2   -1    0    0  501    0  0.00000000000E+00  0.00000000000E+00 -0.21497303371E+04  0.21497303371E+04  0.25500000920E-02 0.  1.
    10030    2    1    2    0    0  0.00000000000E+00  0.00000000000E+00 -0.14281934007E+04  0.28712672735E+04  0.24908712063E+04 0.  0.
        2    1    3    3  502    0  0.48872263856E+03  0.10655242512E+04 -0.22924550043E+03  0.11944644184E+04  0.25500000920E-02 0. -1.
       -2    1    3    3    0  502 -0.48872263856E+03 -0.10655242512E+04 -0.11989479003E+04  0.16768028551E+04  0.25500000920E-02 0.  1.
</event>
<event>
 5   0  0.2517725E-06  0.2992841E+04  0.7818609E-02  0.8245778E-01
        1   -1    0    0  501    0  0.00000000000E+00  0.00000000000E+00  0.15540437100E+04  0.15540437100E+04  0.50400001928E-02 0. -1.
       -1   -1    0    0    0  501  0.00000000000E+00  0.00000000000E+00 -0.14409343201E+04  0.14409343201E+04  0.50400001928E-02 0.  1.
    10030    2    1    2    0    0  0.00000000000E+00  0.00000000000E+00  0.11310938995E+03  0.29949780301E+04  0.29928414035E+04 0.  0.
        3    1    3    3  502    0  0.82509890847E+03  0.16400273114E+03 -0.11819029847E+04  0.14507169883E+04  0.10100000352E+00 0.  1.
       -3    1    3    3    0  502 -0.82509890847E+03 -0.16400273114E+03  0.12950123747E+04  0.15442610418E+04  0.10100000352E+00 0. -1.
</event>
<event>
 5   0  0.2612331E-06  0.3040951E+04  0.7818609E-02  0.8232133E-01
       -1   -1    0    0    0  501  0.00000000000E+00  0.00000000000E+00  0.12566277106E+04  0.12566277106E+04  0.50400001928E-02 0. -1.
        1   -1    0    0  501    0  0.00000000000E+00  0.00000000000E+00 -0.18397217587E+04  0.18397217587E+04  0.50400001928E-02 0.  1.
    10030    2    1    2    0    0  0.00000000000E+00  0.00000000000E+00 -0.58309404815E+03  0.30963494693E+04  0.30409507341E+04 0.  0.
        4    1    3    3  502    0  0.81502653230E+03  0.12113633617E+04  0.14065519518E+03  0.14667838761E+04  0.12699999809E+01 0. -1.
       -4    1    3    3    0  502 -0.81502653230E+03 -0.12113633617E+04 -0.72374924332E+03  0.16295655932E+04  0.12699999809E+01 0.  1.
</event>
<event>
 5   0  0.7363513E-06  0.3107919E+04  0.7818609E-02  0.8213568E-01
        2   -1    0    0  501    0  0.00000000000E+00  0.00000000000E+00  0.18899504085E+04  0.18899504085E+04  0.25500000920E-02 0.  1.
       -2   -1    0    0    0  501  0.00000000000E+00  0.00000000000E+00 -0.12777006277E+04  0.12777006277E+04  0.25500000920E-02 0. -1.
    10030    2    1    2    0    0  0.00000000000E+00  0.00000000000E+00  0.61224978080E+03  0.31676510362E+04  0.31079194476E+04 0.  0.
        4    1    3    3  502    0  0.15377002802E+04 -0.16852340287E+03  0.15540818259E+03  0.15546946984E+04  0.12699999809E+01 0.  1.
       -4    1    3    3    0  502 -0.15377002802E+04  0.16852340287E+03  0.45684159820E+03  0.16129563378E+04  0.12699999809E+01 0. -1.
</event>
<event>
 5   0  0.2612331E-06  0.2948189E+04  0.7818609E-02  0.8258683E-01
        1   -1    0    0  501    0  0.00000000000E+00  0.00000000000E+00  0.16926504829E+04  0.16926504829E+04  0.50400001928E-02 0. -1.
       -1   -1    0    0    0  501  0.00000000000E+00  0.00000000000E+00 -0.12837585324E+04  0.12837585324E+04  0.50400001928E-02 0.  1.
    10030    2    1    2    0    0  0.00000000000E+00  0.00000000000E+00  0.40889195049E+03  0.29764090154E+04  0.29481889355E+04 0.  0.
        4    1    3    3  502    0  0.73708464990E+03 -0.10934551084E+04 -0.46065821662E+03  0.13968340848E+04  0.12699999809E+01 0.  1.
       -4    1    3    3    0  502 -0.73708464990E+03  0.10934551084E+04  0.86955016711E+03  0.15795749305E+04  0.12699999809E+01 0. -1.
</event>
<event>
 5   0  0.2612331E-06  0.2409865E+04  0.7818609E-02  0.8435820E-01
        1   -1    0    0  501    0  0.00000000000E+00  0.00000000000E+00  0.10760634342E+04  0.10760634343E+04  0.50400001928E-02 0. -1.
       -1   -1    0    0    0  501  0.00000000000E+00  0.00000000000E+00 -0.13492346139E+04  0.13492346139E+04  0.50400001928E-02 0.  1.
    10030    2    1    2    0    0  0.00000000000E+00  0.00000000000E+00 -0.27317117966E+03  0.24252980482E+04  0.24098647533E+04 0.  0.
        4    1    3    3  502    0 -0.10134816448E+04  0.52449305105E+02 -0.79033359554E+03  0.12862833199E+04  0.12699999809E+01 0.  1.
       -4    1    3    3    0  502  0.10134816448E+04 -0.52449305105E+02  0.51716241588E+03  0.11390147283E+04  0.12699999809E+01 0. -1.
</event>
<event>
 5   0  0.2624011E-06  0.2896804E+04  0.7818609E-02  0.8273829E-01
       -1   -1    0    0    0  501  0.00000000000E+00  0.00000000000E+00  0.10508474566E+04  0.10508474566E+04  0.50400001928E-02 0. -1.
        1   -1    0    0  501    0  0.00000000000E+00  0.00000000000E+00 -0.19963584172E+04  0.19963584172E+04  0.50400001928E-02 0.  1.
    10030    2    1    2    0    0  0.00000000000E+00  0.00000000000E+00 -0.94551096058E+03  0.30472058738E+04  0.28968038699E+04 0.  0.
        1    1    3    3  502    0  0.58385148335E+03 -0.84590933209E+03 -0.15462412454E+04  0.18566925275E+04  0.50400001928E-02 0.  1.
       -1    1    3    3    0  502 -0.58385148335E+03  0.84590933209E+03  0.60073028479E+03  0.11905133463E+04  0.50400001928E-02 0. -1.
</event>
<event>
 5   0  0.7071012E-06  0.3052440E+04  0.7818609E-02  0.8228913E-01
        2   -1    0    0  501    0  0.00000000000E+00  0.00000000000E+00  0.16186710316E+04  0.16186710316E+04  0.25500000920E-02 0. -1.
       -2   -1    0    0    0  501  0.00000000000E+00  0.00000000000E+00 -0.14390497376E+04  0.14390497376E+04  0.25500000920E-02 0.  1.
    10030    2    1    2    0    0  0.00000000000E+00  0.00000000000E+00  0.17962129399E+03  0.30577207693E+04  0.30524404160E+04 0.  0.
        1    1    3    3  502    0  0.12227114940E+04 -0.55816160107E+03 -0.63447562993E+03  0.14863132562E+04  0.50400001928E-02 0.  1.
       -1    1    3    3    0  502 -0.12227114940E+04  0.55816160107E+03  0.81409692392E+03  0.15714075131E+04  0.50400001928E-02 0. -1.
</event>
<event>
 5   0  0.2517725E-06  0.2612107E+04  0.7818609E-02  0.8364100E-01
        1   -1    0    0  501    0  0.00000000000E+00  0.00000000000E+00  0.15517440411E+04  0.15517440411E+04  0.50400001928E-02 0.  1.
       -1   -1    0    0    0  501  0.00000000000E+00  0.00000000000E+00 -0.10992638218E+04  0.10992638218E+04  0.50400001928E-02 0. -1.
    10030    2    1    2    0    0  0.00000000000E+00  0.00000000000E+00  0.45248021925E+03  0.26510078629E+04  0.26121072605E+04 0.  0.
        3    1    3    3  502    0  0.79780057442E+03 -0.17455425592E+03  0.12606445994E+04  0.15020585079E+04  0.10100000352E+00 0.  1.
       -3    1    3    3    0  502 -0.79780057442E+03  0.17455425592E+03 -0.80816438016E+03  0.11489493550E+04  0.10100000352E+00 0. -1.
</event>
<event>
 5   0  0.7414808E-06  0.2968431E+04  0.7818609E-02  0.8252804E-01
       -2   -1    0    0    0  501  0.00000000000E+00  0.00000000000E+00  0.94224680487E+03  0.94224680488E+03  0.25500000920E-02 0. -1.
        2   -1    0    0  501    0  0.00000000000E+00  0.00000000000E+00 -0.23379171458E+04  0.23379171458E+04  0.25500000920E-02 0.  1.
    10030    2    1    2    0    0  0.00000000000E+00  0.00000000000E+00 -0.13956703409E+04  0.32801639507E+04  0.29684305353E+04 0.  0.
        2    1    3    3  502    0  0.23067775547E+03  0.10864805913E+04 -0.17857250111E+04  0.21029660286E+04  0.25500000920E-02 0.  1.
       -2    1    3    3    0  502 -0.23067775547E+03 -0.10864805913E+04  0.39005467014E+03  0.11771979221E+04  0.25500000920E-02 0. -1.
</event>
<event>
 5   0  0.7094341E-06  0.2487769E+04  0.7818609E-02  0.8407356E-01
        2   -1    0    0  501    0  0.00000000000E+00  0.00000000000E+00  0.84060448753E+03  0.84060448753E+03  0.25500000920E-02 0. -1.
       -2   -1    0    0    0  501  0.00000000000E+00  0.00000000000E+00 -0.18406386865E+04  0.18406386865E+04  0.25500000920E-02 0.  1.
    10030    2    1    2    0    0  0.00000000000E+00  0.00000000000E+00 -0.10000341990E+04  0.26812431740E+04  0.24877693943E+04 0.  0.
        3    1    3    3  502    0  0.88582619562E+03 -0.82890772246E+03 -0.20392822668E+03  0.12301881129E+04  0.10100000352E+00 0. -1.
       -3    1    3    3    0  502 -0.88582619562E+03  0.82890772246E+03 -0.79610597228E+03  0.14510550612E+04  0.10100000352E+00 0.  1.
</event>
<event>
 5   0  0.2393250E-06  0.3052793E+04  0.7818609E-02  0.8228814E-01
       -3   -1    0    0    0  501  0.00000000000E+00  0.00000000000E+00  0.14592135736E+04  0.14592135771E+04  0.10100000352E+00 0. -1.
        3   -1    0    0  501    0  0.00000000000E+00  0.00000000000E+00 -0.15966730611E+04  0.15966730643E+04  0.10100000352E+00 0.  1.
    10030    2    1    2    0    0  0.00000000000E+00  0.00000000000E+00 -0.13745948744E+03  0.30558866414E+04  0.30527934837E+04 0.  0.
        1    1    3    3  502    0  0.54805791323E+03 -0.98871020116E+03 -0.10954256661E+04  0.15741260204E+04  0.50400001928E-02 0.  1.
       -1    1    3    3    0  502 -0.54805791323E+03  0.98871020116E+03  0.95796617870E+03  0.14817606209E+04  0.50400001928E-02 0. -1.
</event>
<event>
 5   0  0.2674441E-06  0.1962696E+04  0.7818609E-02  0.8624263E-01
       -1   -1    0    0    0  501  0.00000000000E+00  0.00000000000E+00  0.10939414772E+04  0.10939414773E+04  0.50400001928E-02 0. -1.
        1   -1    0    0  501    0  0.00000000000E+00  0.00000000000E+00 -0.88034357143E+03  0.88034357144E+03  0.50400001928E-02 0.  1.
    10030    2    1    2    0    0  0.00000000000E+00  0.00000000000E+00  0.21359790582E+03  0.19742850487E+04  0.19626964585E+04 0.  0.
        5    1    3    3  502    0  0.87885934339E+03 -0.17040416335E+03 -0.29755827600E+03  0.94339511444E+03  0.46999998093E+01 0.  1.
       -5    1    3    3    0  502 -0.87885934339E+03  0.17040416335E+03  0.51115618181E+03  0.10308899343E+04  0.46999998093E+01 0. -1.
</event>
<event>
 5   0  0.7363513E-06  0.3242312E+04  0.7818609E-02  0.8177731E-01
        2   -1    0    0  501    0  0.00000000000E+00  0.00000000000E+00  0.16446272871E+04  0.16446272871E+04  0.25500000920E-02 0. -1.
       -2   -1    0    0    0  501  0.00000000000E+00  0.00000000000E+00 -0.15980197022E+04  0.15980197022E+04  0.25500000920E-02 0.  1.
    10030    2    1    2    0    0  0.00000000000E+00  0.00000000000E+00  0.46607584946E+02  0.32426469894E+04  0.32423120193E+04 0.  0.
        4    1    3    3  502    0 -0.15976835823E+03 -0.47826082639E+03 -0.15175973646E+04  0.15991756378E+04  0.12699999809E+01 0.  1.
       -4    1    3    3    0  502  0.15976835823E+03  0.47826082639E+03  0.15642049496E+04  0.16434713516E+04  0.12699999809E+01 0. -1.
</event>
<event>
 5   0  0.7363513E-06  0.3082301E+04  0.7818609E-02  0.8220612E-01
       -2   -1    0    0    0  501  0.00000000000E+00  0.00000000000E+00  0.11049368216E+04  0.11049368216E+04  0.25500000920E-02 0. -1.
        2   -1    0    0  501    0  0.00000000000E+00  0.00000000000E+00 -0.21495758118E+04  0.21495758119E+04  0.25500000920E-02 0.  1.
    10030    2    1    2    0    0  0.00000000000E+00  0.00000000000E+00 -0.10446389903E+04  0.32545126334E+04  0.30823013904E+04 0.  0.
        4    1    3    3  502    0  0.48297984408E+03 -0.99464002763E+03 -0.16558773078E+04  0.19911076279E+04  0.12699999809E+01 0. -1.
       -4    1    3    3    0  502 -0.48297984408E+03  0.99464002763E+03  0.61123831756E+03  0.12634050056E+04  0.12699999809E+01 0.  1.
</event>
<event>
 5   0  0.7414808E-06  0.2965868E+04  0.7818609E-02  0.8253545E-01
       -2   -1    0    0    0  501  0.00000000000E+00  0.00000000000E+00  0.15767693021E+04  0.15767693021E+04  0.25500000920E-02 0. -1.
        2   -1    0    0  501    0  0.00000000000E+00  0.00000000000E+00 -0.13946831017E+04  0.13946831017E+04  0.25500000920E-02 0.  1.
    10030    2    1    2    0    0  0.00000000000E+00  0.00000000000E+00  0.18208620044E+03  0.29714524038E+04  0.29658681703E+04 0.  0.
        2    1    3    3  502    0  0.48825550772E+03 -0.85436884078E+03 -0.10204392049E+04  0.14176162132E+04  0.25500000920E-02 0.  1.
       -2    1    3    3    0  502 -0.48825550772E+03  0.85436884078E+03  0.12025254053E+04  0.15538361907E+04  0.25500000920E-02 0. -1.
</event>
<event>
 5   0  0.2674441E-06  0.3107946E+04  0.7818609E-02  0.8213561E-01
       -1   -1    0    0    0  501  0.00000000000E+00  0.00000000000E+00  0.11157350211E+04  0.11157350211E+04  0.50400001928E-02 0.  1.
        1   -1    0    0  501    0  0.00000000000E+00  0.00000000000E+00 -0.21643422372E+04  0.21643422372E+04  0.50400001928E-02 0. -1.
    10030    2    1    2    0    0  0.00000000000E+00  0.00000000000E+00 -0.10486072161E+04  0.32800772583E+04  0.31079462233E+04 0.  0.
        5    1    3    3  502    0 -0.21345870108E+03  0.46430703515E+03  0.10245116648E+04  0.11448981969E+04  0.46999998093E+01 0.  1.
       -5    1    3    3    0  502  0.21345870108E+03 -0.46430703515E+03 -0.20731188809E+04  0.21351790614E+04  0.46999998093E+01 0. -1.
</event>
<event>
 5   0  0.7094341E-06  0.3088681E+04  0.7818609E-02  0.8218851E-01
       -2   -1    0    0    0  501  0.00000000000E+00  0.00000000000E+00  0.12064031847E+04  0.12064031847E+04  0.25500000920E-02 0. -1.
        2   -1    0    0  501    0  0.00000000000E+00  0.00000000000E+00 -0.19769411002E+04  0.19769411002E+04  0.25500000920E-02 0.  1.
    10030    2    1    2    0    0  0.00000000000E+00  0.00000000000E+00 -0.77053791545E+03  0.31833442849E+04  0.30886812974E+04 0.  0.
        3    1    3    3  502    0  0.14889772188E+04 -0.32987610078E+03 -0.63585988511E+03  0.16523284188E+04  0.10100000352E+00 0.  1.
       -3    1    3    3    0  502 -0.14889772188E+04  0.32987610078E+03 -0.13467803035E+03  0.15310158661E+04  0.10100000352E+00 0. -1.
</event>
<event>
 5   0  0.2674441E-06  0.2992204E+04  0.7818609E-02  0.8245960E-01
       -1   -1    0    0    0  501  0.00000000000E+00  0.00000000000E+00  0.17110147372E+04  0.17110147372E+04  0.50400001928E-02 0.  1.
        1   -1    0    0  501    0  0.00000000000E+00  0.00000000000E+00 -0.13081838298E+04  0.13081838298E+04  0.50400001928E-02 0. -1.
    10030    2    1    2    0    0  0.00000000000E+00  0.00000000000E+00  0.40283090740E+03  0.30191985671E+04  0.29922044127E+04 0.  0.
        5    1    3    3  502    0 -0.78104884301E+03  0.60181312292E+03 -0.93393927613E+03  0.13581167076E+04  0.46999998093E+01 0. -1.
       -5    1    3    3    0  502  0.78104884301E+03 -0.60181312292E+03  0.13367701835E+04  0.16610818594E+04  0.46999998093E+01 0.  1.
</event>
<event>
 5   0  0.2517725E-06  0.2821277E+04  0.7818609E-02  0.8296693E-01
        1   -1    0    0  501    0  0.00000000000E+00  0.00000000000E+00  0.11036712788E+04  0.11036712788E+04  0.50400001928E-02 0.  1.
       -1   -1    0    0    0  501  0.00000000000E+00  0.00000000000E+00 -0.18029839132E+04  0.18029839132E+04  0.50400001928E-02 0. -1.
    10030    2    1    2    0    0  0.00000000000E+00  0.00000000000E+00 -0.69931263442E+03  0.29066551920E+04  0.28212774136E+04 0.  0.
        3    1    3    3  502    0 -0.10428629080E+03 -0.11536627185E+04 -0.11790577827E+04  0.16528734264E+04  0.10100000352E+00 0. -1.
       -3    1    3    3    0  502  0.10428629080E+03  0.11536627185E+04  0.47974514826E+03  0.12537817657E+04  0.10100000352E+00 0.  1.
</event>
<event>
 5   0  0.2393250E-06  0.3096070E+04  0.7818609E-02  0.8216817E-01
       -3   -1    0    0    0  501  0.00000000000E+00  0.00000000000E+00  0.13478387627E+04  0.13478387665E+04  0.10100000352E+00 0.  1.
        3   -1    0    0  501    0  0.00000000000E+00  0.00000000000E+00 -0.17779663985E+04  0.17779664014E+04  0.10100000352E+00 0. -1.
    10030    2    1    2    0    0  0.00000000000E+00  0.00000000000E+00 -0.43012763582E+03  0.31258051679E+04  0.30960697932E+04 0.  0.
        2    1    3    3  502    0 -0.48305582737E+03  0.12565632958E+04  0.55655245893E+03  0.14567240261E+04  0.25500000920E-02 0.  1.
       -2    1    3    3    0  502  0.48305582737E+03 -0.12565632958E+04 -0.98668009475E+03  0.16690811418E+04  0.25500000920E-02 0. -1.
</event>
<event>
 5   0  0.7363513E-06  0.3125693E+04  0.7818609E-02  0.8208722E-01
       -2   -1    0    0    0  501  0.00000000000E+00  0.00000000000E+00  0.11739813175E+04  0.11739813176E+04  0.25500000920E-02 0. -1.
        2   -1    0    0  501    0  0.00000000000E+00  0.00000000000E+00 -0.20805184238E+04  0.20805184238E+04  0.25500000920E-02 0.  1.
    10030    2    1    2    0    0  0.00000000000E+00  0.00000000000E+00 -0.90653710622E+03  0.32544997413E+04  0.31256933697E+04 0.  0.
        4    1    3    3  502    0  0.49077666565E+03  0.29862657996E+03  0.10600520430E+04  0.12057161841E+04  0.12699999809E+01 0. -1.
       -4    1    3    3    0  502 -0.49077666565E+03 -0.29862657996E+03 -0.19665891492E+04  0.20487835572E+04  0.12699999809E+01 0.  1.
</event>
<event>
 5   0  0.2612331E-06  0.2887266E+04  0.7818609E-02  0.8276676E-01
       -1   -1    0    0    0  501  0.00000000000E+00  0.00000000000E+00  0.92906009988E+03  0.92906009989E+03  0.50400001928E-02 0.  1.
        1   -1    0    0  501    0  0.00000000000E+00  0.00000000000E+00 -0.22432090241E+04  0.22432090241E+04  0.50400001928E-02 0. -1.
    10030    2    1    2    0    0  0.00000000000E+00  0.00000000000E+00 -0.13141489242E+04  0.31722691240E+04  0.28872658347E+04 0.  0.
        4    1    3    3  502    0  0.72057424759E+03  0.78979847845E+03  0.40876839599E+03  0.11445969148E+04  0.12699999809E+01 0.  1.
       -4    1    3    3    0  502 -0.72057424759E+03 -0.78979847845E+03 -0.17229173202E+04  0.20276722092E+04  0.12699999809E+01 0. -1.
</event>
<event>
 5   0  0.2517725E-06  0.3067651E+04  0.7818609E-02  0.8224672E-01
        1   -1    0    0  501    0  0.00000000000E+00  0.00000000000E+00  0.18876747594E+04  0.18876747594E+04  0.50400001928E-02 0.  1.
       -1   -1    0    0    0  501  0.00000000000E+00  0.00000000000E+00 -0.12463064041E+04  0.12463064041E+04  0.50400001928E-02 0. -1.
    10030    2    1    2    0    0  0.00000000000E+00  0.00000000000E+00  0.64136835526E+03  0.31339811635E+04  0.30676513111E+04 0.  0.
        3    1    3    3  502    0  0.16513898521E+03 -0.26278297651E+03 -0.12138916856E+04  0.12529400671E+04  0.10100000352E+00 0. -1.
       -3    1    3    3    0  502 -0.16513898521E+03  0.26278297651E+03  0.18552600408E+04  0.18810410965E+04  0.10100000352E+00 0.  1.
</event>
<event>
 5   0  0.7414808E-06  0.3246464E+04  0.7818609E-02  0.8176653E-01
        2   -1    0    0  501    0  0.00000000000E+00  0.00000000000E+00  0.16583205000E+04  0.16583205000E+04  0.25500000920E-02 0.  1.
       -2   -1    0    0    0  501  0.00000000000E+00  0.00000000000E+00 -0.15888862087E+04  0.15888862087E+04  0.25500000920E-02 0. -1.
    10030    2    1    2    0    0  0.00000000000E+00  0.00000000000E+00  0.69434291321E+02  0.32472067087E+04  0.32464642749E+04 0.  0.
        2    1    3    3  502    0 -0.14484191860E+04 -0.38262549222E+03  0.65980979643E+03  0.16369695700E+04  0.25500000920E-02 0.  1.
       -2    1    3    3    0  502  0.14484191860E+04  0.38262549222E+03 -0.59037550511E+03  0.16102371387E+04  0.25500000920E-02 0. -1.
</event>
<event>
 5   0  0.2517725E-06  0.2948944E+04  0.7818609E-02  0.8258462E-01
       -1   -1    0    0    0  501  0.00000000000E+00  0.00000000000E+00  0.23121562802E+04  0.23121562802E+04  0.50400001928E-02 0. -1.
        1   -1    0    0  501    0  0.00000000000E+00  0.00000000000E+00 -0.94027691385E+03  0.94027691386E+03  0.50400001928E-02 0.  1.
    10030    2    1    2    0    0  0.00000000000E+00  0.00000000000E+00  0.13718793663E+04  0.32524331940E+04  0.29489436559E+04 0.  0.
        3    1    3    3  502    0  0.68022400232E+03 -0.69083524947E+03  0.19111727015E+04  0.21430210313E+04  0.10100000352E+00 0. -1.
       -3    1    3    3    0  502 -0.68022400232E+03  0.69083524947E+03 -0.53929333522E+03  0.11094121627E+04  0.10100000352E+00 0.  1.
</event>
<event>
 5   0  0.7363513E-06  0.2639072E+04  0.7818609E-02  0.8355049E-01
       -2   -1    0    0    0  501  0.00000000000E+00  0.00000000000E+00  0.10756451327E+04  0.10756451327E+04  0.25500000920E-02 0.  1.
        2   -1    0    0  501    0  0.00000000000E+00  0.00000000000E+00 -0.16187266926E+04  0.16187266926E+04  0.25500000920E-02 0. -1.
    10030    2    1    2    0    0  0.00000000000E+00  0.00000000000E+00 -0.54308155984E+03  0.26943718253E+04  0.26390721764E+04 0.  0.
        4    1    3    3  502    0  0.11244504815E+04 -0.89041311781E+02 -0.97061983971E+03  0.14880933192E+04  0.12699999809E+01 0. -1.
       -4    1    3    3    0  502 -0.11244504815E+04  0.89041311781E+02  0.42753827987E+03  0.12062785061E+04  0.12699999809E+01 0.  1.
</event>
<event>
 5   0  0.7071012E-06  0.3053386E+04  0.7818609E-02  0.8228648E-01
       -2   -1    0    0    0  501  0.00000000000E+00  0.00000000000E+00  0.18572323077E+04  0.18572323077E+04  0.25500000920E-02 0.  1.
        2   -1    0    0  501    0  0.00000000000E+00  0.00000000000E+00 -0.12549813230E+04  0.12549813230E+04  0.25500000920E-02 0. -1.
    10030    2    1    2    0    0  0.00000000000E+00  0.00000000000E+00  0.60225098468E+03  0.31122136307E+04  0.30533862242E+04 0.  0.
        1    1    3    3  502    0  0.11784398272E+04 -0.57824100022E+03 -0.49345045313E+03  0.14023467582E+04  0.50400001928E-02 0. -1.
       -1    1    3    3    0  502 -0.11784398272E+04  0.57824100022E+03  0.10957014378E+04  0.17098668724E+04  0.50400001928E-02 0.  1.
</event>
<event>
 5   0  0.7071012E-06  0.3153303E+04  0.7818609E-02  0.8201260E-01
        2   -1    0    0  501    0  0.00000000000E+00  0.00000000000E+00  0.11921290057E+04  0.11921290057E+04  0.25500000920E-02 0.  1.
       -2   -1    0    0    0  501  0.00000000000E+00  0.00000000000E+00 -0.20852021520E+04  0.20852021520E+04  0.25500000920E-02 0. -1.
    10030    2    1    2    0    0  0.00000000000E+00  0.00000000000E+00 -0.89307314635E+03  0.32773311577E+04  0.31533030099E+04 0.  0.
        1    1    3    3  502    0 -0.60719062137E+03  0.14235345609E+04 -0.13352848305E+03  0.15533708355E+04  0.50400001928E-02 0. -1.
       -1    1    3    3    0  502  0.60719062137E+03 -0.14235345609E+04 -0.75954466330E+03  0.17239603222E+04  0.50400001928E-02 0.  1.
</event>
<event>
 5   0  0.7094341E-06  0.3104520E+04  0.7818609E-02  0.8214499E-01
       -2   -1    0    0    0  501  0.00000000000E+00  0.00000000000E+00  0.20446300515E+04  0.20446300515E+04  0.25500000920E-02 0. -1.
        2   -1    0    0  501    0  0.00000000000E+00  0.00000000000E+00 -0.11784578968E+04  0.11784578968E+04  0.25500000920E-02 0.  1.
    10030    2    1    2    0    0  0.00000000000E+00  0.00000000000E+00  0.86617215478E+03  0.32230879483E+04  0.31045195636E+04 0.  0.
        3    1    3    3  502    0  0.89939825995E+03 -0.97940980449E+03 -0.39834294044E+03  0.13881058690E+04  0.10100000352E+00 0.  1.
       -3    1    3    3    0  502 -0.89939825995E+03  0.97940980449E+03  0.12645150952E+04  0.18349820793E+04  0.10100000352E+00 0. -1.
</event>
<event>
 5   0  0.7079223E-06  0.3096050E+04  0.7818609E-02  0.8216823E-01
        2   -1    0    0  501    0  0.00000000000E+00  0.00000000000E+00  0.25983523940E+04  0.25983523940E+04  0.25500000920E-02 0.  1.
       -2   -1    0    0    0  501  0.00000000000E+00  0.00000000000E+00 -0.92226949404E+03  0.92226949404E+03  0.25500000920E-02 0. -1.
    10030    2    1    2    0    0  0.00000000000E+00  0.00000000000E+00  0.16760829000E+04  0.35206218881E+04  0.30960498367E+04 0.  0.
        5    1    3    3  502    0 -0.51907554517E+03 -0.11408773887E+04  0.18710935168E+04  0.22521220385E+04  0.46999998093E+01 0. -1.
       -5    1    3    3    0  502  0.51907554517E+03  0.11408773887E+04 -0.19501061684E+03  0.12684998496E+04  0.46999998093E+01 0.  1.
</event>
<event>
 5   0  0.2517725E-06  0.3037055E+04  0.7818609E-02  0.8233228E-01
       -1   -1    0    0    0  501  0.00000000000E+00  0.00000000000E+00  0.13666907886E+04  0.13666907886E+04  0.50400001928E-02 0. -1.
        1   -1    0    0  501    0  0.00000000000E+00  0.00000000000E+00 -0.16872333886E+04  0.16872333886E+04  0.50400001928E-02 0.  1.
    10030    2    1    2    0    0  0.00000000000E+00  0.00000000000E+00 -0.32054259999E+03  0.30539241773E+04  0.30370553703E+04 0.  0.
        3    1    3    3  502    0 -0.89859076725E+03 -0.60320687346E+02  0.10691488710E+04  0.13979210532E+04  0.10100000352E+00 0. -1.
       -3    1    3    3    0  502  0.89859076725E+03  0.60320687346E+02 -0.13896914710E+04  0.16560031241E+04  0.10100000352E+00 0.  1.
</event>
<event>
 5   0  0.2612331E-06  0.3070107E+04  0.7818609E-02  0.8223990E-01
        1   -1    0    0  501    0  0.00000000000E+00  0.00000000000E+00  0.13162119113E+04  0.13162119113E+04  0.50400001928E-02 0.  1.
       -1   -1    0    0    0  501  0.00000000000E+00  0.00000000000E+00 -0.17902809536E+04  0.17902809537E+04  0.50400001928E-02 0. -1.
    10030    2    1    2    0    0  0.00000000000E+00  0.00000000000E+00 -0.47406904239E+03  0.31064928649E+04  0.30701069139E+04 0.  0.
        4    1    3    3  502    0  0.38746087055E+03 -0.12818769547E+04 -0.99629626545E+03  0.16691142305E+04  0.12699999809E+01 0. -1.
       -4    1    3    3    0  502 -0.38746087055E+03  0.12818769547E+04  0.52222722306E+03  0.14373786344E+04  0.12699999809E+01 0.  1.
</event>
<event>
 5   0  0.7363513E-06  0.2999012E+04  0.7818609E-02  0.8244013E-01
       -2   -1    0    0    0  501  0.00000000000E+00  0.00000000000E+00  0.14187367676E+04  0.14187367676E+04  0.25500000920E-02 0.  1.
        2   -1    0    0  501    0  0.00000000000E+00  0.00000000000E+00 -0.15848731540E+04  0.15848731540E+04  0.25500000920E-02 0. -1.
    10030    2    1    2    0    0  0.00000000000E+00  0.00000000000E+00 -0.16613638645E+03  0.30036099216E+04  0.29990117142E+04 0.  0.
        4    1    3    3  502    0 -0.32812786849E+03 -0.13277879733E+04  0.53255091908E+03  0.14677536900E+04  0.12699999809E+01 0.  1.
       -4    1    3    3    0  502  0.32812786849E+03  0.13277879733E+04 -0.69868730553E+03  0.15358562316E+04  0.12699999809E+01 0. -1.
</event>
<event>
 5   0  0.2517725E-06  0.3022217E+04  0.7818609E-02  0.8237415E-01
       -1   -1    0    0    0  501  0.00000000000E+00  0.00000000000E+00  0.18369625771E+04  0.18369625771E+04  0.50400001928E-02 0. -1.
        1   -1    0    0  501    0  0.00000000000E+00  0.00000000000E+00 -0.12430569323E+04  0.12430569323E+04  0.50400001928E-02 0.  1.
    10030    2    1    2    0    0  0.00000000000E+00  0.00000000000E+00  0.59390564476E+03  0.30800195094E+04  0.30222171106E+04 0.  0.
        3    1    3    3  502    0  0.10585397496E+03 -0.61692738216E+03  0.16986286359E+04  0.18102882952E+04  0.10100000352E+00 0. -1.
       -3    1    3    3    0  502 -0.10585397496E+03  0.61692738216E+03 -0.11047229912E+04  0.12697312142E+04  0.10100000352E+00 0.  1.
</event>
<event>
 5   0  0.2598987E-06  0.2804792E+04  0.7818609E-02  0.8301782E-01
        1   -1    0    0  501    0  0.00000000000E+00  0.00000000000E+00  0.13156783678E+04  0.13156783679E+04  0.50400001928E-02 0. -1.
       -1   -1    0    0    0  501  0.00000000000E+00  0.00000000000E+00 -0.14948292284E+04  0.14948292284E+04  0.50400001928E-02 0.  1.
    10030    2    1    2    0    0  0.00000000000E+00  0.00000000000E+00 -0.17915086053E+03  0.28105075962E+04  0.28047919562E+04 0.  0.
        2    1    3    3  502    0 -0.13833668772E+04 -0.97222858516E+02  0.11955607493E+03  0.13919230784E+04  0.25500000920E-02 0. -1.
       -2    1    3    3    0  502  0.13833668772E+04  0.97222858516E+02 -0.29870693546E+03  0.14185845179E+04  0.25500000920E-02 0.  1.
</event>
<event>
 5   0  0.2517725E-06  0.3126121E+04  0.7818609E-02  0.8208606E-01
       -1   -1    0    0    0  501  0.00000000000E+00  0.00000000000E+00  0.13428425622E+04  0.13428425622E+04  0.50400001928E-02 0.  1.
        1   -1    0    0  501    0  0.00000000000E+00  0.00000000000E+00 -0.18193925569E+04  0.18193925569E+04  0.50400001928E-02 0. -1.
    10030    2    1    2    0    0  0.00000000000E+00  0.00000000000E+00 -0.47654999470E+03  0.31622351192E+04  0.31261207673E+04 0.  0.
        3    1    3    3  502    0  0.13053955403E+04  0.22596520388E+02 -0.11076156920E+04  0.17121275218E+04  0.10100000352E+00 0. -1.
       -3    1    3    3    0  502 -0.13053955403E+04 -0.22596520388E+02  0.63106569732E+03  0.14501075974E+04  0.10100000352E+00 0.  1.
</event>
<event>
 5   0  0.2517725E-06  0.2974757E+04  0.7818609E-02  0.8250976E-01
       -1   -1    0    0    0  501  0.00000000000E+00  0.00000000000E+00  0.12981429905E+04  0.12981429906E+04  0.50400001928E-02 0.  1.
        1   -1    0    0  501    0  0.00000000000E+00  0.00000000000E+00 -0.17041990652E+04  0.17041990652E+04  0.50400001928E-02 0. -1.
    10030    2    1    2    0    0  0.00000000000E+00  0.00000000000E+00 -0.40605607461E+03  0.30023420557E+04  0.29747565083E+04 0.  0.
        3    1    3    3  502    0 -0.14391100237E+04  0.37218992354E+03 -0.15028386646E+03  0.14940375665E+04  0.10100000352E+00 0. -1.
       -3    1    3    3    0  502  0.14391100237E+04 -0.37218992354E+03 -0.25577220815E+03  0.15083044892E+04  0.10100000352E+00 0.  1.
</event>
<event>
 5   0  0.2674441E-06  0.3083351E+04  0.7818609E-02  0.8220322E-01
       -1   -1    0    0    0  501  0.00000000000E+00  0.00000000000E+00  0.10609866388E+04  0.10609866388E+04  0.50400001928E-02 0. -1.
        1   -1    0    0  501    0  0.00000000000E+00  0.00000000000E+00 -0.22401449733E+04  0.22401449733E+04  0.50400001928E-02 0.  1.
    10030    2    1    2    0    0  0.00000000000E+00  0.00000000000E+00 -0.11791583346E+04  0.33011316121E+04  0.30833513492E+04 0.  0.
        5    1    3    3  502    0 -0.16364576058E+03  0.15002946564E+04 -0.92657770127E+03  0.17709410824E+04  0.46999998093E+01 0.  1.
       -5    1    3    3    0  502  0.16364576058E+03 -0.15002946564E+04 -0.25258063330E+03  0.15301905297E+04  0.46999998093E+01 0. -1.
</event>
<event>
 5   0  0.2598987E-06  0.2056402E+04  0.7818609E-02  0.8580696E-01
       -1   -1    0    0    0  501  0.00000000000E+00  0.00000000000E+00  0.89064877503E+03  0.89064877505E+03  0.50400001928E-02 0. -1.
        1   -1    0    0  501    0  0.00000000000E+00  0.00000000000E+00 -0.11869969594E+04  0.11869969594E+04  0.50400001928E-02 0.  1.
    10030    2    1    2    0    0  0.00000000000E+00  0.00000000000E+00 -0.29634818436E+03  0.20776457344E+04  0.20564020890E+04 0.  0.
        2    1    3    3  502    0 -0.58380208774E+03  0.83116038037E+03 -0.30965301308E+03  0.10618556607E+04  0.25500000920E-02 0.  1.
       -2    1    3    3    0  502  0.58380208774E+03 -0.83116038037E+03  0.13304828723E+02  0.10157900738E+04  0.25500000920E-02 0. -1.
</event>
<event>
 5   0  0.2393250E-06  0.3118506E+04  0.7818609E-02  0.8210677E-01
       -3   -1    0    0    0  501  0.00000000000E+00  0.00000000000E+00  0.17754446550E+04  0.17754446579E+04  0.10100000352E+00 0. -1.
        3   -1    0    0  501    0  0.00000000000E+00  0.00000000000E+00 -0.13693864243E+04  0.13693864280E+04  0.10100000352E+00 0.  1.
    10030    2    1    2    0    0  0.00000000000E+00  0.00000000000E+00  0.40605823073E+03  0.31448310859E+04  0.31185059359E+04 0.  0.
        5    1    3    3  502    0 -0.13359341835E+03 -0.60250854415E+03 -0.12409747267E+04  0.13859668501E+04  0.46999998093E+01 0.  1.
       -5    1    3    3    0  502  0.13359341835E+03  0.60250854415E+03  0.16470329575E+04  0.17588642358E+04  0.46999998093E+01 0. -1.
</event>
<event>
 5   0  0.2598987E-06  0.3005699E+04  0.7818609E-02  0.8242105E-01
       -1   -1    0    0    0  501  0.00000000000E+00  0.00000000000E+00  0.22855019946E+04  0.22855019946E+04  0.50400001928E-02 0. -1.
        1   -1    0    0  501    0  0.00000000000E+00  0.00000000000E+00 -0.98821005945E+03  0.98821005946E+03  0.50400001928E-02 0.  1.
    10030    2    1    2    0    0  0.00000000000E+00  0.00000000000E+00  0.12972919351E+04  0.32737120541E+04  0.30056986289E+04 0.  0.
        2    1    3    3  502    0 -0.26336030618E+03  0.56902173153E+03  0.21362330215E+04  0.22263503552E+04  0.25500000920E-02 0. -1.
       -2    1    3    3    0  502  0.26336030618E+03 -0.56902173153E+03 -0.83894108638E+03  0.10473616989E+04  0.25500000920E-02 0.  1.
</event>
<event>
 5   0  0.7079223E-06  0.3169667E+04  0.7818609E-02  0.8196874E-01
       -2   -1    0    0    0  501  0.00000000000E+00  0.00000000000E+00  0.17415030443E+04  0.17415030443E+04  0.25500000920E-02 0.  1.
        2   -1    0    0  501    0  0.00000000000E+00  0.00000000000E+00 -0.14422581604E+04  0.14422581604E+04  0.25500000920E-02 0. -1.
    10030    2    1    2    0    0  0.00000000000E+00  0.00000000000E+00  0.29924488386E+03  0.31837612047E+04  0.31696668450E+04 0.  0.
        5    1    3    3  502    0 -0.63370359101E+02  0.11408928734E+04 -0.95345138720E+03  0.14882015955E+04  0.46999998093E+01 0. -1.
       -5    1    3    3    0  502  0.63370359101E+02 -0.11408928734E+04  0.12526962711E+04  0.16955596092E+04  0.46999998093E+01 0.  1.
</event>
<event>
 5   0  0.2517725E-06  0.3056636E+04  0.7818609E-02  0.8227740E-01
       -1   -1    0    0    0  501  0.00000000000E+00  0.00000000000E+00  0.14573991586E+04  0.14573991586E+04  0.50400001928E-02 0.  1.
        1   -1    0    0  501    0  0.00000000000E+00  0.00000000000E+00 -0.16026882767E+04  0.16026882767E+04  0.50400001928E-02 0. -1.
    10030    2    1    2    0    0  0.00000000000E+00  0.00000000000E+00 -0.14528911806E+03  0.30600874353E+04  0.30566364167E+04 0.  0.
        3    1    3    3  502    0 -0.76700579497E+03  0.11369930341E+04  0.60243529841E+03  0.14979917717E+04  0.10100000352E+00 0.  1.
       -3    1    3    3    0  502  0.76700579497E+03 -0.11369930341E+04 -0.74772441647E+03  0.15620956636E+04  0.10100000352E+00 0. -1.
</event>
<event>
 5   0  0.7079223E-06  0.3115316E+04  0.7818609E-02  0.8211547E-01
        2   -1    0    0  501    0  0.00000000000E+00  0.00000000000E+00  0.26508923593E+04  0.26508923593E+04  0.25500000920E-02 0. -1.
       -2   -1    0    0    0  501  0.00000000000E+00  0.00000000000E+00 -0.91527624401E+03  0.91527624402E+03  0.25500000920E-02 0.  1.
    10030    2    1    2    0    0  0.00000000000E+00  0.00000000000E+00  0.17356161153E+04  0.35661686033E+04  0.31153162292E+04 0.  0.
        5    1    3    3  502    0  0.94457435907E+03 -0.10782665978E+04  0.17018791777E+03  0.14435600414E+04  0.46999998093E+01 0.  1.
       -5    1    3    3    0  502 -0.94457435907E+03  0.10782665978E+04  0.15654281975E+04  0.21226085620E+04  0.46999998093E+01 0. -1.
</event>
<event>
 5   0  0.2517725E-06  0.2211852E+04  0.7818609E-02  0.8513511E-01
       -1   -1    0    0    0  501  0.00000000000E+00  0.00000000000E+00  0.86692557291E+03  0.86692557293E+03  0.50400001928E-02 0. -1.
        1   -1    0    0  501    0  0.00000000000E+00  0.00000000000E+00 -0.14108156772E+04  0.14108156772E+04  0.50400001928E-02 0.  1.
    10030    2    1    2    0    0  0.00000000000E+00  0.00000000000E+00 -0.54389010432E+03  0.22777412502E+04  0.22118518841E+04 0.  0.
        3    1    3    3  502    0  0.82793749300E+03 -0.20747756870E+02 -0.10266907922E+04  0.13190924739E+04  0.10100000352E+00 0.  1.
       -3    1    3    3    0  502 -0.82793749300E+03  0.20747756870E+02  0.48280068791E+03  0.95864877623E+03  0.10100000352E+00 0. -1.
</event>
<event>
 5   0  0.7363513E-06  0.3093630E+04  0.7818609E-02  0.8217488E-01
        2   -1    0    0  501    0  0.00000000000E+00  0.00000000000E+00  0.24945896606E+04  0.24945896606E+04  0.25500000920E-02 0. -1.
       -2   -1    0    0    0  501  0.00000000000E+00  0.00000000000E+00 -0.95913014374E+03  0.95913014375E+03  0.25500000920E-02 0.  1.
    10030    2    1    2    0    0  0.00000000000E+00  0.00000000000E+00  0.15354595169E+04  0.34537198044E+04  0.30936296739E+04 0.  0.
        4    1    3    3  502    0 -0.40585130119E+03 -0.81038521827E+03 -0.63164432578E+03  0.11047242406E+04  0.12699999809E+01 0.  1.
       -4    1    3    3    0  502  0.40585130119E+03  0.81038521827E+03  0.21671038427E+04  0.23489955637E+04  0.12699999809E+01 0. -1.
</event>
<event>
 5   0  0.2612331E-06  0.3053150E+04  0.7818609E-02  0.8228714E-01
        1   -1    0    0  501    0  0.00000000000E+00  0.00000000000E+00  0.22374786076E+04  0.22374786076E+04  0.50400001928E-02 0. -1.
       -1   -1    0    0    0  501  0.00000000000E+00  0.00000000000E+00 -0.10415436861E+04  0.10415436861E+04  0.50400001928E-02 0.  1.
    10030    2    1    2    0    0  0.00000000000E+00  0.00000000000E+00  0.11959349215E+04  0.32790222937E+04  0.30531503183E+04 0.  0.
        4    1    3    3  502    0 -0.12433762420E+04  0.44740496108E+02 -0.35203075713E+03  0.12930249255E+04  0.12699999809E+01 0. -1.
       -4    1    3    3    0  502  0.12433762420E+04 -0.44740496108E+02  0.15479656786E+04  0.19859973681E+04  0.12699999809E+01 0.  1.
</event>
<event>
 5   0  0.7363513E-06  0.3141666E+04  0.7818609E-02  0.8204395E-01
       -2   -1    0    0    0  501  0.00000000000E+00  0.00000000000E+00  0.12354366773E+04  0.12354366773E+04  0.25500000920E-02 0. -1.
        2   -1    0    0  501    0  0.00000000000E+00  0.00000000000E+00 -0.19972824795E+04  0.19972824795E+04  0.25500000920E-02 0.  1.
    10030    2    1    2    0    0  0.00000000000E+00  0.00000000000E+00 -0.76184580216E+03  0.32327191568E+04  0.31416658194E+04 0.  0.
        4    1    3    3  502    0  0.61836435094E+03 -0.14432065753E+04 -0.43021457710E+03  0.16279760086E+04  0.12699999809E+01 0. -1.
       -4    1    3    3    0  502 -0.61836435094E+03  0.14432065753E+04 -0.33163122506E+03  0.16047431482E+04  0.12699999809E+01 0.  1.
</event>
<event>
 5   0  0.7414808E-06  0.3026896E+04  0.7818609E-02  0.8236092E-01
       -2   -1    0    0    0  501  0.00000000000E+00  0.00000000000E+00  0.98553119761E+03  0.98553119761E+03  0.25500000920E-02 0.  1.
        2   -1    0    0  501    0  0.00000000000E+00  0.00000000000E+00 -0.23241530530E+04  0.23241530530E+04  0.25500000920E-02 0. -1.
    10030    2    1    2    0    0  0.00000000000E+00  0.00000000000E+00 -0.13386218554E+04  0.33096842506E+04  0.30268963258E+04 0.  0.
        2    1    3    3  502    0 -0.97932213885E+03 -0.91766907599E+03 -0.14341904354E+04  0.19642022782E+04  0.25500000920E-02 0. -1.
       -2    1    3    3    0  502  0.97932213885E+03  0.91766907599E+03  0.95568579978E+02  0.13454819724E+04  0.25500000920E-02 0.  1.
</event>
<event>
 5   0  0.2624011E-06  0.2961454E+04  0.7818609E-02  0.8254824E-01
        1   -1    0    0  501    0  0.00000000000E+00  0.00000000000E+00  0.15096165946E+04  0.15096165946E+04  0.50400001928E-02 0. -1.
       -1   -1    0    0    0  501  0.00000000000E+00  0.00000000000E+00 -0.14523898796E+04  0.14523898796E+04  0.50400001928E-02 0.  1.
    10030    2    1    2    0    0  0.00000000000E+00  0.00000000000E+00  0.57226714939E+02  0.29620064742E+04  0.29614536053E+04 0.  0.
        1    1    3    3  502    0  0.39405986447E+03  0.81059342288E+03 -0.11464280781E+04  0.14583011391E+04  0.50400001928E-02 0.  1.
       -1    1    3    3    0  502 -0.39405986447E+03 -0.81059342288E+03  0.12036547930E+04  0.15037053351E+04  0.50400001928E-02 0. -1.
</event>
<event>
 5   0  0.2393250E-06  0.3060869E+04  0.7818609E-02  0.8226560E-01
        3   -1    0    0  501    0  0.00000000000E+00  0.00000000000E+00  0.11662554627E+04  0.11662554670E+04  0.10100000352E+00 0. -1.
       -3   -1    0    0    0  501  0.00000000000E+00  0.00000000000E+00 -0.20083334248E+04  0.20083334273E+04  0.10100000352E+00 0.  1.
    10030    2    1    2    0    0  0.00000000000E+00  0.00000000000E+00 -0.84207796212E+03  0.31745888943E+04  0.30608690520E+04 0.  0.
        4    1    3    3  502    0 -0.71726627060E+03 -0.17892436271E+03  0.96880125745E+03  0.12186313306E+04  0.12699999809E+01 0. -1.
       -4    1    3    3    0  502  0.71726627060E+03  0.17892436271E+03 -0.18108792196E+04  0.19559575638E+04  0.12699999809E+01 0.  1.
</event>
<event>
 5   0  0.2624011E-06  0.3128592E+04  0.7818609E-02  0.8207935E-01
       -1   -1    0    0    0  501  0.00000000000E+00  0.00000000000E+00  0.19786302326E+04  0.19786302326E+04  0.50400001928E-02 0. -1.
        1   -1    0    0  501    0  0.00000000000E+00  0.00000000000E+00 -0.12367249286E+04  0.12367249286E+04  0.50400001928E-02 0.  1.
    10030    2    1    2    0    0  0.00000000000E+00  0.00000000000E+00  0.74190530396E+03  0.32153551612E+04  0.31285915893E+04 0.  0.
        1    1    3    3  502    0 -0.13608316775E+04  0.48224041719E+03 -0.24791184643E+03  0.14648818922E+04  0.50400001928E-02 0. -1.
       -1    1    3    3    0  502  0.13608316775E+04 -0.48224041719E+03  0.98981715038E+03  0.17504732690E+04  0.50400001928E-02 0.  1.
</event>
<event>
 5   0  0.7079223E-06  0.3063359E+04  0.7818609E-02  0.8225866E-01
       -2   -1    0    0    0  501  0.00000000000E+00  0.00000000000E+00  0.17484475308E+04  0.17484475308E+04  0.25500000920E-02 0. -1.
        2   -1    0    0  501    0  0.00000000000E+00  0.00000000000E+00 -0.13417856364E+04  0.13417856364E+04  0.25500000920E-02 0.  1.
    10030    2    1    2    0    0  0.00000000000E+00  0.00000000000E+00  0.40666189441E+03  0.30902331673E+04  0.30633587990E+04 0.  0.
        5    1    3    3  502    0  0.14913555021E+04 -0.42610697471E+02  0.55287152050E+03  0.15911146763E+04  0.46999998093E+01 0.  1.
       -5    1    3    3    0  502 -0.14913555021E+04  0.42610697471E+02 -0.14620962609E+03  0.14991184909E+04  0.46999998093E+01 0. -1.
</event>
<event>
 5   0  0.7094341E-06  0.3093204E+04  0.7818609E-02  0.8217605E-01
       -2   -1    0    0    0  501  0.00000000000E+00  0.00000000000E+00  0.18390583759E+04  0.18390583759E+04  0.25500000920E-02 0.  1.
        2   -1    0    0  501    0  0.00000000000E+00  0.00000000000E+00 -0.13006536937E+04  0.13006536937E+04  0.25500000920E-02 0. -1.
    10030    2    1    2    0    0  0.00000000000E+00  0.00000000000E+00  0.53840468217E+03  0.31397120696E+04  0.30932042089E+04 0.  0.
        3    1    3    3  502    0  0.41433099530E+03  0.11502775736E+04  0.12306340772E+04  0.17347244485E+04  0.10100000352E+00 0.  1.
       -3    1    3    3    0  502 -0.41433099530E+03 -0.11502775736E+04 -0.69222939501E+03  0.14049876211E+04  0.10100000352E+00 0. -1.
</event>
<event>
 5   0  0.7094341E-06  0.2967517E+04  0.7818609E-02  0.8253068E-01
       -2   -1    0    0    0  501  0.00000000000E+00  0.00000000000E+00  0.14784940673E+04  0.14784940673E+04  0.25500000920E-02 0.  1.
        2   -1    0    0  501    0  0.00000000000E+00  0.00000000000E+00 -0.14890421298E+04  0.14890421298E+04  0.25500000920E-02 0. -1.
    10030    2    1    2    0    0  0.00000000000E+00  0.00000000000E+00 -0.10548062461E+02  0.29675361971E+04  0.29675174506E+04 0.  0.
        3    1    3    3  502    0 -0.82345274009E+03 -0.12333805700E+04  0.42032703697E+02  0.14835999475E+04  0.10100000352E+00 0. -1.
       -3    1    3    3    0  502  0.82345274009E+03  0.12333805700E+04 -0.52580766158E+02  0.14839362496E+04  0.10100000352E+00 0.  1.
</event>
<event>
 5   0  0.2598987E-06  0.3207240E+04  0.7818609E-02  0.8186908E-01
       -1   -1    0    0    0  501  0.00000000000E+00  0.00000000000E+00  0.12621941322E+04  0.12621941322E+04  0.50400001928E-02 0. -1.
        1   -1    0    0  501    0  0.00000000000E+00  0.00000000000E+00 -0.20374019168E+04  0.20374019168E+04  0.50400001928E-02 0.  1.
    10030    2    1    2    0    0  0.00000000000E+00  0.00000000000E+00 -0.77520778454E+03  0.32995960490E+04  0.32072397755E+04 0.  0.
        2    1    3    3  502    0 -0.13183873177E+04  0.53274054069E+03  0.37512144175E+03  0.14706031753E+04  0.25500000920E-02 0.  1.
       -2    1    3    3    0  502  0.13183873177E+04 -0.53274054069E+03 -0.11503292263E+04  0.18289928737E+04  0.25500000920E-02 0. -1.
</event>
<event>
 5   0  0.7363513E-06  0.3100316E+04  0.7818609E-02  0.8215651E-01
        2   -1    0    0  501    0  0.00000000000E+00  0.00000000000E+00  0.18344685859E+04  0.18344685859E+04  0.25500000920E-02 0. -1.
       -2   -1    0    0    0  501  0.00000000000E+00  0.00000000000E+00 -0.13099104853E+04  0.13099104853E+04  0.25500000920E-02 0.  1.
    10030    2    1    2    0    0  0.00000000000E+00  0.00000000000E+00  0.52455810062E+03  0.31443790712E+04  0.31003158778E+04 0.  0.
        4    1    3    3  502    0 -0.60782137063E+03  0.12058610909E+04 -0.50974934873E+03  0.14433966193E+04  0.12699999809E+01 0.  1.
       -4    1    3    3    0  502  0.60782137063E+03 -0.12058610909E+04  0.10343074494E+04  0.17009824519E+04  0.12699999809E+01 0. -1.
</event>
<event>
 5   0  0.2624011E-06  0.3031637E+04  0.7818609E-02  0.8234754E-01
        1   -1    0    0  501    0  0.00000000000E+00  0.00000000000E+00  0.21573761983E+04  0.21573761983E+04  0.50400001928E-02 0. -1.
       -1   -1    0    0    0  501  0.00000000000E+00  0.00000000000E+00 -0.10650465220E+04  0.10650465220E+04  0.50400001928E-02 0.  1.
    10030    2    1    2    0    0  0.00000000000E+00  0.00000000000E+00  0.10923296763E+04  0.32224227203E+04  0.30316371925E+04 0.  0.
        1    1    3    3  502    0 -0.25474517178E+03 -0.26885704486E+03  0.21085392365E+04  0.21408215538E+04  0.50400001928E-02 0. -1.
       -1    1    3    3    0  502  0.25474517178E+03  0.26885704486E+03 -0.10162095603E+04  0.10816011666E+04  0.50400001928E-02 0.  1.
</event>
<event>
 5   0  0.7094341E-06  0.3084497E+04  0.7818609E-02  0.8220005E-01
        2   -1    0    0  501    0  0.00000000000E+00  0.00000000000E+00  0.12463628964E+04  0.12463628964E+04  0.25500000920E-02 0.  1.
       -2   -1    0    0    0  501  0.00000000000E+00  0.00000000000E+00 -0.19083773558E+04  0.19083773558E+04  0.25500000920E-02 0. -1.
    10030    2    1    2    0    0  0.00000000000E+00  0.00000000000E+00 -0.66201445939E+03  0.31547402522E+04  0.30844971899E+04 0.  0.
        3    1    3    3  502    0 -0.22360401577E+03  0.13594626408E+03  0.12234900714E+04  0.12511627023E+04  0.10100000352E+00 0.  1.
       -3    1    3    3    0  502  0.22360401577E+03 -0.13594626408E+03 -0.18855045308E+04  0.19035775499E+04  0.10100000352E+00 0. -1.
</event>
<event>
 5   0  0.2624011E-06  0.3033007E+04  0.7818609E-02  0.8234368E-01
        1   -1    0    0  501    0  0.00000000000E+00  0.00000000000E+00  0.20691233249E+04  0.20691233249E+04  0.50400001928E-02 0.  1.
       -1   -1    0    0    0  501  0.00000000000E+00  0.00000000000E+00 -0.11114767636E+04  0.11114767636E+04  0.50400001928E-02 0. -1.
    10030    2    1    2    0    0  0.00000000000E+00  0.00000000000E+00  0.95764656128E+03  0.31806000885E+04  0.30330067568E+04 0.  0.
        1    1    3    3  502    0 -0.89463745595E+03  0.88761236291E+03  0.13634062774E+04  0.18566390499E+04  0.50400001928E-02 0.  1.
       -1    1    3    3    0  502  0.89463745595E+03 -0.88761236291E+03 -0.40575971615E+03  0.13239610386E+04  0.50400001928E-02 0. -1.
</event>
<event>
 5   0  0.7079223E-06  0.3183638E+04  0.7818609E-02  0.8193152E-01
       -2   -1    0    0    0  501  0.00000000000E+00  0.00000000000E+00  0.10801894921E+04  0.10801894921E+04  0.25500000920E-02 0.  1.
        2   -1    0    0  501    0  0.00000000000E+00  0.00000000000E+00 -0.23457813500E+04  0.23457813500E+04  0.25500000920E-02 0. -1.
    10030    2    1    2    0    0  0.00000000000E+00  0.00000000000E+00 -0.12655918579E+04  0.34259708420E+04  0.31836383996E+04 0.  0.
        5    1    3    3  502    0 -0.14661370709E+04  0.53867810266E+03 -0.30262882662E+03  0.15910180092E+04  0.46999998093E+01 0.  1.
       -5    1    3    3    0  502  0.14661370709E+04 -0.53867810266E+03 -0.96296303127E+03  0.18349528328E+04  0.46999998093E+01 0. -1.
</event>
<event>
 5   0  0.2393250E-06  0.3083454E+04  0.7818609E-02  0.8220294E-01
       -3   -1    0    0    0  501  0.00000000000E+00  0.00000000000E+00  0.15714191805E+04  0.15714191837E+04  0.10100000352E+00 0.  1.
        3   -1    0    0  501    0  0.00000000000E+00  0.00000000000E+00 -0.15125958156E+04  0.15125958190E+04  0.10100000352E+00 0. -1.
    10030    2    1    2    0    0  0.00000000000E+00  0.00000000000E+00  0.58823364865E+02  0.30840150027E+04  0.30834539641E+04 0.  0.
        1    1    3    3  502    0 -0.14967333196E+04 -0.36966177792E+03  0.37263413330E+02  0.15421572624E+04  0.50400001928E-02 0.  1.
       -1    1    3    3    0  502  0.14967333196E+04  0.36966177792E+03  0.21559951535E+02  0.15418577403E+04  0.50400001928E-02 0. -1.
</event>
<event>
 5   0  0.2612331E-06  0.2777871E+04  0.7818609E-02  0.8310172E-01
       -1   -1    0    0    0  501  0.00000000000E+00  0.00000000000E+00  0.14797725201E+04  0.14797725201E+04  0.50400001928E-02 0. -1.
        1   -1    0    0  501    0  0.00000000000E+00  0.00000000000E+00 -0.13036744416E+04  0.13036744416E+04  0.50400001928E-02 0.  1.
    10030    2    1    2    0    0  0.00000000000E+00  0.00000000000E+00  0.17609807850E+03  0.27834469616E+04  0.27778708492E+04 0.  0.
        4    1    3    3  502    0  0.65033992345E+03  0.96136440309E+03  0.85245420385E+03  0.14400844816E+04  0.12699999809E+01 0. -1.
       -4    1    3    3    0  502 -0.65033992345E+03 -0.96136440309E+03 -0.67635612535E+03  0.13433624800E+04  0.12699999809E+01 0.  1.
</event>
<event>
 5   0  0.7414808E-06  0.1974318E+04  0.7818609E-02  0.8618723E-01
        2   -1    0    0  501    0  0.00000000000E+00  0.00000000000E+00  0.12966444547E+04  0.12966444547E+04  0.25500000920E-02 0.  1.
       -2   -1    0    0    0  501  0.00000000000E+00  0.00000000000E+00 -0.75154225509E+03  0.75154225509E+03  0.25500000920E-02 0. -1.
    10030    2    1    2    0    0  0.00000000000E+00  0.00000000000E+00  0.54510219962E+03  0.20481867098E+04  0.19743182090E+04 0.  0.
        2    1    3    3  502    0 -0.18896066346E+03 -0.94823317252E+03  0.47907432501E+03  0.10790572231E+04  0.25500000920E-02 0.  1.
       -2    1    3    3    0  502  0.18896066346E+03  0.94823317252E+03  0.66027874612E+02  0.96912948672E+03  0.25500000920E-02 0. -1.
</event>
<event>
 5   0  0.7094341E-06  0.2927743E+04  0.7818609E-02  0.8264671E-01
       -2   -1    0    0    0  501  0.00000000000E+00  0.00000000000E+00  0.12384279108E+04  0.12384279108E+04  0.25500000920E-02 0. -1.
        2   -1    0    0  501    0  0.00000000000E+00  0.00000000000E+00 -0.17303546617E+04  0.17303546617E+04  0.25500000920E-02 0.  1.
    10030    2    1    2    0    0  0.00000000000E+00  0.00000000000E+00 -0.49192675094E+03  0.29687825725E+04  0.29277428225E+04 0.  0.
        3    1    3    3  502    0 -0.86615596554E+03  0.59404044333E+03  0.78804085195E+03  0.13130569673E+04  0.10100000352E+00 0. -1.
       -3    1    3    3    0  502  0.86615596554E+03 -0.59404044333E+03 -0.12799676029E+04  0.16557256052E+04  0.10100000352E+00 0.  1.
</event>
<event>
 5   0  0.2674441E-06  0.3110533E+04  0.7818609E-02  0.8212853E-01
        1   -1    0    0  501    0  0.00000000000E+00  0.00000000000E+00  0.16747066478E+04  0.16747066478E+04  0.50400001928E-02 0. -1.
       -1   -1    0    0    0  501  0.00000000000E+00  0.00000000000E+00 -0.14443451228E+04  0.14443451228E+04  0.50400001928E-02 0.  1.
    10030    2    1    2    0    0  0.00000000000E+00  0.00000000000E+00  0.23036152498E+03  0.31190517706E+04  0.31105333169E+04 0.  0.
        5    1    3    3  502    0 -0.11194204487E+04  0.45050910643E+03  0.10990771869E+04  0.16321928038E+04  0.46999998093E+01 0. -1.
       -5    1    3    3    0  502  0.11194204487E+04 -0.45050910643E+03 -0.86871566194E+03  0.14868589668E+04  0.46999998093E+01 0.  1.
</event>
<event>
 5   0  0.7079223E-06  0.3111140E+04  0.7818609E-02  0.8212687E-01
        2   -1    0    0  501    0  0.00000000000E+00  0.00000000000E+00  0.33664610264E+04  0.33664610264E+04  0.25500000920E-02 0.  1.
       -2   -1    0    0    0  501  0.00000000000E+00  0.00000000000E+00 -0.71879585098E+03  0.71879585098E+03  0.25500000920E-02 0. -1.
    10030    2    1    2    0    0  0.00000000000E+00  0.00000000000E+00  0.26476651754E+04  0.40852568774E+04  0.31111401243E+04 0.  0.
        5    1    3    3  502    0 -0.43747636409E+03 -0.13817182106E+04  0.20657611405E+04  0.25234741850E+04  0.46999998093E+01 0.  1.
       -5    1    3    3    0  502  0.43747636409E+03  0.13817182106E+04  0.58190403493E+03  0.15617826924E+04  0.46999998093E+01 0. -1.
</event>
<event>
 5   0  0.7071012E-06  0.3087411E+04  0.7818609E-02  0.8219201E-01
       -2   -1    0    0    0  501  0.00000000000E+00  0.00000000000E+00  0.12067838966E+04  0.12067838966E+04  0.25500000920E-02 0. -1.
        2   -1    0    0  501    0  0.00000000000E+00  0.00000000000E+00 -0.19746917516E+04  0.19746917516E+04  0.25500000920E-02 0.  1.
    10030    2    1    2    0    0  0.00000000000E+00  0.00000000000E+00 -0.76790785503E+03  0.31814756482E+04  0.30874106993E+04 0.  0.
        1    1    3    3  502    0 -0.10927769722E+04 -0.98547359399E+03  0.96852082511E+02  0.14746864213E+04  0.50400001928E-02 0.  1.
       -1    1    3    3    0  502  0.10927769722E+04  0.98547359399E+03 -0.86475993754E+03  0.17067892269E+04  0.50400001928E-02 0. -1.
</event>
<event>
 5   0  0.7414808E-06  0.3164704E+04  0.7818609E-02  0.8198201E-01
        2   -1    0    0  501    0  0.00000000000E+00  0.00000000000E+00  0.19134178171E+04  0.19134178171E+04  0.25500000920E-02 0. -1.
       -2   -1    0    0    0  501  0.00000000000E+00  0.00000000000E+00 -0.13085680971E+04  0.13085680971E+04  0.25500000920E-02 0.  1.
    10030    2    1    2    0    0  0.00000000000E+00  0.00000000000E+00  0.60484972005E+03  0.32219859142E+04  0.31647037851E+04 0.  0.
        2    1    3    3  502    0 -0.11743329821E+04  0.10412666018E+04  0.97426315783E+02  0.15725094518E+04  0.25500000920E-02 0.  1.
       -2    1    3    3    0  502  0.11743329821E+04 -0.10412666018E+04  0.50742340427E+03  0.16494764624E+04  0.25500000920E-02 0. -1.
</event>
<event>
 5   0  0.2598987E-06  0.3120562E+04  0.7818609E-02  0.8210117E-01
        1   -1    0    0  501    0  0.00000000000E+00  0.00000000000E+00  0.78090349977E+03  0.78090349978E+03  0.50400001928E-02 0. -1.
       -1   -1    0    0    0  501  0.00000000000E+00  0.00000000000E+00 -0.31175126226E+04  0.31175126226E+04  0.50400001928E-02 0.  1.
    10030    2    1    2    0    0  0.00000000000E+00  0.00000000000E+00 -0.23366091228E+04  0.38984161224E+04  0.31205618197E+04 0.  0.
        2    1    3    3  502    0  0.11037787420E+04 -0.10465745530E+04 -0.73405031920E+03  0.16889273749E+04  0.25500000920E-02 0. -1.
       -2    1    3    3    0  502 -0.11037787420E+04  0.10465745530E+04 -0.16025588036E+04  0.22094887475E+04  0.25500000920E-02 0.  1.
</event>
<event>
 5   0  0.7363513E-06  0.3148241E+04  0.7818609E-02  0.8202622E-01
       -2   -1    0    0    0  501  0.00000000000E+00  0.00000000000E+00  0.12440364778E+04  0.12440364779E+04  0.25500000920E-02 0. -1.
        2   -1    0    0  501    0  0.00000000000E+00  0.00000000000E+00 -0.19917867026E+04  0.19917867026E+04  0.25500000920E-02 0.  1.
    10030    2    1    2    0    0  0.00000000000E+00  0.00000000000E+00 -0.74775022479E+03  0.32358231805E+04  0.31482409782E+04 0.  0.
        4    1    3    3  502    0 -0.10352243857E+04 -0.10497203591E+04 -0.94080984502E+03  0.17489217073E+04  0.12699999809E+01 0.  1.
       -4    1    3    3    0  502  0.10352243857E+04  0.10497203591E+04  0.19305962023E+03  0.14869014732E+04  0.12699999809E+01 0. -1.
</event>
<event>
 5   0  0.7079223E-06  0.2330483E+04  0.7818609E-02  0.8465998E-01
        2   -1    0    0  501    0  0.00000000000E+00  0.00000000000E+00  0.91497936020E+03  0.91497936020E+03  0.25500000920E-02 0. -1.
       -2   -1    0    0    0  501  0.00000000000E+00  0.00000000000E+00 -0.14839546188E+04  0.14839546188E+04  0.25500000920E-02 0.  1.
    10030    2    1    2    0    0  0.00000000000E+00  0.00000000000E+00 -0.56897525860E+03  0.23989339790E+04  0.23304830810E+04 0.  0.
        5    1    3    3  502    0  0.84908883539E+03 -0.45649776202E+03  0.38927836154E+03  0.10396642679E+04  0.46999998093E+01 0. -1.
       -5    1    3    3    0  502 -0.84908883539E+03  0.45649776202E+03 -0.95825362014E+03  0.13592697111E+04  0.46999998093E+01 0.  1.
</event>
<event>
 5   0  0.7363513E-06  0.3081271E+04  0.7818609E-02  0.8220897E-01
       -2   -1    0    0    0  501  0.00000000000E+00  0.00000000000E+00  0.10707604691E+04  0.10707604691E+04  0.25500000920E-02 0. -1.
        2   -1    0    0  501    0  0.00000000000E+00  0.00000000000E+00 -0.22167032525E+04  0.22167032525E+04  0.25500000920E-02 0.  1.
    10030    2    1    2    0    0  0.00000000000E+00  0.00000000000E+00 -0.11459427834E+04  0.32874637216E+04  0.30812713055E+04 0.  0.
        4    1    3    3  502    0  0.21159149395E+03  0.15256379388E+04 -0.53578932510E+03  0.16307709510E+04  0.12699999809E+01 0. -1.
       -4    1    3    3    0  502 -0.21159149395E+03 -0.15256379388E+04 -0.61015345826E+03  0.16566927706E+04  0.12699999809E+01 0.  1.
</event>
<event>
 5   0  0.7414808E-06  0.3105621E+04  0.7818609E-02  0.8214197E-01
        2   -1    0    0  501    0  0.00000000000E+00  0.00000000000E+00  0.16938221178E+04  0.16938221178E+04  0.25500000920E-02 0. -1.
       -2   -1    0    0    0  501  0.00000000000E+00  0.00000000000E+00 -0.14235382515E+04  0.14235382515E+04  0.25500000920E-02 0.  1.
    10030    2    1    2    0    0  0.00000000000E+00  0.00000000000E+00  0.27028386625E+03  0.31173603693E+04  0.31056210818E+04 0.  0.
        2    1    3    3  502    0  0.24713754737E+03 -0.13556151899E+04 -0.58342088995E+03  0.14963787774E+04  0.25500000920E-02 0. -1.
       -2    1    3    3    0  502 -0.24713754737E+03  0.13556151899E+04  0.85370475620E+03  0.16209815919E+04  0.25500000920E-02 0.  1.
</event>
<event>
 5   0  0.7079223E-06  0.3095677E+04  0.7818609E-02  0.8216925E-01
        2   -1    0    0  501    0  0.00000000000E+00  0.00000000000E+00  0.23952626715E+04  0.23952626715E+04  0.25500000920E-02 0.  1.
       -2   -1    0    0    0  501  0.00000000000E+00  0.00000000000E+00 -0.10002262127E+04  0.10002262127E+04  0.25500000920E-02 0. -1.
    10030    2    1    2    0    0  0.00000000000E+00  0.00000000000E+00  0.13950364588E+04  0.33954888842E+04  0.30956773155E+04 0.  0.
        5    1    3    3  502    0  0.19217299780E+03 -0.78440394788E+03  0.21458410591E+04  0.22927878130E+04  0.46999998093E+01 0.  1.
       -5    1    3    3    0  502 -0.19217299780E+03  0.78440394788E+03 -0.75080460035E+03  0.11027010712E+04  0.46999998093E+01 0. -1.
</event>
<event>
 5   0  0.2624011E-06  0.3085499E+04  0.7818609E-02  0.8219729E-01
        1   -1    0    0  501    0  0.00000000000E+00  0.00000000000E+00  0.10514570088E+04  0.10514570088E+04  0.50400001928E-02 0.  1.
       -1   -1    0    0    0  501  0.00000000000E+00  0.00000000000E+00 -0.22635974306E+04  0.22635974306E+04  0.50400001928E-02 0. -1.
    10030    2    1    2    0    0  0.00000000000E+00  0.00000000000E+00 -0.12121404218E+04  0.33150544393E+04  0.30854985875E+04 0.  0.
        1    1    3    3  502    0  0.87154922467E+02  0.89988683920E+03  0.73700634283E+03  0.11664350189E+04  0.50400001928E-02 0.  1.
       -1    1    3    3    0  502 -0.87154922467E+02 -0.89988683920E+03 -0.19491467646E+04  0.21486194205E+04  0.50400001928E-02 0. -1.
</event>
<event>
 5   0  0.7094341E-06  0.2946565E+04  0.7818609E-02  0.8259156E-01
       -2   -1    0    0    0  501  0.00000000000E+00  0.00000000000E+00  0.22332760450E+04  0.22332760450E+04  0.25500000920E-02 0.  1.
        2   -1    0    0  501    0  0.00000000000E+00  0.00000000000E+00 -0.97191785496E+03  0.97191785496E+03  0.25500000920E-02 0. -1.
    10030    2    1    2    0    0  0.00000000000E+00  0.00000000000E+00  0.12613581900E+04  0.32051938999E+04  0.29465646867E+04 0.  0.
        3    1    3    3  502    0 -0.12851449476E+04  0.73891140209E+02 -0.14880991478E+03  0.12958402054E+04  0.10100000352E+00 0. -1.
       -3    1    3    3    0  502  0.12851449476E+04 -0.73891140209E+02  0.14101681048E+04  0.19093536946E+04  0.10100000352E+00 0.  1.
</event>
<event>
 5   0  0.2624011E-06  0.2091928E+04  0.7818609E-02  0.8564808E-01
       -1   -1    0    0    0  501  0.00000000000E+00  0.00000000000E+00  0.11172786775E+04  0.11172786775E+04  0.50400001928E-02 0. -1.
        1   -1    0    0  501    0  0.00000000000E+00  0.00000000000E+00 -0.97920124416E+03  0.97920124417E+03  0.50400001928E-02 0.  1.
    10030    2    1    2    0    0  0.00000000000E+00  0.00000000000E+00  0.13807743329E+03  0.20964799216E+04  0.20919279826E+04 0.  0.
        1    1    3    3  502    0  0.17103864790E+03  0.60134391948E+02 -0.96333401005E+03  0.98024628493E+03  0.50400001928E-02 0.  1.
       -1    1    3    3    0  502 -0.17103864790E+03 -0.60134391948E+02  0.11014114433E+04  0.11162336367E+04  0.50400001928E-02 0. -1.
</event>
<event>
 5   0  0.7414808E-06  0.2325580E+04  0.7818609E-02  0.8467903E-01
        2   -1    0    0  501    0  0.00000000000E+00  0.00000000000E+00  0.90930184354E+03  0.90930184354E+03  0.25500000920E-02 0.  1.
       -2   -1    0    0    0  501  0.00000000000E+00  0.00000000000E+00 -0.14869432372E+04  0.14869432372E+04  0.25500000920E-02 0. -1.
    10030    2    1    2    0    0  0.00000000000E+00  0.00000000000E+00 -0.57764139365E+03  0.23962450807E+04  0.23255796927E+04 0.  0.
        2    1    3    3  502    0 -0.55470690976E+03 -0.97413924059E+03  0.29488932038E+02  0.11213904819E+04  0.25500000920E-02 0.  1.
       -2    1    3    3    0  502  0.55470690976E+03  0.97413924059E+03 -0.60713032569E+03  0.12748545988E+04  0.25500000920E-02 0. -1.
</event>
<event>
 5   0  0.7079223E-06  0.3057462E+04  0.7818609E-02  0.8227510E-01
       -2   -1    0    0    0  501  0.00000000000E+00  0.00000000000E+00  0.11435593745E+04  0.11435593745E+04  0.25500000920E-02 0.  1.
        2   -1    0    0  501    0  0.00000000000E+00  0.00000000000E+00 -0.20436352167E+04  0.20436352167E+04  0.25500000920E-02 0. -1.
    10030    2    1    2    0    0  0.00000000000E+00  0.00000000000E+00 -0.90007584220E+03  0.31871945912E+04  0.30574618297E+04 0.  0.
        5    1    3    3  502    0  0.56362603423E+03 -0.81425044177E+02  0.10288530988E+04  0.11759528618E+04  0.46999998093E+01 0.  1.
       -5    1    3    3    0  502 -0.56362603423E+03  0.81425044177E+02 -0.19289289410E+04  0.20112417293E+04  0.46999998093E+01 0. -1.
</event>
<event>
 5   0  0.2624011E-06  0.3053735E+04  0.7818609E-02  0.8228551E-01
        1   -1    0    0  501    0  0.00000000000E+00  0.00000000000E+00  0.21882549946E+04  0.21882549946E+04  0.50400001928E-02 0.  1.
       -1   -1    0    0    0  501  0.00000000000E+00  0.00000000000E+00 -0.10653802661E+04  0.10653802661E+04  0.50400001928E-02 0. -1.
    10030    2    1    2    0    0  0.00000000000E+00  0.00000000000E+00  0.11228747285E+04  0.32536352607E+04  0.30537345585E+04 0.  0.
        1    1    3    3  502    0 -0.72149758479E+03 -0.13236119195E+04  0.30304073823E+03  0.15376413650E+04  0.50400001928E-02 0.  1.
       -1    1    3    3    0  502  0.72149758479E+03  0.13236119195E+04  0.81983399026E+03  0.17159938957E+04  0.50400001928E-02 0. -1.
</event>
<event>
 5   0  0.2612331E-06  0.3009469E+04  0.7818609E-02  0.8241032E-01
        1   -1    0    0  501    0  0.00000000000E+00  0.00000000000E+00  0.14748734362E+04  0.14748734362E+04  0.50400001928E-02 0. -1.
       -1   -1    0    0    0  501  0.00000000000E+00  0.00000000000E+00 -0.15351999722E+04  0.15351999722E+04  0.50400001928E-02 0.  1.
    10030    2    1    2    0    0  0.00000000000E+00  0.00000000000E+00 -0.60326535956E+02  0.30100734084E+04  0.30094688290E+04 0.  0.
        4    1    3    3  502    0 -0.78065930753E+03  0.12444963035E+04 -0.35584201250E+03  0.15115638110E+04  0.12699999809E+01 0. -1.
       -4    1    3    3    0  502  0.78065930753E+03 -0.12444963035E+04  0.29551547654E+03  0.14985095974E+04  0.12699999809E+01 0.  1.
</event>
<event>
 5   0  0.2517725E-06  0.3085250E+04  0.7818609E-02  0.8219798E-01
        1   -1    0    0  501    0  0.00000000000E+00  0.00000000000E+00  0.18355455724E+04  0.18355455724E+04  0.50400001928E-02 0. -1.
       -1   -1    0    0    0  501  0.00000000000E+00  0.00000000000E+00 -0.12964492854E+04  0.12964492854E+04  0.50400001928E-02 0.  1.
    10030    2    1    2    0    0  0.00000000000E+00  0.00000000000E+00  0.53909628695E+03  0.31319948578E+04  0.30852499060E+04 0.  0.
        3    1    3    3  502    0 -0.23298031528E+03 -0.79004034416E+03 -0.10545327758E+04  0.13380892938E+04  0.10100000352E+00 0.  1.
       -3    1    3    3    0  502  0.23298031528E+03  0.79004034416E+03  0.15936290627E+04  0.17939055640E+04  0.10100000352E+00 0. -1.
</event>
<event>
 5   0  0.2393250E-06  0.3001606E+04  0.7818609E-02  0.8243272E-01
        3   -1    0    0  501    0  0.00000000000E+00  0.00000000000E+00  0.16220490218E+04  0.16220490249E+04  0.10100000352E+00 0.  1.
       -3   -1    0    0    0  501  0.00000000000E+00  0.00000000000E+00 -0.13886203543E+04  0.13886203580E+04  0.10100000352E+00 0. -1.
    10030    2    1    2    0    0  0.00000000000E+00  0.00000000000E+00  0.23342866747E+03  0.30106693829E+04  0.30016064350E+04 0.  0.
        1    1    3    3  502    0 -0.65187708868E+03 -0.10624478064E+04 -0.72167500009E+03  0.14403311723E+04  0.50400001928E-02 0.  1.
       -1    1    3    3    0  502  0.65187708868E+03  0.10624478064E+04  0.95510366756E+03  0.15703382106E+04  0.50400001928E-02 0. -1.
</event>
<event>
 5   0  0.2674441E-06  0.3138439E+04  0.7818609E-02  0.8205267E-01
       -1   -1    0    0    0  501  0.00000000000E+00  0.00000000000E+00  0.15290389974E+04  0.15290389974E+04  0.50400001928E-02 0. -1.
        1   -1    0    0  501    0  0.00000000000E+00  0.00000000000E+00 -0.16104556805E+04  0.16104556805E+04  0.50400001928E-02 0.  1.
    10030    2    1    2    0    0  0.00000000000E+00  0.00000000000E+00 -0.81416683101E+02  0.31394946778E+04  0.31384388087E+04 0.  0.
        5    1    3    3  502    0  0.36297383648E+03  0.58988250481E+03 -0.14492715789E+04  0.16062756846E+04  0.46999998093E+01 0.  1.
       -5    1    3    3    0  502 -0.36297383648E+03 -0.58988250481E+03  0.13678548958E+04  0.15332189933E+04  0.46999998093E+01 0. -1.
</event>
<event>
 5   0  0.2517725E-06  0.3087879E+04  0.7818609E-02  0.8219072E-01
       -1   -1    0    0    0  501  0.00000000000E+00  0.00000000000E+00  0.91127614224E+03  0.91127614226E+03  0.50400001928E-02 0. -1.
        1   -1    0    0  501    0  0.00000000000E+00  0.00000000000E+00 -0.26158362517E+04  0.26158362517E+04  0.50400001928E-02 0.  1.
    10030    2    1    2    0    0  0.00000000000E+00  0.00000000000E+00 -0.17045601095E+04  0.35271123940E+04  0.30878789926E+04 0.  0.
        3    1    3    3  502    0  0.10204437287E+04  0.72420004963E+03 -0.18853502904E+04  0.22628117118E+04  0.10100000352E+00 0.  1.
       -3    1    3    3    0  502 -0.10204437287E+04 -0.72420004963E+03  0.18079018087E+03  0.12643006822E+04  0.10100000352E+00 0. -1.
</event>
<event>
 5   0  0.7079223E-06  0.2952663E+04  0.7818609E-02  0.8257379E-01
       -2   -1    0    0    0  501  0.00000000000E+00  0.00000000000E+00  0.18423814264E+04  0.18423814264E+04  0.25500000920E-02 0.  1.
        2   -1    0    0  501    0  0.00000000000E+00  0.00000000000E+00 -0.11830096957E+04  0.11830096957E+04  0.25500000920E-02 0. -1.
    10030    2    1    2    0    0  0.00000000000E+00  0.00000000000E+00  0.65937173070E+03  0.30253911221E+04  0.29526632660E+04 0.  0.
        5    1    3    3  502    0 -0.13539625786E+04 -0.19710657177E+03  0.89784121373E+03  0.16365227160E+04  0.46999998093E+01 0.  1.
       -5    1    3    3    0  502  0.13539625786E+04  0.19710657177E+03 -0.23846948302E+03  0.13888684061E+04  0.46999998093E+01 0. -1.
</event>
<event>
 5   0  0.2674441E-06  0.2144724E+04  0.7818609E-02  0.8541794E-01
       -1   -1    0    0    0  501  0.00000000000E+00  0.00000000000E+00  0.11514608983E+04  0.11514608984E+04  0.50400001928E-02 0. -1.
        1   -1    0    0  501    0  0.00000000000E+00  0.00000000000E+00 -0.99869674858E+03  0.99869674859E+03  0.50400001928E-02 0.  1.
    10030    2    1    2    0    0  0.00000000000E+00  0.00000000000E+00  0.15276414976E+03  0.21501576469E+04  0.21447239965E+04 0.  0.
        5    1    3    3  502    0 -0.62908137207E+03  0.11908634681E+03 -0.78603755972E+03  0.10138057338E+04  0.46999998093E+01 0.  1.
       -5    1    3    3    0  502  0.62908137207E+03 -0.11908634681E+03  0.93880170948E+03  0.11363519131E+04  0.46999998093E+01 0. -1.
</event>
<event>
 5   0  0.7079223E-06  0.3146024E+04  0.7818609E-02  0.8203219E-01
        2   -1    0    0  501    0  0.00000000000E+00  0.00000000000E+00  0.17963215906E+04  0.17963215906E+04  0.25500000920E-02 0. -1.
       -2   -1    0    0    0  501  0.00000000000E+00  0.00000000000E+00 -0.13774627327E+04  0.13774627327E+04  0.25500000920E-02 0.  1.
    10030    2    1    2    0    0  0.00000000000E+00  0.00000000000E+00  0.41885885798E+03  0.31737843233E+04  0.31460235517E+04 0.  0.
        5    1    3    3  502    0 -0.13642444036E+04  0.70697781484E+03  0.54909546910E+03  0.16317194452E+04  0.46999998093E+01 0. -1.
       -5    1    3    3    0  502  0.13642444036E+04 -0.70697781484E+03 -0.13023661112E+03  0.15420648781E+04  0.46999998093E+01 0.  1.
</event>
<event>
 5   0  0.2612331E-06  0.2716134E+04  0.7818609E-02  0.8329789E-01
       -1   -1    0    0    0  501  0.00000000000E+00  0.00000000000E+00  0.11221243523E+04  0.11221243523E+04  0.50400001928E-02 0. -1.
        1   -1    0    0  501    0  0.00000000000E+00  0.00000000000E+00 -0.16436199384E+04  0.16436199384E+04  0.50400001928E-02 0.  1.
    10030    2    1    2    0    0  0.00000000000E+00  0.00000000000E+00 -0.52149558611E+03  0.27657442908E+04  0.27161339871E+04 0.  0.
        4    1    3    3  502    0  0.10204419689E+04  0.44661709117E+03  0.53034369362E+03  0.12337076981E+04  0.12699999809E+01 0. -1.
       -4    1    3    3    0  502 -0.10204419689E+04 -0.44661709117E+03 -0.10518392797E+04  0.15320365927E+04  0.12699999809E+01 0.  1.
</event>
<event>
 5   0  0.2674441E-06  0.3158969E+04  0.7818609E-02  0.8199738E-01
       -1   -1    0    0    0  501  0.00000000000E+00  0.00000000000E+00  0.11012005437E+04  0.11012005437E+04  0.50400001928E-02 0.  1.
        1   -1    0    0  501    0  0.00000000000E+00  0.00000000000E+00 -0.22655014273E+04  0.22655014273E+04  0.50400001928E-02 0. -1.
    10030    2    1    2    0    0  0.00000000000E+00  0.00000000000E+00 -0.11643008836E+04  0.33667019710E+04  0.31589690745E+04 0.  0.
        5    1    3    3  502    0 -0.81024146641E+03 -0.15317347923E+03 -0.20178818508E+04  0.21798675654E+04  0.46999998093E+01 0. -1.
       -5    1    3    3    0  502  0.81024146641E+03  0.15317347923E+03  0.85358096726E+03  0.11868344056E+04  0.46999998093E+01 0.  1.
</event>
<event>
 5   0  0.7094341E-06  0.3131822E+04  0.7818609E-02  0.8207059E-01
        2   -1    0    0  501    0  0.00000000000E+00  0.00000000000E+00  0.16322874469E+04  0.16322874469E+04  0.25500000920E-02 0.  1.
       -2   -1    0    0    0  501  0.00000000000E+00  0.00000000000E+00 -0.15022335050E+04  0.15022335050E+04  0.25500000920E-02 0. -1.
    10030    2    1    2    0    0  0.00000000000E+00  0.00000000000E+00  0.13005394186E+03  0.31345209519E+04  0.31318217654E+04 0.  0.
        3    1    3    3  502    0  0.61575805350E+03  0.11486680645E+04 -0.80375374139E+03  0.15312140248E+04  0.10100000352E+00 0. -1.
       -3    1    3    3    0  502 -0.61575805350E+03 -0.11486680645E+04  0.93380768324E+03  0.16033069271E+04  0.10100000352E+00 0.  1.
</event>
<event>
 5   0  0.7079223E-06  0.3051584E+04  0.7818609E-02  0.8229152E-01
        2   -1    0    0  501    0  0.00000000000E+00  0.00000000000E+00  0.21523514200E+04  0.21523514200E+04  0.25500000920E-02 0. -1.
       -2   -1    0    0    0  501  0.00000000000E+00  0.00000000000E+00 -0.10816272385E+04  0.10816272385E+04  0.25500000920E-02 0.  1.
    10030    2    1    2    0    0  0.00000000000E+00  0.00000000000E+00  0.10707241815E+04  0.32339786585E+04  0.30515844558E+04 0.  0.
        5    1    3    3  502    0 -0.96723290928E+03 -0.36190727900E+03  0.17256608406E+04  0.20110802585E+04  0.46999998093E+01 0. -1.
       -5    1    3    3    0  502  0.96723290928E+03  0.36190727900E+03 -0.65493665908E+03  0.12228984000E+04  0.46999998093E+01 0.  1.
</event>
<event>
 5   0  0.2393250E-06  0.3115376E+04  0.7818609E-02  0.8211531E-01
        3   -1    0    0  501    0  0.00000000000E+00  0.00000000000E+00  0.13747422758E+04  0.13747422796E+04  0.10100000352E+00 0. -1.
       -3   -1    0    0    0  501  0.00000000000E+00  0.00000000000E+00 -0.17649795042E+04  0.17649795071E+04  0.10100000352E+00 0.  1.
    10030    2    1    2    0    0  0.00000000000E+00  0.00000000000E+00 -0.39023722835E+03  0.31397217866E+04  0.31153760292E+04 0.  0.
        2    1    3    3  502    0  0.51024208370E+03 -0.11446327449E+04  0.73723846357E+03  0.14539778736E+04  0.25500000920E-02 0. -1.
       -2    1    3    3    0  502 -0.51024208370E+03  0.11446327449E+04 -0.11274756919E+04  0.16857439131E+04  0.25500000920E-02 0.  1.
</event>
<event>
 5   0  0.7363513E-06  0.3107999E+04  0.7818609E-02  0.8213546E-01
       -2   -1    0    0    0  501  0.00000000000E+00  0.00000000000E+00  0.16788741745E+04  0.16788741745E+04  0.25500000920E-02 0.  1.
        2   -1    0    0  501    0  0.00000000000E+00  0.00000000000E+00 -0.14384134478E+04  0.14384134478E+04  0.25500000920E-02 0. -1.
    10030    2    1    2    0    0  0.00000000000E+00  0.00000000000E+00  0.24046072675E+03  0.31172876223E+04  0.31079994787E+04 0.  0.
        4    1    3    3  502    0  0.66816422732E+03 -0.98357563791E+03 -0.88328408342E+03  0.14812349088E+04  0.12699999809E+01 0. -1.
       -4    1    3    3    0  502 -0.66816422732E+03  0.98357563791E+03  0.11237448102E+04  0.16360527135E+04  0.12699999809E+01 0.  1.
</event>
<event>
 5   0  0.2624011E-06  0.3080952E+04  0.7818609E-02  0.8220985E-01
       -1   -1    0    0    0  501  0.00000000000E+00  0.00000000000E+00  0.21763704682E+04  0.21763704682E+04  0.50400001928E-02 0. -1.
        1   -1    0    0  501    0  0.00000000000E+00  0.00000000000E+00 -0.10903781922E+04  0.10903781922E+04  0.50400001928E-02 0.  1.
    10030    2    1    2    0    0  0.00000000000E+00  0.00000000000E+00  0.10859922759E+04  0.32667486604E+04  0.30809523831E+04 0.  0.
        1    1    3    3  502    0 -0.80680936480E+03 -0.10991063951E+04  0.13032359341E+04  0.18861071335E+04  0.50400001928E-02 0. -1.
       -1    1    3    3    0  502  0.80680936480E+03  0.10991063951E+04 -0.21724365819E+03  0.13806415269E+04  0.50400001928E-02 0.  1.
</event>
<event>
 5   0  0.2598987E-06  0.2702126E+04  0.7818609E-02  0.8334315E-01
        1   -1    0    0  501    0  0.00000000000E+00  0.00000000000E+00  0.23343975385E+04  0.23343975385E+04  0.50400001928E-02 0. -1.
       -1   -1    0    0    0  501  0.00000000000E+00  0.00000000000E+00 -0.78194544256E+03  0.78194544258E+03  0.50400001928E-02 0.  1.
    10030    2    1    2    0    0  0.00000000000E+00  0.00000000000E+00  0.15524520959E+04  0.31163429811E+04  0.27021262120E+04 0.  0.
        2    1    3    3  502    0  0.88023532968E+03 -0.24531049954E+03  0.19239582283E+04  0.21299311588E+04  0.25500000920E-02 0. -1.
       -2    1    3    3    0  502 -0.88023532968E+03  0.24531049954E+03 -0.37150613238E+03  0.98641182231E+03  0.25500000920E-02 0.  1.
</event>
<event>
 5   0  0.2612331E-06  0.3019100E+04  0.7818609E-02  0.8238298E-01
       -1   -1    0    0    0  501  0.00000000000E+00  0.00000000000E+00  0.93565267166E+03  0.93565267167E+03  0.50400001928E-02 0. -1.
        1   -1    0    0  501    0  0.00000000000E+00  0.00000000000E+00 -0.24354562896E+04  0.24354562896E+04  0.50400001928E-02 0.  1.
    10030    2    1    2    0    0  0.00000000000E+00  0.00000000000E+00 -0.14998036179E+04  0.33711089612E+04  0.30190999878E+04 0.  0.
        4    1    3    3  502    0  0.91174562232E+03 -0.11890996523E+04 -0.95427666950E+03  0.17764806888E+04  0.12699999809E+01 0. -1.
       -4    1    3    3    0  502 -0.91174562232E+03  0.11890996523E+04 -0.54552694842E+03  0.15946282724E+04  0.12699999809E+01 0.  1.
</event>
<event>
 5   0  0.2612331E-06  0.3067144E+04  0.7818609E-02  0.8224813E-01
        1   -1    0    0  501    0  0.00000000000E+00  0.00000000000E+00  0.15541155668E+04  0.15541155668E+04  0.50400001928E-02 0. -1.
       -1   -1    0    0    0  501  0.00000000000E+00  0.00000000000E+00 -0.15133001249E+04  0.15133001249E+04  0.50400001928E-02 0.  1.
    10030    2    1    2    0    0  0.00000000000E+00  0.00000000000E+00  0.40815441890E+02  0.30674156916E+04  0.30671441318E+04 0.  0.
        4    1    3    3  502    0  0.24061921757E+03  0.91503200175E+03  0.12274364896E+04  0.15497687314E+04  0.12699999809E+01 0. -1.
       -4    1    3    3    0  502 -0.24061921757E+03 -0.91503200175E+03 -0.11866210477E+04  0.15176469602E+04  0.12699999809E+01 0.  1.
</event>
<event>
 5   0  0.2624011E-06  0.2125956E+04  0.7818609E-02  0.8549895E-01
       -1   -1    0    0    0  501  0.00000000000E+00  0.00000000000E+00  0.99677111928E+03  0.99677111929E+03  0.50400001928E-02 0. -1.
        1   -1    0    0  501    0  0.00000000000E+00  0.00000000000E+00 -0.11335824183E+04  0.11335824183E+04  0.50400001928E-02 0.  1.
    10030    2    1    2    0    0  0.00000000000E+00  0.00000000000E+00 -0.13681129901E+03  0.21303535376E+04  0.21259559882E+04 0.  0.
        1    1    3    3  502    0 -0.70844615740E+03  0.78533460978E+03  0.38001610572E+02  0.10583432948E+04  0.50400001928E-02 0. -1.
       -1    1    3    3    0  502  0.70844615740E+03 -0.78533460978E+03 -0.17481290958E+03  0.10720102428E+04  0.50400001928E-02 0.  1.
</event>
<event>
 5   0  0.2674441E-06  0.1901952E+04  0.7818609E-02  0.8653885E-01
        1   -1    0    0  501    0  0.00000000000E+00  0.00000000000E+00  0.10766208004E+04  0.10766208004E+04  0.50400001928E-02 0. -1.
       -1   -1    0    0    0  501  0.00000000000E+00  0.00000000000E+00 -0.83999437229E+03  0.83999437231E+03  0.50400001928E-02 0.  1.
    10030    2    1    2    0    0  0.00000000000E+00  0.00000000000E+00  0.23662642811E+03  0.19166151727E+04  0.19019520640E+04 0.  0.
        5    1    3    3  502    0 -0.26199913136E+03  0.21644647466E+03  0.10133275886E+04  0.10688065835E+04  0.46999998093E+01 0. -1.
       -5    1    3    3    0  502  0.26199913136E+03 -0.21644647466E+03 -0.77670116047E+03  0.84780858919E+03  0.46999998093E+01 0.  1.
</event>
<event>
 5   0  0.7363513E-06  0.3072568E+04  0.7818609E-02  0.8223307E-01
        2   -1    0    0  501    0  0.00000000000E+00  0.00000000000E+00  0.23492741480E+04  0.23492741480E+04  0.25500000920E-02 0.  1.
       -2   -1    0    0    0  501  0.00000000000E+00  0.00000000000E+00 -0.10046374771E+04  0.10046374771E+04  0.25500000920E-02 0. -1.
    10030    2    1    2    0    0  0.00000000000E+00  0.00000000000E+00  0.13446366709E+04  0.33539116251E+04  0.30725682111E+04 0.  0.
        4    1    3    3  502    0 -0.73366363959E+03 -0.12771892371E+04  0.11489873835E+04  0.18680600376E+04  0.12699999809E+01 0. -1.
       -4    1    3    3    0  502  0.73366363959E+03  0.12771892371E+04  0.19564928734E+03  0.14858515875E+04  0.12699999809E+01 0.  1.
</event>
<event>
 5   0  0.2674441E-06  0.3119394E+04  0.7818609E-02  0.8210436E-01
       -1   -1    0    0    0  501  0.00000000000E+00  0.00000000000E+00  0.98616858568E+03  0.98616858569E+03  0.50400001928E-02 0. -1.
        1   -1    0    0  501    0  0.00000000000E+00  0.00000000000E+00 -0.24667731316E+04  0.24667731316E+04  0.50400001928E-02 0.  1.
    10030    2    1    2    0    0  0.00000000000E+00  0.00000000000E+00 -0.14806045459E+04  0.34529417173E+04  0.31193936400E+04 0.  0.
        5    1    3    3  502    0 -0.69043077761E+03 -0.12774080581E+04 -0.13705377499E+04  0.19967127534E+04  0.46999998093E+01 0.  1.
       -5    1    3    3    0  502  0.69043077761E+03  0.12774080581E+04 -0.11006679603E+03  0.14562289639E+04  0.46999998093E+01 0. -1.
</event>
<event>
 5   0  0.7363513E-06  0.3056165E+04  0.7818609E-02  0.8227872E-01
       -2   -1    0    0    0  501  0.00000000000E+00  0.00000000000E+00  0.11459284127E+04  0.11459284127E+04  0.25500000920E-02 0.  1.
        2   -1    0    0  501    0  0.00000000000E+00  0.00000000000E+00 -0.20376802966E+04  0.20376802966E+04  0.25500000920E-02 0. -1.
    10030    2    1    2    0    0  0.00000000000E+00  0.00000000000E+00 -0.89175188395E+03  0.31836087093E+04  0.30561647520E+04 0.  0.
        4    1    3    3  502    0 -0.10913815346E+04  0.11766039440E+03 -0.15532563763E+04  0.19019896440E+04  0.12699999809E+01 0. -1.
       -4    1    3    3    0  502  0.10913815346E+04 -0.11766039440E+03  0.66150449231E+03  0.12816190654E+04  0.12699999809E+01 0.  1.
</event>
<event>
 5   0  0.2624011E-06  0.3153139E+04  0.7818609E-02  0.8201304E-01
       -1   -1    0    0    0  501  0.00000000000E+00  0.00000000000E+00  0.17693943598E+04  0.17693943598E+04  0.50400001928E-02 0. -1.
        1   -1    0    0  501    0  0.00000000000E+00  0.00000000000E+00 -0.14047581232E+04  0.14047581232E+04  0.50400001928E-02 0.  1.
    10030    2    1    2    0    0  0.00000000000E+00  0.00000000000E+00  0.36463623660E+03  0.31741524829E+04  0.31531388171E+04 0.  0.
        1    1    3    3  502    0 -0.14907057257E+04  0.42997412035E+03 -0.99709274330E+02  0.15546778587E+04  0.50400001928E-02 0. -1.
       -1    1    3    3    0  502  0.14907057257E+04 -0.42997412035E+03  0.46434551093E+03  0.16194746242E+04  0.50400001928E-02 0.  1.
</event>
<event>
 5   0  0.7071012E-06  0.3054877E+04  0.7818609E-02  0.8228232E-01
        2   -1    0    0  501    0  0.00000000000E+00  0.00000000000E+00  0.16111063437E+04  0.16111063437E+04  0.25500000920E-02 0.  1.
       -2   -1    0    0    0  501  0.00000000000E+00  0.00000000000E+00 -0.14481157571E+04  0.14481157571E+04  0.25500000920E-02 0. -1.
    10030    2    1    2    0    0  0.00000000000E+00  0.00000000000E+00  0.16299058658E+03  0.30592221007E+04  0.30548770729E+04 0.  0.
        1    1    3    3  502    0  0.11465835553E+04  0.55801882395E+03  0.92354179293E+03  0.15744739758E+04  0.50400001928E-02 0.  1.
       -1    1    3    3    0  502 -0.11465835553E+04 -0.55801882395E+03 -0.76055120635E+03  0.14847481250E+04  0.50400001928E-02 0. -1.
</event>
<event>
 5   0  0.2517725E-06  0.3058036E+04  0.7818609E-02  0.8227350E-01
       -1   -1    0    0    0  501  0.00000000000E+00  0.00000000000E+00  0.94301946895E+03  0.94301946897E+03  0.50400001928E-02 0. -1.
        1   -1    0    0  501    0  0.00000000000E+00  0.00000000000E+00 -0.24791595092E+04  0.24791595092E+04  0.50400001928E-02 0.  1.
    10030    2    1    2    0    0  0.00000000000E+00  0.00000000000E+00 -0.15361400403E+04  0.34221789782E+04  0.30580357643E+04 0.  0.
        3    1    3    3  502    0 -0.13078530717E+04  0.69323572163E+03 -0.11968976086E+04  0.19035806572E+04  0.10100000352E+00 0.  1.
       -3    1    3    3    0  502  0.13078530717E+04 -0.69323572163E+03 -0.33924243167E+03  0.15185983210E+04  0.10100000352E+00 0. -1.
</event>
<event>
 5   0  0.7414808E-06  0.3124458E+04  0.7818609E-02  0.8209057E-01
       -2   -1    0    0    0  501  0.00000000000E+00  0.00000000000E+00  0.81096144880E+03  0.81096144881E+03  0.25500000920E-02 0.  1.
        2   -1    0    0  501    0  0.00000000000E+00  0.00000000000E+00 -0.30094649848E+04  0.30094649848E+04  0.25500000920E-02 0. -1.
    10030    2    1    2    0    0  0.00000000000E+00  0.00000000000E+00 -0.21985035360E+04  0.38204264336E+04  0.31244584070E+04 0.  0.
        2    1    3    3  502    0  0.45823520141E+03  0.37547863849E+03 -0.28667878855E+04  0.29273599861E+04  0.25500000920E-02 0. -1.
       -2    1    3    3    0  502 -0.45823520141E+03 -0.37547863849E+03  0.66828434954E+03  0.89306644748E+03  0.25500000920E-02 0.  1.
</event>
<event>
 5   0  0.2624011E-06  0.3077478E+04  0.7818609E-02  0.8221946E-01
       -1   -1    0    0    0  501  0.00000000000E+00  0.00000000000E+00  0.23424395601E+04  0.23424395601E+04  0.50400001928E-02 0.  1.
        1   -1    0    0  501    0  0.00000000000E+00  0.00000000000E+00 -0.10107911076E+04  0.10107911076E+04  0.50400001928E-02 0. -1.
    10030    2    1    2    0    0  0.00000000000E+00  0.00000000000E+00  0.13316484526E+04  0.33532306677E+04  0.30774775888E+04 0.  0.
        1    1    3    3  502    0  0.79687424143E+03 -0.12978283972E+03 -0.76145873123E+03  0.11098069839E+04  0.50400001928E-02 0. -1.
       -1    1    3    3    0  502 -0.79687424143E+03  0.12978283972E+03  0.20931071838E+04  0.22434236838E+04  0.50400001928E-02 0.  1.
</event>
<event>
 5   0  0.2517725E-06  0.3066990E+04  0.7818609E-02  0.8224856E-01
       -1   -1    0    0    0  501  0.00000000000E+00  0.00000000000E+00  0.20866491309E+04  0.20866491309E+04  0.50400001928E-02 0. -1.
        1   -1    0    0  501    0  0.00000000000E+00  0.00000000000E+00 -0.11269773467E+04  0.11269773467E+04  0.50400001928E-02 0.  1.
    10030    2    1    2    0    0  0.00000000000E+00  0.00000000000E+00  0.95967178412E+03  0.32136264776E+04  0.30669895997E+04 0.  0.
        3    1    3    3  502    0 -0.93888141338E+03  0.63400542796E+03  0.15627604935E+04  0.19302024664E+04  0.10100000352E+00 0. -1.
       -3    1    3    3    0  502  0.93888141338E+03 -0.63400542796E+03 -0.60308870934E+03  0.12834240112E+04  0.10100000352E+00 0.  1.
</event>
<event>
 5   0  0.2624011E-06  0.2756095E+04  0.7818609E-02  0.8317030E-01
        1   -1    0    0  501    0  0.00000000000E+00  0.00000000000E+00  0.18388920428E+04  0.18388920428E+04  0.50400001928E-02 0.  1.
       -1   -1    0    0    0  501  0.00000000000E+00  0.00000000000E+00 -0.10326950201E+04  0.10326950201E+04  0.50400001928E-02 0. -1.
    10030    2    1    2    0    0  0.00000000000E+00  0.00000000000E+00  0.80619702275E+03  0.28715870629E+04  0.27560948134E+04 0.  0.
        1    1    3    3  502    0 -0.52380171503E+03 -0.33378168250E+03  0.16847832004E+04  0.17956260414E+04  0.50400001928E-02 0.  1.
       -1    1    3    3    0  502  0.52380171503E+03  0.33378168250E+03 -0.87858617765E+03  0.10759610215E+04  0.50400001928E-02 0. -1.
</event>
<event>
 5   0  0.7079223E-06  0.2284150E+04  0.7818609E-02  0.8484197E-01
        2   -1    0    0  501    0  0.00000000000E+00  0.00000000000E+00  0.12648215836E+04  0.12648215836E+04  0.25500000920E-02 0.  1.
       -2   -1    0    0    0  501  0.00000000000E+00  0.00000000000E+00 -0.10312404014E+04  0.10312404014E+04  0.25500000920E-02 0. -1.
    10030    2    1    2    0    0  0.00000000000E+00  0.00000000000E+00  0.23358118213E+03  0.22960619850E+04  0.22841498354E+04 0.  0.
        5    1    3    3  502    0  0.13288061516E+03  0.30509215414E+03  0.12149965437E+04  0.12597528216E+04  0.46999998093E+01 0.  1.
       -5    1    3    3    0  502 -0.13288061516E+03 -0.30509215414E+03 -0.98141536152E+03  0.10363091634E+04  0.46999998093E+01 0. -1.
</event>
<event>
 5   0  0.7094341E-06  0.3086726E+04  0.7818609E-02  0.8219390E-01
        2   -1    0    0  501    0  0.00000000000E+00  0.00000000000E+00  0.27209432706E+04  0.27209432706E+04  0.25500000920E-02 0.  1.
       -2   -1    0    0    0  501  0.00000000000E+00  0.00000000000E+00 -0.87542067173E+03  0.87542067173E+03  0.25500000920E-02 0. -1.
    10030    2    1    2    0    0  0.00000000000E+00  0.00000000000E+00  0.18455225989E+04  0.35963639423E+04  0.30867264120E+04 0.  0.
        3    1    3    3  502    0 -0.10848846294E+04 -0.28737775061E+03 -0.31159669334E+03  0.11647545408E+04  0.10100000352E+00 0. -1.
       -3    1    3    3    0  502  0.10848846294E+04  0.28737775061E+03  0.21571192922E+04  0.24316094016E+04  0.10100000352E+00 0.  1.
</event>
<event>
 5   0  0.7071012E-06  0.3011614E+04  0.7818609E-02  0.8240422E-01
       -2   -1    0    0    0  501  0.00000000000E+00  0.00000000000E+00  0.10189244584E+04  0.10189244584E+04  0.25500000920E-02 0.  1.
        2   -1    0    0  501    0  0.00000000000E+00  0.00000000000E+00 -0.22253419406E+04  0.22253419406E+04  0.25500000920E-02 0. -1.
    10030    2    1    2    0    0  0.00000000000E+00  0.00000000000E+00 -0.12064174822E+04  0.32442663990E+04  0.30116144054E+04 0.  0.
        1    1    3    3  502    0 -0.17023289694E+03 -0.10823064198E+04  0.50959209973E+03  0.12083255082E+04  0.50400001928E-02 0.  1.
       -1    1    3    3    0  502  0.17023289694E+03  0.10823064198E+04 -0.17160095819E+04  0.20359408908E+04  0.50400001928E-02 0. -1.
</event>
<event>
 5   0  0.2598987E-06  0.3101722E+04  0.7818609E-02  0.8215266E-01
       -1   -1    0    0    0  501  0.00000000000E+00  0.00000000000E+00  0.12807296379E+04  0.12807296379E+04  0.50400001928E-02 0.  1.
        1   -1    0    0  501    0  0.00000000000E+00  0.00000000000E+00 -0.18779678488E+04  0.18779678488E+04  0.50400001928E-02 0. -1.
    10030    2    1    2    0    0  0.00000000000E+00  0.00000000000E+00 -0.59723821086E+03  0.31586974867E+04  0.31017215111E+04 0.  0.
        2    1    3    3  502    0 -0.37413127567E+02  0.11353937829E+04  0.77654449073E+03  0.13760596392E+04  0.25500000920E-02 0.  1.
       -2    1    3    3    0  502  0.37413127567E+02 -0.11353937829E+04 -0.13737827016E+04  0.17826378476E+04  0.25500000920E-02 0. -1.
</event>
<event>
 5   0  0.2624011E-06  0.3155519E+04  0.7818609E-02  0.8200664E-01
       -1   -1    0    0    0  501  0.00000000000E+00  0.00000000000E+00  0.94130250070E+03  0.94130250071E+03  0.50400001928E-02 0.  1.
        1   -1    0    0  501    0  0.00000000000E+00  0.00000000000E+00 -0.26445534085E+04  0.26445534085E+04  0.50400001928E-02 0. -1.
    10030    2    1    2    0    0  0.00000000000E+00  0.00000000000E+00 -0.17032509078E+04  0.35858559092E+04  0.31555188078E+04 0.  0.
        1    1    3    3  502    0 -0.41652926016E+03 -0.22035375379E+03 -0.25627196006E+04  0.26056830492E+04  0.50400001928E-02 0. -1.
       -1    1    3    3    0  502  0.41652926016E+03  0.22035375379E+03  0.85946869287E+03  0.98017285998E+03  0.50400001928E-02 0.  1.
</event>
<event>
 5   0  0.7079223E-06  0.2015624E+04  0.7818609E-02  0.8599351E-01
       -2   -1    0    0    0  501  0.00000000000E+00  0.00000000000E+00  0.61859420437E+03  0.61859420438E+03  0.25500000920E-02 0.  1.
        2   -1    0    0  501    0  0.00000000000E+00  0.00000000000E+00 -0.16419248475E+04  0.16419248475E+04  0.25500000920E-02 0. -1.
    10030    2    1    2    0    0  0.00000000000E+00  0.00000000000E+00 -0.10233306432E+04  0.22605190519E+04  0.20156241661E+04 0.  0.
        5    1    3    3  502    0  0.70680990362E+03 -0.22092755231E+03 -0.12782927764E+04  0.14773096274E+04  0.46999998093E+01 0. -1.
       -5    1    3    3    0  502 -0.70680990362E+03  0.22092755231E+03  0.25496213320E+03  0.78320942448E+03  0.46999998093E+01 0.  1.
</event>
<event>
 5   0  0.2517725E-06  0.3055719E+04  0.7818609E-02  0.8227997E-01
        1   -1    0    0  501    0  0.00000000000E+00  0.00000000000E+00  0.16247709149E+04  0.16247709150E+04  0.50400001928E-02 0. -1.
       -1   -1    0    0    0  501  0.00000000000E+00  0.00000000000E+00 -0.14367286068E+04  0.14367286068E+04  0.50400001928E-02 0.  1.
    10030    2    1    2    0    0  0.00000000000E+00  0.00000000000E+00  0.18804230819E+03  0.30614995217E+04  0.30557191317E+04 0.  0.
        3    1    3    3  502    0  0.49203598563E+03 -0.12972711207E+04  0.73503068116E+03  0.15701216145E+04  0.10100000352E+00 0.  1.
       -3    1    3    3    0  502 -0.49203598563E+03  0.12972711207E+04 -0.54698837297E+03  0.14913779072E+04  0.10100000352E+00 0. -1.
</event>
<event>
 5   0  0.2612331E-06  0.3115937E+04  0.7818609E-02  0.8211378E-01
       -1   -1    0    0    0  501  0.00000000000E+00  0.00000000000E+00  0.15177174018E+04  0.15177174019E+04  0.50400001928E-02 0.  1.
        1   -1    0    0  501    0  0.00000000000E+00  0.00000000000E+00 -0.15992866931E+04  0.15992866931E+04  0.50400001928E-02 0. -1.
    10030    2    1    2    0    0  0.00000000000E+00  0.00000000000E+00 -0.81569291249E+02  0.31170040950E+04  0.31159366134E+04 0.  0.
        4    1    3    3  502    0  0.10454340130E+04 -0.56188032753E+03  0.96882909636E+03  0.15320813323E+04  0.12699999809E+01 0.  1.
       -4    1    3    3    0  502 -0.10454340130E+04  0.56188032753E+03 -0.10503983876E+04  0.15849227626E+04  0.12699999809E+01 0. -1.
</event>
<event>
 5   0  0.7079223E-06  0.3042472E+04  0.7818609E-02  0.8231706E-01
       -2   -1    0    0    0  501  0.00000000000E+00  0.00000000000E+00  0.12416744295E+04  0.12416744295E+04  0.25500000920E-02 0.  1.
        2   -1    0    0  501    0  0.00000000000E+00  0.00000000000E+00 -0.18637406343E+04  0.18637406343E+04  0.25500000920E-02 0. -1.
    10030    2    1    2    0    0  0.00000000000E+00  0.00000000000E+00 -0.62206620477E+03  0.31054150639E+04  0.30424720797E+04 0.  0.
        5    1    3    3  502    0 -0.13973264134E+04 -0.48705753046E+03  0.48954281806E+02  0.14805960810E+04  0.46999998093E+01 0.  1.
       -5    1    3    3    0  502  0.13973264134E+04  0.48705753046E+03 -0.67102048657E+03  0.16248189828E+04  0.46999998093E+01 0. -1.
</event>
<event>
 5   0  0.2674441E-06  0.3075159E+04  0.7818609E-02  0.8222589E-01
       -1   -1    0    0    0  501  0.00000000000E+00  0.00000000000E+00  0.15859763634E+04  0.15859763634E+04  0.50400001928E-02 0.  1.
        1   -1    0    0  501    0  0.00000000000E+00  0.00000000000E+00 -0.14906593055E+04  0.14906593055E+04  0.50400001928E-02 0. -1.
    10030    2    1    2    0    0  0.00000000000E+00  0.00000000000E+00  0.95317057872E+02  0.30766356689E+04  0.30751588085E+04 0.  0.
        5    1    3    3  502    0  0.78560896987E+03 -0.30681388466E+03 -0.12385763037E+04  0.14984690733E+04  0.46999998093E+01 0. -1.
       -5    1    3    3    0  502 -0.78560896987E+03  0.30681388466E+03  0.13338933616E+04  0.15781665956E+04  0.46999998093E+01 0.  1.
</event>
<event>
 5   0  0.7079223E-06  0.3099566E+04  0.7818609E-02  0.8215857E-01
       -2   -1    0    0    0  501  0.00000000000E+00  0.00000000000E+00  0.12868060697E+04  0.12868060697E+04  0.25500000920E-02 0.  1.
        2   -1    0    0  501    0  0.00000000000E+00  0.00000000000E+00 -0.18665023959E+04  0.18665023959E+04  0.25500000920E-02 0. -1.
    10030    2    1    2    0    0  0.00000000000E+00  0.00000000000E+00 -0.57969632615E+03  0.31533084656E+04  0.30995655258E+04 0.  0.
        5    1    3    3  502    0  0.62963938619E+03 -0.11254971966E+04  0.58448035753E+03  0.14159198687E+04  0.46999998093E+01 0.  1.
       -5    1    3    3    0  502 -0.62963938619E+03  0.11254971966E+04 -0.11641766837E+04  0.17373885970E+04  0.46999998093E+01 0. -1.
</event>
<event>
 5   0  0.7363513E-06  0.3135876E+04  0.7818609E-02  0.8205960E-01
        2   -1    0    0  501    0  0.00000000000E+00  0.00000000000E+00  0.14404316672E+04  0.14404316672E+04  0.25500000920E-02 0. -1.
       -2   -1    0    0    0  501  0.00000000000E+00  0.00000000000E+00 -0.17067314610E+04  0.17067314610E+04  0.25500000920E-02 0.  1.
    10030    2    1    2    0    0  0.00000000000E+00  0.00000000000E+00 -0.26629979386E+03  0.31471631282E+04  0.31358763010E+04 0.  0.
        4    1    3    3  502    0  0.83774087218E+03 -0.12840122627E+04 -0.46286115483E+03  0.16014803531E+04  0.12699999809E+01 0. -1.
       -4    1    3    3    0  502 -0.83774087218E+03  0.12840122627E+04  0.19656136097E+03  0.15456827751E+04  0.12699999809E+01 0.  1.
</event>
<event>
 5   0  0.7071012E-06  0.2977192E+04  0.7818609E-02  0.8250274E-01
        2   -1    0    0  501    0  0.00000000000E+00  0.00000000000E+00  0.27620923752E+04  0.27620923752E+04  0.25500000920E-02 0. -1.
       -2   -1    0    0    0  501  0.00000000000E+00  0.00000000000E+00 -0.80226057875E+03  0.80226057875E+03  0.25500000920E-02 0.  1.
    10030    2    1    2    0    0  0.00000000000E+00  0.00000000000E+00  0.19598317964E+04  0.35643529539E+04  0.29771918497E+04 0.  0.
        1    1    3    3  502    0  0.64693895019E+02 -0.52974496876E+03  0.26436218782E+04  0.26969522923E+04  0.50400001928E-02 0. -1.
       -1    1    3    3    0  502 -0.64693895019E+02  0.52974496876E+03 -0.68379008173E+03  0.86740066168E+03  0.50400001928E-02 0.  1.
</event>
<event>
 5   0  0.7071012E-06  0.3086326E+04  0.7818609E-02  0.8219501E-01
       -2   -1    0    0    0  501  0.00000000000E+00  0.00000000000E+00  0.14256457441E+04  0.14256457441E+04  0.25500000920E-02 0.  1.
        2   -1    0    0  501    0  0.00000000000E+00  0.00000000000E+00 -0.16703669155E+04  0.16703669155E+04  0.25500000920E-02 0. -1.
    10030    2    1    2    0    0  0.00000000000E+00  0.00000000000E+00 -0.24472117142E+03  0.30960126596E+04  0.30863256368E+04 0.  0.
        1    1    3    3  502    0  0.41930798414E+03  0.44809956315E+03  0.12979715384E+04  0.14357376218E+04  0.50400001928E-02 0.  1.
       -1    1    3    3    0  502 -0.41930798414E+03 -0.44809956315E+03 -0.15426927099E+04  0.16602750378E+04  0.50400001928E-02 0. -1.
</event>
<event>
 5   0  0.2598987E-06  0.3167718E+04  0.7818609E-02  0.8197395E-01
        1   -1    0    0  501    0  0.00000000000E+00  0.00000000000E+00  0.19025706383E+04  0.19025706383E+04  0.50400001928E-02 0.  1.
       -1   -1    0    0    0  501  0.00000000000E+00  0.00000000000E+00 -0.13185367045E+04  0.13185367045E+04  0.50400001928E-02 0. -1.
    10030    2    1    2    0    0  0.00000000000E+00  0.00000000000E+00  0.58403393383E+03  0.32211073428E+04  0.31677179290E+04 0.  0.
        2    1    3    3  502    0 -0.64158793376E+03 -0.44005115075E+03 -0.11108472640E+04  0.13561938416E+04  0.25500000920E-02 0. -1.
       -2    1    3    3    0  502  0.64158793376E+03  0.44005115075E+03  0.16948811979E+04  0.18649135012E+04  0.25500000920E-02 0.  1.
</event>
<event>
 5   0  0.7071012E-06  0.3052819E+04  0.7818609E-02  0.8228807E-01
        2   -1    0    0  501    0  0.00000000000E+00  0.00000000000E+00  0.18177366386E+04  0.18177366386E+04  0.25500000920E-02 0. -1.
       -2   -1    0    0    0  501  0.00000000000E+00  0.00000000000E+00 -0.12817728617E+04  0.12817728617E+04  0.25500000920E-02 0.  1.
    10030    2    1    2    0    0  0.00000000000E+00  0.00000000000E+00  0.53596377682E+03  0.30995095003E+04  0.30528186930E+04 0.  0.
        1    1    3    3  502    0 -0.53544553601E+03  0.40447639958E+03  0.16599435285E+04  0.17904512274E+04  0.50400001928E-02 0. -1.
       -1    1    3    3    0  502  0.53544553601E+03 -0.40447639958E+03 -0.11239797516E+04  0.13090582730E+04  0.50400001928E-02 0.  1.
</event>
<event>
 5   0  0.2674441E-06  0.3056597E+04  0.7818609E-02  0.8227751E-01
       -1   -1    0    0    0  501  0.00000000000E+00  0.00000000000E+00  0.11948688336E+04  0.11948688336E+04  0.50400001928E-02 0. -1.
        1   -1    0    0  501    0  0.00000000000E+00  0.00000000000E+00 -0.19547721007E+04  0.19547721007E+04  0.50400001928E-02 0.  1.
    10030    2    1    2    0    0  0.00000000000E+00  0.00000000000E+00 -0.75990326708E+03  0.31496409343E+04  0.30565969704E+04 0.  0.
        5    1    3    3  502    0 -0.10585715934E+04  0.15783590796E+03  0.74421498191E+03  0.13035965716E+04  0.46999998093E+01 0. -1.
       -5    1    3    3    0  502  0.10585715934E+04 -0.15783590796E+03 -0.15041182490E+04  0.18460443627E+04  0.46999998093E+01 0.  1.
</event>
<event>
 5   0  0.2517725E-06  0.3098906E+04  0.7818609E-02  0.8216038E-01
       -1   -1    0    0    0  501  0.00000000000E+00  0.00000000000E+00  0.91731215974E+03  0.91731215976E+03  0.50400001928E-02 0. -1.
        1   -1    0    0  501    0  0.00000000000E+00  0.00000000000E+00 -0.26172173433E+04  0.26172173433E+04  0.50400001928E-02 0.  1.
    10030    2    1    2    0    0  0.00000000000E+00  0.00000000000E+00 -0.16999051835E+04  0.35345295030E+04  0.30989064482E+04 0.  0.
        3    1    3    3  502    0 -0.74708922891E+03  0.49648145210E+03 -0.22909480095E+04  0.24603005793E+04  0.10100000352E+00 0.  1.
       -3    1    3    3    0  502  0.74708922891E+03 -0.49648145210E+03  0.59104282596E+03  0.10742289237E+04  0.10100000352E+00 0. -1.
</event>
<event>
 5   0  0.7363513E-06  0.3117532E+04  0.7818609E-02  0.8210943E-01
        2   -1    0    0  501    0  0.00000000000E+00  0.00000000000E+00  0.19900938305E+04  0.19900938305E+04  0.25500000920E-02 0.  1.
       -2   -1    0    0    0  501  0.00000000000E+00  0.00000000000E+00 -0.12209234162E+04  0.12209234162E+04  0.25500000920E-02 0. -1.
    10030    2    1    2    0    0  0.00000000000E+00  0.00000000000E+00  0.76917041435E+03  0.32110172467E+04  0.31175324589E+04 0.  0.
        4    1    3    3  502    0  0.88025568535E+03  0.12129254530E+04  0.82605479801E+03  0.17112587088E+04  0.12699999809E+01 0.  1.
       -4    1    3    3    0  502 -0.88025568535E+03 -0.12129254530E+04 -0.56884383665E+02  0.14997585379E+04  0.12699999809E+01 0. -1.
</event>
<event>
 5   0  0.2612331E-06  0.3060212E+04  0.7818609E-02  0.8226743E-01
       -1   -1    0    0    0  501  0.00000000000E+00  0.00000000000E+00  0.16495453909E+04  0.16495453909E+04  0.50400001928E-02 0.  1.
        1   -1    0    0  501    0  0.00000000000E+00  0.00000000000E+00 -0.14193152576E+04  0.14193152576E+04  0.50400001928E-02 0. -1.
    10030    2    1    2    0    0  0.00000000000E+00  0.00000000000E+00  0.23023013330E+03  0.30688606485E+04  0.30602123726E+04 0.  0.
        4    1    3    3  502    0 -0.50926139663E+03 -0.15222421247E+03  0.15539883549E+04  0.16423765710E+04  0.12699999809E+01 0.  1.
       -4    1    3    3    0  502  0.50926139663E+03  0.15222421247E+03 -0.13237582216E+04  0.14264840774E+04  0.12699999809E+01 0. -1.
</event>
<event>
 5   0  0.7094341E-06  0.3061502E+04  0.7818609E-02  0.8226383E-01
       -2   -1    0    0    0  501  0.00000000000E+00  0.00000000000E+00  0.11856316960E+04  0.11856316960E+04  0.25500000920E-02 0. -1.
        2   -1    0    0  501    0  0.00000000000E+00  0.00000000000E+00 -0.19763295840E+04  0.19763295840E+04  0.25500000920E-02 0.  1.
    10030    2    1    2    0    0  0.00000000000E+00  0.00000000000E+00 -0.79069788806E+03  0.31619612800E+04  0.30615022434E+04 0.  0.
        3    1    3    3  502    0 -0.38596243887E+03  0.44223200294E+03  0.10647817622E+04  0.12158521127E+04  0.10100000352E+00 0. -1.
       -3    1    3    3    0  502  0.38596243887E+03 -0.44223200294E+03 -0.18554796502E+04  0.19461091674E+04  0.10100000352E+00 0.  1.
</event>
<event>
 5   0  0.7094341E-06  0.2857976E+04  0.7818609E-02  0.8285492E-01
       -2   -1    0    0    0  501  0.00000000000E+00  0.00000000000E+00  0.94991773352E+03  0.94991773352E+03  0.25500000920E-02 0. -1.
        2   -1    0    0  501    0  0.00000000000E+00  0.00000000000E+00 -0.21496670069E+04  0.21496670069E+04  0.25500000920E-02 0.  1.
    10030    2    1    2    0    0  0.00000000000E+00  0.00000000000E+00 -0.11997492734E+04  0.30995847404E+04  0.28579760748E+04 0.  0.
        3    1    3    3  502    0  0.11451941472E+03 -0.27151132342E+02 -0.21444015778E+04  0.21476289291E+04  0.10100000352E+00 0.  1.
       -3    1    3    3    0  502 -0.11451941472E+03  0.27151132342E+02  0.94465230437E+03  0.95195581131E+03  0.10100000352E+00 0. -1.
</event>
<event>
 5   0  0.7094341E-06  0.3092951E+04  0.7818609E-02  0.8217675E-01
        2   -1    0    0  501    0  0.00000000000E+00  0.00000000000E+00  0.29145393055E+04  0.29145393055E+04  0.25500000920E-02 0.  1.
       -2   -1    0    0    0  501  0.00000000000E+00  0.00000000000E+00 -0.82057121532E+03  0.82057121532E+03  0.25500000920E-02 0. -1.
    10030    2    1    2    0    0  0.00000000000E+00  0.00000000000E+00  0.20939680902E+04  0.37351105208E+04  0.30929513802E+04 0.  0.
        3    1    3    3  502    0  0.25049439329E+03 -0.40380572621E+03  0.28241892965E+04  0.28638875150E+04  0.10100000352E+00 0.  1.
       -3    1    3    3    0  502 -0.25049439329E+03  0.40380572621E+03 -0.73022120633E+03  0.87122300587E+03  0.10100000352E+00 0. -1.
</event>
<event>
 5   0  0.2598987E-06  0.3117340E+04  0.7818609E-02  0.8210995E-01
        1   -1    0    0  501    0  0.00000000000E+00  0.00000000000E+00  0.26854270456E+04  0.26854270456E+04  0.50400001928E-02 0.  1.
       -1   -1    0    0    0  501  0.00000000000E+00  0.00000000000E+00 -0.90468025674E+03  0.90468025675E+03  0.50400001928E-02 0. -1.
    10030    2    1    2    0    0  0.00000000000E+00  0.00000000000E+00  0.17807467888E+04  0.35901073023E+04  0.31173404235E+04 0.  0.
        2    1    3    3  502    0 -0.93790619771E+03  0.29901744800E+02 -0.54291498910E+03  0.10841212273E+04  0.25500000920E-02 0. -1.
       -2    1    3    3    0  502  0.93790619771E+03 -0.29901744800E+02  0.23236617779E+04  0.25059860750E+04  0.25500000920E-02 0.  1.
</event>
<event>
 5   0  0.7079223E-06  0.2977431E+04  0.7818609E-02  0.8250205E-01
        2   -1    0    0  501    0  0.00000000000E+00  0.00000000000E+00  0.21225652342E+04  0.21225652342E+04  0.25500000920E-02 0.  1.
       -2   -1    0    0    0  501  0.00000000000E+00  0.00000000000E+00 -0.10441490878E+04  0.10441490878E+04  0.25500000920E-02 0. -1.
    10030    2    1    2    0    0  0.00000000000E+00  0.00000000000E+00  0.10784161464E+04  0.31667143220E+04  0.29774314790E+04 0.  0.
        5    1    3    3  502    0 -0.15522544137E+03 -0.11271176255E+04 -0.48191205411E+03  0.12356174154E+04  0.46999998093E+01 0. -1.
       -5    1    3    3    0  502  0.15522544137E+03  0.11271176255E+04  0.15603282005E+04  0.19310969066E+04  0.46999998093E+01 0.  1.
</event>
<event>
 5   0  0.7079223E-06  0.3117513E+04  0.7818609E-02  0.8210948E-01
        2   -1    0    0  501    0  0.00000000000E+00  0.00000000000E+00  0.25721513794E+04  0.25721513794E+04  0.25500000920E-02 0. -1.
       -2   -1    0    0    0  501  0.00000000000E+00  0.00000000000E+00 -0.94462634062E+03  0.94462634062E+03  0.25500000920E-02 0.  1.
    10030    2    1    2    0    0  0.00000000000E+00  0.00000000000E+00  0.16275250388E+04  0.35167777201E+04  0.31175130762E+04 0.  0.
        5    1    3    3  502    0 -0.61691293653E+03  0.43675537559E+03 -0.72404476446E+03  0.10467090046E+04  0.46999998093E+01 0.  1.
       -5    1    3    3    0  502  0.61691293653E+03 -0.43675537559E+03  0.23515698033E+04  0.24700687155E+04  0.46999998093E+01 0. -1.
</event>
<event>
 5   0  0.7363513E-06  0.3116665E+04  0.7818609E-02  0.8211179E-01
       -2   -1    0    0    0  501  0.00000000000E+00  0.00000000000E+00  0.98130681828E+03  0.98130681829E+03  0.25500000920E-02 0. -1.
        2   -1    0    0  501    0  0.00000000000E+00  0.00000000000E+00 -0.24746598749E+04  0.24746598749E+04  0.25500000920E-02 0.  1.
    10030    2    1    2    0    0  0.00000000000E+00  0.00000000000E+00 -0.14933530566E+04  0.34559666932E+04  0.31166652744E+04 0.  0.
        4    1    3    3  502    0 -0.53671299588E+03  0.11507416616E+04 -0.17484269453E+04  0.21608483537E+04  0.12699999809E+01 0.  1.
       -4    1    3    3    0  502  0.53671299588E+03 -0.11507416616E+04  0.25507388869E+03  0.12951183395E+04  0.12699999809E+01 0. -1.
</event>
<event>
 5   0  0.7363513E-06  0.3130040E+04  0.7818609E-02  0.8207542E-01
       -2   -1    0    0    0  501  0.00000000000E+00  0.00000000000E+00  0.11215938056E+04  0.11215938056E+04  0.25500000920E-02 0. -1.
        2   -1    0    0  501    0  0.00000000000E+00  0.00000000000E+00 -0.21837562748E+04  0.21837562748E+04  0.25500000920E-02 0.  1.
    10030    2    1    2    0    0  0.00000000000E+00  0.00000000000E+00 -0.10621624692E+04  0.33053500804E+04  0.31300399428E+04 0.  0.
        4    1    3    3  502    0  0.38964081068E+03 -0.75030964779E+03  0.85968746392E+03  0.12057564752E+04  0.12699999809E+01 0. -1.
       -4    1    3    3    0  502 -0.38964081068E+03  0.75030964779E+03 -0.19218499331E+04  0.20995936052E+04  0.12699999809E+01 0.  1.
</event>
<event>
 5   0  0.2598987E-06  0.2122060E+04  0.7818609E-02  0.8551588E-01
        1   -1    0    0  501    0  0.00000000000E+00  0.00000000000E+00  0.78011368228E+03  0.78011368230E+03  0.50400001928E-02 0.  1.
       -1   -1    0    0    0  501  0.00000000000E+00  0.00000000000E+00 -0.14431028051E+04  0.14431028051E+04  0.50400001928E-02 0. -1.
    10030    2    1    2    0    0  0.00000000000E+00  0.00000000000E+00 -0.66298912280E+03  0.22232164874E+04  0.21220596063E+04 0.  0.
        2    1    3    3  502    0  0.14582941312E+03 -0.72858518293E+03  0.46202869183E+03  0.87497034155E+03  0.25500000920E-02 0.  1.
       -2    1    3    3    0  502 -0.14582941312E+03  0.72858518293E+03 -0.11250178146E+04  0.13482461458E+04  0.25500000920E-02 0. -1.
</event>
<event>
 5   0  0.7094341E-06  0.3068101E+04  0.7818609E-02  0.8224547E-01
       -2   -1    0    0    0  501  0.00000000000E+00  0.00000000000E+00  0.14338053151E+04  0.14338053151E+04  0.25500000920E-02 0. -1.
        2   -1    0    0  501    0  0.00000000000E+00  0.00000000000E+00 -0.16413041904E+04  0.16413041904E+04  0.25500000920E-02 0.  1.
    10030    2    1    2    0    0  0.00000000000E+00  0.00000000000E+00 -0.20749887529E+03  0.30751095054E+04  0.30681008274E+04 0.  0.
        3    1    3    3  502    0  0.93513311318E+03 -0.98165087580E+03 -0.82316223704E+03  0.15860985026E+04  0.10100000352E+00 0.  1.
       -3    1    3    3    0  502 -0.93513311318E+03  0.98165087580E+03  0.61566336174E+03  0.14890110028E+04  0.10100000352E+00 0. -1.
</event>
<event>
 5   0  0.2612331E-06  0.3275845E+04  0.7818609E-02  0.8169069E-01
       -1   -1    0    0    0  501  0.00000000000E+00  0.00000000000E+00  0.11287860768E+04  0.11287860768E+04  0.50400001928E-02 0. -1.
        1   -1    0    0  501    0  0.00000000000E+00  0.00000000000E+00 -0.23767037427E+04  0.23767037427E+04  0.50400001928E-02 0.  1.
    10030    2    1    2    0    0  0.00000000000E+00  0.00000000000E+00 -0.12479176658E+04  0.35054898195E+04  0.32758449863E+04 0.  0.
        4    1    3    3  502    0 -0.23844501715E+02  0.12866026794E+04  0.46042699607E+03  0.13667149105E+04  0.12699999809E+01 0. -1.
       -4    1    3    3    0  502  0.23844501715E+02 -0.12866026794E+04 -0.17083446619E+04  0.21387749091E+04  0.12699999809E+01 0.  1.
</event>
<event>
 5   0  0.7071012E-06  0.2010286E+04  0.7818609E-02  0.8601827E-01
       -2   -1    0    0    0  501  0.00000000000E+00  0.00000000000E+00  0.44508015143E+03  0.44508015143E+03  0.25500000920E-02 0. -1.
        2   -1    0    0  501    0  0.00000000000E+00  0.00000000000E+00 -0.22699566922E+04  0.22699566922E+04  0.25500000920E-02 0.  1.
    10030    2    1    2    0    0  0.00000000000E+00  0.00000000000E+00 -0.18248765407E+04  0.27150368436E+04  0.20102862167E+04 0.  0.
        1    1    3    3  502    0 -0.60096203525E+02 -0.54285668756E+02 -0.22655433239E+04  0.22669903044E+04  0.50400001928E-02 0.  1.
       -1    1    3    3    0  502  0.60096203525E+02  0.54285668756E+02  0.44066678317E+03  0.44804653924E+03  0.50400001928E-02 0. -1.
</event>
<event>
 5   0  0.7414808E-06  0.2907681E+04  0.7818609E-02  0.8270596E-01
       -2   -1    0    0    0  501  0.00000000000E+00  0.00000000000E+00  0.13731345238E+04  0.13731345238E+04  0.25500000920E-02 0. -1.
        2   -1    0    0  501    0  0.00000000000E+00  0.00000000000E+00 -0.15392899230E+04  0.15392899230E+04  0.25500000920E-02 0.  1.
    10030    2    1    2    0    0  0.00000000000E+00  0.00000000000E+00 -0.16615539919E+03  0.29124244469E+04  0.29076809560E+04 0.  0.
        2    1    3    3  502    0  0.52127148469E+02  0.69892548885E+03  0.11927498570E+04  0.13834255672E+04  0.25500000920E-02 0. -1.
       -2    1    3    3    0  502 -0.52127148469E+02 -0.69892548885E+03 -0.13589052562E+04  0.15289988797E+04  0.25500000920E-02 0.  1.
</event>
<event>
 5   0  0.2612331E-06  0.3098455E+04  0.7818609E-02  0.8216162E-01
       -1   -1    0    0    0  501  0.00000000000E+00  0.00000000000E+00  0.11955073392E+04  0.11955073392E+04  0.50400001928E-02 0.  1.
        1   -1    0    0  501    0  0.00000000000E+00  0.00000000000E+00 -0.20076038891E+04  0.20076038891E+04  0.50400001928E-02 0. -1.
    10030    2    1    2    0    0  0.00000000000E+00  0.00000000000E+00 -0.81209654992E+03  0.32031112283E+04  0.30984545719E+04 0.  0.
        4    1    3    3  502    0  0.14941536263E+03  0.75384494431E+03 -0.17966595645E+04  0.19541224000E+04  0.12699999809E+01 0. -1.
       -4    1    3    3    0  502 -0.14941536263E+03 -0.75384494431E+03  0.98456301456E+03  0.12489888283E+04  0.12699999809E+01 0.  1.
</event>
<event>
 5   0  0.2598987E-06  0.3055059E+04  0.7818609E-02  0.8228181E-01
       -1   -1    0    0    0  501  0.00000000000E+00  0.00000000000E+00  0.10223204818E+04  0.10223204818E+04  0.50400001928E-02 0. -1.
        1   -1    0    0  501    0  0.00000000000E+00  0.00000000000E+00 -0.22824022443E+04  0.22824022443E+04  0.50400001928E-02 0.  1.
    10030    2    1    2    0    0  0.00000000000E+00  0.00000000000E+00 -0.12600817625E+04  0.33047227261E+04  0.30550591235E+04 0.  0.
        2    1    3    3  502    0  0.35370756967E+03 -0.12058324989E+04 -0.15694618628E+04  0.20105600212E+04  0.25500000920E-02 0.  1.
       -2    1    3    3    0  502 -0.35370756967E+03  0.12058324989E+04  0.30938010028E+03  0.12941627048E+04  0.25500000920E-02 0. -1.
</event>
<event>
 5   0  0.7363513E-06  0.3046068E+04  0.7818609E-02  0.8230697E-01
       -2   -1    0    0    0  501  0.00000000000E+00  0.00000000000E+00  0.81284911644E+03  0.81284911644E+03  0.25500000920E-02 0.  1.
        2   -1    0    0  501    0  0.00000000000E+00  0.00000000000E+00 -0.28537066561E+04  0.28537066561E+04  0.25500000920E-02 0. -1.
    10030    2    1    2    0    0  0.00000000000E+00  0.00000000000E+00 -0.20408575396E+04  0.36665557725E+04  0.30460682422E+04 0.  0.
        4    1    3    3  502    0  0.29703345086E+03  0.14391682967E+04 -0.53865190316E+03  0.15651139712E+04  0.12699999809E+01 0.  1.
       -4    1    3    3    0  502 -0.29703345086E+03 -0.14391682967E+04 -0.15022056365E+04  0.21014418013E+04  0.12699999809E+01 0. -1.
</event>
<event>
 5   0  0.7363513E-06  0.3120509E+04  0.7818609E-02  0.8210132E-01
        2   -1    0    0  501    0  0.00000000000E+00  0.00000000000E+00  0.21335236911E+04  0.21335236911E+04  0.25500000920E-02 0. -1.
       -2   -1    0    0    0  501  0.00000000000E+00  0.00000000000E+00 -0.11410206758E+04  0.11410206758E+04  0.25500000920E-02 0.  1.
    10030    2    1    2    0    0  0.00000000000E+00  0.00000000000E+00  0.99250301528E+03  0.32745443669E+04  0.31205093455E+04 0.  0.
        4    1    3    3  502    0  0.15301193426E+04  0.27447629210E+03  0.35628613342E+03  0.15948491650E+04  0.12699999809E+01 0.  1.
       -4    1    3    3    0  502 -0.15301193426E+04 -0.27447629210E+03  0.63621688186E+03  0.16796952018E+04  0.12699999809E+01 0. -1.
</event>
<event>
 5   0  0.2612331E-06  0.3136478E+04  0.7818609E-02  0.8205797E-01
        1   -1    0    0  501    0  0.00000000000E+00  0.00000000000E+00  0.18399590925E+04  0.18399590925E+04  0.50400001928E-02 0. -1.
       -1   -1    0    0    0  501  0.00000000000E+00  0.00000000000E+00 -0.13366460893E+04  0.13366460893E+04  0.50400001928E-02 0.  1.
    10030    2    1    2    0    0  0.00000000000E+00  0.00000000000E+00  0.50331300318E+03  0.31766051818E+04  0.31364783599E+04 0.  0.
        4    1    3    3  502    0  0.83388590265E+03 -0.83954439106E+03 -0.79067099891E+03  0.14231523898E+04  0.12699999809E+01 0.  1.
       -4    1    3    3    0  502 -0.83388590265E+03  0.83954439106E+03  0.12939840021E+04  0.17534527920E+04  0.12699999809E+01 0. -1.
</event>
<event>
 5   0  0.2598987E-06  0.3134023E+04  0.7818609E-02  0.8206462E-01
        1   -1    0    0  501    0  0.00000000000E+00  0.00000000000E+00  0.21659796108E+04  0.21659796108E+04  0.50400001928E-02 0.  1.
       -1   -1    0    0    0  501  0.00000000000E+00  0.00000000000E+00 -0.11336785766E+04  0.11336785766E+04  0.50400001928E-02 0. -1.
    10030    2    1    2    0    0  0.00000000000E+00  0.00000000000E+00  0.10323010342E+04  0.32996581874E+04  0.31340227709E+04 0.  0.
        2    1    3    3  502    0 -0.83267947506E+03 -0.97075772302E+03 -0.43712952904E+03  0.13515945731E+04  0.25500000920E-02 0. -1.
       -2    1    3    3    0  502  0.83267947506E+03  0.97075772302E+03  0.14694305633E+04  0.19480636143E+04  0.25500000920E-02 0.  1.
</event>
<event>
 5   0  0.7079223E-06  0.2824120E+04  0.7818609E-02  0.8295819E-01
       -2   -1    0    0    0  501  0.00000000000E+00  0.00000000000E+00  0.19333230466E+04  0.19333230466E+04  0.25500000920E-02 0.  1.
        2   -1    0    0  501    0  0.00000000000E+00  0.00000000000E+00 -0.10313397604E+04  0.10313397604E+04  0.25500000920E-02 0. -1.
    10030    2    1    2    0    0  0.00000000000E+00  0.00000000000E+00  0.90198328627E+03  0.29646628070E+04  0.28241196346E+04 0.  0.
        5    1    3    3  502    0 -0.62897446846E+03 -0.59777032836E+03 -0.71842645207E+03  0.11265420119E+04  0.46999998093E+01 0. -1.
       -5    1    3    3    0  502  0.62897446846E+03  0.59777032836E+03  0.16204097383E+04  0.18381207951E+04  0.46999998093E+01 0.  1.
</event>
<event>
 5   0  0.7079223E-06  0.3002629E+04  0.7818609E-02  0.8242981E-01
       -2   -1    0    0    0  501  0.00000000000E+00  0.00000000000E+00  0.80946767941E+03  0.80946767941E+03  0.25500000920E-02 0. -1.
        2   -1    0    0  501    0  0.00000000000E+00  0.00000000000E+00 -0.27844784737E+04  0.27844784737E+04  0.25500000920E-02 0.  1.
    10030    2    1    2    0    0  0.00000000000E+00  0.00000000000E+00 -0.19750107943E+04  0.35939461532E+04  0.30026290670E+04 0.  0.
        5    1    3    3  502    0  0.78990300701E+03 -0.12217350465E+04 -0.14310816937E+04  0.20407352078E+04  0.46999998093E+01 0.  1.
       -5    1    3    3    0  502 -0.78990300701E+03  0.12217350465E+04 -0.54392910065E+03  0.15532109454E+04  0.46999998093E+01 0. -1.
</event>
<event>
 5   0  0.2674441E-06  0.2425926E+04  0.7818609E-02  0.8429860E-01
       -1   -1    0    0    0  501  0.00000000000E+00  0.00000000000E+00  0.91602867761E+03  0.91602867763E+03  0.50400001928E-02 0. -1.
        1   -1    0    0  501    0  0.00000000000E+00  0.00000000000E+00 -0.16061502961E+04  0.16061502961E+04  0.50400001928E-02 0.  1.
    10030    2    1    2    0    0  0.00000000000E+00  0.00000000000E+00 -0.69012161849E+03  0.25221789737E+04  0.24259264060E+04 0.  0.
        5    1    3    3  502    0 -0.23782181683E+03  0.21092310749E+03  0.87194268320E+03  0.92809153999E+03  0.46999998093E+01 0. -1.
       -5    1    3    3    0  502  0.23782181683E+03 -0.21092310749E+03 -0.15620643017E+04  0.15940874337E+04  0.46999998093E+01 0.  1.
</event>
<event>
 5   0  0.7414808E-06  0.3085437E+04  0.7818609E-02  0.8219746E-01
       -2   -1    0    0    0  501  0.00000000000E+00  0.00000000000E+00  0.13348550079E+04  0.13348550079E+04  0.25500000920E-02 0.  1.
        2   -1    0    0  501    0  0.00000000000E+00  0.00000000000E+00 -0.17829501813E+04  0.17829501813E+04  0.25500000920E-02 0. -1.
    10030    2    1    2    0    0  0.00000000000E+00  0.00000000000E+00 -0.44809517341E+03  0.31178051893E+04  0.30854367460E+04 0.  0.
        2    1    3    3  502    0 -0.18737767926E+03 -0.76963629261E+03 -0.15617669214E+04  0.17511614244E+04  0.25500000920E-02 0. -1.
       -2    1    3    3    0  502  0.18737767926E+03  0.76963629261E+03  0.11136717480E+04  0.13666437648E+04  0.25500000920E-02 0.  1.
</event>
<event>
 5   0  0.2612331E-06  0.3057295E+04  0.7818609E-02  0.8227557E-01
        1   -1    0    0  501    0  0.00000000000E+00  0.00000000000E+00  0.17577280224E+04  0.17577280224E+04  0.50400001928E-02 0.  1.
       -1   -1    0    0    0  501  0.00000000000E+00  0.00000000000E+00 -0.13294221353E+04  0.13294221353E+04  0.50400001928E-02 0. -1.
    10030    2    1    2    0    0  0.00000000000E+00  0.00000000000E+00  0.42830588707E+03  0.30871501577E+04  0.30572945824E+04 0.  0.
        4    1    3    3  502    0 -0.11624563024E+04  0.98452740606E+03  0.85781383396E+02  0.15257650301E+04  0.12699999809E+01 0.  1.
       -4    1    3    3    0  502  0.11624563024E+04 -0.98452740606E+03  0.34252450368E+03  0.15613851277E+04  0.12699999809E+01 0. -1.
</event>
<event>
 5   0  0.7094341E-06  0.3072149E+04  0.7818609E-02  0.8223423E-01
        2   -1    0    0  501    0  0.00000000000E+00  0.00000000000E+00  0.19374523238E+04  0.19374523238E+04  0.25500000920E-02 0. -1.
       -2   -1    0    0    0  501  0.00000000000E+00  0.00000000000E+00 -0.12178493237E+04  0.12178493237E+04  0.25500000920E-02 0.  1.
    10030    2    1    2    0    0  0.00000000000E+00  0.00000000000E+00  0.71960300008E+03  0.31553016475E+04  0.30721490863E+04 0.  0.
        3    1    3    3  502    0 -0.33223735353E+03  0.77202096819E+03 -0.96073892544E+03  0.12764863209E+04  0.10100000352E+00 0.  1.
       -3    1    3    3    0  502  0.33223735353E+03 -0.77202096819E+03  0.16803419255E+04  0.18788153265E+04  0.10100000352E+00 0. -1.
</event>
<event>
 5   0  0.7079223E-06  0.2417802E+04  0.7818609E-02  0.8432869E-01
        2   -1    0    0  501    0  0.00000000000E+00  0.00000000000E+00  0.18479091559E+04  0.18479091560E+04  0.25500000920E-02 0.  1.
       -2   -1    0    0    0  501  0.00000000000E+00  0.00000000000E+00 -0.79086252430E+03  0.79086252431E+03  0.25500000920E-02 0. -1.
    10030    2    1    2    0    0  0.00000000000E+00  0.00000000000E+00  0.10570466316E+04  0.26387716803E+04  0.24178023904E+04 0.  0.
        5    1    3    3  502    0 -0.78079420392E+03 -0.28029510175E+03 -0.43116712452E+03  0.93495032607E+03  0.46999998093E+01 0. -1.
       -5    1    3    3    0  502  0.78079420392E+03  0.28029510175E+03  0.14882137562E+04  0.17038213542E+04  0.46999998093E+01 0.  1.
</event>
<event>
 5   0  0.7414808E-06  0.3111776E+04  0.7818609E-02  0.8212513E-01
       -2   -1    0    0    0  501  0.00000000000E+00  0.00000000000E+00  0.12088336681E+04  0.12088336681E+04  0.25500000920E-02 0. -1.
        2   -1    0    0  501    0  0.00000000000E+00  0.00000000000E+00 -0.20025814206E+04  0.20025814206E+04  0.25500000920E-02 0.  1.
    10030    2    1    2    0    0  0.00000000000E+00  0.00000000000E+00 -0.79374775242E+03  0.32114150887E+04  0.31117762416E+04 0.  0.
        2    1    3    3  502    0 -0.44022259195E+03 -0.37811087658E+03  0.10929655026E+04  0.12374721635E+04  0.25500000920E-02 0. -1.
       -2    1    3    3    0  502  0.44022259195E+03  0.37811087658E+03 -0.18867132550E+04  0.19739429253E+04  0.25500000920E-02 0.  1.
</event>
<event>
 5   0  0.2517725E-06  0.3094766E+04  0.7818609E-02  0.8217176E-01
        1   -1    0    0  501    0  0.00000000000E+00  0.00000000000E+00  0.18757468385E+04  0.18757468385E+04  0.50400001928E-02 0. -1.
       -1   -1    0    0    0  501  0.00000000000E+00  0.00000000000E+00 -0.12765019612E+04  0.12765019612E+04  0.50400001928E-02 0.  1.
    10030    2    1    2    0    0  0.00000000000E+00  0.00000000000E+00  0.59924487735E+03  0.31522487997E+04  0.30947662387E+04 0.  0.
        3    1    3    3  502    0 -0.14883539095E+04  0.77290350331E+02  0.72355410079E+03  0.16567141290E+04  0.10100000352E+00 0. -1.
       -3    1    3    3    0  502  0.14883539095E+04 -0.77290350331E+02 -0.12430922343E+03  0.14955346708E+04  0.10100000352E+00 0.  1.
</event>
<event>
 5   0  0.7414808E-06  0.3069240E+04  0.7818609E-02  0.8224231E-01
        2   -1    0    0  501    0  0.00000000000E+00  0.00000000000E+00  0.15423508594E+04  0.15423508595E+04  0.25500000920E-02 0.  1.
       -2   -1    0    0    0  501  0.00000000000E+00  0.00000000000E+00 -0.15269280875E+04  0.15269280875E+04  0.25500000920E-02 0. -1.
    10030    2    1    2    0    0  0.00000000000E+00  0.00000000000E+00  0.15422771941E+02  0.30692789470E+04  0.30692401979E+04 0.  0.
        2    1    3    3  502    0  0.20213982184E+03  0.10577306376E+03 -0.15098750369E+04  0.15270137771E+04  0.25500000920E-02 0. -1.
       -2    1    3    3    0  502 -0.20213982184E+03 -0.10577306376E+03  0.15252978088E+04  0.15422651698E+04  0.25500000920E-02 0.  1.
</event>
<event>
 5   0  0.2674441E-06  0.3132475E+04  0.7818609E-02  0.8206882E-01
        1   -1    0    0  501    0  0.00000000000E+00  0.00000000000E+00  0.14498856309E+04  0.14498856309E+04  0.50400001928E-02 0. -1.
       -1   -1    0    0    0  501  0.00000000000E+00  0.00000000000E+00 -0.16919263472E+04  0.16919263473E+04  0.50400001928E-02 0.  1.
    10030    2    1    2    0    0  0.00000000000E+00  0.00000000000E+00 -0.24204071634E+03  0.31418119782E+04  0.31324748679E+04 0.  0.
        5    1    3    3  502    0  0.56412307697E+03 -0.36943183903E+03  0.12968279614E+04  0.14616769756E+04  0.46999998093E+01 0. -1.
       -5    1    3    3    0  502 -0.56412307697E+03  0.36943183903E+03 -0.15388686777E+04  0.16801350026E+04  0.46999998093E+01 0.  1.
</event>
<event>
 5   0  0.2612331E-06  0.2293276E+04  0.7818609E-02  0.8480577E-01
        1   -1    0    0  501    0  0.00000000000E+00  0.00000000000E+00  0.16014305379E+04  0.16014305379E+04  0.50400001928E-02 0.  1.
       -1   -1    0    0    0  501  0.00000000000E+00  0.00000000000E+00 -0.82100246529E+03  0.82100246531E+03  0.50400001928E-02 0. -1.
    10030    2    1    2    0    0  0.00000000000E+00  0.00000000000E+00  0.78042807256E+03  0.24224330032E+04  0.22932757528E+04 0.  0.
        4    1    3    3  502    0 -0.70407721786E+03  0.90095567347E+03  0.48065718980E+03  0.12403543047E+04  0.12699999809E+01 0.  1.
       -4    1    3    3    0  502  0.70407721786E+03 -0.90095567347E+03  0.29977088276E+03  0.11820786984E+04  0.12699999809E+01 0. -1.
</event>
<event>
 5   0  0.7094341E-06  0.2990789E+04  0.7818609E-02  0.8246366E-01
        2   -1    0    0  501    0  0.00000000000E+00  0.00000000000E+00  0.18470292408E+04  0.18470292408E+04  0.25500000920E-02 0. -1.
       -2   -1    0    0    0  501  0.00000000000E+00  0.00000000000E+00 -0.12107031456E+04  0.12107031457E+04  0.25500000920E-02 0.  1.
    10030    2    1    2    0    0  0.00000000000E+00  0.00000000000E+00  0.63632609515E+03  0.30577323864E+04  0.29907885996E+04 0.  0.
        3    1    3    3  502    0 -0.13011754532E+04  0.23235255752E+03 -0.39689073077E+03  0.13800606991E+04  0.10100000352E+00 0.  1.
       -3    1    3    3    0  502  0.13011754532E+04 -0.23235255752E+03  0.10332168259E+04  0.16776716873E+04  0.10100000352E+00 0. -1.
</event>
<event>
 5   0  0.2517725E-06  0.3101856E+04  0.7818609E-02  0.8215229E-01
        1   -1    0    0  501    0  0.00000000000E+00  0.00000000000E+00  0.21761700665E+04  0.21761700665E+04  0.50400001928E-02 0.  1.
       -1   -1    0    0    0  501  0.00000000000E+00  0.00000000000E+00 -0.11053259891E+04  0.11053259891E+04  0.50400001928E-02 0. -1.
    10030    2    1    2    0    0  0.00000000000E+00  0.00000000000E+00  0.10708440774E+04  0.32814960556E+04  0.31018557872E+04 0.  0.
        3    1    3    3  502    0 -0.62485006189E+03  0.11239516103E+04  0.14526232394E+04  0.19400564703E+04  0.10100000352E+00 0.  1.
       -3    1    3    3    0  502  0.62485006189E+03 -0.11239516103E+04 -0.38177916194E+03  0.13414395853E+04  0.10100000352E+00 0. -1.
</event>
<event>
 5   0  0.2598987E-06  0.2613431E+04  0.7818609E-02  0.8363653E-01
        1   -1    0    0  501    0  0.00000000000E+00  0.00000000000E+00  0.15900995030E+04  0.15900995030E+04  0.50400001928E-02 0. -1.
       -1   -1    0    0    0  501  0.00000000000E+00  0.00000000000E+00 -0.10738354266E+04  0.10738354266E+04  0.50400001928E-02 0.  1.
    10030    2    1    2    0    0  0.00000000000E+00  0.00000000000E+00  0.51626407642E+03  0.26639349297E+04  0.26134308319E+04 0.  0.
        2    1    3    3  502    0 -0.30351778147E+03 -0.95848286110E+03  0.11089433284E+04  0.14968526128E+04  0.25500000920E-02 0. -1.
       -2    1    3    3    0  502  0.30351778147E+03  0.95848286110E+03 -0.59267925201E+03  0.11670823169E+04  0.25500000920E-02 0.  1.
</event>
<event>
 5   0  0.2598987E-06  0.3056207E+04  0.7818609E-02  0.8227860E-01
        1   -1    0    0  501    0  0.00000000000E+00  0.00000000000E+00  0.19877938363E+04  0.19877938363E+04  0.50400001928E-02 0.  1.
       -1   -1    0    0    0  501  0.00000000000E+00  0.00000000000E+00 -0.11747198469E+04  0.11747198469E+04  0.50400001928E-02 0. -1.
    10030    2    1    2    0    0  0.00000000000E+00  0.00000000000E+00  0.81307398936E+03  0.31625136832E+04  0.30562073693E+04 0.  0.
        2    1    3    3  502    0  0.14801714198E+04  0.23091967952E+03  0.71846815503E+03  0.16614535264E+04  0.25500000920E-02 0.  1.
       -2    1    3    3    0  502 -0.14801714198E+04 -0.23091967952E+03  0.94605834333E+02  0.15010601568E+04  0.25500000920E-02 0. -1.
</event>
<event>
 5   0  0.7363513E-06  0.3098906E+04  0.7818609E-02  0.8216038E-01
        2   -1    0    0  501    0  0.00000000000E+00  0.00000000000E+00  0.26123196512E+04  0.26123196512E+04  0.25500000920E-02 0. -1.
       -2   -1    0    0    0  501  0.00000000000E+00  0.00000000000E+00 -0.91903151015E+03  0.91903151016E+03  0.25500000920E-02 0.  1.
    10030    2    1    2    0    0  0.00000000000E+00  0.00000000000E+00  0.16932881410E+04  0.35313511613E+04  0.30989056611E+04 0.  0.
        4    1    3    3  502    0 -0.96946102612E+03 -0.48195672207E+02  0.22229163772E+04  0.24256002014E+04  0.12699999809E+01 0. -1.
       -4    1    3    3    0  502  0.96946102612E+03  0.48195672207E+02 -0.52962823618E+03  0.11057509600E+04  0.12699999809E+01 0.  1.
</event>
<event>
 5   0  0.2612331E-06  0.3130338E+04  0.7818609E-02  0.8207461E-01
        1   -1    0    0  501    0  0.00000000000E+00  0.00000000000E+00  0.13701131743E+04  0.13701131743E+04  0.50400001928E-02 0.  1.
       -1   -1    0    0    0  501  0.00000000000E+00  0.00000000000E+00 -0.17879944563E+04  0.17879944564E+04  0.50400001928E-02 0. -1.
    10030    2    1    2    0    0  0.00000000000E+00  0.00000000000E+00 -0.41788128206E+03  0.31581076306E+04  0.31303384866E+04 0.  0.
        4    1    3    3  502    0  0.97637172201E+02  0.10797942727E+04 -0.13477877175E+04  0.17297462337E+04  0.12699999809E+01 0. -1.
       -4    1    3    3    0  502 -0.97637172201E+02 -0.10797942727E+04  0.92990643541E+03  0.14283613969E+04  0.12699999809E+01 0.  1.
</event>
<event>
 5   0  0.2624011E-06  0.3140855E+04  0.7818609E-02  0.8204614E-01
       -1   -1    0    0    0  501  0.00000000000E+00  0.00000000000E+00  0.13119855471E+04  0.13119855471E+04  0.50400001928E-02 0. -1.
        1   -1    0    0  501    0  0.00000000000E+00  0.00000000000E+00 -0.18797789858E+04  0.18797789858E+04  0.50400001928E-02 0.  1.
    10030    2    1    2    0    0  0.00000000000E+00  0.00000000000E+00 -0.56779343873E+03  0.31917645330E+04  0.31408552092E+04 0.  0.
        1    1    3    3  502    0  0.86174432426E+03 -0.12386951005E+04  0.15821134982E+03  0.15172342151E+04  0.50400001928E-02 0. -1.
       -1    1    3    3    0  502 -0.86174432426E+03  0.12386951005E+04 -0.72600478855E+03  0.16745303178E+04  0.50400001928E-02 0.  1.
</event>
<event>
 5   0  0.7079223E-06  0.3062119E+04  0.7818609E-02  0.8226212E-01
        2   -1    0    0  501    0  0.00000000000E+00  0.00000000000E+00  0.12881247079E+04  0.12881247079E+04  0.25500000920E-02 0.  1.
       -2   -1    0    0    0  501  0.00000000000E+00  0.00000000000E+00 -0.18198105477E+04  0.18198105477E+04  0.25500000920E-02 0. -1.
    10030    2    1    2    0    0  0.00000000000E+00  0.00000000000E+00 -0.53168583979E+03  0.31079352556E+04  0.30621188287E+04 0.  0.
        5    1    3    3  502    0 -0.38174052263E+03 -0.12846497081E+03  0.12333810758E+04  0.12974899011E+04  0.46999998093E+01 0.  1.
       -5    1    3    3    0  502  0.38174052263E+03  0.12846497081E+03 -0.17650669156E+04  0.18104453545E+04  0.46999998093E+01 0. -1.
</event>
<event>
 5   0  0.7071012E-06  0.2520985E+04  0.7818609E-02  0.8395547E-01
        2   -1    0    0  501    0  0.00000000000E+00  0.00000000000E+00  0.13517025601E+04  0.13517025601E+04  0.25500000920E-02 0.  1.
       -2   -1    0    0    0  501  0.00000000000E+00  0.00000000000E+00 -0.11754371827E+04  0.11754371827E+04  0.25500000920E-02 0. -1.
    10030    2    1    2    0    0  0.00000000000E+00  0.00000000000E+00  0.17626537739E+03  0.25271397427E+04  0.25209850845E+04 0.  0.
        1    1    3    3  502    0 -0.53759119721E+03  0.62791408175E+03  0.10420656407E+04  0.13301057059E+04  0.50400001928E-02 0.  1.
       -1    1    3    3    0  502  0.53759119721E+03 -0.62791408175E+03 -0.86580026329E+03  0.11970340368E+04  0.50400001928E-02 0. -1.
</event>
<event>
 5   0  0.7071012E-06  0.2284283E+04  0.7818609E-02  0.8484144E-01
        2   -1    0    0  501    0  0.00000000000E+00  0.00000000000E+00  0.11736348204E+04  0.11736348204E+04  0.25500000920E-02 0. -1.
       -2   -1    0    0    0  501  0.00000000000E+00  0.00000000000E+00 -0.11114934930E+04  0.11114934930E+04  0.25500000920E-02 0.  1.
    10030    2    1    2    0    0  0.00000000000E+00  0.00000000000E+00  0.62141327488E+02  0.22851283134E+04  0.22842832277E+04 0.  0.
        1    1    3    3  502    0 -0.69934474989E+03 -0.27232568086E+03  0.89234394641E+03  0.11659854520E+04  0.50400001928E-02 0. -1.
       -1    1    3    3    0  502  0.69934474989E+03  0.27232568086E+03 -0.83020261892E+03  0.11191428614E+04  0.50400001928E-02 0.  1.
</event>
<event>
 5   0  0.2517725E-06  0.3105403E+04  0.7818609E-02  0.8214257E-01
        1   -1    0    0  501    0  0.00000000000E+00  0.00000000000E+00  0.21026960303E+04  0.21026960303E+04  0.50400001928E-02 0.  1.
       -1   -1    0    0    0  501  0.00000000000E+00  0.00000000000E+00 -0.11465670081E+04  0.11465670082E+04  0.50400001928E-02 0. -1.
    10030    2    1    2    0    0  0.00000000000E+00  0.00000000000E+00  0.95612902215E+03  0.32492630385E+04  0.31054029668E+04 0.  0.
        3    1    3    3  502    0 -0.13771118135E+03  0.13779400396E+04  0.12128793139E+04  0.18408583222E+04  0.10100000352E+00 0.  1.
       -3    1    3    3    0  502  0.13771118135E+03 -0.13779400396E+04 -0.25675029170E+03  0.14084047163E+04  0.10100000352E+00 0. -1.
</event>
<event>
 5   0  0.7079223E-06  0.3105628E+04  0.7818609E-02  0.8214195E-01
       -2   -1    0    0    0  501  0.00000000000E+00  0.00000000000E+00  0.12593277576E+04  0.12593277576E+04  0.25500000920E-02 0.  1.
        2   -1    0    0  501    0  0.00000000000E+00  0.00000000000E+00 -0.19146970415E+04  0.19146970415E+04  0.25500000920E-02 0. -1.
    10030    2    1    2    0    0  0.00000000000E+00  0.00000000000E+00 -0.65536928384E+03  0.31740247991E+04  0.31056278797E+04 0.  0.
        5    1    3    3  502    0  0.61744230853E+03 -0.52339917870E+03 -0.16820209924E+04  0.18666543369E+04  0.46999998093E+01 0. -1.
       -5    1    3    3    0  502 -0.61744230853E+03  0.52339917870E+03  0.10266517086E+04  0.13073704622E+04  0.46999998093E+01 0.  1.
</event>
<event>
 5   0  0.7414808E-06  0.3041954E+04  0.7818609E-02  0.8231851E-01
       -2   -1    0    0    0  501  0.00000000000E+00  0.00000000000E+00  0.13346902158E+04  0.13346902158E+04  0.25500000920E-02 0.  1.
        2   -1    0    0  501    0  0.00000000000E+00  0.00000000000E+00 -0.17332646967E+04  0.17332646967E+04  0.25500000920E-02 0. -1.
    10030    2    1    2    0    0  0.00000000000E+00  0.00000000000E+00 -0.39857448087E+03  0.30679549125E+04  0.30419542614E+04 0.  0.
        2    1    3    3  502    0 -0.26650102992E+03  0.14603879807E+04  0.13462507265E+03  0.14905971164E+04  0.25500000920E-02 0.  1.
       -2    1    3    3    0  502  0.26650102992E+03 -0.14603879807E+04 -0.53319955353E+03  0.15773577961E+04  0.25500000920E-02 0. -1.
</event>
<event>
 5   0  0.2674441E-06  0.2547247E+04  0.7818609E-02  0.8386344E-01
        1   -1    0    0  501    0  0.00000000000E+00  0.00000000000E+00  0.22696180629E+04  0.22696180630E+04  0.50400001928E-02 0.  1.
       -1   -1    0    0    0  501  0.00000000000E+00  0.00000000000E+00 -0.71470936200E+03  0.71470936202E+03  0.50400001928E-02 0. -1.
    10030    2    1    2    0    0  0.00000000000E+00  0.00000000000E+00  0.15549087009E+04  0.29843274250E+04  0.25472473596E+04 0.  0.
        5    1    3    3  502    0  0.26991125858E+03 -0.20382782789E+03 -0.66112038939E+03  0.74263054758E+03  0.46999998093E+01 0. -1.
       -5    1    3    3    0  502 -0.26991125858E+03  0.20382782789E+03  0.22160290903E+04  0.22416968774E+04  0.46999998093E+01 0.  1.
</event>
<event>
 5   0  0.7071012E-06  0.3103357E+04  0.7818609E-02  0.8214817E-01
        2   -1    0    0  501    0  0.00000000000E+00  0.00000000000E+00  0.23132097023E+04  0.23132097023E+04  0.25500000920E-02 0. -1.
       -2   -1    0    0    0  501  0.00000000000E+00  0.00000000000E+00 -0.10408505296E+04  0.10408505296E+04  0.25500000920E-02 0.  1.
    10030    2    1    2    0    0  0.00000000000E+00  0.00000000000E+00  0.12723591728E+04  0.33540602319E+04  0.31033565980E+04 0.  0.
        1    1    3    3  502    0  0.17042579917E+03 -0.13729935345E+04 -0.12310479276E+03  0.13889963963E+04  0.50400001928E-02 0.  1.
       -1    1    3    3    0  502 -0.17042579917E+03  0.13729935345E+04  0.13954639655E+04  0.19650638356E+04  0.50400001928E-02 0. -1.
</event>
<event>
 5   0  0.7363513E-06  0.2914854E+04  0.7818609E-02  0.8268472E-01
       -2   -1    0    0    0  501  0.00000000000E+00  0.00000000000E+00  0.12049060756E+04  0.12049060756E+04  0.25500000920E-02 0. -1.
        2   -1    0    0  501    0  0.00000000000E+00  0.00000000000E+00 -0.17628705758E+04  0.17628705759E+04  0.25500000920E-02 0.  1.
    10030    2    1    2    0    0  0.00000000000E+00  0.00000000000E+00 -0.55796450026E+03  0.29677766514E+04  0.29148540048E+04 0.  0.
        4    1    3    3  502    0 -0.10455627043E+04 -0.45174179437E+03 -0.12047879500E+04  0.16579468131E+04  0.12699999809E+01 0.  1.
       -4    1    3    3    0  502  0.10455627043E+04  0.45174179437E+03  0.64682344978E+03  0.13098298384E+04  0.12699999809E+01 0. -1.
</event>
<event>
 5   0  0.7071012E-06  0.3118137E+04  0.7818609E-02  0.8210778E-01
       -2   -1    0    0    0  501  0.00000000000E+00  0.00000000000E+00  0.11263241097E+04  0.11263241097E+04  0.25500000920E-02 0.  1.
        2   -1    0    0  501    0  0.00000000000E+00  0.00000000000E+00 -0.21580778384E+04  0.21580778384E+04  0.25500000920E-02 0. -1.
    10030    2    1    2    0    0  0.00000000000E+00  0.00000000000E+00 -0.10317537287E+04  0.32844019480E+04  0.31181373285E+04 0.  0.
        1    1    3    3  502    0  0.18801308988E+03  0.81221358752E+03 -0.19035679479E+04  0.20781267445E+04  0.50400001928E-02 0. -1.
       -1    1    3    3    0  502 -0.18801308988E+03 -0.81221358752E+03  0.87181421926E+03  0.12062752035E+04  0.50400001928E-02 0.  1.
</event>
<event>
 5   0  0.7414808E-06  0.3047745E+04  0.7818609E-02  0.8230227E-01
        2   -1    0    0  501    0  0.00000000000E+00  0.00000000000E+00  0.14083128557E+04  0.14083128557E+04  0.25500000920E-02 0. -1.
       -2   -1    0    0    0  501  0.00000000000E+00  0.00000000000E+00 -0.16489147155E+04  0.16489147155E+04  0.25500000920E-02 0.  1.
    10030    2    1    2    0    0  0.00000000000E+00  0.00000000000E+00 -0.24060185974E+03  0.30572275712E+04  0.30477452595E+04 0.  0.
        2    1    3    3  502    0 -0.10966794164E+04  0.97620870202E+03  0.28901101767E+03  0.14964011964E+04  0.25500000920E-02 0. -1.
       -2    1    3    3    0  502  0.10966794164E+04 -0.97620870202E+03 -0.52961287742E+03  0.15608263748E+04  0.25500000920E-02 0.  1.
</event>
<event>
 5   0  0.2598987E-06  0.3111435E+04  0.7818609E-02  0.8212607E-01
        1   -1    0    0  501    0  0.00000000000E+00  0.00000000000E+00  0.25728034969E+04  0.25728034969E+04  0.50400001928E-02 0.  1.
       -1   -1    0    0    0  501  0.00000000000E+00  0.00000000000E+00 -0.94070800386E+03  0.94070800387E+03  0.50400001928E-02 0. -1.
    10030    2    1    2    0    0  0.00000000000E+00  0.00000000000E+00  0.16320954930E+04  0.35135115007E+04  0.31114349371E+04 0.  0.
        2    1    3    3  502    0  0.17879015307E+02 -0.51998369508E+03 -0.83955008724E+03  0.98769785427E+03  0.25500000920E-02 0. -1.
       -2    1    3    3    0  502 -0.17879015307E+02  0.51998369508E+03  0.24716455803E+04  0.25258136465E+04  0.25500000920E-02 0.  1.
</event>
<event>
 5   0  0.2598987E-06  0.3134329E+04  0.7818609E-02  0.8206379E-01
       -1   -1    0    0    0  501  0.00000000000E+00  0.00000000000E+00  0.13265967698E+04  0.13265967698E+04  0.50400001928E-02 0. -1.
        1   -1    0    0  501    0  0.00000000000E+00  0.00000000000E+00 -0.18513578456E+04  0.18513578456E+04  0.50400001928E-02 0.  1.
    10030    2    1    2    0    0  0.00000000000E+00  0.00000000000E+00 -0.52476107584E+03  0.31779546154E+04  0.31343294898E+04 0.  0.
        2    1    3    3  502    0 -0.11679483556E+04  0.42898738539E+03 -0.12284654622E+04  0.17485024821E+04  0.25500000920E-02 0.  1.
       -2    1    3    3    0  502  0.11679483556E+04 -0.42898738539E+03  0.70370438633E+03  0.14294521333E+04  0.25500000920E-02 0. -1.
</event>
<event>
 5   0  0.7071012E-06  0.3084291E+04  0.7818609E-02  0.8220062E-01
        2   -1    0    0  501    0  0.00000000000E+00  0.00000000000E+00  0.17394074167E+04  0.17394074167E+04  0.25500000920E-02 0. -1.
       -2   -1    0    0    0  501  0.00000000000E+00  0.00000000000E+00 -0.13672548798E+04  0.13672548798E+04  0.25500000920E-02 0.  1.
    10030    2    1    2    0    0  0.00000000000E+00  0.00000000000E+00  0.37215253686E+03  0.31066622965E+04  0.30842913471E+04 0.  0.
        1    1    3    3  502    0  0.57389937184E+03  0.13126735463E+04  0.76095313238E+03  0.16221966582E+04  0.50400001928E-02 0. -1.
       -1    1    3    3    0  502 -0.57389937184E+03 -0.13126735463E+04 -0.38880059552E+03  0.14844656383E+04  0.50400001928E-02 0.  1.
</event>
<event>
 5   0  0.2624011E-06  0.3175392E+04  0.7818609E-02  0.8195346E-01
        1   -1    0    0  501    0  0.00000000000E+00  0.00000000000E+00  0.27057965507E+04  0.27057965507E+04  0.50400001928E-02 0.  1.
       -1   -1    0    0    0  501  0.00000000000E+00  0.00000000000E+00 -0.93162167196E+03  0.93162167197E+03  0.50400001928E-02 0. -1.
    10030    2    1    2    0    0  0.00000000000E+00  0.00000000000E+00  0.17741748787E+04  0.36374182227E+04  0.31753920744E+04 0.  0.
        1    1    3    3  502    0 -0.65780791468E+03 -0.92552610197E+03  0.21582690568E+04  0.24387363817E+04  0.50400001928E-02 0.  1.
       -1    1    3    3    0  502  0.65780791468E+03  0.92552610197E+03 -0.38409417810E+03  0.11986818409E+04  0.50400001928E-02 0. -1.
</event>
<event>
 5   0  0.2674441E-06  0.3051067E+04  0.7818609E-02  0.8229297E-01
        1   -1    0    0  501    0  0.00000000000E+00  0.00000000000E+00  0.17863271442E+04  0.17863271442E+04  0.50400001928E-02 0. -1.
       -1   -1    0    0    0  501  0.00000000000E+00  0.00000000000E+00 -0.13028144295E+04  0.13028144295E+04  0.50400001928E-02 0.  1.
    10030    2    1    2    0    0  0.00000000000E+00  0.00000000000E+00  0.48351271478E+03  0.30891415737E+04  0.30510672095E+04 0.  0.
        5    1    3    3  502    0  0.15178644983E+04  0.12816374242E+03  0.32581107832E+03  0.15577270393E+04  0.46999998093E+01 0.  1.
       -5    1    3    3    0  502 -0.15178644983E+04 -0.12816374242E+03  0.15770163646E+03  0.15314145344E+04  0.46999998093E+01 0. -1.
</event>
<event>
 5   0  0.7071012E-06  0.3116355E+04  0.7818609E-02  0.8211264E-01
       -2   -1    0    0    0  501  0.00000000000E+00  0.00000000000E+00  0.89218285357E+03  0.89218285357E+03  0.25500000920E-02 0. -1.
        2   -1    0    0  501    0  0.00000000000E+00  0.00000000000E+00 -0.27213223357E+04  0.27213223357E+04  0.25500000920E-02 0.  1.
    10030    2    1    2    0    0  0.00000000000E+00  0.00000000000E+00 -0.18291394821E+04  0.36135051893E+04  0.31163550035E+04 0.  0.
        1    1    3    3  502    0  0.25769171857E+03  0.11773766602E+04  0.23054774695E+03  0.12270994603E+04  0.50400001928E-02 0. -1.
       -1    1    3    3    0  502 -0.25769171857E+03 -0.11773766602E+04 -0.20596872291E+04  0.23864057290E+04  0.50400001928E-02 0.  1.
</event>
<event>
 5   0  0.2612331E-06  0.3082801E+04  0.7818609E-02  0.8220474E-01
        1   -1    0    0  501    0  0.00000000000E+00  0.00000000000E+00  0.12904792199E+04  0.12904792199E+04  0.50400001928E-02 0. -1.
       -1   -1    0    0    0  501  0.00000000000E+00  0.00000000000E+00 -0.18411110737E+04  0.18411110738E+04  0.50400001928E-02 0.  1.
    10030    2    1    2    0    0  0.00000000000E+00  0.00000000000E+00 -0.55063185383E+03  0.31315902937E+04  0.30828010525E+04 0.  0.
        4    1    3    3  502    0 -0.10494426598E+03 -0.12748396010E+04  0.59834466488E+03  0.14121781963E+04  0.12699999809E+01 0. -1.
       -4    1    3    3    0  502  0.10494426598E+03  0.12748396010E+04 -0.11489765187E+04  0.17194120974E+04  0.12699999809E+01 0.  1.
</event>
<event>
 5   0  0.7414808E-06  0.3066733E+04  0.7818609E-02  0.8224927E-01
       -2   -1    0    0    0  501  0.00000000000E+00  0.00000000000E+00  0.98326748334E+03  0.98326748334E+03  0.25500000920E-02 0.  1.
        2   -1    0    0  501    0  0.00000000000E+00  0.00000000000E+00 -0.23912247260E+04  0.23912247260E+04  0.25500000920E-02 0. -1.
    10030    2    1    2    0    0  0.00000000000E+00  0.00000000000E+00 -0.14079572427E+04  0.33744922093E+04  0.30667334533E+04 0.  0.
        2    1    3    3  502    0  0.69340940893E+02 -0.99715342031E+03 -0.19834638168E+04  0.22210924839E+04  0.25500000920E-02 0. -1.
       -2    1    3    3    0  502 -0.69340940893E+02  0.99715342031E+03  0.57550657411E+03  0.11533997254E+04  0.25500000920E-02 0.  1.
</event>
<event>
 5   0  0.2612331E-06  0.3116222E+04  0.7818609E-02  0.8211300E-01
        1   -1    0    0  501    0  0.00000000000E+00  0.00000000000E+00  0.16348867680E+04  0.16348867680E+04  0.50400001928E-02 0.  1.
       -1   -1    0    0    0  501  0.00000000000E+00  0.00000000000E+00 -0.14849407019E+04  0.14849407019E+04  0.50400001928E-02 0. -1.
    10030    2    1    2    0    0  0.00000000000E+00  0.00000000000E+00  0.14994606604E+03  0.31198274699E+04  0.31162220106E+04 0.  0.
        4    1    3    3  502    0  0.14481357814E+04  0.71024253400E+02 -0.49627157395E+03  0.15324584085E+04  0.12699999809E+01 0. -1.
       -4    1    3    3    0  502 -0.14481357814E+04 -0.71024253400E+02  0.64621763999E+03  0.15873690614E+04  0.12699999809E+01 0.  1.
</event>
<event>
 5   0  0.2624011E-06  0.3075427E+04  0.7818609E-02  0.8222514E-01
       -1   -1    0    0    0  501  0.00000000000E+00  0.00000000000E+00  0.87978661683E+03  0.87978661684E+03  0.50400001928E-02 0. -1.
        1   -1    0    0  501    0  0.00000000000E+00  0.00000000000E+00 -0.26876555368E+04  0.26876555368E+04  0.50400001928E-02 0.  1.
    10030    2    1    2    0    0  0.00000000000E+00  0.00000000000E+00 -0.18078689200E+04  0.35674421537E+04  0.30754273667E+04 0.  0.
        1    1    3    3  502    0 -0.14843358539E+04 -0.39796733251E+03 -0.96674992001E+03  0.18155540016E+04  0.50400001928E-02 0.  1.
       -1    1    3    3    0  502  0.14843358539E+04  0.39796733251E+03 -0.84111899998E+03  0.17518881520E+04  0.50400001928E-02 0. -1.
</event>
<event>
 5   0  0.7079223E-06  0.3032644E+04  0.7818609E-02  0.8234470E-01
        2   -1    0    0  501    0  0.00000000000E+00  0.00000000000E+00  0.22025505564E+04  0.22025505564E+04  0.25500000920E-02 0.  1.
       -2   -1    0    0    0  501  0.00000000000E+00  0.00000000000E+00 -0.10438954051E+04  0.10438954051E+04  0.25500000920E-02 0. -1.
    10030    2    1    2    0    0  0.00000000000E+00  0.00000000000E+00  0.11586551513E+04  0.32464459616E+04  0.30326439985E+04 0.  0.
        5    1    3    3  502    0 -0.31541420697E+03 -0.80212644640E+02 -0.10060575832E+04  0.10573997073E+04  0.46999998093E+01 0. -1.
       -5    1    3    3    0  502  0.31541420697E+03  0.80212644640E+02  0.21647127345E+04  0.21890462543E+04  0.46999998093E+01 0.  1.
</event>
<event>
 5   0  0.2517725E-06  0.2869479E+04  0.7818609E-02  0.8282017E-01
       -1   -1    0    0    0  501  0.00000000000E+00  0.00000000000E+00  0.17033111413E+04  0.17033111413E+04  0.50400001928E-02 0. -1.
        1   -1    0    0  501    0  0.00000000000E+00  0.00000000000E+00 -0.12085149456E+04  0.12085149456E+04  0.50400001928E-02 0.  1.
    10030    2    1    2    0    0  0.00000000000E+00  0.00000000000E+00  0.49479619568E+03  0.29118260869E+04  0.28694786782E+04 0.  0.
        3    1    3    3  502    0  0.18351255286E+03 -0.10243029228E+04  0.12497013359E+04  0.16262308489E+04  0.10100000352E+00 0. -1.
       -3    1    3    3    0  502 -0.18351255286E+03  0.10243029228E+04 -0.75490514026E+03  0.12855952379E+04  0.10100000352E+00 0.  1.
</event>
<event>
 5   0  0.2517725E-06  0.3019307E+04  0.7818609E-02  0.8238239E-01
        1   -1    0    0  501    0  0.00000000000E+00  0.00000000000E+00  0.15849641967E+04  0.15849641967E+04  0.50400001928E-02 0. -1.
       -1   -1    0    0    0  501  0.00000000000E+00  0.00000000000E+00 -0.14379217070E+04  0.14379217070E+04  0.50400001928E-02 0.  1.
    10030    2    1    2    0    0  0.00000000000E+00  0.00000000000E+00  0.14704248974E+03  0.30228859037E+04  0.30193074856E+04 0.  0.
        3    1    3    3  502    0 -0.82274798219E+03 -0.46124686611E+03  0.12536427659E+04  0.15688477009E+04  0.10100000352E+00 0. -1.
       -3    1    3    3    0  502  0.82274798219E+03  0.46124686611E+03 -0.11066002762E+04  0.14540382028E+04  0.10100000352E+00 0.  1.
</event>
<event>
 5   0  0.7414808E-06  0.3179943E+04  0.7818609E-02  0.8194134E-01
       -2   -1    0    0    0  501  0.00000000000E+00  0.00000000000E+00  0.10295693812E+04  0.10295693812E+04  0.25500000920E-02 0.  1.
        2   -1    0    0  501    0  0.00000000000E+00  0.00000000000E+00 -0.24554053021E+04  0.24554053021E+04  0.25500000920E-02 0. -1.
    10030    2    1    2    0    0  0.00000000000E+00  0.00000000000E+00 -0.14258359209E+04  0.34849746833E+04  0.31799434696E+04 0.  0.
        2    1    3    3  502    0 -0.48008869143E+03  0.93784684670E+03 -0.20179268874E+04  0.22764162146E+04  0.25500000920E-02 0. -1.
       -2    1    3    3    0  502  0.48008869143E+03 -0.93784684670E+03  0.59209096647E+03  0.12085584686E+04  0.25500000920E-02 0.  1.
</event>
<event>
 5   0  0.7363513E-06  0.3071501E+04  0.7818609E-02  0.8223603E-01
        2   -1    0    0  501    0  0.00000000000E+00  0.00000000000E+00  0.26026271750E+04  0.26026271750E+04  0.25500000920E-02 0.  1.
       -2   -1    0    0    0  501  0.00000000000E+00  0.00000000000E+00 -0.90621094623E+03  0.90621094623E+03  0.25500000920E-02 0. -1.
    10030    2    1    2    0    0  0.00000000000E+00  0.00000000000E+00  0.16964162288E+04  0.35088381212E+04  0.30715007634E+04 0.  0.
        4    1    3    3  502    0 -0.65211445260E+02  0.69771086173E+03  0.24093416813E+04  0.25091795331E+04  0.12699999809E+01 0.  1.
       -4    1    3    3    0  502  0.65211445260E+02 -0.69771086173E+03 -0.71292545250E+03  0.99965858816E+03  0.12699999809E+01 0. -1.
</event>
<event>
 5   0  0.2517725E-06  0.3064974E+04  0.7818609E-02  0.8225417E-01
        1   -1    0    0  501    0  0.00000000000E+00  0.00000000000E+00  0.20298212990E+04  0.20298212990E+04  0.50400001928E-02 0. -1.
       -1   -1    0    0    0  501  0.00000000000E+00  0.00000000000E+00 -0.11570061772E+04  0.11570061772E+04  0.50400001928E-02 0.  1.
    10030    2    1    2    0    0  0.00000000000E+00  0.00000000000E+00  0.87281512172E+03  0.31868274762E+04  0.30649735931E+04 0.  0.
        3    1    3    3  502    0 -0.12919707715E+04  0.75325099086E+03  0.78428393582E+03  0.16886908633E+04  0.10100000352E+00 0.  1.
       -3    1    3    3    0  502  0.12919707715E+04 -0.75325099086E+03  0.88531185896E+02  0.14981366129E+04  0.10100000352E+00 0. -1.
</event>
<event>
 5   0  0.7414808E-06  0.3097103E+04  0.7818609E-02  0.8216534E-01
        2   -1    0    0  501    0  0.00000000000E+00  0.00000000000E+00  0.18789092854E+04  0.18789092854E+04  0.25500000920E-02 0. -1.
       -2   -1    0    0    0  501  0.00000000000E+00  0.00000000000E+00 -0.12762782314E+04  0.12762782314E+04  0.25500000920E-02 0.  1.
    10030    2    1    2    0    0  0.00000000000E+00  0.00000000000E+00  0.60263105402E+03  0.31551875168E+04  0.30971025296E+04 0.  0.
        2    1    3    3  502    0  0.46362857487E+03 -0.14132391533E+04  0.74046218224E+03  0.16614694109E+04  0.25500000920E-02 0. -1.
       -2    1    3    3    0  502 -0.46362857487E+03  0.14132391533E+04 -0.13783112822E+03  0.14937181059E+04  0.25500000920E-02 0.  1.
</event>
<event>
 5   0  0.7363513E-06  0.2827285E+04  0.7818609E-02  0.8294847E-01
       -2   -1    0    0    0  501  0.00000000000E+00  0.00000000000E+00  0.15668582791E+04  0.15668582791E+04  0.25500000920E-02 0.  1.
        2   -1    0    0  501    0  0.00000000000E+00  0.00000000000E+00 -0.12754090367E+04  0.12754090367E+04  0.25500000920E-02 0. -1.
    10030    2    1    2    0    0  0.00000000000E+00  0.00000000000E+00  0.29144924235E+03  0.28422673158E+04  0.28272850640E+04 0.  0.
        4    1    3    3  502    0  0.38194037174E+03  0.29710297343E+03  0.14810082837E+04  0.15580551253E+04  0.12699999809E+01 0.  1.
       -4    1    3    3    0  502 -0.38194037174E+03 -0.29710297343E+03 -0.11895590413E+04  0.12842121904E+04  0.12699999809E+01 0. -1.
</event>
<event>
 5   0  0.7094341E-06  0.3085766E+04  0.7818609E-02  0.8219655E-01
       -2   -1    0    0    0  501  0.00000000000E+00  0.00000000000E+00  0.84278281778E+03  0.84278281779E+03  0.25500000920E-02 0.  1.
        2   -1    0    0  501    0  0.00000000000E+00  0.00000000000E+00 -0.28245575637E+04  0.28245575637E+04  0.25500000920E-02 0. -1.
    10030    2    1    2    0    0  0.00000000000E+00  0.00000000000E+00 -0.19817747459E+04  0.36673403815E+04  0.30857664089E+04 0.  0.
        3    1    3    3  502    0  0.12758598081E+04 -0.32528189777E+03 -0.19467467308E+04  0.23502019928E+04  0.10100000352E+00 0. -1.
       -3    1    3    3    0  502 -0.12758598081E+04  0.32528189777E+03 -0.35028015060E+02  0.13171383886E+04  0.10100000352E+00 0.  1.
</event>
<event>
 5   0  0.2517725E-06  0.3119768E+04  0.7818609E-02  0.8210334E-01
        1   -1    0    0  501    0  0.00000000000E+00  0.00000000000E+00  0.11639238505E+04  0.11639238505E+04  0.50400001928E-02 0.  1.
       -1   -1    0    0    0  501  0.00000000000E+00  0.00000000000E+00 -0.20905470227E+04  0.20905470227E+04  0.50400001928E-02 0. -1.
    10030    2    1    2    0    0  0.00000000000E+00  0.00000000000E+00 -0.92662317219E+03  0.32544708731E+04  0.31197676453E+04 0.  0.
        3    1    3    3  502    0  0.33323030376E+03  0.88285875294E+03 -0.17590182530E+04  0.19961531097E+04  0.10100000352E+00 0. -1.
       -3    1    3    3    0  502 -0.33323030376E+03 -0.88285875294E+03  0.83239508079E+03  0.12583177634E+04  0.10100000352E+00 0.  1.
</event>
<event>
 5   0  0.7414808E-06  0.3116897E+04  0.7818609E-02  0.8211116E-01
       -2   -1    0    0    0  501  0.00000000000E+00  0.00000000000E+00  0.99433914881E+03  0.99433914881E+03  0.25500000920E-02 0.  1.
        2   -1    0    0  501    0  0.00000000000E+00  0.00000000000E+00 -0.24425887575E+04  0.24425887575E+04  0.25500000920E-02 0. -1.
    10030    2    1    2    0    0  0.00000000000E+00  0.00000000000E+00 -0.14482496087E+04  0.34369279063E+04  0.31168969351E+04 0.  0.
        2    1    3    3  502    0 -0.15526399688E+04  0.12292028941E+03 -0.66411899848E+03  0.16931787603E+04  0.25500000920E-02 0. -1.
       -2    1    3    3    0  502  0.15526399688E+04 -0.12292028941E+03 -0.78413061020E+03  0.17437491460E+04  0.25500000920E-02 0.  1.
</event>
<event>
 5   0  0.2674441E-06  0.2152919E+04  0.7818609E-02  0.8538284E-01
       -1   -1    0    0    0  501  0.00000000000E+00  0.00000000000E+00  0.84929879494E+03  0.84929879495E+03  0.50400001928E-02 0. -1.
        1   -1    0    0  501    0  0.00000000000E+00  0.00000000000E+00 -0.13643789732E+04  0.13643789733E+04  0.50400001928E-02 0.  1.
    10030    2    1    2    0    0  0.00000000000E+00  0.00000000000E+00 -0.51508017831E+03  0.22136777682E+04  0.21529193369E+04 0.  0.
        5    1    3    3  502    0  0.26357727182E+03  0.10418707204E+04 -0.19435881933E+03  0.10921378196E+04  0.46999998093E+01 0.  1.
       -5    1    3    3    0  502 -0.26357727182E+03 -0.10418707204E+04 -0.32072135898E+03  0.11215399486E+04  0.46999998093E+01 0. -1.
</event>
<event>
 5   0  0.2612331E-06  0.2307111E+04  0.7818609E-02  0.8475123E-01
        1   -1    0    0  501    0  0.00000000000E+00  0.00000000000E+00  0.84372501965E+03  0.84372501967E+03  0.50400001928E-02 0.  1.
       -1   -1    0    0    0  501  0.00000000000E+00  0.00000000000E+00 -0.15771604972E+04  0.15771604972E+04  0.50400001928E-02 0. -1.
    10030    2    1    2    0    0  0.00000000000E+00  0.00000000000E+00 -0.73343547754E+03  0.24208855169E+04  0.23071105492E+04 0.  0.
        4    1    3    3  502    0  0.10094263982E+04  0.47069891676E+03 -0.51592841216E+02  0.11149719986E+04  0.12699999809E+01 0. -1.
       -4    1    3    3    0  502 -0.10094263982E+04 -0.47069891676E+03 -0.68184263632E+03  0.13059135182E+04  0.12699999809E+01 0.  1.
</event>
<event>
 5   0  0.7414808E-06  0.3083610E+04  0.7818609E-02  0.8220250E-01
        2   -1    0    0  501    0  0.00000000000E+00  0.00000000000E+00  0.14033488385E+04  0.14033488385E+04  0.25500000920E-02 0.  1.
       -2   -1    0    0    0  501  0.00000000000E+00  0.00000000000E+00 -0.16939218179E+04  0.16939218179E+04  0.25500000920E-02 0. -1.
    10030    2    1    2    0    0  0.00000000000E+00  0.00000000000E+00 -0.29057297939E+03  0.30972706564E+04  0.30836103617E+04 0.  0.
        2    1    3    3  502    0  0.11674499081E+04  0.28116597276E+03 -0.11166121398E+04  0.16397610384E+04  0.25500000920E-02 0. -1.
       -2    1    3    3    0  502 -0.11674499081E+04 -0.28116597276E+03  0.82603916038E+03  0.14575096181E+04  0.25500000920E-02 0.  1.
</event>
<event>
 5   0  0.2674441E-06  0.3087824E+04  0.7818609E-02  0.8219087E-01
       -1   -1    0    0    0  501  0.00000000000E+00  0.00000000000E+00  0.93526311124E+03  0.93526311126E+03  0.50400001928E-02 0.  1.
        1   -1    0    0  501    0  0.00000000000E+00  0.00000000000E+00 -0.25486567356E+04  0.25486567356E+04  0.50400001928E-02 0. -1.
    10030    2    1    2    0    0  0.00000000000E+00  0.00000000000E+00 -0.16133936244E+04  0.34839198469E+04  0.30878242360E+04 0.  0.
        5    1    3    3  502    0  0.10042368369E+04 -0.57579907541E+03 -0.19593109366E+04  0.22757323296E+04  0.46999998093E+01 0. -1.
       -5    1    3    3    0  502 -0.10042368369E+04  0.57579907541E+03  0.34591731226E+03  0.12081875172E+04  0.46999998093E+01 0.  1.
</event>
<event>
 5   0  0.2517725E-06  0.3098553E+04  0.7818609E-02  0.8216135E-01
        1   -1    0    0  501    0  0.00000000000E+00  0.00000000000E+00  0.28309916683E+04  0.28309916683E+04  0.50400001928E-02 0.  1.
       -1   -1    0    0    0  501  0.00000000000E+00  0.00000000000E+00 -0.84785026821E+03  0.84785026822E+03  0.50400001928E-02 0. -1.
    10030    2    1    2    0    0  0.00000000000E+00  0.00000000000E+00  0.19831414001E+04  0.36788419365E+04  0.30985525946E+04 0.  0.
        3    1    3    3  502    0 -0.44473469247E+03 -0.55212356625E+03 -0.64395644618E+03  0.95776265007E+03  0.10100000352E+00 0. -1.
       -3    1    3    3    0  502  0.44473469247E+03  0.55212356625E+03  0.26270978463E+04  0.27210792865E+04  0.10100000352E+00 0.  1.
</event>
<event>
 5   0  0.2517725E-06  0.2949333E+04  0.7818609E-02  0.8258349E-01
       -1   -1    0    0    0  501  0.00000000000E+00  0.00000000000E+00  0.14387473420E+04  0.14387473421E+04  0.50400001928E-02 0. -1.
        1   -1    0    0  501    0  0.00000000000E+00  0.00000000000E+00 -0.15114828049E+04  0.15114828049E+04  0.50400001928E-02 0.  1.
    10030    2    1    2    0    0  0.00000000000E+00  0.00000000000E+00 -0.72735462833E+02  0.29502301469E+04  0.29493333946E+04 0.  0.
        3    1    3    3  502    0 -0.93624293812E+03 -0.40224659310E+03 -0.11026602734E+04  0.15014036265E+04  0.10100000352E+00 0.  1.
       -3    1    3    3    0  502  0.93624293812E+03  0.40224659310E+03  0.10299248106E+04  0.14488265205E+04  0.10100000352E+00 0. -1.
</event>
<event>
 5   0  0.2598987E-06  0.3103145E+04  0.7818609E-02  0.8214875E-01
       -1   -1    0    0    0  501  0.00000000000E+00  0.00000000000E+00  0.14615637272E+04  0.14615637272E+04  0.50400001928E-02 0. -1.
        1   -1    0    0  501    0  0.00000000000E+00  0.00000000000E+00 -0.16471246232E+04  0.16471246232E+04  0.50400001928E-02 0.  1.
    10030    2    1    2    0    0  0.00000000000E+00  0.00000000000E+00 -0.18556089602E+03  0.31086883504E+04  0.31031452453E+04 0.  0.
        2    1    3    3  502    0 -0.87936343489E+02 -0.15204545681E+04  0.20416548232E+03  0.15366191585E+04  0.25500000920E-02 0. -1.
       -2    1    3    3    0  502  0.87936343489E+02  0.15204545681E+04 -0.38972637834E+03  0.15720691919E+04  0.25500000920E-02 0.  1.
</event>
<event>
 5   0  0.7079223E-06  0.3148624E+04  0.7818609E-02  0.8202519E-01
       -2   -1    0    0    0  501  0.00000000000E+00  0.00000000000E+00  0.11844251078E+04  0.11844251078E+04  0.25500000920E-02 0. -1.
        2   -1    0    0  501    0  0.00000000000E+00  0.00000000000E+00 -0.20925415832E+04  0.20925415832E+04  0.25500000920E-02 0.  1.
    10030    2    1    2    0    0  0.00000000000E+00  0.00000000000E+00 -0.90811647548E+03  0.32769666910E+04  0.31486243283E+04 0.  0.
        5    1    3    3  502    0  0.10282785605E+04 -0.10589888676E+04  0.11563147570E+03  0.14806103295E+04  0.46999998093E+01 0. -1.
       -5    1    3    3    0  502 -0.10282785605E+04  0.10589888676E+04 -0.10237479512E+04  0.17963563615E+04  0.46999998093E+01 0.  1.
</event>
<event>
 5   0  0.2612331E-06  0.2965445E+04  0.7818609E-02  0.8253668E-01
       -1   -1    0    0    0  501  0.00000000000E+00  0.00000000000E+00  0.10010143481E+04  0.10010143481E+04  0.50400001928E-02 0.  1.
        1   -1    0    0  501    0  0.00000000000E+00  0.00000000000E+00 -0.21962389883E+04  0.21962389883E+04  0.50400001928E-02 0. -1.
    10030    2    1    2    0    0  0.00000000000E+00  0.00000000000E+00 -0.11952246402E+04  0.31972533364E+04  0.29654454905E+04 0.  0.
        4    1    3    3  502    0  0.14913524891E+03 -0.14118816790E+04 -0.10586025746E+04  0.17709579955E+04  0.12699999809E+01 0.  1.
       -4    1    3    3    0  502 -0.14913524891E+03  0.14118816790E+04 -0.13662206556E+03  0.14262953409E+04  0.12699999809E+01 0. -1.
</event>
<event>
 5   0  0.2517725E-06  0.3078756E+04  0.7818609E-02  0.8221592E-01
       -1   -1    0    0    0  501  0.00000000000E+00  0.00000000000E+00  0.96635879073E+03  0.96635879074E+03  0.50400001928E-02 0.  1.
        1   -1    0    0  501    0  0.00000000000E+00  0.00000000000E+00 -0.24521791652E+04  0.24521791652E+04  0.50400001928E-02 0. -1.
    10030    2    1    2    0    0  0.00000000000E+00  0.00000000000E+00 -0.14858203744E+04  0.34185379559E+04  0.30787561727E+04 0.  0.
        3    1    3    3  502    0  0.71957921907E+02  0.38279943204E+03  0.91073790711E+03  0.99053364069E+03  0.10100000352E+00 0.  1.
       -3    1    3    3    0  502 -0.71957921907E+02 -0.38279943204E+03 -0.23965582815E+04  0.24280043152E+04  0.10100000352E+00 0. -1.
</event>
<event>
 5   0  0.7414808E-06  0.3039152E+04  0.7818609E-02  0.8232638E-01
       -2   -1    0    0    0  501  0.00000000000E+00  0.00000000000E+00  0.91366038960E+03  0.91366038960E+03  0.25500000920E-02 0. -1.
        2   -1    0    0  501    0  0.00000000000E+00  0.00000000000E+00 -0.25273184293E+04  0.25273184293E+04  0.25500000920E-02 0.  1.
    10030    2    1    2    0    0  0.00000000000E+00  0.00000000000E+00 -0.16136580397E+04  0.34409788189E+04  0.30391516848E+04 0.  0.
        2    1    3    3  502    0  0.24042462846E+03  0.99984647283E+03  0.45984478446E+03  0.11264786714E+04  0.25500000920E-02 0. -1.
       -2    1    3    3    0  502 -0.24042462846E+03 -0.99984647283E+03 -0.20735028242E+04  0.23145001476E+04  0.25500000920E-02 0.  1.
</event>
<event>
 5   0  0.2598987E-06  0.3056716E+04  0.7818609E-02  0.8227718E-01
       -1   -1    0    0    0  501  0.00000000000E+00  0.00000000000E+00  0.28250683080E+04  0.28250683080E+04  0.50400001928E-02 0.  1.
        1   -1    0    0  501    0  0.00000000000E+00  0.00000000000E+00 -0.82683945387E+03  0.82683945389E+03  0.50400001928E-02 0. -1.
    10030    2    1    2    0    0  0.00000000000E+00  0.00000000000E+00  0.19982288542E+04  0.36519077619E+04  0.30567158435E+04 0.  0.
        2    1    3    3  502    0  0.68469226458E+02  0.51049380306E+03  0.27182549056E+04  0.27666227950E+04  0.25500000920E-02 0.  1.
       -2    1    3    3    0  502 -0.68469226458E+02 -0.51049380306E+03 -0.72002605144E+03  0.88528496694E+03  0.25500000920E-02 0. -1.
</event>
<event>
 5   0  0.7079223E-06  0.3032006E+04  0.7818609E-02  0.8234650E-01
       -2   -1    0    0    0  501  0.00000000000E+00  0.00000000000E+00  0.13115914769E+04  0.13115914769E+04  0.25500000920E-02 0. -1.
        2   -1    0    0  501    0  0.00000000000E+00  0.00000000000E+00 -0.17522719271E+04  0.17522719271E+04  0.25500000920E-02 0.  1.
    10030    2    1    2    0    0  0.00000000000E+00  0.00000000000E+00 -0.44068045016E+03  0.30638634040E+04  0.30320058871E+04 0.  0.
        5    1    3    3  502    0 -0.14023552728E+04 -0.19043401430E+03 -0.76953702504E+03  0.16109235698E+04  0.46999998093E+01 0.  1.
       -5    1    3    3    0  502  0.14023552728E+04  0.19043401430E+03  0.32885657489E+03  0.14529398342E+04  0.46999998093E+01 0. -1.
</event>
<event>
 5   0  0.2624011E-06  0.2915177E+04  0.7818609E-02  0.8268376E-01
       -1   -1    0    0    0  501  0.00000000000E+00  0.00000000000E+00  0.14671234350E+04  0.14671234350E+04  0.50400001928E-02 0. -1.
        1   -1    0    0  501    0  0.00000000000E+00  0.00000000000E+00 -0.14481150843E+04  0.14481150843E+04  0.50400001928E-02 0.  1.
    10030    2    1    2    0    0  0.00000000000E+00  0.00000000000E+00  0.19008350651E+02  0.29152385193E+04  0.29151765482E+04 0.  0.
        1    1    3    3  502    0  0.83116646673E+03 -0.11161061873E+04  0.44314095266E+03  0.14604467195E+04  0.50400001928E-02 0. -1.
       -1    1    3    3    0  502 -0.83116646673E+03  0.11161061873E+04 -0.42413260201E+03  0.14547917998E+04  0.50400001928E-02 0.  1.
</event>
<event>
 5   0  0.7094341E-06  0.3102719E+04  0.7818609E-02  0.8214992E-01
       -2   -1    0    0    0  501  0.00000000000E+00  0.00000000000E+00  0.10810667360E+04  0.10810667360E+04  0.25500000920E-02 0. -1.
        2   -1    0    0  501    0  0.00000000000E+00  0.00000000000E+00 -0.22262419554E+04  0.22262419554E+04  0.25500000920E-02 0.  1.
    10030    2    1    2    0    0  0.00000000000E+00  0.00000000000E+00 -0.11451752195E+04  0.33073086914E+04  0.31027188878E+04 0.  0.
        3    1    3    3  502    0 -0.62026461696E+03  0.11295877538E+04 -0.14932647727E+04  0.19724442654E+04  0.10100000352E+00 0.  1.
       -3    1    3    3    0  502  0.62026461696E+03 -0.11295877538E+04  0.34808955319E+03  0.13348644260E+04  0.10100000352E+00 0. -1.
</event>
<event>
 5   0  0.7079223E-06  0.3002249E+04  0.7818609E-02  0.8243089E-01
        2   -1    0    0  501    0  0.00000000000E+00  0.00000000000E+00  0.17178243436E+04  0.17178243436E+04  0.25500000920E-02 0. -1.
       -2   -1    0    0    0  501  0.00000000000E+00  0.00000000000E+00 -0.13117607336E+04  0.13117607336E+04  0.25500000920E-02 0.  1.
    10030    2    1    2    0    0  0.00000000000E+00  0.00000000000E+00  0.40606360998E+03  0.30295850772E+04  0.30022488379E+04 0.  0.
        5    1    3    3  502    0 -0.20206637746E+03 -0.73097634812E+03  0.15102789541E+04  0.16900064649E+04  0.46999998093E+01 0. -1.
       -5    1    3    3    0  502  0.20206637746E+03  0.73097634812E+03 -0.11042153441E+04  0.13395786123E+04  0.46999998093E+01 0.  1.
</event>
<event>
 5   0  0.2624011E-06  0.2981979E+04  0.7818609E-02  0.8248896E-01
        1   -1    0    0  501    0  0.00000000000E+00  0.00000000000E+00  0.11697393952E+04  0.11697393952E+04  0.50400001928E-02 0. -1.
       -1   -1    0    0    0  501  0.00000000000E+00  0.00000000000E+00 -0.19004654327E+04  0.19004654327E+04  0.50400001928E-02 0.  1.
    10030    2    1    2    0    0  0.00000000000E+00  0.00000000000E+00 -0.73072603748E+03  0.30702048279E+04  0.29819787296E+04 0.  0.
        1    1    3    3  502    0  0.12216883714E+02  0.65238293239E+03 -0.17456604460E+04  0.18636209742E+04  0.50400001928E-02 0.  1.
       -1    1    3    3    0  502 -0.12216883714E+02 -0.65238293239E+03  0.10149344085E+04  0.12065838538E+04  0.50400001928E-02 0. -1.
</event>
<event>
 5   0  0.7414808E-06  0.3340247E+04  0.7818609E-02  0.8152729E-01
       -2   -1    0    0    0  501  0.00000000000E+00  0.00000000000E+00  0.20091329193E+04  0.20091329193E+04  0.25500000920E-02 0.  1.
        2   -1    0    0  501    0  0.00000000000E+00  0.00000000000E+00 -0.13883165095E+04  0.13883165095E+04  0.25500000920E-02 0. -1.
    10030    2    1    2    0    0  0.00000000000E+00  0.00000000000E+00  0.62081640977E+03  0.33974494287E+04  0.33402469379E+04 0.  0.
        2    1    3    3  502    0  0.18887570315E+03 -0.99226047400E+03  0.16632449899E+04  0.19459287695E+04  0.25500000920E-02 0.  1.
       -2    1    3    3    0  502 -0.18887570315E+03  0.99226047400E+03 -0.10424285801E+04  0.14515206592E+04  0.25500000920E-02 0. -1.
</event>
<event>
 5   0  0.7079223E-06  0.3133516E+04  0.7818609E-02  0.8206599E-01
       -2   -1    0    0    0  501  0.00000000000E+00  0.00000000000E+00  0.14193541801E+04  0.14193541801E+04  0.25500000920E-02 0.  1.
        2   -1    0    0  501    0  0.00000000000E+00  0.00000000000E+00 -0.17294701866E+04  0.17294701866E+04  0.25500000920E-02 0. -1.
    10030    2    1    2    0    0  0.00000000000E+00  0.00000000000E+00 -0.31011600642E+03  0.31488243667E+04  0.31335160690E+04 0.  0.
        5    1    3    3  502    0 -0.55530642118E+03 -0.10454159638E+04  0.87633278035E+03  0.14728343392E+04  0.46999998093E+01 0.  1.
       -5    1    3    3    0  502  0.55530642118E+03  0.10454159638E+04 -0.11864487868E+04  0.16759900275E+04  0.46999998093E+01 0. -1.
</event>
<event>
 5   0  0.2598987E-06  0.3118683E+04  0.7818609E-02  0.8210629E-01
       -1   -1    0    0    0  501  0.00000000000E+00  0.00000000000E+00  0.13713928806E+04  0.13713928807E+04  0.50400001928E-02 0.  1.
        1   -1    0    0  501    0  0.00000000000E+00  0.00000000000E+00 -0.17730479717E+04  0.17730479717E+04  0.50400001928E-02 0. -1.
    10030    2    1    2    0    0  0.00000000000E+00  0.00000000000E+00 -0.40165509109E+03  0.31444408524E+04  0.31186826485E+04 0.  0.
        2    1    3    3  502    0  0.10614814806E+02 -0.20233685713E+03 -0.17597192198E+04  0.17713454239E+04  0.25500000920E-02 0. -1.
       -2    1    3    3    0  502 -0.10614814806E+02  0.20233685713E+03  0.13580641287E+04  0.13730954285E+04  0.25500000920E-02 0.  1.
</event>
<event>
 5   0  0.7079223E-06  0.3127420E+04  0.7818609E-02  0.8208253E-01
        2   -1    0    0  501    0  0.00000000000E+00  0.00000000000E+00  0.18806799391E+04  0.18806799391E+04  0.25500000920E-02 0.  1.
       -2   -1    0    0    0  501  0.00000000000E+00  0.00000000000E+00 -0.13001619389E+04  0.13001619389E+04  0.25500000920E-02 0. -1.
    10030    2    1    2    0    0  0.00000000000E+00  0.00000000000E+00  0.58051800017E+03  0.31808418780E+04  0.31274196879E+04 0.  0.
        5    1    3    3  502    0  0.48178511790E+03  0.13967867991E+04 -0.23037976150E+03  0.14954020150E+04  0.46999998093E+01 0. -1.
       -5    1    3    3    0  502 -0.48178511790E+03 -0.13967867991E+04  0.81089776167E+03  0.16854398630E+04  0.46999998093E+01 0.  1.
</event>
<event>
 5   0  0.2612331E-06  0.3151479E+04  0.7818609E-02  0.8201750E-01
       -1   -1    0    0    0  501  0.00000000000E+00  0.00000000000E+00  0.10931890133E+04  0.10931890134E+04  0.50400001928E-02 0. -1.
        1   -1    0    0  501    0  0.00000000000E+00  0.00000000000E+00 -0.22712945863E+04  0.22712945863E+04  0.50400001928E-02 0.  1.
    10030    2    1    2    0    0  0.00000000000E+00  0.00000000000E+00 -0.11781055730E+04  0.33644835997E+04  0.31514785659E+04 0.  0.
        4    1    3    3  502    0  0.14834997093E+04 -0.53005031852E+03 -0.62646332140E+03  0.16953414505E+04  0.12699999809E+01 0. -1.
       -4    1    3    3    0  502 -0.14834997093E+04  0.53005031852E+03 -0.55164225159E+03  0.16691421492E+04  0.12699999809E+01 0.  1.
</event>
<event>
 5   0  0.2674441E-06  0.2195007E+04  0.7818609E-02  0.8520509E-01
       -1   -1    0    0    0  501  0.00000000000E+00  0.00000000000E+00  0.96136912326E+03  0.96136912327E+03  0.50400001928E-02 0. -1.
        1   -1    0    0  501    0  0.00000000000E+00  0.00000000000E+00 -0.12529148790E+04  0.12529148791E+04  0.50400001928E-02 0.  1.
    10030    2    1    2    0    0  0.00000000000E+00  0.00000000000E+00 -0.29154575579E+03  0.22142840023E+04  0.21950067688E+04 0.  0.
        5    1    3    3  502    0  0.10908578627E+04 -0.11297404866E+03 -0.10348123315E+03  0.11015736326E+04  0.46999998093E+01 0.  1.
       -5    1    3    3    0  502 -0.10908578627E+04  0.11297404866E+03 -0.18806452264E+03  0.11127103698E+04  0.46999998093E+01 0. -1.
</event>
<event>
 5   0  0.2674441E-06  0.3151395E+04  0.7818609E-02  0.8201773E-01
       -1   -1    0    0    0  501  0.00000000000E+00  0.00000000000E+00  0.10991879896E+04  0.10991879896E+04  0.50400001928E-02 0.  1.
        1   -1    0    0  501    0  0.00000000000E+00  0.00000000000E+00 -0.22587782165E+04  0.22587782165E+04  0.50400001928E-02 0. -1.
    10030    2    1    2    0    0  0.00000000000E+00  0.00000000000E+00 -0.11595902269E+04  0.33579662061E+04  0.31513945400E+04 0.  0.
        5    1    3    3  502    0  0.99324578176E+03 -0.12170133382E+04 -0.44867994107E+03  0.16337057348E+04  0.46999998093E+01 0.  1.
       -5    1    3    3    0  502 -0.99324578176E+03  0.12170133382E+04 -0.71091028586E+03  0.17242604713E+04  0.46999998093E+01 0. -1.
</event>
<event>
 5   0  0.2674441E-06  0.3031372E+04  0.7818609E-02  0.8234829E-01
       -1   -1    0    0    0  501  0.00000000000E+00  0.00000000000E+00  0.13176820152E+04  0.13176820152E+04  0.50400001928E-02 0. -1.
        1   -1    0    0  501    0  0.00000000000E+00  0.00000000000E+00 -0.17434435575E+04  0.17434435575E+04  0.50400001928E-02 0.  1.
    10030    2    1    2    0    0  0.00000000000E+00  0.00000000000E+00 -0.42576154229E+03  0.30611255728E+04  0.30313721120E+04 0.  0.
        5    1    3    3  502    0 -0.84608275599E+03  0.12240424019E+04 -0.50406198695E+03  0.15710621911E+04  0.46999998093E+01 0. -1.
       -5    1    3    3    0  502  0.84608275599E+03 -0.12240424019E+04  0.78300444659E+02  0.14900633817E+04  0.46999998093E+01 0.  1.
</event>
<event>
 5   0  0.7094341E-06  0.2796247E+04  0.7818609E-02  0.8304434E-01
       -2   -1    0    0    0  501  0.00000000000E+00  0.00000000000E+00  0.15990093798E+04  0.15990093798E+04  0.25500000920E-02 0.  1.
        2   -1    0    0  501    0  0.00000000000E+00  0.00000000000E+00 -0.12224752684E+04  0.12224752685E+04  0.25500000920E-02 0. -1.
    10030    2    1    2    0    0  0.00000000000E+00  0.00000000000E+00  0.37653411132E+03  0.28214846482E+04  0.27962470712E+04 0.  0.
        3    1    3    3  502    0  0.80138191626E+03  0.88037270833E+03  0.92801443737E+03  0.15094634436E+04  0.10100000352E+00 0.  1.
       -3    1    3    3    0  502 -0.80138191626E+03 -0.88037270833E+03 -0.55148032605E+03  0.13120212047E+04  0.10100000352E+00 0. -1.
</event>
<event>
 5   0  0.2674441E-06  0.2958507E+04  0.7818609E-02  0.8255680E-01
       -1   -1    0    0    0  501  0.00000000000E+00  0.00000000000E+00  0.73215526795E+03  0.73215526796E+03  0.50400001928E-02 0. -1.
        1   -1    0    0  501    0  0.00000000000E+00  0.00000000000E+00 -0.29886969432E+04  0.29886969432E+04  0.50400001928E-02 0.  1.
    10030    2    1    2    0    0  0.00000000000E+00  0.00000000000E+00 -0.22565416753E+04  0.37208522112E+04  0.29585065228E+04 0.  0.
        5    1    3    3  502    0 -0.62717453267E+02 -0.69993056781E+03 -0.27653479090E+04  0.28532450695E+04  0.46999998093E+01 0.  1.
       -5    1    3    3    0  502  0.62717453267E+02  0.69993056781E+03  0.50880623378E+03  0.86760714165E+03  0.46999998093E+01 0. -1.
</event>
<event>
 5   0  0.2674441E-06  0.3088261E+04  0.7818609E-02  0.8218967E-01
       -1   -1    0    0    0  501  0.00000000000E+00  0.00000000000E+00  0.17889063623E+04  0.17889063623E+04  0.50400001928E-02 0.  1.
        1   -1    0    0  501    0  0.00000000000E+00  0.00000000000E+00 -0.13328475568E+04  0.13328475568E+04  0.50400001928E-02 0. -1.
    10030    2    1    2    0    0  0.00000000000E+00  0.00000000000E+00  0.45605880550E+03  0.31217539190E+04  0.30882613065E+04 0.  0.
        5    1    3    3  502    0  0.39484621841E+03 -0.93404548258E+03  0.14051206437E+04  0.17328388884E+04  0.46999998093E+01 0.  1.
       -5    1    3    3    0  502 -0.39484621841E+03  0.93404548258E+03 -0.94906183818E+03  0.13889150307E+04  0.46999998093E+01 0. -1.
</event>
<event>
 5   0  0.7094341E-06  0.3102364E+04  0.7818609E-02  0.8215089E-01
       -2   -1    0    0    0  501  0.00000000000E+00  0.00000000000E+00  0.25003323707E+04  0.25003323707E+04  0.25500000920E-02 0.  1.
        2   -1    0    0  501    0  0.00000000000E+00  0.00000000000E+00 -0.96233836295E+03  0.96233836295E+03  0.25500000920E-02 0. -1.
    10030    2    1    2    0    0  0.00000000000E+00  0.00000000000E+00  0.15379940078E+04  0.34626707337E+04  0.31023641053E+04 0.  0.
        3    1    3    3  502    0  0.11360008122E+04  0.88840580343E+03  0.13132768370E+03  0.14481055512E+04  0.10100000352E+00 0. -1.
       -3    1    3    3    0  502 -0.11360008122E+04 -0.88840580343E+03  0.14066663241E+04  0.20145651824E+04  0.10100000352E+00 0.  1.
</event>
<event>
 5   0  0.7071012E-06  0.3078433E+04  0.7818609E-02  0.8221682E-01
       -2   -1    0    0    0  501  0.00000000000E+00  0.00000000000E+00  0.10545329122E+04  0.10545329122E+04  0.25500000920E-02 0.  1.
        2   -1    0    0  501    0  0.00000000000E+00  0.00000000000E+00 -0.22466693709E+04  0.22466693709E+04  0.25500000920E-02 0. -1.
    10030    2    1    2    0    0  0.00000000000E+00  0.00000000000E+00 -0.11921364587E+04  0.33012022831E+04  0.30784325845E+04 0.  0.
        1    1    3    3  502    0 -0.44071364595E+03  0.13861195816E+04 -0.56006416442E+02  0.14555729906E+04  0.50400001928E-02 0.  1.
       -1    1    3    3    0  502  0.44071364595E+03 -0.13861195816E+04 -0.11361300423E+04  0.18456292925E+04  0.50400001928E-02 0. -1.
</event>
<event>
 5   0  0.7363513E-06  0.2444388E+04  0.7818609E-02  0.8423070E-01
       -2   -1    0    0    0  501  0.00000000000E+00  0.00000000000E+00  0.10979385885E+04  0.10979385885E+04  0.25500000920E-02 0.  1.
        2   -1    0    0  501    0  0.00000000000E+00  0.00000000000E+00 -0.13605111726E+04  0.13605111726E+04  0.25500000920E-02 0. -1.
    10030    2    1    2    0    0  0.00000000000E+00  0.00000000000E+00 -0.26257258415E+03  0.24584497611E+04  0.24443876260E+04 0.  0.
        4    1    3    3  502    0 -0.40572677473E+03  0.11502764288E+04 -0.20923067709E+03  0.12375496627E+04  0.12699999809E+01 0.  1.
       -4    1    3    3    0  502  0.40572677473E+03 -0.11502764288E+04 -0.53341907060E+02  0.12209000984E+04  0.12699999809E+01 0. -1.
</event>
<event>
 5   0  0.2598987E-06  0.3077330E+04  0.7818609E-02  0.8221987E-01
        1   -1    0    0  501    0  0.00000000000E+00  0.00000000000E+00  0.13840736780E+04  0.13840736780E+04  0.50400001928E-02 0. -1.
       -1   -1    0    0    0  501  0.00000000000E+00  0.00000000000E+00 -0.17105229528E+04  0.17105229528E+04  0.50400001928E-02 0.  1.
    10030    2    1    2    0    0  0.00000000000E+00  0.00000000000E+00 -0.32644927482E+03  0.30945966308E+04  0.30773298781E+04 0.  0.
        2    1    3    3  502    0  0.59019181313E+03  0.13831099487E+04 -0.49089072311E+03  0.15818638400E+04  0.25500000920E-02 0.  1.
       -2    1    3    3    0  502 -0.59019181313E+03 -0.13831099487E+04  0.16444144829E+03  0.15127327908E+04  0.25500000920E-02 0. -1.
</event>
<event>
 5   0  0.7079223E-06  0.2173357E+04  0.7818609E-02  0.8529600E-01
        2   -1    0    0  501    0  0.00000000000E+00  0.00000000000E+00  0.15124106524E+04  0.15124106524E+04  0.25500000920E-02 0. -1.
       -2   -1    0    0    0  501  0.00000000000E+00  0.00000000000E+00 -0.78078669193E+03  0.78078669193E+03  0.25500000920E-02 0.  1.
    10030    2    1    2    0    0  0.00000000000E+00  0.00000000000E+00  0.73162396050E+03  0.22931973444E+04  0.21733569519E+04 0.  0.
        5    1    3    3  502    0  0.15037297109E+03  0.76774042689E+03  0.11615941794E+04  0.14004858161E+04  0.46999998093E+01 0. -1.
       -5    1    3    3    0  502 -0.15037297109E+03 -0.76774042689E+03 -0.42997021891E+03  0.89271152824E+03  0.46999998093E+01 0.  1.
</event>
<event>
 5   0  0.2612331E-06  0.3074513E+04  0.7818609E-02  0.8222768E-01
        1   -1    0    0  501    0  0.00000000000E+00  0.00000000000E+00  0.17424385888E+04  0.17424385888E+04  0.50400001928E-02 0.  1.
       -1   -1    0    0    0  501  0.00000000000E+00  0.00000000000E+00 -0.13562355384E+04  0.13562355384E+04  0.50400001928E-02 0. -1.
    10030    2    1    2    0    0  0.00000000000E+00  0.00000000000E+00  0.38620305043E+03  0.30986741273E+04  0.30745127339E+04 0.  0.
        4    1    3    3  502    0 -0.89263600602E+03  0.11129420867E+04 -0.38386244794E+03  0.14774271960E+04  0.12699999809E+01 0. -1.
       -4    1    3    3    0  502  0.89263600602E+03 -0.11129420867E+04  0.77006549837E+03  0.16212469313E+04  0.12699999809E+01 0.  1.
</event>
<event>
 5   0  0.7071012E-06  0.2546211E+04  0.7818609E-02  0.8386705E-01
        2   -1    0    0  501    0  0.00000000000E+00  0.00000000000E+00  0.15233313902E+04  0.15233313902E+04  0.25500000920E-02 0. -1.
       -2   -1    0    0    0  501  0.00000000000E+00  0.00000000000E+00 -0.10639824734E+04  0.10639824734E+04  0.25500000920E-02 0.  1.
    10030    2    1    2    0    0  0.00000000000E+00  0.00000000000E+00  0.45934891677E+03  0.25873138635E+04  0.25462112248E+04 0.  0.
        1    1    3    3  502    0 -0.54775501897E+03 -0.50543316857E+03  0.12784693895E+04  0.14798588543E+04  0.50400001928E-02 0. -1.
       -1    1    3    3    0  502  0.54775501897E+03  0.50543316857E+03 -0.81912047272E+03  0.11074550093E+04  0.50400001928E-02 0.  1.
</event>
<event>
 5   0  0.7079223E-06  0.3132871E+04  0.7818609E-02  0.8206774E-01
        2   -1    0    0  501    0  0.00000000000E+00  0.00000000000E+00  0.26367177562E+04  0.26367177562E+04  0.25500000920E-02 0. -1.
       -2   -1    0    0    0  501  0.00000000000E+00  0.00000000000E+00 -0.93059628349E+03  0.93059628349E+03  0.25500000920E-02 0.  1.
    10030    2    1    2    0    0  0.00000000000E+00  0.00000000000E+00  0.17061214727E+04  0.35673140396E+04  0.31328707247E+04 0.  0.
        5    1    3    3  502    0 -0.57392869312E+03  0.38503251927E+03 -0.74759602865E+03  0.10181189016E+04  0.46999998093E+01 0.  1.
       -5    1    3    3    0  502  0.57392869312E+03 -0.38503251927E+03  0.24537175013E+04  0.25491951381E+04  0.46999998093E+01 0. -1.
</event>
<event>
 5   0  0.7414808E-06  0.3108098E+04  0.7818609E-02  0.8213519E-01
       -2   -1    0    0    0  501  0.00000000000E+00  0.00000000000E+00  0.16184561042E+04  0.16184561043E+04  0.25500000920E-02 0. -1.
        2   -1    0    0  501    0  0.00000000000E+00  0.00000000000E+00 -0.14922051059E+04  0.14922051059E+04  0.25500000920E-02 0.  1.
    10030    2    1    2    0    0  0.00000000000E+00  0.00000000000E+00  0.12625099831E+03  0.31106612102E+04  0.31080981082E+04 0.  0.
        2    1    3    3  502    0 -0.12564129411E+03  0.22764875353E+03  0.15965308749E+04  0.16175662349E+04  0.25500000920E-02 0. -1.
       -2    1    3    3    0  502  0.12564129411E+03 -0.22764875353E+03 -0.14702798766E+04  0.14930949753E+04  0.25500000920E-02 0.  1.
</event>
<event>
 5   0  0.2624011E-06  0.3228541E+04  0.7818609E-02  0.8181320E-01
        1   -1    0    0  501    0  0.00000000000E+00  0.00000000000E+00  0.16348558439E+04  0.16348558439E+04  0.50400001928E-02 0.  1.
       -1   -1    0    0    0  501  0.00000000000E+00  0.00000000000E+00 -0.15939446778E+04  0.15939446778E+04  0.50400001928E-02 0. -1.
    10030    2    1    2    0    0  0.00000000000E+00  0.00000000000E+00  0.40911166183E+02  0.32288005217E+04  0.32285413247E+04 0.  0.
        1    1    3    3  502    0  0.27420938172E+03 -0.14392985119E+04  0.69807826461E+03  0.16229862153E+04  0.50400001928E-02 0.  1.
       -1    1    3    3    0  502 -0.27420938172E+03  0.14392985119E+04 -0.65716709843E+03  0.16058143064E+04  0.50400001928E-02 0. -1.
</event>
<event>
 5   0  0.2612331E-06  0.3081559E+04  0.7818609E-02  0.8220817E-01
       -1   -1    0    0    0  501  0.00000000000E+00  0.00000000000E+00  0.90523795082E+03  0.90523795083E+03  0.50400001928E-02 0.  1.
        1   -1    0    0  501    0  0.00000000000E+00  0.00000000000E+00 -0.26225171866E+04  0.26225171867E+04  0.50400001928E-02 0. -1.
    10030    2    1    2    0    0  0.00000000000E+00  0.00000000000E+00 -0.17172792358E+04  0.35277551375E+04  0.30815594001E+04 0.  0.
        4    1    3    3  502    0 -0.61186897603E+03 -0.82838596066E+03  0.45333467437E+03  0.11252203711E+04  0.12699999809E+01 0.  1.
       -4    1    3    3    0  502  0.61186897603E+03  0.82838596066E+03 -0.21706139102E+04  0.24025347664E+04  0.12699999809E+01 0. -1.
</event>
<event>
 5   0  0.7414808E-06  0.3392771E+04  0.7818609E-02  0.8139683E-01
       -2   -1    0    0    0  501  0.00000000000E+00  0.00000000000E+00  0.18690141378E+04  0.18690141378E+04  0.25500000920E-02 0. -1.
        2   -1    0    0  501    0  0.00000000000E+00  0.00000000000E+00 -0.15397018846E+04  0.15397018846E+04  0.25500000920E-02 0.  1.
    10030    2    1    2    0    0  0.00000000000E+00  0.00000000000E+00  0.32931225321E+03  0.34087160223E+04  0.33927714867E+04 0.  0.
        2    1    3    3  502    0  0.43875569162E+03 -0.27580541424E+03  0.17875334307E+04  0.18611423775E+04  0.25500000920E-02 0. -1.
       -2    1    3    3    0  502 -0.43875569162E+03  0.27580541424E+03 -0.14582211775E+04  0.15475736448E+04  0.25500000920E-02 0.  1.
</event>
<event>
 5   0  0.7079223E-06  0.3087880E+04  0.7818609E-02  0.8219072E-01
        2   -1    0    0  501    0  0.00000000000E+00  0.00000000000E+00  0.13123351920E+04  0.13123351920E+04  0.25500000920E-02 0.  1.
       -2   -1    0    0    0  501  0.00000000000E+00  0.00000000000E+00 -0.18164185700E+04  0.18164185700E+04  0.25500000920E-02 0. -1.
    10030    2    1    2    0    0  0.00000000000E+00  0.00000000000E+00 -0.50408337803E+03  0.31287537620E+04  0.30878795396E+04 0.  0.
        5    1    3    3  502    0 -0.10008068688E+04 -0.36242559823E+03  0.88113658315E+03  0.13818069587E+04  0.46999998093E+01 0.  1.
       -5    1    3    3    0  502  0.10008068688E+04  0.36242559823E+03 -0.13852199612E+04  0.17469468033E+04  0.46999998093E+01 0. -1.
</event>
<event>
 5   0  0.2612331E-06  0.3108979E+04  0.7818609E-02  0.8213278E-01
       -1   -1    0    0    0  501  0.00000000000E+00  0.00000000000E+00  0.16087274039E+04  0.16087274039E+04  0.50400001928E-02 0. -1.
        1   -1    0    0  501    0  0.00000000000E+00  0.00000000000E+00 -0.15020802211E+04  0.15020802211E+04  0.50400001928E-02 0.  1.
    10030    2    1    2    0    0  0.00000000000E+00  0.00000000000E+00  0.10664718275E+03  0.31108076251E+04  0.31089790058E+04 0.  0.
        4    1    3    3  502    0  0.30860768991E+03  0.15002385569E+04  0.31896339074E+03  0.15645106875E+04  0.12699999809E+01 0.  1.
       -4    1    3    3    0  502 -0.30860768991E+03 -0.15002385569E+04 -0.21231620799E+03  0.15462969375E+04  0.12699999809E+01 0. -1.
</event>
<event>
 5   0  0.2598987E-06  0.2968792E+04  0.7818609E-02  0.8252699E-01
        1   -1    0    0  501    0  0.00000000000E+00  0.00000000000E+00  0.19327556688E+04  0.19327556688E+04  0.50400001928E-02 0.  1.
       -1   -1    0    0    0  501  0.00000000000E+00  0.00000000000E+00 -0.11400468328E+04  0.11400468328E+04  0.50400001928E-02 0. -1.
    10030    2    1    2    0    0  0.00000000000E+00  0.00000000000E+00  0.79270883601E+03  0.30728025015E+04  0.29687923327E+04 0.  0.
        2    1    3    3  502    0 -0.35773822185E+03  0.25311902838E+02 -0.10945317345E+04  0.11517886289E+04  0.25500000920E-02 0. -1.
       -2    1    3    3    0  502  0.35773822185E+03 -0.25311902838E+02  0.18872405705E+04  0.19210138726E+04  0.25500000920E-02 0.  1.
</event>
<event>
 5   0  0.7363513E-06  0.2976089E+04  0.7818609E-02  0.8250592E-01
        2   -1    0    0  501    0  0.00000000000E+00  0.00000000000E+00  0.23000137516E+04  0.23000137516E+04  0.25500000920E-02 0.  1.
       -2   -1    0    0    0  501  0.00000000000E+00  0.00000000000E+00 -0.96272324811E+03  0.96272324812E+03  0.25500000920E-02 0. -1.
    10030    2    1    2    0    0  0.00000000000E+00  0.00000000000E+00  0.13372905035E+04  0.32627369998E+04  0.29760891853E+04 0.  0.
        4    1    3    3  502    0 -0.90838855764E+03  0.58631747634E+03 -0.45224816136E+03  0.11719504969E+04  0.12699999809E+01 0. -1.
       -4    1    3    3    0  502  0.90838855764E+03 -0.58631747634E+03  0.17895386649E+04  0.20907865029E+04  0.12699999809E+01 0.  1.
</event>
<event>
 5   0  0.2674441E-06  0.3096616E+04  0.7818609E-02  0.8216667E-01
        1   -1    0    0  501    0  0.00000000000E+00  0.00000000000E+00  0.69093363517E+03  0.69093363519E+03  0.50400001928E-02 0. -1.
       -1   -1    0    0    0  501  0.00000000000E+00  0.00000000000E+00 -0.34695926140E+04  0.34695926140E+04  0.50400001928E-02 0.  1.
    10030    2    1    2    0    0  0.00000000000E+00  0.00000000000E+00 -0.27786589788E+04  0.41605262492E+04  0.30966163711E+04 0.  0.
        5    1    3    3  502    0  0.57300750515E+03  0.10143955219E+04 -0.27594434979E+04  0.29953107325E+04  0.46999998093E+01 0.  1.
       -5    1    3    3    0  502 -0.57300750515E+03 -0.10143955219E+04 -0.19215480886E+02  0.11652155167E+04  0.46999998093E+01 0. -1.
</event>
<event>
 5   0  0.7363513E-06  0.3189021E+04  0.7818609E-02  0.8191723E-01
       -2   -1    0    0    0  501  0.00000000000E+00  0.00000000000E+00  0.12051289112E+04  0.12051289112E+04  0.25500000920E-02 0.  1.
        2   -1    0    0  501    0  0.00000000000E+00  0.00000000000E+00 -0.21097024934E+04  0.21097024934E+04  0.25500000920E-02 0. -1.
    10030    2    1    2    0    0  0.00000000000E+00  0.00000000000E+00 -0.90457358215E+03  0.33148314046E+04  0.31890208334E+04 0.  0.
        4    1    3    3  502    0  0.39042078636E+03 -0.31452246279E+03  0.11210691054E+04  0.12280677188E+04  0.12699999809E+01 0.  1.
       -4    1    3    3    0  502 -0.39042078636E+03  0.31452246279E+03 -0.20256426875E+04  0.20867636858E+04  0.12699999809E+01 0. -1.
</event>
<event>
 5   0  0.7363513E-06  0.3346017E+04  0.7818609E-02  0.8151284E-01
        2   -1    0    0  501    0  0.00000000000E+00  0.00000000000E+00  0.15399413020E+04  0.15399413020E+04  0.25500000920E-02 0. -1.
       -2   -1    0    0    0  501  0.00000000000E+00  0.00000000000E+00 -0.18175743551E+04  0.18175743551E+04  0.25500000920E-02 0.  1.
    10030    2    1    2    0    0  0.00000000000E+00  0.00000000000E+00 -0.27763305311E+03  0.33575156571E+04  0.33460172258E+04 0.  0.
        4    1    3    3  502    0  0.14604982654E+04 -0.19393060831E+03 -0.93418911409E+03  0.17445272076E+04  0.12699999809E+01 0.  1.
       -4    1    3    3    0  502 -0.14604982654E+04  0.19393060831E+03  0.65655606098E+03  0.16129884495E+04  0.12699999809E+01 0. -1.
</event>
<event>
 5   0  0.7094341E-06  0.2467952E+04  0.7818609E-02  0.8414493E-01
       -2   -1    0    0    0  501  0.00000000000E+00  0.00000000000E+00  0.57871610526E+03  0.57871610526E+03  0.25500000920E-02 0.  1.
        2   -1    0    0  501    0  0.00000000000E+00  0.00000000000E+00 -0.26311633754E+04  0.26311633754E+04  0.25500000920E-02 0. -1.
    10030    2    1    2    0    0  0.00000000000E+00  0.00000000000E+00 -0.20524472701E+04  0.32098794807E+04  0.24679518803E+04 0.  0.
        3    1    3    3  502    0  0.61058256873E+03 -0.85603383241E+03 -0.18662013585E+04  0.21420346674E+04  0.10100000352E+00 0. -1.
       -3    1    3    3    0  502 -0.61058256873E+03  0.85603383241E+03 -0.18624591161E+03  0.10678448133E+04  0.10100000352E+00 0.  1.
</event>
<event>
 5   0  0.2598987E-06  0.2992405E+04  0.7818609E-02  0.8245903E-01
       -1   -1    0    0    0  501  0.00000000000E+00  0.00000000000E+00  0.29465510690E+04  0.29465510690E+04  0.50400001928E-02 0.  1.
        1   -1    0    0  501    0  0.00000000000E+00  0.00000000000E+00 -0.75974316707E+03  0.75974316708E+03  0.50400001928E-02 0. -1.
    10030    2    1    2    0    0  0.00000000000E+00  0.00000000000E+00  0.21868079019E+04  0.37062942360E+04  0.29924050803E+04 0.  0.
        2    1    3    3  502    0  0.89404589077E+03  0.10587494797E+04  0.17922384600E+04  0.22654772594E+04  0.25500000920E-02 0.  1.
       -2    1    3    3    0  502 -0.89404589077E+03 -0.10587494797E+04  0.39456944193E+03  0.14408169766E+04  0.25500000920E-02 0. -1.
</event>
<event>
 5   0  0.2612331E-06  0.2603331E+04  0.7818609E-02  0.8367071E-01
       -1   -1    0    0    0  501  0.00000000000E+00  0.00000000000E+00  0.80057045684E+03  0.80057045686E+03  0.50400001928E-02 0.  1.
        1   -1    0    0  501    0  0.00000000000E+00  0.00000000000E+00 -0.21164069734E+04  0.21164069734E+04  0.50400001928E-02 0. -1.
    10030    2    1    2    0    0  0.00000000000E+00  0.00000000000E+00 -0.13158365165E+04  0.29169774302E+04  0.26033308645E+04 0.  0.
        4    1    3    3  502    0 -0.48588898870E+03 -0.57951731565E+03  0.52915653494E+03  0.92300416026E+03  0.12699999809E+01 0.  1.
       -4    1    3    3    0  502  0.48588898870E+03  0.57951731565E+03 -0.18449930515E+04  0.19939732700E+04  0.12699999809E+01 0. -1.
</event>
<event>
 5   0  0.2674441E-06  0.3137421E+04  0.7818609E-02  0.8205543E-01
       -1   -1    0    0    0  501  0.00000000000E+00  0.00000000000E+00  0.10744817204E+04  0.10744817205E+04  0.50400001928E-02 0. -1.
        1   -1    0    0  501    0  0.00000000000E+00  0.00000000000E+00 -0.22902688893E+04  0.22902688893E+04  0.50400001928E-02 0.  1.
    10030    2    1    2    0    0  0.00000000000E+00  0.00000000000E+00 -0.12157871689E+04  0.33647506098E+04  0.31374206326E+04 0.  0.
        5    1    3    3  502    0  0.97371225384E+03 -0.11184071933E+04 -0.59072102747E+02  0.14840693402E+04  0.46999998093E+01 0. -1.
       -5    1    3    3    0  502 -0.97371225384E+03  0.11184071933E+04 -0.11567150661E+04  0.18806812695E+04  0.46999998093E+01 0.  1.
</event>
<event>
 5   0  0.7071012E-06  0.2900874E+04  0.7818609E-02  0.8272618E-01
       -2   -1    0    0    0  501  0.00000000000E+00  0.00000000000E+00  0.10072764703E+04  0.10072764703E+04  0.25500000920E-02 0.  1.
        2   -1    0    0  501    0  0.00000000000E+00  0.00000000000E+00 -0.20885699768E+04  0.20885699768E+04  0.25500000920E-02 0. -1.
    10030    2    1    2    0    0  0.00000000000E+00  0.00000000000E+00 -0.10812935065E+04  0.30958464471E+04  0.29008739333E+04 0.  0.
        1    1    3    3  502    0  0.12984458706E+04  0.51353015222E+03 -0.95957660106E+03  0.16942438282E+04  0.50400001928E-02 0.  1.
       -1    1    3    3    0  502 -0.12984458706E+04 -0.51353015222E+03 -0.12171690544E+03  0.14016026189E+04  0.50400001928E-02 0. -1.
</event>
<event>
 5   0  0.7079223E-06  0.3106939E+04  0.7818609E-02  0.8213836E-01
       -2   -1    0    0    0  501  0.00000000000E+00  0.00000000000E+00  0.10889385782E+04  0.10889385782E+04  0.25500000920E-02 0. -1.
        2   -1    0    0  501    0  0.00000000000E+00  0.00000000000E+00 -0.22161649043E+04  0.22161649043E+04  0.25500000920E-02 0.  1.
    10030    2    1    2    0    0  0.00000000000E+00  0.00000000000E+00 -0.11272263261E+04  0.33051034825E+04  0.31069389823E+04 0.  0.
        5    1    3    3  502    0  0.10681032110E+03 -0.13160852783E+04  0.30697106499E+03  0.13556335158E+04  0.46999998093E+01 0. -1.
       -5    1    3    3    0  502 -0.10681032110E+03  0.13160852783E+04 -0.14341973911E+04  0.19494699667E+04  0.46999998093E+01 0.  1.
</event>
<event>
 5   0  0.7363513E-06  0.3071693E+04  0.7818609E-02  0.8223550E-01
       -2   -1    0    0    0  501  0.00000000000E+00  0.00000000000E+00  0.19424213985E+04  0.19424213985E+04  0.25500000920E-02 0.  1.
        2   -1    0    0  501    0  0.00000000000E+00  0.00000000000E+00 -0.12143735753E+04  0.12143735753E+04  0.25500000920E-02 0. -1.
    10030    2    1    2    0    0  0.00000000000E+00  0.00000000000E+00  0.72804782324E+03  0.31567949738E+04  0.30716934863E+04 0.  0.
        4    1    3    3  502    0 -0.54361709162E+03  0.57886158232E+03 -0.98701678637E+03  0.12668085977E+04  0.12699999809E+01 0. -1.
       -4    1    3    3    0  502  0.54361709162E+03 -0.57886158232E+03  0.17150646096E+04  0.18899863761E+04  0.12699999809E+01 0.  1.
</event>
<event>
 5   0  0.2674441E-06  0.2946665E+04  0.7818609E-02  0.8259127E-01
       -1   -1    0    0    0  501  0.00000000000E+00  0.00000000000E+00  0.12996075140E+04  0.12996075140E+04  0.50400001928E-02 0. -1.
        1   -1    0    0  501    0  0.00000000000E+00  0.00000000000E+00 -0.16702802021E+04  0.16702802021E+04  0.50400001928E-02 0.  1.
    10030    2    1    2    0    0  0.00000000000E+00  0.00000000000E+00 -0.37067268811E+03  0.29698877161E+04  0.29466650310E+04 0.  0.
        5    1    3    3  502    0  0.64625344352E+03 -0.29994282606E+03 -0.14851032999E+04  0.16471682105E+04  0.46999998093E+01 0.  1.
       -5    1    3    3    0  502 -0.64625344352E+03  0.29994282606E+03  0.11144306118E+04  0.13227195057E+04  0.46999998093E+01 0. -1.
</event>
<event>
 5   0  0.2624011E-06  0.3060604E+04  0.7818609E-02  0.8226634E-01
       -1   -1    0    0    0  501  0.00000000000E+00  0.00000000000E+00  0.12076699263E+04  0.12076699263E+04  0.50400001928E-02 0.  1.
        1   -1    0    0  501    0  0.00000000000E+00  0.00000000000E+00 -0.19391266618E+04  0.19391266618E+04  0.50400001928E-02 0. -1.
    10030    2    1    2    0    0  0.00000000000E+00  0.00000000000E+00 -0.73145673554E+03  0.31467965881E+04  0.30606044846E+04 0.  0.
        1    1    3    3  502    0  0.29505495817E+03 -0.14667722740E+04 -0.35199344259E+02  0.14965685169E+04  0.50400001928E-02 0.  1.
       -1    1    3    3    0  502 -0.29505495817E+03  0.14667722740E+04 -0.69625739128E+03  0.16502280712E+04  0.50400001928E-02 0. -1.
</event>
<event>
 5   0  0.2598987E-06  0.3119813E+04  0.7818609E-02  0.8210321E-01
        1   -1    0    0  501    0  0.00000000000E+00  0.00000000000E+00  0.14145792350E+04  0.14145792350E+04  0.50400001928E-02 0.  1.
       -1   -1    0    0    0  501  0.00000000000E+00  0.00000000000E+00 -0.17201645024E+04  0.17201645024E+04  0.50400001928E-02 0. -1.
    10030    2    1    2    0    0  0.00000000000E+00  0.00000000000E+00 -0.30558526737E+03  0.31347437374E+04  0.31198134469E+04 0.  0.
        2    1    3    3  502    0  0.15582975619E+03  0.76620640192E+03  0.12034647032E+04  0.14351593832E+04  0.25500000920E-02 0.  1.
       -2    1    3    3    0  502 -0.15582975619E+03 -0.76620640192E+03 -0.15090499706E+04  0.16995843542E+04  0.25500000920E-02 0. -1.
</event>
<event>
 5   0  0.2598987E-06  0.3123576E+04  0.7818609E-02  0.8209297E-01
       -1   -1    0    0    0  501  0.00000000000E+00  0.00000000000E+00  0.16668768324E+04  0.16668768324E+04  0.50400001928E-02 0. -1.
        1   -1    0    0  501    0  0.00000000000E+00  0.00000000000E+00 -0.14633246315E+04  0.14633246315E+04  0.50400001928E-02 0.  1.
    10030    2    1    2    0    0  0.00000000000E+00  0.00000000000E+00  0.20355220085E+03  0.31302014639E+04  0.31235761086E+04 0.  0.
        2    1    3    3  502    0 -0.37947553846E+03  0.84187342377E+03 -0.11604308579E+04  0.14830213491E+04  0.25500000920E-02 0.  1.
       -2    1    3    3    0  502  0.37947553846E+03 -0.84187342377E+03  0.13639830587E+04  0.16471801148E+04  0.25500000920E-02 0. -1.
</event>
<event>
 5   0  0.2517725E-06  0.3093956E+04  0.7818609E-02  0.8217399E-01
       -1   -1    0    0    0  501  0.00000000000E+00  0.00000000000E+00  0.11923054798E+04  0.11923054798E+04  0.50400001928E-02 0. -1.
        1   -1    0    0  501    0  0.00000000000E+00  0.00000000000E+00 -0.20071541805E+04  0.20071541805E+04  0.50400001928E-02 0.  1.
    10030    2    1    2    0    0  0.00000000000E+00  0.00000000000E+00 -0.81484870068E+03  0.31994596603E+04  0.30939559972E+04 0.  0.
        3    1    3    3  502    0  0.29229826009E+03 -0.34573178492E+03 -0.19371137316E+04  0.19893160532E+04  0.10100000352E+00 0.  1.
       -3    1    3    3    0  502 -0.29229826009E+03  0.34573178492E+03  0.11222650309E+04  0.12101436071E+04  0.10100000352E+00 0. -1.
</event>
<event>
 5   0  0.7071012E-06  0.3049288E+04  0.7818609E-02  0.8229795E-01
       -2   -1    0    0    0  501  0.00000000000E+00  0.00000000000E+00  0.11973225112E+04  0.11973225112E+04  0.25500000920E-02 0.  1.
        2   -1    0    0  501    0  0.00000000000E+00  0.00000000000E+00 -0.19414476771E+04  0.19414476771E+04  0.25500000920E-02 0. -1.
    10030    2    1    2    0    0  0.00000000000E+00  0.00000000000E+00 -0.74412516596E+03  0.31387701883E+04  0.30492877910E+04 0.  0.
        1    1    3    3  502    0  0.10429518693E+04  0.98215959723E+03 -0.90905433216E+03  0.16966926224E+04  0.50400001928E-02 0. -1.
       -1    1    3    3    0  502 -0.10429518693E+04 -0.98215959723E+03  0.16492916620E+03  0.14420775659E+04  0.50400001928E-02 0.  1.
</event>
<event>
 5   0  0.2598987E-06  0.2920553E+04  0.7818609E-02  0.8266788E-01
        1   -1    0    0  501    0  0.00000000000E+00  0.00000000000E+00  0.17657156989E+04  0.17657156989E+04  0.50400001928E-02 0. -1.
       -1   -1    0    0    0  501  0.00000000000E+00  0.00000000000E+00 -0.12076734193E+04  0.12076734193E+04  0.50400001928E-02 0.  1.
    10030    2    1    2    0    0  0.00000000000E+00  0.00000000000E+00  0.55804227964E+03  0.29733891182E+04  0.29205533144E+04 0.  0.
        2    1    3    3  502    0 -0.12073227241E+04  0.61577850554E+03  0.83254496271E+03  0.15905792791E+04  0.25500000920E-02 0. -1.
       -2    1    3    3    0  502  0.12073227241E+04 -0.61577850554E+03 -0.27450268307E+03  0.13828098391E+04  0.25500000920E-02 0.  1.
</event>
<event>
 5   0  0.2624011E-06  0.3115810E+04  0.7818609E-02  0.8211412E-01
        1   -1    0    0  501    0  0.00000000000E+00  0.00000000000E+00  0.30161308029E+04  0.30161308029E+04  0.50400001928E-02 0.  1.
       -1   -1    0    0    0  501  0.00000000000E+00  0.00000000000E+00 -0.80469566229E+03  0.80469566231E+03  0.50400001928E-02 0. -1.
    10030    2    1    2    0    0  0.00000000000E+00  0.00000000000E+00  0.22114351406E+04  0.38208264652E+04  0.31158096053E+04 0.  0.
        1    1    3    3  502    0  0.86926751685E+03  0.10560093042E+04  0.20203263214E+04  0.24397746026E+04  0.50400001928E-02 0. -1.
       -1    1    3    3    0  502 -0.86926751685E+03 -0.10560093042E+04  0.19110881922E+03  0.13810518626E+04  0.50400001928E-02 0.  1.
</event>
<event>
 5   0  0.7363513E-06  0.3075938E+04  0.7818609E-02  0.8222373E-01
       -2   -1    0    0    0  501  0.00000000000E+00  0.00000000000E+00  0.13444194983E+04  0.13444194983E+04  0.25500000920E-02 0.  1.
        2   -1    0    0  501    0  0.00000000000E+00  0.00000000000E+00 -0.17593826103E+04  0.17593826103E+04  0.25500000920E-02 0. -1.
    10030    2    1    2    0    0  0.00000000000E+00  0.00000000000E+00 -0.41496311197E+03  0.31038021086E+04  0.30759377668E+04 0.  0.
        4    1    3    3  502    0 -0.86881207009E+03  0.58730530144E+03 -0.13426546653E+04  0.17036681289E+04  0.12699999809E+01 0. -1.
       -4    1    3    3    0  502  0.86881207009E+03 -0.58730530144E+03  0.92769155330E+03  0.14001339797E+04  0.12699999809E+01 0.  1.
</event>
<event>
 5   0  0.2674441E-06  0.2290707E+04  0.7818609E-02  0.8481594E-01
       -1   -1    0    0    0  501  0.00000000000E+00  0.00000000000E+00  0.15395876581E+04  0.15395876581E+04  0.50400001928E-02 0.  1.
        1   -1    0    0  501    0  0.00000000000E+00  0.00000000000E+00 -0.85206892773E+03  0.85206892774E+03  0.50400001928E-02 0. -1.
    10030    2    1    2    0    0  0.00000000000E+00  0.00000000000E+00  0.68751873039E+03  0.23916565859E+04  0.22907071441E+04 0.  0.
        5    1    3    3  502    0 -0.77933151645E+03 -0.59070108942E+03 -0.27877845797E+03  0.10168701531E+04  0.46999998093E+01 0. -1.
       -5    1    3    3    0  502  0.77933151645E+03  0.59070108942E+03  0.96629718837E+03  0.13747864328E+04  0.46999998093E+01 0.  1.
</event>
<event>
 5   0  0.2674441E-06  0.3039230E+04  0.7818609E-02  0.8232616E-01
       -1   -1    0    0    0  501  0.00000000000E+00  0.00000000000E+00  0.13186751220E+04  0.13186751220E+04  0.50400001928E-02 0.  1.
        1   -1    0    0  501    0  0.00000000000E+00  0.00000000000E+00 -0.17511738716E+04  0.17511738716E+04  0.50400001928E-02 0. -1.
    10030    2    1    2    0    0  0.00000000000E+00  0.00000000000E+00 -0.43249874966E+03  0.30698489936E+04  0.30392297832E+04 0.  0.
        5    1    3    3  502    0 -0.93299017235E+03  0.14129580561E+03  0.98687300622E+03  0.13654213953E+04  0.46999998093E+01 0.  1.
       -5    1    3    3    0  502  0.93299017235E+03 -0.14129580561E+03 -0.14193717559E+04  0.17044275983E+04  0.46999998093E+01 0. -1.
</event>
<event>
 5   0  0.2598987E-06  0.3131646E+04  0.7818609E-02  0.8207106E-01
       -1   -1    0    0    0  501  0.00000000000E+00  0.00000000000E+00  0.26906762741E+04  0.26906762741E+04  0.50400001928E-02 0.  1.
        1   -1    0    0  501    0  0.00000000000E+00  0.00000000000E+00 -0.91122138062E+03  0.91122138063E+03  0.50400001928E-02 0. -1.
    10030    2    1    2    0    0  0.00000000000E+00  0.00000000000E+00  0.17794548935E+04  0.36018976548E+04  0.31316460524E+04 0.  0.
        2    1    3    3  502    0  0.50410873682E+03  0.66035585044E+03  0.24162847900E+04  0.25551179335E+04  0.25500000920E-02 0.  1.
       -2    1    3    3    0  502 -0.50410873682E+03 -0.66035585044E+03 -0.63682989649E+03  0.10467797213E+04  0.25500000920E-02 0. -1.
</event>
<event>
 5   0  0.7071012E-06  0.3070412E+04  0.7818609E-02  0.8223905E-01
        2   -1    0    0  501    0  0.00000000000E+00  0.00000000000E+00  0.10060401682E+04  0.10060401682E+04  0.25500000920E-02 0. -1.
       -2   -1    0    0    0  501  0.00000000000E+00  0.00000000000E+00 -0.23427073747E+04  0.23427073747E+04  0.25500000920E-02 0.  1.
    10030    2    1    2    0    0  0.00000000000E+00  0.00000000000E+00 -0.13366672065E+04  0.33487475430E+04  0.30704121687E+04 0.  0.
        1    1    3    3  502    0  0.10752418941E+04 -0.10421254269E+04 -0.10376879177E+04  0.18218031591E+04  0.50400001928E-02 0.  1.
       -1    1    3    3    0  502 -0.10752418941E+04  0.10421254269E+04 -0.29897928885E+03  0.15269443838E+04  0.50400001928E-02 0. -1.
</event>
<event>
 5   0  0.2598987E-06  0.3155479E+04  0.7818609E-02  0.8200675E-01
       -1   -1    0    0    0  501  0.00000000000E+00  0.00000000000E+00  0.11261292705E+04  0.11261292705E+04  0.50400001928E-02 0.  1.
        1   -1    0    0  501    0  0.00000000000E+00  0.00000000000E+00 -0.22104584862E+04  0.22104584862E+04  0.50400001928E-02 0. -1.
    10030    2    1    2    0    0  0.00000000000E+00  0.00000000000E+00 -0.10843292157E+04  0.33365877567E+04  0.31554790461E+04 0.  0.
        2    1    3    3  502    0 -0.64168981636E+03  0.93861912118E+02 -0.20630081987E+04  0.21625398741E+04  0.25500000920E-02 0. -1.
       -2    1    3    3    0  502  0.64168981636E+03 -0.93861912118E+02  0.97867898305E+03  0.11740478827E+04  0.25500000920E-02 0.  1.
</event>
<event>
 5   0  0.7071012E-06  0.3170325E+04  0.7818609E-02  0.8196698E-01
        2   -1    0    0  501    0  0.00000000000E+00  0.00000000000E+00  0.18428628160E+04  0.18428628160E+04  0.25500000920E-02 0.  1.
       -2   -1    0    0    0  501  0.00000000000E+00  0.00000000000E+00 -0.13634982936E+04  0.13634982936E+04  0.25500000920E-02 0. -1.
    10030    2    1    2    0    0  0.00000000000E+00  0.00000000000E+00  0.47936452238E+03  0.32063611096E+04  0.31703250968E+04 0.  0.
        1    1    3    3  502    0 -0.77209956748E+03 -0.28392082852E+03  0.16100715952E+04  0.18080595457E+04  0.50400001928E-02 0.  1.
       -1    1    3    3    0  502  0.77209956748E+03  0.28392082852E+03 -0.11307070728E+04  0.13983015639E+04  0.50400001928E-02 0. -1.
</event>
<event>
 5   0  0.7094341E-06  0.2899022E+04  0.7818609E-02  0.8273169E-01
        2   -1    0    0  501    0  0.00000000000E+00  0.00000000000E+00  0.14739500876E+04  0.14739500876E+04  0.25500000920E-02 0. -1.
       -2   -1    0    0    0  501  0.00000000000E+00  0.00000000000E+00 -0.14254770233E+04  0.14254770233E+04  0.25500000920E-02 0.  1.
    10030    2    1    2    0    0  0.00000000000E+00  0.00000000000E+00  0.48473064355E+02  0.28994271109E+04  0.28990218925E+04 0.  0.
        3    1    3    3  502    0  0.11881355319E+04  0.39257516801E+03  0.75598124512E+03  0.14619469751E+04  0.10100000352E+00 0. -1.
       -3    1    3    3    0  502 -0.11881355319E+04 -0.39257516801E+03 -0.70750818076E+03  0.14374801358E+04  0.10100000352E+00 0.  1.
</event>
<event>
 5   0  0.7094341E-06  0.3125818E+04  0.7818609E-02  0.8208688E-01
       -2   -1    0    0    0  501  0.00000000000E+00  0.00000000000E+00  0.12006363417E+04  0.12006363417E+04  0.25500000920E-02 0.  1.
        2   -1    0    0  501    0  0.00000000000E+00  0.00000000000E+00 -0.20344919233E+04  0.20344919233E+04  0.25500000920E-02 0. -1.
    10030    2    1    2    0    0  0.00000000000E+00  0.00000000000E+00 -0.83385558164E+03  0.32351282649E+04  0.31258182544E+04 0.  0.
        3    1    3    3  502    0  0.12900220379E+04  0.88220444483E+03 -0.40078130071E+03  0.16134023683E+04  0.10100000352E+00 0. -1.
       -3    1    3    3    0  502 -0.12900220379E+04 -0.88220444483E+03 -0.43307428093E+03  0.16217258966E+04  0.10100000352E+00 0.  1.
</event>
<event>
 5   0  0.2624011E-06  0.3115642E+04  0.7818609E-02  0.8211458E-01
       -1   -1    0    0    0  501  0.00000000000E+00  0.00000000000E+00  0.25379156931E+04  0.25379156931E+04  0.50400001928E-02 0. -1.
        1   -1    0    0  501    0  0.00000000000E+00  0.00000000000E+00 -0.95621998238E+03  0.95621998239E+03  0.50400001928E-02 0.  1.
    10030    2    1    2    0    0  0.00000000000E+00  0.00000000000E+00  0.15816957107E+04  0.34941356755E+04  0.31156416349E+04 0.  0.
        1    1    3    3  502    0 -0.98355830654E+03  0.91174284570E+02 -0.56011010773E+03  0.11355276418E+04  0.50400001928E-02 0.  1.
       -1    1    3    3    0  502  0.98355830654E+03 -0.91174284570E+02  0.21418058184E+04  0.23586080336E+04  0.50400001928E-02 0. -1.
</event>
<event>
 5   0  0.2674441E-06  0.3186275E+04  0.7818609E-02  0.8192451E-01
       -1   -1    0    0    0  501  0.00000000000E+00  0.00000000000E+00  0.12844772358E+04  0.12844772358E+04  0.50400001928E-02 0.  1.
        1   -1    0    0  501    0  0.00000000000E+00  0.00000000000E+00 -0.19759684517E+04  0.19759684517E+04  0.50400001928E-02 0. -1.
    10030    2    1    2    0    0  0.00000000000E+00  0.00000000000E+00 -0.69149121595E+03  0.32604456875E+04  0.31862746240E+04 0.  0.
        5    1    3    3  502    0 -0.68010252942E+03 -0.42118307754E+03  0.10640518256E+04  0.13312261314E+04  0.46999998093E+01 0.  1.
       -5    1    3    3    0  502  0.68010252942E+03  0.42118307754E+03 -0.17555430415E+04  0.19292195562E+04  0.46999998093E+01 0. -1.
</event>
<event>
 5   0  0.7094341E-06  0.2755171E+04  0.7818609E-02  0.8317323E-01
       -2   -1    0    0    0  501  0.00000000000E+00  0.00000000000E+00  0.95626527054E+03  0.95626527054E+03  0.25500000920E-02 0.  1.
        2   -1    0    0  501    0  0.00000000000E+00  0.00000000000E+00 -0.19845353592E+04  0.19845353592E+04  0.25500000920E-02 0. -1.
    10030    2    1    2    0    0  0.00000000000E+00  0.00000000000E+00 -0.10282700886E+04  0.29408006297E+04  0.27551713138E+04 0.  0.
        3    1    3    3  502    0  0.81336709225E+03 -0.63609035324E+03  0.45920624254E+03  0.11300651962E+04  0.10100000352E+00 0.  1.
       -3    1    3    3    0  502 -0.81336709225E+03  0.63609035324E+03 -0.14874763312E+04  0.18107354335E+04  0.10100000352E+00 0. -1.
</event>
<event>
 5   0  0.2674441E-06  0.3159223E+04  0.7818609E-02  0.8199670E-01
       -1   -1    0    0    0  501  0.00000000000E+00  0.00000000000E+00  0.10143204594E+04  0.10143204594E+04  0.50400001928E-02 0.  1.
        1   -1    0    0  501    0  0.00000000000E+00  0.00000000000E+00 -0.24599443840E+04  0.24599443840E+04  0.50400001928E-02 0. -1.
    10030    2    1    2    0    0  0.00000000000E+00  0.00000000000E+00 -0.14456239246E+04  0.34742648434E+04  0.31592226371E+04 0.  0.
        5    1    3    3  502    0 -0.84487334165E+03  0.10943141409E+04  0.11746115951E+03  0.13874990510E+04  0.46999998093E+01 0.  1.
       -5    1    3    3    0  502  0.84487334165E+03 -0.10943141409E+04 -0.15630850841E+04  0.20867657925E+04  0.46999998093E+01 0. -1.
</event>
<event>
 5   0  0.7414808E-06  0.3081262E+04  0.7818609E-02  0.8220899E-01
       -2   -1    0    0    0  501  0.00000000000E+00  0.00000000000E+00  0.19488883319E+04  0.19488883320E+04  0.25500000920E-02 0.  1.
        2   -1    0    0  501    0  0.00000000000E+00  0.00000000000E+00 -0.12178961402E+04  0.12178961402E+04  0.25500000920E-02 0. -1.
    10030    2    1    2    0    0  0.00000000000E+00  0.00000000000E+00  0.73099219174E+03  0.31667844722E+04  0.30812618046E+04 0.  0.
        2    1    3    3  502    0  0.44964596344E+03  0.14699921025E+04  0.47073599118E+03  0.16076848718E+04  0.25500000920E-02 0. -1.
       -2    1    3    3    0  502 -0.44964596344E+03 -0.14699921025E+04  0.26025620056E+03  0.15590996003E+04  0.25500000920E-02 0.  1.
</event>
<event>
 5   0  0.2624011E-06  0.3174448E+04  0.7818609E-02  0.8195598E-01
       -1   -1    0    0    0  501  0.00000000000E+00  0.00000000000E+00  0.11751926603E+04  0.11751926603E+04  0.50400001928E-02 0. -1.
        1   -1    0    0  501    0  0.00000000000E+00  0.00000000000E+00 -0.21437169856E+04  0.21437169856E+04  0.50400001928E-02 0.  1.
    10030    2    1    2    0    0  0.00000000000E+00  0.00000000000E+00 -0.96852432530E+03  0.33189096459E+04  0.31744482779E+04 0.  0.
        1    1    3    3  502    0  0.54070679205E+03  0.14742231781E+04 -0.24224883565E+03  0.15888304857E+04  0.50400001928E-02 0. -1.
       -1    1    3    3    0  502 -0.54070679205E+03 -0.14742231781E+04 -0.72627548964E+03  0.17300791602E+04  0.50400001928E-02 0.  1.
</event>
<event>
 5   0  0.2624011E-06  0.2381848E+04  0.7818609E-02  0.8446331E-01
        1   -1    0    0  501    0  0.00000000000E+00  0.00000000000E+00  0.11911356190E+04  0.11911356190E+04  0.50400001928E-02 0.  1.
       -1   -1    0    0    0  501  0.00000000000E+00  0.00000000000E+00 -0.11907122507E+04  0.11907122507E+04  0.50400001928E-02 0. -1.
    10030    2    1    2    0    0  0.00000000000E+00  0.00000000000E+00  0.42336824292E+00  0.23818478697E+04  0.23818478321E+04 0.  0.
        1    1    3    3  502    0  0.36343860904E+03 -0.48783159926E+03  0.10240439531E+04  0.11911059188E+04  0.50400001928E-02 0.  1.
       -1    1    3    3    0  502 -0.36343860904E+03  0.48783159926E+03 -0.10236205849E+04  0.11907419509E+04  0.50400001928E-02 0. -1.
</event>
<event>
 5   0  0.2612331E-06  0.3135560E+04  0.7818609E-02  0.8206046E-01
        1   -1    0    0  501    0  0.00000000000E+00  0.00000000000E+00  0.19135890478E+04  0.19135890479E+04  0.50400001928E-02 0.  1.
       -1   -1    0    0    0  501  0.00000000000E+00  0.00000000000E+00 -0.12844629029E+04  0.12844629029E+04  0.50400001928E-02 0. -1.
    10030    2    1    2    0    0  0.00000000000E+00  0.00000000000E+00  0.62912614496E+03  0.31980519507E+04  0.31355600095E+04 0.  0.
        4    1    3    3  502    0 -0.43562689646E+03  0.49871878379E+03  0.17639555926E+04  0.18841529035E+04  0.12699999809E+01 0.  1.
       -4    1    3    3    0  502  0.43562689646E+03 -0.49871878379E+03 -0.11348294476E+04  0.13138990472E+04  0.12699999809E+01 0. -1.
</event>
<event>
 5   0  0.7363513E-06  0.3096279E+04  0.7818609E-02  0.8216760E-01
       -2   -1    0    0    0  501  0.00000000000E+00  0.00000000000E+00  0.11542416447E+04  0.11542416447E+04  0.25500000920E-02 0. -1.
        2   -1    0    0  501    0  0.00000000000E+00  0.00000000000E+00 -0.20764597840E+04  0.20764597840E+04  0.25500000920E-02 0.  1.
    10030    2    1    2    0    0  0.00000000000E+00  0.00000000000E+00 -0.92221813925E+03  0.32307014287E+04  0.30962792873E+04 0.  0.
        4    1    3    3  502    0 -0.96580727374E+03 -0.47554838757E+03  0.69975875641E+03  0.12839758132E+04  0.12699999809E+01 0. -1.
       -4    1    3    3    0  502  0.96580727374E+03  0.47554838757E+03 -0.16219768957E+04  0.19467256155E+04  0.12699999809E+01 0.  1.
</event>
<event>
 5   0  0.2517725E-06  0.3087480E+04  0.7818609E-02  0.8219182E-01
        1   -1    0    0  501    0  0.00000000000E+00  0.00000000000E+00  0.18486358125E+04  0.18486358125E+04  0.50400001928E-02 0. -1.
       -1   -1    0    0    0  501  0.00000000000E+00  0.00000000000E+00 -0.12891304304E+04  0.12891304304E+04  0.50400001928E-02 0.  1.
    10030    2    1    2    0    0  0.00000000000E+00  0.00000000000E+00  0.55950538214E+03  0.31377662429E+04  0.30874796716E+04 0.  0.
        3    1    3    3  502    0 -0.42062809809E+03 -0.14754122165E+04  0.45390134841E+03  0.15999361393E+04  0.10100000352E+00 0. -1.
       -3    1    3    3    0  502  0.42062809809E+03  0.14754122165E+04  0.10560403373E+03  0.15378301036E+04  0.10100000352E+00 0.  1.
</event>
<event>
 5   0  0.2674441E-06  0.3096421E+04  0.7818609E-02  0.8216721E-01
       -1   -1    0    0    0  501  0.00000000000E+00  0.00000000000E+00  0.19136555259E+04  0.19136555259E+04  0.50400001928E-02 0. -1.
        1   -1    0    0  501    0  0.00000000000E+00  0.00000000000E+00 -0.12525537123E+04  0.12525537123E+04  0.50400001928E-02 0.  1.
    10030    2    1    2    0    0  0.00000000000E+00  0.00000000000E+00  0.66110181362E+03  0.31662092382E+04  0.30964213751E+04 0.  0.
        5    1    3    3  502    0 -0.88306500868E+03  0.12413959924E+04  0.61256840360E+03  0.16419896341E+04  0.46999998093E+01 0. -1.
       -5    1    3    3    0  502  0.88306500868E+03 -0.12413959924E+04  0.48533410017E+02  0.15242196041E+04  0.46999998093E+01 0.  1.
</event>
<event>
 5   0  0.2612331E-06  0.3113074E+04  0.7818609E-02  0.8212159E-01
       -1   -1    0    0    0  501  0.00000000000E+00  0.00000000000E+00  0.21739329720E+04  0.21739329720E+04  0.50400001928E-02 0.  1.
        1   -1    0    0  501    0  0.00000000000E+00  0.00000000000E+00 -0.11144811778E+04  0.11144811778E+04  0.50400001928E-02 0. -1.
    10030    2    1    2    0    0  0.00000000000E+00  0.00000000000E+00  0.10594517942E+04  0.32884141498E+04  0.31130739658E+04 0.  0.
        4    1    3    3  502    0  0.92135143426E+03  0.11441673504E+04  0.10732949544E+04  0.18193325873E+04  0.12699999809E+01 0.  1.
       -4    1    3    3    0  502 -0.92135143426E+03 -0.11441673504E+04 -0.13843160220E+02  0.14690815625E+04  0.12699999809E+01 0. -1.
</event>
<event>
 5   0  0.7414808E-06  0.2839543E+04  0.7818609E-02  0.8291096E-01
        2   -1    0    0  501    0  0.00000000000E+00  0.00000000000E+00  0.20244850992E+04  0.20244850992E+04  0.25500000920E-02 0. -1.
       -2   -1    0    0    0  501  0.00000000000E+00  0.00000000000E+00 -0.99568589755E+03  0.99568589756E+03  0.25500000920E-02 0.  1.
    10030    2    1    2    0    0  0.00000000000E+00  0.00000000000E+00  0.10287992017E+04  0.30201709968E+04  0.28395431063E+04 0.  0.
        2    1    3    3  502    0  0.11316209013E+03 -0.77642719552E+03 -0.74413044813E+03  0.10813764250E+04  0.25500000920E-02 0.  1.
       -2    1    3    3    0  502 -0.11316209013E+03  0.77642719552E+03  0.17729296498E+04  0.19387945718E+04  0.25500000920E-02 0. -1.
</event>
<event>
 5   0  0.7363513E-06  0.3023279E+04  0.7818609E-02  0.8237115E-01
        2   -1    0    0  501    0  0.00000000000E+00  0.00000000000E+00  0.18554895567E+04  0.18554895567E+04  0.25500000920E-02 0. -1.
       -2   -1    0    0    0  501  0.00000000000E+00  0.00000000000E+00 -0.12315100170E+04  0.12315100170E+04  0.25500000920E-02 0.  1.
    10030    2    1    2    0    0  0.00000000000E+00  0.00000000000E+00  0.62397953974E+03  0.30869995737E+04  0.30232789984E+04 0.  0.
        4    1    3    3  502    0 -0.11600148652E+04  0.14961314511E+03  0.12897919689E+04  0.17411443124E+04  0.12699999809E+01 0. -1.
       -4    1    3    3    0  502  0.11600148652E+04 -0.14961314511E+03 -0.66581242915E+03  0.13458552613E+04  0.12699999809E+01 0.  1.
</event>
<event>
 5   0  0.7363513E-06  0.3039858E+04  0.7818609E-02  0.8232440E-01
       -2   -1    0    0    0  501  0.00000000000E+00  0.00000000000E+00  0.11536267267E+04  0.11536267267E+04  0.25500000920E-02 0.  1.
        2   -1    0    0  501    0  0.00000000000E+00  0.00000000000E+00 -0.20025406952E+04  0.20025406952E+04  0.25500000920E-02 0. -1.
    10030    2    1    2    0    0  0.00000000000E+00  0.00000000000E+00 -0.84891396848E+03  0.31561674218E+04  0.30398581988E+04 0.  0.
        4    1    3    3  502    0 -0.65153542971E+03  0.77176113920E+03 -0.16037268680E+04  0.18952717885E+04  0.12699999809E+01 0. -1.
       -4    1    3    3    0  502  0.65153542971E+03 -0.77176113920E+03  0.75481289950E+03  0.12608956334E+04  0.12699999809E+01 0.  1.
</event>
<event>
 5   0  0.2612331E-06  0.3057685E+04  0.7818609E-02  0.8227448E-01
        1   -1    0    0  501    0  0.00000000000E+00  0.00000000000E+00  0.14240671409E+04  0.14240671409E+04  0.50400001928E-02 0. -1.
       -1   -1    0    0    0  501  0.00000000000E+00  0.00000000000E+00 -0.16413268174E+04  0.16413268174E+04  0.50400001928E-02 0.  1.
    10030    2    1    2    0    0  0.00000000000E+00  0.00000000000E+00 -0.21725967645E+03  0.30653939583E+04  0.30576851297E+04 0.  0.
        4    1    3    3  502    0 -0.12956315282E+04 -0.31629055808E+03 -0.85794796122E+03  0.15858048717E+04  0.12699999809E+01 0.  1.
       -4    1    3    3    0  502  0.12956315282E+04  0.31629055808E+03  0.64068828476E+03  0.14795890866E+04  0.12699999809E+01 0. -1.
</event>
<event>
 5   0  0.7414808E-06  0.2574531E+04  0.7818609E-02  0.8376904E-01
       -2   -1    0    0    0  501  0.00000000000E+00  0.00000000000E+00  0.66793069477E+03  0.66793069477E+03  0.25500000920E-02 0.  1.
        2   -1    0    0  501    0  0.00000000000E+00  0.00000000000E+00 -0.24808756078E+04  0.24808756078E+04  0.25500000920E-02 0. -1.
    10030    2    1    2    0    0  0.00000000000E+00  0.00000000000E+00 -0.18129449130E+04  0.31488063025E+04  0.25745313891E+04 0.  0.
        2    1    3    3  502    0  0.12808476887E+03 -0.71578646092E+03 -0.22056229782E+04  0.23223971856E+04  0.25500000920E-02 0. -1.
       -2    1    3    3    0  502 -0.12808476887E+03  0.71578646092E+03  0.39267806522E+03  0.82640911694E+03  0.25500000920E-02 0.  1.
</event>
<event>
 5   0  0.7363513E-06  0.3100406E+04  0.7818609E-02  0.8215627E-01
        2   -1    0    0  501    0  0.00000000000E+00  0.00000000000E+00  0.20642650344E+04  0.20642650344E+04  0.25500000920E-02 0. -1.
       -2   -1    0    0    0  501  0.00000000000E+00  0.00000000000E+00 -0.11641571959E+04  0.11641571959E+04  0.25500000920E-02 0.  1.
    10030    2    1    2    0    0  0.00000000000E+00  0.00000000000E+00  0.90010783859E+03  0.32284222303E+04  0.31004057760E+04 0.  0.
        4    1    3    3  502    0 -0.87215061323E+02 -0.54085964993E+03 -0.10599934693E+04  0.11931988082E+04  0.12699999809E+01 0.  1.
       -4    1    3    3    0  502  0.87215061323E+02  0.54085964993E+03  0.19601013079E+04  0.20352234222E+04  0.12699999809E+01 0. -1.
</event>
<event>
 5   0  0.7079223E-06  0.3181502E+04  0.7818609E-02  0.8193720E-01
        2   -1    0    0  501    0  0.00000000000E+00  0.00000000000E+00  0.15343870531E+04  0.15343870531E+04  0.25500000920E-02 0. -1.
       -2   -1    0    0    0  501  0.00000000000E+00  0.00000000000E+00 -0.16491851980E+04  0.16491851980E+04  0.25500000920E-02 0.  1.
    10030    2    1    2    0    0  0.00000000000E+00  0.00000000000E+00 -0.11479814490E+03  0.31835722511E+04  0.31815017938E+04 0.  0.
        5    1    3    3  502    0  0.21411896124E+03  0.15121174070E+04 -0.50279585414E+03  0.16078469278E+04  0.46999998093E+01 0.  1.
       -5    1    3    3    0  502 -0.21411896124E+03 -0.15121174070E+04  0.38799770923E+03  0.15757253233E+04  0.46999998093E+01 0. -1.
</event>
<event>
 5   0  0.2393250E-06  0.3100580E+04  0.7818609E-02  0.8215579E-01
        4   -1    0    0  501    0  0.00000000000E+00  0.00000000000E+00  0.19175641914E+04  0.19175646120E+04  0.12699999809E+01 0.  1.
       -4   -1    0    0    0  501  0.00000000000E+00  0.00000000000E+00 -0.12533595856E+04  0.12533602291E+04  0.12699999809E+01 0. -1.
    10030    2    1    2    0    0  0.00000000000E+00  0.00000000000E+00  0.66420460577E+03  0.31709248410E+04  0.31005800407E+04 0.  0.
        1    1    3    3  502    0  0.47953270703E+03 -0.16855501881E+03  0.18299248656E+04  0.18992070517E+04  0.50400001928E-02 0.  1.
       -1    1    3    3    0  502 -0.47953270703E+03  0.16855501881E+03 -0.11657202598E+04  0.12717177893E+04  0.50400001928E-02 0. -1.
</event>
<event>
 5   0  0.7079223E-06  0.3151939E+04  0.7818609E-02  0.8201626E-01
       -2   -1    0    0    0  501  0.00000000000E+00  0.00000000000E+00  0.15312656895E+04  0.15312656895E+04  0.25500000920E-02 0.  1.
        2   -1    0    0  501    0  0.00000000000E+00  0.00000000000E+00 -0.16219788722E+04  0.16219788722E+04  0.25500000920E-02 0. -1.
    10030    2    1    2    0    0  0.00000000000E+00  0.00000000000E+00 -0.90713182717E+02  0.31532445618E+04  0.31519394640E+04 0.  0.
        5    1    3    3  502    0 -0.76591363488E+03 -0.13693852414E+04  0.10241669137E+03  0.15723711089E+04  0.46999998093E+01 0.  1.
       -5    1    3    3    0  502  0.76591363488E+03  0.13693852414E+04 -0.19312987409E+03  0.15808734528E+04  0.46999998093E+01 0. -1.
</event>
<event>
 5   0  0.2674441E-06  0.3142765E+04  0.7818609E-02  0.8204098E-01
        1   -1    0    0  501    0  0.00000000000E+00  0.00000000000E+00  0.14743018308E+04  0.14743018308E+04  0.50400001928E-02 0.  1.
       -1   -1    0    0    0  501  0.00000000000E+00  0.00000000000E+00 -0.16748561421E+04  0.16748561421E+04  0.50400001928E-02 0. -1.
    10030    2    1    2    0    0  0.00000000000E+00  0.00000000000E+00 -0.20055431130E+03  0.31491579729E+04  0.31427653279E+04 0.  0.
        5    1    3    3  502    0  0.22171881939E+03 -0.14536470569E+04 -0.65545502823E+03  0.16099355220E+04  0.46999998093E+01 0. -1.
       -5    1    3    3    0  502 -0.22171881939E+03  0.14536470569E+04  0.45490071693E+03  0.15392224509E+04  0.46999998093E+01 0.  1.
</event>
<event>
 5   0  0.2598987E-06  0.3163352E+04  0.7818609E-02  0.8198563E-01
       -1   -1    0    0    0  501  0.00000000000E+00  0.00000000000E+00  0.19830383075E+04  0.19830383075E+04  0.50400001928E-02 0.  1.
        1   -1    0    0  501    0  0.00000000000E+00  0.00000000000E+00 -0.12615483287E+04  0.12615483287E+04  0.50400001928E-02 0. -1.
    10030    2    1    2    0    0  0.00000000000E+00  0.00000000000E+00  0.72148997883E+03  0.32445866362E+04  0.31633518062E+04 0.  0.
        2    1    3    3  502    0  0.11575212084E+04  0.59865485898E+03  0.12801203118E+04  0.18267323287E+04  0.25500000920E-02 0.  1.
       -2    1    3    3    0  502 -0.11575212084E+04 -0.59865485898E+03 -0.55863033297E+03  0.14178543074E+04  0.25500000920E-02 0. -1.
</event>
<event>
 5   0  0.7071012E-06  0.2964254E+04  0.7818609E-02  0.8254013E-01
       -2   -1    0    0    0  501  0.00000000000E+00  0.00000000000E+00  0.11857456382E+04  0.11857456382E+04  0.25500000920E-02 0. -1.
        2   -1    0    0  501    0  0.00000000000E+00  0.00000000000E+00 -0.18525899880E+04  0.18525899880E+04  0.25500000920E-02 0.  1.
    10030    2    1    2    0    0  0.00000000000E+00  0.00000000000E+00 -0.66684434974E+03  0.30383356262E+04  0.29642540361E+04 0.  0.
        1    1    3    3  502    0  0.60734810320E+03  0.81135380150E+03  0.77505489259E+03  0.12758827518E+04  0.50400001928E-02 0.  1.
       -1    1    3    3    0  502 -0.60734810320E+03 -0.81135380150E+03 -0.14418992423E+04  0.17624528745E+04  0.50400001928E-02 0. -1.
</event>
<event>
 5   0  0.2612331E-06  0.3076052E+04  0.7818609E-02  0.8222341E-01
       -1   -1    0    0    0  501  0.00000000000E+00  0.00000000000E+00  0.15443174346E+04  0.15443174346E+04  0.50400001928E-02 0. -1.
        1   -1    0    0  501    0  0.00000000000E+00  0.00000000000E+00 -0.15317603782E+04  0.15317603782E+04  0.50400001928E-02 0.  1.
    10030    2    1    2    0    0  0.00000000000E+00  0.00000000000E+00  0.12557056365E+02  0.30760778128E+04  0.30760521827E+04 0.  0.
        4    1    3    3  502    0 -0.17119775398E+02 -0.12423464649E+04  0.91282059236E+03  0.15417395605E+04  0.12699999809E+01 0. -1.
       -4    1    3    3    0  502  0.17119775398E+02  0.12423464649E+04 -0.90026353599E+03  0.15343382524E+04  0.12699999809E+01 0.  1.
</event>
<event>
 5   0  0.7094341E-06  0.2917939E+04  0.7818609E-02  0.8267560E-01
       -2   -1    0    0    0  501  0.00000000000E+00  0.00000000000E+00  0.18446890911E+04  0.18446890911E+04  0.25500000920E-02 0.  1.
        2   -1    0    0  501    0  0.00000000000E+00  0.00000000000E+00 -0.11539030414E+04  0.11539030414E+04  0.25500000920E-02 0. -1.
    10030    2    1    2    0    0  0.00000000000E+00  0.00000000000E+00  0.69078604972E+03  0.29985921325E+04  0.29179392404E+04 0.  0.
        3    1    3    3  502    0  0.11331297076E+04 -0.72462966987E+03  0.92627918038E+03  0.16331148836E+04  0.10100000352E+00 0.  1.
       -3    1    3    3    0  502 -0.11331297076E+04  0.72462966987E+03 -0.23549313066E+03  0.13654772490E+04  0.10100000352E+00 0. -1.
</event>
<event>
 5   0  0.2674441E-06  0.3042114E+04  0.7818609E-02  0.8231806E-01
       -1   -1    0    0    0  501  0.00000000000E+00  0.00000000000E+00  0.18327611580E+04  0.18327611580E+04  0.50400001928E-02 0.  1.
        1   -1    0    0  501    0  0.00000000000E+00  0.00000000000E+00 -0.12623658178E+04  0.12623658178E+04  0.50400001928E-02 0. -1.
    10030    2    1    2    0    0  0.00000000000E+00  0.00000000000E+00  0.57039534016E+03  0.30951269758E+04  0.30421144213E+04 0.  0.
        5    1    3    3  502    0 -0.55538800859E+03 -0.13950911433E+04  0.53203166634E+03  0.15930520776E+04  0.46999998093E+01 0. -1.
       -5    1    3    3    0  502  0.55538800859E+03  0.13950911433E+04  0.38363673823E+02  0.15020748981E+04  0.46999998093E+01 0.  1.
</event>
<event>
 5   0  0.2517725E-06  0.3074511E+04  0.7818609E-02  0.8222768E-01
       -1   -1    0    0    0  501  0.00000000000E+00  0.00000000000E+00  0.16588258097E+04  0.16588258097E+04  0.50400001928E-02 0.  1.
        1   -1    0    0  501    0  0.00000000000E+00  0.00000000000E+00 -0.14245944498E+04  0.14245944498E+04  0.50400001928E-02 0. -1.
    10030    2    1    2    0    0  0.00000000000E+00  0.00000000000E+00  0.23423135988E+03  0.30834202595E+04  0.30745107199E+04 0.  0.
        3    1    3    3  502    0 -0.69141819487E+03 -0.74777005640E+03  0.12719450044E+04  0.16294364922E+04  0.10100000352E+00 0.  1.
       -3    1    3    3    0  502  0.69141819487E+03  0.74777005640E+03 -0.10377136446E+04  0.14539837674E+04  0.10100000352E+00 0. -1.
</event>
<event>
 5   0  0.2393250E-06  0.3062043E+04  0.7818609E-02  0.8226233E-01
       -3   -1    0    0    0  501  0.00000000000E+00  0.00000000000E+00  0.12435908610E+04  0.12435908651E+04  0.10100000352E+00 0.  1.
        3   -1    0    0  501    0  0.00000000000E+00  0.00000000000E+00 -0.18848858687E+04  0.18848858714E+04  0.10100000352E+00 0. -1.
    10030    2    1    2    0    0  0.00000000000E+00  0.00000000000E+00 -0.64129500777E+03  0.31284767365E+04  0.30620430114E+04 0.  0.
        2    1    3    3  502    0 -0.15245759849E+04 -0.48977253012E+02 -0.18627936115E+03  0.15366947339E+04  0.25500000920E-02 0.  1.
       -2    1    3    3    0  502  0.15245759849E+04  0.48977253012E+02 -0.45501564662E+03  0.15917820025E+04  0.25500000920E-02 0. -1.
</event>
<event>
 5   0  0.7414808E-06  0.3223041E+04  0.7818609E-02  0.8182758E-01
        2   -1    0    0  501    0  0.00000000000E+00  0.00000000000E+00  0.24415799953E+04  0.24415799953E+04  0.25500000920E-02 0. -1.
       -2   -1    0    0    0  501  0.00000000000E+00  0.00000000000E+00 -0.10636550618E+04  0.10636550618E+04  0.25500000920E-02 0.  1.
    10030    2    1    2    0    0  0.00000000000E+00  0.00000000000E+00  0.13779249335E+04  0.35052350571E+04  0.32230413717E+04 0.  0.
        2    1    3    3  502    0 -0.91908806983E+03  0.97624406796E+03 -0.28330421958E+03  0.13704147698E+04  0.25500000920E-02 0.  1.
       -2    1    3    3    0  502  0.91908806983E+03 -0.97624406796E+03  0.16612291531E+04  0.21348202874E+04  0.25500000920E-02 0. -1.
</event>
<event>
 5   0  0.7079223E-06  0.3065016E+04  0.7818609E-02  0.8225405E-01
       -2   -1    0    0    0  501  0.00000000000E+00  0.00000000000E+00  0.21789827672E+04  0.21789827672E+04  0.25500000920E-02 0. -1.
        2   -1    0    0  501    0  0.00000000000E+00  0.00000000000E+00 -0.10778335654E+04  0.10778335654E+04  0.25500000920E-02 0.  1.
    10030    2    1    2    0    0  0.00000000000E+00  0.00000000000E+00  0.11011492018E+04  0.32568163326E+04  0.30650159966E+04 0.  0.
        5    1    3    3  502    0  0.94823569675E+03  0.51901965371E+03  0.17048418469E+04  0.20186728686E+04  0.46999998093E+01 0. -1.
       -5    1    3    3    0  502 -0.94823569675E+03 -0.51901965371E+03 -0.60369264508E+03  0.12381434639E+04  0.46999998093E+01 0.  1.
</event>
<event>
 5   0  0.2612331E-06  0.2901102E+04  0.7818609E-02  0.8272550E-01
       -1   -1    0    0    0  501  0.00000000000E+00  0.00000000000E+00  0.11388947008E+04  0.11388947008E+04  0.50400001928E-02 0.  1.
        1   -1    0    0  501    0  0.00000000000E+00  0.00000000000E+00 -0.18474911126E+04  0.18474911126E+04  0.50400001928E-02 0. -1.
    10030    2    1    2    0    0  0.00000000000E+00  0.00000000000E+00 -0.70859641177E+03  0.29863858135E+04  0.29011017480E+04 0.  0.
        4    1    3    3  502    0 -0.11979420940E+04  0.38422109462E+03 -0.10976092692E+04  0.16695624669E+04  0.12699999809E+01 0. -1.
       -4    1    3    3    0  502  0.11979420940E+04 -0.38422109462E+03  0.38901285742E+03  0.13168233466E+04  0.12699999809E+01 0.  1.
</event>
<event>
 5   0  0.7363513E-06  0.3097946E+04  0.7818609E-02  0.8216302E-01
        2   -1    0    0  501    0  0.00000000000E+00  0.00000000000E+00  0.19581329732E+04  0.19581329732E+04  0.25500000920E-02 0. -1.
       -2   -1    0    0    0  501  0.00000000000E+00  0.00000000000E+00 -0.12253089162E+04  0.12253089162E+04  0.25500000920E-02 0.  1.
    10030    2    1    2    0    0  0.00000000000E+00  0.00000000000E+00  0.73282405702E+03  0.31834418894E+04  0.30979462817E+04 0.  0.
        4    1    3    3  502    0 -0.13729446290E+03 -0.79076204154E+03 -0.99497504679E+03  0.12783314643E+04  0.12699999809E+01 0.  1.
       -4    1    3    3    0  502  0.13729446290E+03  0.79076204154E+03  0.17277991038E+04  0.19051104251E+04  0.12699999809E+01 0. -1.
</event>
<event>
 5   0  0.2674441E-06  0.3085917E+04  0.7818609E-02  0.8219613E-01
       -1   -1    0    0    0  501  0.00000000000E+00  0.00000000000E+00  0.11230774273E+04  0.11230774273E+04  0.50400001928E-02 0. -1.
        1   -1    0    0  501    0  0.00000000000E+00  0.00000000000E+00 -0.21198191688E+04  0.21198191688E+04  0.50400001928E-02 0.  1.
    10030    2    1    2    0    0  0.00000000000E+00  0.00000000000E+00 -0.99674174152E+03  0.32428965961E+04  0.30859170815E+04 0.  0.
        5    1    3    3  502    0 -0.16414145005E+03 -0.32944720629E+03  0.10762587075E+04  0.11374677019E+04  0.46999998093E+01 0. -1.
       -5    1    3    3    0  502  0.16414145005E+03  0.32944720629E+03 -0.20730004490E+04  0.21054288943E+04  0.46999998093E+01 0.  1.
</event>
<event>
 5   0  0.7414808E-06  0.3098697E+04  0.7818609E-02  0.8216096E-01
       -2   -1    0    0    0  501  0.00000000000E+00  0.00000000000E+00  0.22238420863E+04  0.22238420864E+04  0.25500000920E-02 0. -1.
        2   -1    0    0  501    0  0.00000000000E+00  0.00000000000E+00 -0.10794293485E+04  0.10794293485E+04  0.25500000920E-02 0.  1.
    10030    2    1    2    0    0  0.00000000000E+00  0.00000000000E+00  0.11444127379E+04  0.33032714348E+04  0.30986967676E+04 0.  0.
        2    1    3    3  502    0  0.11814570680E+04  0.10013703270E+04  0.61863735451E+03  0.16677216529E+04  0.25500000920E-02 0.  1.
       -2    1    3    3    0  502 -0.11814570680E+04 -0.10013703270E+04  0.52577538335E+03  0.16355497819E+04  0.25500000920E-02 0. -1.
</event>
<event>
 5   0  0.7094341E-06  0.3086285E+04  0.7818609E-02  0.8219512E-01
        2   -1    0    0  501    0  0.00000000000E+00  0.00000000000E+00  0.16163618481E+04  0.16163618481E+04  0.25500000920E-02 0. -1.
       -2   -1    0    0    0  501  0.00000000000E+00  0.00000000000E+00 -0.14732394532E+04  0.14732394532E+04  0.25500000920E-02 0.  1.
    10030    2    1    2    0    0  0.00000000000E+00  0.00000000000E+00  0.14312239494E+03  0.30896013013E+04  0.30862845269E+04 0.  0.
        3    1    3    3  502    0  0.12081653408E+04 -0.15717480120E+02  0.10324768779E+04  0.15893140166E+04  0.10100000352E+00 0. -1.
       -3    1    3    3    0  502 -0.12081653408E+04  0.15717480120E+02 -0.88935448293E+03  0.15002872846E+04  0.10100000352E+00 0.  1.
</event>
<event>
 5   0  0.2598987E-06  0.1994707E+04  0.7818609E-02  0.8609099E-01
        1   -1    0    0  501    0  0.00000000000E+00  0.00000000000E+00  0.15038659153E+04  0.15038659153E+04  0.50400001928E-02 0.  1.
       -1   -1    0    0    0  501  0.00000000000E+00  0.00000000000E+00 -0.66143824020E+03  0.66143824022E+03  0.50400001928E-02 0. -1.
    10030    2    1    2    0    0  0.00000000000E+00  0.00000000000E+00  0.84242767507E+03  0.21653041555E+04  0.19947074217E+04 0.  0.
        2    1    3    3  502    0  0.11104795182E+03 -0.37381587813E+03  0.14176784779E+04  0.14703340522E+04  0.25500000920E-02 0.  1.
       -2    1    3    3    0  502 -0.11104795182E+03  0.37381587813E+03 -0.57525080282E+03  0.69497010331E+03  0.25500000920E-02 0. -1.
</event>
<event>
 5   0  0.2674441E-06  0.3056829E+04  0.7818609E-02  0.8227687E-01
       -1   -1    0    0    0  501  0.00000000000E+00  0.00000000000E+00  0.13377085658E+04  0.13377085658E+04  0.50400001928E-02 0.  1.
        1   -1    0    0  501    0  0.00000000000E+00  0.00000000000E+00 -0.17463082874E+04  0.17463082874E+04  0.50400001928E-02 0. -1.
    10030    2    1    2    0    0  0.00000000000E+00  0.00000000000E+00 -0.40859972159E+03  0.30840168532E+04  0.30568294388E+04 0.  0.
        5    1    3    3  502    0  0.59708430317E+03  0.25472464548E+03 -0.16003099269E+04  0.17269650437E+04  0.46999998093E+01 0. -1.
       -5    1    3    3    0  502 -0.59708430317E+03 -0.25472464548E+03  0.11917102053E+04  0.13570518095E+04  0.46999998093E+01 0.  1.
</event>
<event>
 5   0  0.7094341E-06  0.2998079E+04  0.7818609E-02  0.8244280E-01
        2   -1    0    0  501    0  0.00000000000E+00  0.00000000000E+00  0.13413337939E+04  0.13413337939E+04  0.25500000920E-02 0.  1.
       -2   -1    0    0    0  501  0.00000000000E+00  0.00000000000E+00 -0.16752877907E+04  0.16752877907E+04  0.25500000920E-02 0. -1.
    10030    2    1    2    0    0  0.00000000000E+00  0.00000000000E+00 -0.33395399683E+03  0.30166215846E+04  0.29980794707E+04 0.  0.
        3    1    3    3  502    0  0.47243330095E+03 -0.15849542186E+03  0.12555582165E+04  0.13508295480E+04  0.10100000352E+00 0.  1.
       -3    1    3    3    0  502 -0.47243330095E+03  0.15849542186E+03 -0.15895122133E+04  0.16657920366E+04  0.10100000352E+00 0. -1.
</event>
<event>
 5   0  0.7094341E-06  0.3132550E+04  0.7818609E-02  0.8206861E-01
        2   -1    0    0  501    0  0.00000000000E+00  0.00000000000E+00  0.24327029486E+04  0.24327029486E+04  0.25500000920E-02 0. -1.
       -2   -1    0    0    0  501  0.00000000000E+00  0.00000000000E+00 -0.10084327729E+04  0.10084327729E+04  0.25500000920E-02 0.  1.
    10030    2    1    2    0    0  0.00000000000E+00  0.00000000000E+00  0.14242701757E+04  0.34411357215E+04  0.31325500028E+04 0.  0.
        3    1    3    3  502    0  0.25049251475E+03  0.12699937122E+04  0.16808104216E+04  0.21214981057E+04  0.10100000352E+00 0. -1.
       -3    1    3    3    0  502 -0.25049251475E+03 -0.12699937122E+04 -0.25654024594E+03  0.13196376157E+04  0.10100000352E+00 0.  1.
</event>
<event>
 5   0  0.7414808E-06  0.3559032E+04  0.7818609E-02  0.8099941E-01
        2   -1    0    0  501    0  0.00000000000E+00  0.00000000000E+00  0.16930753546E+04  0.16930753546E+04  0.25500000920E-02 0. -1.
       -2   -1    0    0    0  501  0.00000000000E+00  0.00000000000E+00 -0.18703696629E+04  0.18703696629E+04  0.25500000920E-02 0.  1.
    10030    2    1    2    0    0  0.00000000000E+00  0.00000000000E+00 -0.17729430826E+03  0.35634450175E+04  0.35590317673E+04 0.  0.
        2    1    3    3  502    0  0.25479014408E+03  0.12012969932E+04  0.12008334903E+04  0.17175661719E+04  0.25500000920E-02 0. -1.
       -2    1    3    3    0  502 -0.25479014408E+03 -0.12012969932E+04 -0.13781277986E+04  0.18458788456E+04  0.25500000920E-02 0.  1.
</event>
<event>
 5   0  0.2624011E-06  0.3139658E+04  0.7818609E-02  0.8204938E-01
       -1   -1    0    0    0  501  0.00000000000E+00  0.00000000000E+00  0.19518317163E+04  0.19518317163E+04  0.50400001928E-02 0.  1.
        1   -1    0    0  501    0  0.00000000000E+00  0.00000000000E+00 -0.12625899227E+04  0.12625899227E+04  0.50400001928E-02 0. -1.
    10030    2    1    2    0    0  0.00000000000E+00  0.00000000000E+00  0.68924179363E+03  0.32144216391E+04  0.31396579788E+04 0.  0.
        1    1    3    3  502    0  0.90025700064E+03  0.11657385891E+04 -0.21140829984E+03  0.14879860868E+04  0.50400001928E-02 0. -1.
       -1    1    3    3    0  502 -0.90025700064E+03 -0.11657385891E+04  0.90065009347E+03  0.17264355523E+04  0.50400001928E-02 0.  1.
</event>
<event>
 5   0  0.7363513E-06  0.3108930E+04  0.7818609E-02  0.8213291E-01
       -2   -1    0    0    0  501  0.00000000000E+00  0.00000000000E+00  0.10990005825E+04  0.10990005825E+04  0.25500000920E-02 0.  1.
        2   -1    0    0  501    0  0.00000000000E+00  0.00000000000E+00 -0.21986904034E+04  0.21986904034E+04  0.25500000920E-02 0. -1.
    10030    2    1    2    0    0  0.00000000000E+00  0.00000000000E+00 -0.10996898208E+04  0.32976909859E+04  0.31089303846E+04 0.  0.
        4    1    3    3  502    0 -0.13764393252E+04 -0.43110290154E+03 -0.11646259171E+04  0.18538581573E+04  0.12699999809E+01 0. -1.
       -4    1    3    3    0  502  0.13764393252E+04  0.43110290154E+03  0.64936096265E+02  0.14438328286E+04  0.12699999809E+01 0.  1.
</event>
<event>
 5   0  0.7094341E-06  0.3003897E+04  0.7818609E-02  0.8242619E-01
       -2   -1    0    0    0  501  0.00000000000E+00  0.00000000000E+00  0.14427119856E+04  0.14427119856E+04  0.25500000920E-02 0.  1.
        2   -1    0    0  501    0  0.00000000000E+00  0.00000000000E+00 -0.15636170942E+04  0.15636170942E+04  0.25500000920E-02 0. -1.
    10030    2    1    2    0    0  0.00000000000E+00  0.00000000000E+00 -0.12090510857E+03  0.30063290798E+04  0.30038968842E+04 0.  0.
        3    1    3    3  502    0 -0.11710665900E+04 -0.46334177267E+03  0.75860274815E+03  0.14702247094E+04  0.10100000352E+00 0.  1.
       -3    1    3    3    0  502  0.11710665900E+04  0.46334177267E+03 -0.87950785672E+03  0.15361043704E+04  0.10100000352E+00 0. -1.
</event>
<event>
 5   0  0.2598987E-06  0.3000622E+04  0.7818609E-02  0.8243553E-01
        1   -1    0    0  501    0  0.00000000000E+00  0.00000000000E+00  0.17506454893E+04  0.17506454893E+04  0.50400001928E-02 0.  1.
       -1   -1    0    0    0  501  0.00000000000E+00  0.00000000000E+00 -0.12857732579E+04  0.12857732579E+04  0.50400001928E-02 0. -1.
    10030    2    1    2    0    0  0.00000000000E+00  0.00000000000E+00  0.46487223141E+03  0.30364187473E+04  0.30006220384E+04 0.  0.
        2    1    3    3  502    0  0.12468615833E+04 -0.72858080897E+03  0.64403082021E+03  0.15812240513E+04  0.25500000920E-02 0.  1.
       -2    1    3    3    0  502 -0.12468615833E+04  0.72858080897E+03 -0.17915858880E+03  0.14551946959E+04  0.25500000920E-02 0. -1.
</event>
<event>
 5   0  0.2624011E-06  0.2493415E+04  0.7818609E-02  0.8405335E-01
        1   -1    0    0  501    0  0.00000000000E+00  0.00000000000E+00  0.14449321191E+04  0.14449321191E+04  0.50400001928E-02 0.  1.
       -1   -1    0    0    0  501  0.00000000000E+00  0.00000000000E+00 -0.10756763921E+04  0.10756763921E+04  0.50400001928E-02 0. -1.
    10030    2    1    2    0    0  0.00000000000E+00  0.00000000000E+00  0.36925572704E+03  0.25206085112E+04  0.24934148221E+04 0.  0.
        1    1    3    3  502    0  0.86789425654E+03  0.89500752938E+03  0.18394931426E+03  0.12602048518E+04  0.50400001928E-02 0. -1.
       -1    1    3    3    0  502 -0.86789425654E+03 -0.89500752938E+03  0.18530641278E+03  0.12604036595E+04  0.50400001928E-02 0.  1.
</event>
<event>
 5   0  0.7071012E-06  0.3128889E+04  0.7818609E-02  0.8207854E-01
       -2   -1    0    0    0  501  0.00000000000E+00  0.00000000000E+00  0.12924460350E+04  0.12924460350E+04  0.25500000920E-02 0.  1.
        2   -1    0    0  501    0  0.00000000000E+00  0.00000000000E+00 -0.18936852714E+04  0.18936852714E+04  0.25500000920E-02 0. -1.
    10030    2    1    2    0    0  0.00000000000E+00  0.00000000000E+00 -0.60123923638E+03  0.31861313064E+04  0.31288886337E+04 0.  0.
        1    1    3    3  502    0 -0.43607631567E+03  0.14220830257E+04  0.19302064753E+03  0.14999132160E+04  0.50400001928E-02 0. -1.
       -1    1    3    3    0  502  0.43607631567E+03 -0.14220830257E+04 -0.79425988391E+03  0.16862180904E+04  0.50400001928E-02 0.  1.
</event>
<event>
 5   0  0.2674441E-06  0.2941523E+04  0.7818609E-02  0.8260629E-01
        1   -1    0    0  501    0  0.00000000000E+00  0.00000000000E+00  0.23125604087E+04  0.23125604087E+04  0.50400001928E-02 0. -1.
       -1   -1    0    0    0  501  0.00000000000E+00  0.00000000000E+00 -0.93538711009E+03  0.93538711011E+03  0.50400001928E-02 0.  1.
    10030    2    1    2    0    0  0.00000000000E+00  0.00000000000E+00  0.13771732986E+04  0.32479475188E+04  0.29415228693E+04 0.  0.
        5    1    3    3  502    0 -0.52324585910E+02  0.13172705227E+04 -0.31395899310E+02  0.13186915048E+04  0.46999998093E+01 0.  1.
       -5    1    3    3    0  502  0.52324585910E+02 -0.13172705227E+04  0.14085691979E+04  0.19292560140E+04  0.46999998093E+01 0. -1.
</event>
<event>
 5   0  0.2612331E-06  0.2828099E+04  0.7818609E-02  0.8294598E-01
       -1   -1    0    0    0  501  0.00000000000E+00  0.00000000000E+00  0.73383267212E+03  0.73383267214E+03  0.50400001928E-02 0. -1.
        1   -1    0    0  501    0  0.00000000000E+00  0.00000000000E+00 -0.27247840938E+04  0.27247840938E+04  0.50400001928E-02 0.  1.
    10030    2    1    2    0    0  0.00000000000E+00  0.00000000000E+00 -0.19909514216E+04  0.34586167659E+04  0.28280987200E+04 0.  0.
        4    1    3    3  502    0 -0.12491148705E+04 -0.66252720367E+03 -0.97416255618E+03  0.17170394736E+04  0.12699999809E+01 0. -1.
       -4    1    3    3    0  502  0.12491148705E+04  0.66252720367E+03 -0.10167888655E+04  0.17415772923E+04  0.12699999809E+01 0.  1.
</event>
<event>
 5   0  0.7094341E-06  0.2693304E+04  0.7818609E-02  0.8337181E-01
        2   -1    0    0  501    0  0.00000000000E+00  0.00000000000E+00  0.71200874513E+03  0.71200874514E+03  0.25500000920E-02 0. -1.
       -2   -1    0    0    0  501  0.00000000000E+00  0.00000000000E+00 -0.25469799698E+04  0.25469799698E+04  0.25500000920E-02 0.  1.
    10030    2    1    2    0    0  0.00000000000E+00  0.00000000000E+00 -0.18349712246E+04  0.32589887149E+04  0.26933042993E+04 0.  0.
        3    1    3    3  502    0 -0.11285029260E+04 -0.15629521785E+03 -0.17862905448E+04  0.21186743426E+04  0.10100000352E+00 0.  1.
       -3    1    3    3    0  502  0.11285029260E+04  0.15629521785E+03 -0.48680679807E+02  0.11403143724E+04  0.10100000352E+00 0. -1.
</event>
<event>
 5   0  0.2612331E-06  0.3293857E+04  0.7818609E-02  0.8164460E-01
        1   -1    0    0  501    0  0.00000000000E+00  0.00000000000E+00  0.26067765814E+04  0.26067765814E+04  0.50400001928E-02 0. -1.
       -1   -1    0    0    0  501  0.00000000000E+00  0.00000000000E+00 -0.10405084372E+04  0.10405084372E+04  0.50400001928E-02 0.  1.
    10030    2    1    2    0    0  0.00000000000E+00  0.00000000000E+00  0.15662681443E+04  0.36472850186E+04  0.32938567223E+04 0.  0.
        4    1    3    3  502    0 -0.16430875212E+04 -0.60252299785E+02  0.67806034821E+03  0.17785202812E+04  0.12699999809E+01 0.  1.
       -4    1    3    3    0  502  0.16430875212E+04  0.60252299785E+02  0.88820779604E+03  0.18687647374E+04  0.12699999809E+01 0. -1.
</event>
<event>
 5   0  0.2624011E-06  0.3066994E+04  0.7818609E-02  0.8224855E-01
       -1   -1    0    0    0  501  0.00000000000E+00  0.00000000000E+00  0.14249269019E+04  0.14249269019E+04  0.50400001928E-02 0. -1.
        1   -1    0    0  501    0  0.00000000000E+00  0.00000000000E+00 -0.16503396019E+04  0.16503396019E+04  0.50400001928E-02 0.  1.
    10030    2    1    2    0    0  0.00000000000E+00  0.00000000000E+00 -0.22541270001E+03  0.30752665038E+04  0.30669941611E+04 0.  0.
        1    1    3    3  502    0 -0.35841847140E+03 -0.55109792965E+03  0.12764692397E+04  0.14358086393E+04  0.50400001928E-02 0. -1.
       -1    1    3    3    0  502  0.35841847140E+03  0.55109792965E+03 -0.15018819397E+04  0.16394578645E+04  0.50400001928E-02 0.  1.
</event>
<event>
 5   0  0.2598987E-06  0.2597085E+04  0.7818609E-02  0.8369192E-01
       -1   -1    0    0    0  501  0.00000000000E+00  0.00000000000E+00  0.12158624945E+04  0.12158624945E+04  0.50400001928E-02 0. -1.
        1   -1    0    0  501    0  0.00000000000E+00  0.00000000000E+00 -0.13868452322E+04  0.13868452322E+04  0.50400001928E-02 0.  1.
    10030    2    1    2    0    0  0.00000000000E+00  0.00000000000E+00 -0.17098273777E+03  0.26027077267E+04  0.25970853690E+04 0.  0.
        2    1    3    3  502    0  0.53529294544E+03  0.97559650850E+03 -0.75618306381E+03  0.13454144012E+04  0.25500000920E-02 0.  1.
       -2    1    3    3    0  502 -0.53529294544E+03 -0.97559650850E+03  0.58520032604E+03  0.12572933255E+04  0.25500000920E-02 0. -1.
</event>
<event>
 5   0  0.7071012E-06  0.3052521E+04  0.7818609E-02  0.8228890E-01
        2   -1    0    0  501    0  0.00000000000E+00  0.00000000000E+00  0.11141974038E+04  0.11141974038E+04  0.25500000920E-02 0.  1.
       -2   -1    0    0    0  501  0.00000000000E+00  0.00000000000E+00 -0.20907165448E+04  0.20907165448E+04  0.25500000920E-02 0. -1.
    10030    2    1    2    0    0  0.00000000000E+00  0.00000000000E+00 -0.97651914105E+03  0.32049139486E+04  0.30525208902E+04 0.  0.
        1    1    3    3  502    0  0.12068966368E+04 -0.46273630450E+03 -0.13404112631E+04  0.18621027720E+04  0.50400001928E-02 0. -1.
       -1    1    3    3    0  502 -0.12068966368E+04  0.46273630450E+03  0.36389212201E+03  0.13428111766E+04  0.50400001928E-02 0.  1.
</event>
<event>
 5   0  0.2674441E-06  0.3187445E+04  0.7818609E-02  0.8192141E-01
        1   -1    0    0  501    0  0.00000000000E+00  0.00000000000E+00  0.16184412985E+04  0.16184412985E+04  0.50400001928E-02 0. -1.
       -1   -1    0    0    0  501  0.00000000000E+00  0.00000000000E+00 -0.15693816560E+04  0.15693816560E+04  0.50400001928E-02 0.  1.
    10030    2    1    2    0    0  0.00000000000E+00  0.00000000000E+00  0.49059642441E+02  0.31878229545E+04  0.31874454255E+04 0.  0.
        5    1    3    3  502    0  0.12283568813E+04 -0.73065582471E+03 -0.68068590605E+03  0.15830584180E+04  0.46999998093E+01 0.  1.
       -5    1    3    3    0  502 -0.12283568813E+04  0.73065582471E+03  0.72974554849E+03  0.16047645365E+04  0.46999998093E+01 0. -1.
</event>
<event>
 5   0  0.7094341E-06  0.3122047E+04  0.7818609E-02  0.8209713E-01
        2   -1    0    0  501    0  0.00000000000E+00  0.00000000000E+00  0.14309494640E+04  0.14309494640E+04  0.25500000920E-02 0. -1.
       -2   -1    0    0    0  501  0.00000000000E+00  0.00000000000E+00 -0.17029210983E+04  0.17029210983E+04  0.25500000920E-02 0.  1.
    10030    2    1    2    0    0  0.00000000000E+00  0.00000000000E+00 -0.27197163437E+03  0.31338705623E+04  0.31220467856E+04 0.  0.
        3    1    3    3  502    0 -0.86577110573E+03  0.20886211795E+03  0.11509034287E+04  0.14552531410E+04  0.10100000352E+00 0. -1.
       -3    1    3    3    0  502  0.86577110573E+03 -0.20886211795E+03 -0.14228750631E+04  0.16786174213E+04  0.10100000352E+00 0.  1.
</event>
<event>
 5   0  0.7414808E-06  0.2970187E+04  0.7818609E-02  0.8252296E-01
        2   -1    0    0  501    0  0.00000000000E+00  0.00000000000E+00  0.19041412318E+04  0.19041412318E+04  0.25500000920E-02 0. -1.
       -2   -1    0    0    0  501  0.00000000000E+00  0.00000000000E+00 -0.11582663380E+04  0.11582663380E+04  0.25500000920E-02 0.  1.
    10030    2    1    2    0    0  0.00000000000E+00  0.00000000000E+00  0.74587489383E+03  0.30624075698E+04  0.29701869918E+04 0.  0.
        2    1    3    3  502    0  0.20310984444E+03 -0.66693772171E+03 -0.97905140182E+03  0.12019156297E+04  0.25500000920E-02 0.  1.
       -2    1    3    3    0  502 -0.20310984444E+03  0.66693772171E+03  0.17249262957E+04  0.18604919400E+04  0.25500000920E-02 0. -1.
</event>
<event>
 5   0  0.7071012E-06  0.3068297E+04  0.7818609E-02  0.8224493E-01
        2   -1    0    0  501    0  0.00000000000E+00  0.00000000000E+00  0.16594065235E+04  0.16594065235E+04  0.25500000920E-02 0.  1.
       -2   -1    0    0    0  501  0.00000000000E+00  0.00000000000E+00 -0.14183450585E+04  0.14183450585E+04  0.25500000920E-02 0. -1.
    10030    2    1    2    0    0  0.00000000000E+00  0.00000000000E+00  0.24106146498E+03  0.30777515819E+04  0.30682966236E+04 0.  0.
        1    1    3    3  502    0  0.14944413182E+04 -0.31844002508E+03  0.25825692509E+03  0.15496630416E+04  0.50400001928E-02 0. -1.
       -1    1    3    3    0  502 -0.14944413182E+04  0.31844002508E+03 -0.17195460109E+02  0.15280885403E+04  0.50400001928E-02 0.  1.
</event>
<event>
 5   0  0.7094341E-06  0.2982860E+04  0.7818609E-02  0.8248642E-01
       -2   -1    0    0    0  501  0.00000000000E+00  0.00000000000E+00  0.91873964682E+03  0.91873964683E+03  0.25500000920E-02 0. -1.
        2   -1    0    0  501    0  0.00000000000E+00  0.00000000000E+00 -0.24211030258E+04  0.24211030258E+04  0.25500000920E-02 0.  1.
    10030    2    1    2    0    0  0.00000000000E+00  0.00000000000E+00 -0.15023633790E+04  0.33398426726E+04  0.29828599289E+04 0.  0.
        3    1    3    3  502    0  0.70856082163E+02 -0.78278445026E+03 -0.21703890270E+04  0.23083242013E+04  0.10100000352E+00 0.  1.
       -3    1    3    3    0  502 -0.70856082163E+02  0.78278445026E+03  0.66802564801E+03  0.10315184713E+04  0.10100000352E+00 0. -1.
</event>
<event>
 5   0  0.2624011E-06  0.2928801E+04  0.7818609E-02  0.8264360E-01
       -1   -1    0    0    0  501  0.00000000000E+00  0.00000000000E+00  0.12859271675E+04  0.12859271675E+04  0.50400001928E-02 0. -1.
        1   -1    0    0  501    0  0.00000000000E+00  0.00000000000E+00 -0.16676438369E+04  0.16676438369E+04  0.50400001928E-02 0.  1.
    10030    2    1    2    0    0  0.00000000000E+00  0.00000000000E+00 -0.38171666944E+03  0.29535710044E+04  0.29288007891E+04 0.  0.
        1    1    3    3  502    0 -0.56561331081E+03 -0.87451218221E+03  0.84730370222E+03  0.13426144413E+04  0.50400001928E-02 0. -1.
       -1    1    3    3    0  502  0.56561331081E+03  0.87451218221E+03 -0.12290203717E+04  0.16109565631E+04  0.50400001928E-02 0.  1.
</event>
<event>
 5   0  0.2674441E-06  0.3064851E+04  0.7818609E-02  0.8225451E-01
        1   -1    0    0  501    0  0.00000000000E+00  0.00000000000E+00  0.16456203047E+04  0.16456203047E+04  0.50400001928E-02 0. -1.
       -1   -1    0    0    0  501  0.00000000000E+00  0.00000000000E+00 -0.14270170786E+04  0.14270170786E+04  0.50400001928E-02 0.  1.
    10030    2    1    2    0    0  0.00000000000E+00  0.00000000000E+00  0.21860322606E+03  0.30726373833E+04  0.30648512392E+04 0.  0.
        5    1    3    3  502    0  0.14888394688E+03  0.15201117772E+04 -0.15110163681E+02  0.15274673980E+04  0.46999998093E+01 0. -1.
       -5    1    3    3    0  502 -0.14888394688E+03 -0.15201117772E+04  0.23371338975E+03  0.15451699853E+04  0.46999998093E+01 0.  1.
</event>
<event>
 5   0  0.2393250E-06  0.2020776E+04  0.7818609E-02  0.8596968E-01
        3   -1    0    0  501    0  0.00000000000E+00  0.00000000000E+00  0.21950440426E+04  0.21950440449E+04  0.10100000352E+00 0.  1.
       -3   -1    0    0    0  501  0.00000000000E+00  0.00000000000E+00 -0.46508572686E+03  0.46508573783E+03  0.10100000352E+00 0. -1.
    10030    2    1    2    0    0  0.00000000000E+00  0.00000000000E+00  0.17299583157E+04  0.26601297827E+04  0.20207757636E+04 0.  0.
        1    1    3    3  502    0  0.60482660657E+02  0.13349489669E+03  0.21809776148E+04  0.21858962455E+04  0.50400001928E-02 0.  1.
       -1    1    3    3    0  502 -0.60482660657E+02 -0.13349489669E+03 -0.45101929909E+03  0.47423353726E+03  0.50400001928E-02 0. -1.
</event>
<event>
 5   0  0.7363513E-06  0.3125166E+04  0.7818609E-02  0.8208865E-01
       -2   -1    0    0    0  501  0.00000000000E+00  0.00000000000E+00  0.80432116312E+03  0.80432116312E+03  0.25500000920E-02 0. -1.
        2   -1    0    0  501    0  0.00000000000E+00  0.00000000000E+00 -0.30356856078E+04  0.30356856078E+04  0.25500000920E-02 0.  1.
    10030    2    1    2    0    0  0.00000000000E+00  0.00000000000E+00 -0.22313644446E+04  0.38400067709E+04  0.31251663501E+04 0.  0.
        4    1    3    3  502    0  0.14587546981E+04 -0.49545321839E+03 -0.14366281813E+04  0.21064997758E+04  0.12699999809E+01 0.  1.
       -4    1    3    3    0  502 -0.14587546981E+04  0.49545321839E+03 -0.79473626328E+03  0.17335069951E+04  0.12699999809E+01 0. -1.
</event>
<event>
 5   0  0.7414808E-06  0.2929846E+04  0.7818609E-02  0.8264052E-01
        2   -1    0    0  501    0  0.00000000000E+00  0.00000000000E+00  0.21369522772E+04  0.21369522772E+04  0.25500000920E-02 0.  1.
       -2   -1    0    0    0  501  0.00000000000E+00  0.00000000000E+00 -0.10042334749E+04  0.10042334749E+04  0.25500000920E-02 0. -1.
    10030    2    1    2    0    0  0.00000000000E+00  0.00000000000E+00  0.11327188023E+04  0.31411857521E+04  0.29298457372E+04 0.  0.
        2    1    3    3  502    0 -0.11836572133E+04 -0.72797143173E+03  0.10635013645E+04  0.17498634107E+04  0.25500000920E-02 0.  1.
       -2    1    3    3    0  502  0.11836572133E+04  0.72797143173E+03  0.69217437881E+02  0.13913223414E+04  0.25500000920E-02 0. -1.
</event>
<event>
 5   0  0.2598987E-06  0.3342721E+04  0.7818609E-02  0.8152109E-01
       -1   -1    0    0    0  501  0.00000000000E+00  0.00000000000E+00  0.14447137697E+04  0.14447137697E+04  0.50400001928E-02 0. -1.
        1   -1    0    0  501    0  0.00000000000E+00  0.00000000000E+00 -0.19335635258E+04  0.19335635258E+04  0.50400001928E-02 0.  1.
    10030    2    1    2    0    0  0.00000000000E+00  0.00000000000E+00 -0.48884975608E+03  0.33782772955E+04  0.33427209577E+04 0.  0.
        2    1    3    3  502    0  0.12127360957E+04  0.91810194542E+02  0.91419353217E+03  0.15214820945E+04  0.25500000920E-02 0. -1.
       -2    1    3    3    0  502 -0.12127360957E+04 -0.91810194542E+02 -0.14030432883E+04  0.18567952010E+04  0.25500000920E-02 0.  1.
</event>
<event>
 5   0  0.2393250E-06  0.3026130E+04  0.7818609E-02  0.8236308E-01
       -4   -1    0    0    0  501  0.00000000000E+00  0.00000000000E+00  0.23130963748E+04  0.23130967235E+04  0.12699999809E+01 0.  1.
        4   -1    0    0  501    0  0.00000000000E+00  0.00000000000E+00 -0.98974011360E+03  0.98974092841E+03  0.12699999809E+01 0. -1.
    10030    2    1    2    0    0  0.00000000000E+00  0.00000000000E+00  0.13233562612E+04  0.33028376519E+04  0.30261303278E+04 0.  0.
        5    1    3    3  502    0  0.57783924756E+03 -0.10007815793E+04  0.17276529756E+04  0.20785256456E+04  0.46999998093E+01 0.  1.
       -5    1    3    3    0  502 -0.57783924756E+03  0.10007815793E+04 -0.40429671437E+03  0.12243120063E+04  0.46999998093E+01 0. -1.
</event>
<event>
 5   0  0.7071012E-06  0.2153977E+04  0.7818609E-02  0.8537832E-01
       -2   -1    0    0    0  501  0.00000000000E+00  0.00000000000E+00  0.11428023379E+04  0.11428023379E+04  0.25500000920E-02 0.  1.
        2   -1    0    0  501    0  0.00000000000E+00  0.00000000000E+00 -0.10149644653E+04  0.10149644653E+04  0.25500000920E-02 0. -1.
    10030    2    1    2    0    0  0.00000000000E+00  0.00000000000E+00  0.12783787267E+03  0.21577668032E+04  0.21539765679E+04 0.  0.
        1    1    3    3  502    0  0.71333509499E+02 -0.28600557607E+03 -0.97376872529E+03  0.10174051256E+04  0.50400001928E-02 0. -1.
       -1    1    3    3    0  502 -0.71333509499E+02  0.28600557607E+03  0.11016065980E+04  0.11403616776E+04  0.50400001928E-02 0.  1.
</event>
<event>
 5   0  0.2612331E-06  0.3286295E+04  0.7818609E-02  0.8166391E-01
        1   -1    0    0  501    0  0.00000000000E+00  0.00000000000E+00  0.18386996058E+04  0.18386996058E+04  0.50400001928E-02 0.  1.
       -1   -1    0    0    0  501  0.00000000000E+00  0.00000000000E+00 -0.14683926999E+04  0.14683926999E+04  0.50400001928E-02 0. -1.
    10030    2    1    2    0    0  0.00000000000E+00  0.00000000000E+00  0.37030690594E+03  0.33070923057E+04  0.32862946177E+04 0.  0.
        4    1    3    3  502    0  0.97770569102E+03 -0.13132335549E+04  0.44841225128E+02  0.16378348929E+04  0.12699999809E+01 0.  1.
       -4    1    3    3    0  502 -0.97770569102E+03  0.13132335549E+04  0.32546568082E+03  0.16692574128E+04  0.12699999809E+01 0. -1.
</event>
<event>
 5   0  0.2674441E-06  0.3172071E+04  0.7818609E-02  0.8196232E-01
       -1   -1    0    0    0  501  0.00000000000E+00  0.00000000000E+00  0.12626127987E+04  0.12626127987E+04  0.50400001928E-02 0. -1.
        1   -1    0    0  501    0  0.00000000000E+00  0.00000000000E+00 -0.19923035991E+04  0.19923035991E+04  0.50400001928E-02 0.  1.
    10030    2    1    2    0    0  0.00000000000E+00  0.00000000000E+00 -0.72969080037E+03  0.32549163978E+04  0.31720706317E+04 0.  0.
        5    1    3    3  502    0  0.67524707040E+03 -0.22760074450E+03 -0.18187942467E+04  0.19534060783E+04  0.46999998093E+01 0.  1.
       -5    1    3    3    0  502 -0.67524707040E+03  0.22760074450E+03  0.10891034463E+04  0.13015103195E+04  0.46999998093E+01 0. -1.
</event>
<event>
 5   0  0.2624011E-06  0.3077712E+04  0.7818609E-02  0.8221881E-01
       -1   -1    0    0    0  501  0.00000000000E+00  0.00000000000E+00  0.93339250100E+03  0.93339250101E+03  0.50400001928E-02 0.  1.
        1   -1    0    0  501    0  0.00000000000E+00  0.00000000000E+00 -0.25370655028E+04  0.25370655028E+04  0.50400001928E-02 0. -1.
    10030    2    1    2    0    0  0.00000000000E+00  0.00000000000E+00 -0.16036730018E+04  0.34704580038E+04  0.30777120819E+04 0.  0.
        1    1    3    3  502    0 -0.51740318918E+03  0.13765195284E+04 -0.13130876302E+04  0.19714743713E+04  0.50400001928E-02 0. -1.
       -1    1    3    3    0  502  0.51740318918E+03 -0.13765195284E+04 -0.29058537155E+03  0.14989836324E+04  0.50400001928E-02 0.  1.
</event>
<event>
 5   0  0.2517725E-06  0.2948798E+04  0.7818609E-02  0.8258505E-01
       -1   -1    0    0    0  501  0.00000000000E+00  0.00000000000E+00  0.10559504573E+04  0.10559504574E+04  0.50400001928E-02 0.  1.
        1   -1    0    0  501    0  0.00000000000E+00  0.00000000000E+00 -0.20586693650E+04  0.20586693650E+04  0.50400001928E-02 0. -1.
    10030    2    1    2    0    0  0.00000000000E+00  0.00000000000E+00 -0.10027189077E+04  0.31146198224E+04  0.29487983027E+04 0.  0.
        3    1    3    3  502    0  0.41405412074E+03 -0.10698947108E+04  0.47686188833E+03  0.12423818970E+04  0.10100000352E+00 0.  1.
       -3    1    3    3    0  502 -0.41405412074E+03  0.10698947108E+04 -0.14795807960E+04  0.18722379254E+04  0.10100000352E+00 0. -1.
</event>
<event>
 5   0  0.7094341E-06  0.3138272E+04  0.7818609E-02  0.8205312E-01
        2   -1    0    0  501    0  0.00000000000E+00  0.00000000000E+00  0.86441804746E+03  0.86441804746E+03  0.25500000920E-02 0.  1.
       -2   -1    0    0    0  501  0.00000000000E+00  0.00000000000E+00 -0.28483762224E+04  0.28483762224E+04  0.25500000920E-02 0. -1.
    10030    2    1    2    0    0  0.00000000000E+00  0.00000000000E+00 -0.19839581749E+04  0.37127942699E+04  0.31382720166E+04 0.  0.
        3    1    3    3  502    0 -0.29187879259E+03  0.72990757959E+03 -0.25986161563E+04  0.27149151446E+04  0.10100000352E+00 0. -1.
       -3    1    3    3    0  502  0.29187879259E+03 -0.72990757959E+03  0.61465798140E+03  0.99787912525E+03  0.10100000352E+00 0.  1.
</event>
<event>
 5   0  0.7071012E-06  0.3101130E+04  0.7818609E-02  0.8215428E-01
        2   -1    0    0  501    0  0.00000000000E+00  0.00000000000E+00  0.21701163491E+04  0.21701163491E+04  0.25500000920E-02 0.  1.
       -2   -1    0    0    0  501  0.00000000000E+00  0.00000000000E+00 -0.11078907579E+04  0.11078907579E+04  0.25500000920E-02 0. -1.
    10030    2    1    2    0    0  0.00000000000E+00  0.00000000000E+00  0.10622255912E+04  0.32780071070E+04  0.31011300178E+04 0.  0.
        1    1    3    3  502    0 -0.47520684752E+02 -0.13297864276E+04  0.13725440529E+04  0.19116661151E+04  0.50400001928E-02 0.  1.
       -1    1    3    3    0  502  0.47520684752E+02  0.13297864276E+04 -0.31031846178E+03  0.13663409919E+04  0.50400001928E-02 0. -1.
</event>
<event>
 5   0  0.2393250E-06  0.3091434E+04  0.7818609E-02  0.8218093E-01
        3   -1    0    0  501    0  0.00000000000E+00  0.00000000000E+00  0.10749958885E+04  0.10749958933E+04  0.10100000352E+00 0.  1.
       -3   -1    0    0    0  501  0.00000000000E+00  0.00000000000E+00 -0.22225579499E+04  0.22225579522E+04  0.10100000352E+00 0. -1.
    10030    2    1    2    0    0  0.00000000000E+00  0.00000000000E+00 -0.11475620614E+04  0.32975538455E+04  0.30914337579E+04 0.  0.
        2    1    3    3  502    0  0.12953349467E+04  0.32527372332E+03  0.25627073972E+03  0.13599155530E+04  0.25500000920E-02 0.  1.
       -2    1    3    3    0  502 -0.12953349467E+04 -0.32527372332E+03 -0.14038328011E+04  0.19376382925E+04  0.25500000920E-02 0. -1.
</event>
<event>
 5   0  0.7363513E-06  0.3170370E+04  0.7818609E-02  0.8196687E-01
        2   -1    0    0  501    0  0.00000000000E+00  0.00000000000E+00  0.15405529084E+04  0.15405529084E+04  0.25500000920E-02 0. -1.
       -2   -1    0    0    0  501  0.00000000000E+00  0.00000000000E+00 -0.16311100555E+04  0.16311100555E+04  0.25500000920E-02 0.  1.
    10030    2    1    2    0    0  0.00000000000E+00  0.00000000000E+00 -0.90557147108E+02  0.31716629639E+04  0.31703699089E+04 0.  0.
        4    1    3    3  502    0  0.53896460445E+03  0.37246773678E+02  0.14456109519E+04  0.15432636859E+04  0.12699999809E+01 0. -1.
       -4    1    3    3    0  502 -0.53896460445E+03 -0.37246773678E+02 -0.15361680990E+04  0.16283992780E+04  0.12699999809E+01 0.  1.
</event>
<event>
 5   0  0.2598987E-06  0.3074291E+04  0.7818609E-02  0.8222829E-01
       -1   -1    0    0    0  501  0.00000000000E+00  0.00000000000E+00  0.14827475660E+04  0.14827475660E+04  0.50400001928E-02 0.  1.
        1   -1    0    0  501    0  0.00000000000E+00  0.00000000000E+00 -0.15935395720E+04  0.15935395720E+04  0.50400001928E-02 0. -1.
    10030    2    1    2    0    0  0.00000000000E+00  0.00000000000E+00 -0.11079200594E+03  0.30762871380E+04  0.30742914122E+04 0.  0.
        2    1    3    3  502    0  0.13866461792E+04  0.60806745216E+03 -0.32067802209E+03  0.15476976599E+04  0.25500000920E-02 0.  1.
       -2    1    3    3    0  502 -0.13866461792E+04 -0.60806745216E+03  0.20988601615E+03  0.15285894781E+04  0.25500000920E-02 0. -1.
</event>
<event>
 5   0  0.7079223E-06  0.3002777E+04  0.7818609E-02  0.8242938E-01
       -2   -1    0    0    0  501  0.00000000000E+00  0.00000000000E+00  0.95883897646E+03  0.95883897646E+03  0.25500000920E-02 0. -1.
        2   -1    0    0  501    0  0.00000000000E+00  0.00000000000E+00 -0.23509345622E+04  0.23509345622E+04  0.25500000920E-02 0.  1.
    10030    2    1    2    0    0  0.00000000000E+00  0.00000000000E+00 -0.13920955857E+04  0.33097735386E+04  0.30027771741E+04 0.  0.
        5    1    3    3  502    0  0.46230857183E+03 -0.13004618839E+04 -0.13474088470E+04  0.19288501803E+04  0.46999998093E+01 0.  1.
       -5    1    3    3    0  502 -0.46230857183E+03  0.13004618839E+04 -0.44686738726E+02  0.13809233584E+04  0.46999998093E+01 0. -1.
</event>
<event>
 5   0  0.7079223E-06  0.2967947E+04  0.7818609E-02  0.8252944E-01
        2   -1    0    0  501    0  0.00000000000E+00  0.00000000000E+00  0.12133690949E+04  0.12133690949E+04  0.25500000920E-02 0.  1.
       -2   -1    0    0    0  501  0.00000000000E+00  0.00000000000E+00 -0.18149276870E+04  0.18149276870E+04  0.25500000920E-02 0. -1.
    10030    2    1    2    0    0  0.00000000000E+00  0.00000000000E+00 -0.60155859214E+03  0.30282967820E+04  0.29679468762E+04 0.  0.
        5    1    3    3  502    0 -0.11200568301E+04 -0.49153099370E+03 -0.11581178782E+04  0.16844551434E+04  0.46999998093E+01 0. -1.
       -5    1    3    3    0  502  0.11200568301E+04  0.49153099370E+03  0.55655928604E+03  0.13438416385E+04  0.46999998093E+01 0.  1.
</event>
<event>
 5   0  0.7094341E-06  0.3064868E+04  0.7818609E-02  0.8225446E-01
       -2   -1    0    0    0  501  0.00000000000E+00  0.00000000000E+00  0.15257287233E+04  0.15257287233E+04  0.25500000920E-02 0.  1.
        2   -1    0    0  501    0  0.00000000000E+00  0.00000000000E+00 -0.15391688797E+04  0.15391688797E+04  0.25500000920E-02 0. -1.
    10030    2    1    2    0    0  0.00000000000E+00  0.00000000000E+00 -0.13440156417E+02  0.30648976030E+04  0.30648681340E+04 0.  0.
        3    1    3    3  502    0  0.62831423875E+02  0.60213790182E+03 -0.14145106983E+04  0.15386222300E+04  0.10100000352E+00 0. -1.
       -3    1    3    3    0  502 -0.62831423875E+02 -0.60213790182E+03  0.14010705419E+04  0.15262753730E+04  0.10100000352E+00 0.  1.
</event>
<event>
 5   0  0.7079223E-06  0.3257614E+04  0.7818609E-02  0.8173765E-01
        2   -1    0    0  501    0  0.00000000000E+00  0.00000000000E+00  0.15768385851E+04  0.15768385851E+04  0.25500000920E-02 0. -1.
       -2   -1    0    0    0  501  0.00000000000E+00  0.00000000000E+00 -0.16824880819E+04  0.16824880819E+04  0.25500000920E-02 0.  1.
    10030    2    1    2    0    0  0.00000000000E+00  0.00000000000E+00 -0.10564949677E+03  0.32593266670E+04  0.32576139284E+04 0.  0.
        5    1    3    3  502    0  0.48826545586E+03  0.14403105343E+04  0.53065632006E+03  0.16107500770E+04  0.46999998093E+01 0. -1.
       -5    1    3    3    0  502 -0.48826545586E+03 -0.14403105343E+04 -0.63630581683E+03  0.16485765900E+04  0.46999998093E+01 0.  1.
</event>
<event>
 5   0  0.7414808E-06  0.2155881E+04  0.7818609E-02  0.8537019E-01
        2   -1    0    0  501    0  0.00000000000E+00  0.00000000000E+00  0.15779153527E+04  0.15779153527E+04  0.25500000920E-02 0. -1.
       -2   -1    0    0    0  501  0.00000000000E+00  0.00000000000E+00 -0.73638652125E+03  0.73638652125E+03  0.25500000920E-02 0.  1.
    10030    2    1    2    0    0  0.00000000000E+00  0.00000000000E+00  0.84152883144E+03  0.23143018739E+04  0.21558808848E+04 0.  0.
        2    1    3    3  502    0  0.37304735250E+03 -0.53888185561E+03 -0.49792498569E+03  0.82309615046E+03  0.25500000920E-02 0.  1.
       -2    1    3    3    0  502 -0.37304735250E+03  0.53888185561E+03  0.13394538171E+04  0.14912057235E+04  0.25500000920E-02 0. -1.
</event>
<event>
 5   0  0.7079223E-06  0.2910005E+04  0.7818609E-02  0.8269907E-01
        2   -1    0    0  501    0  0.00000000000E+00  0.00000000000E+00  0.30239373678E+04  0.30239373678E+04  0.25500000920E-02 0. -1.
       -2   -1    0    0    0  501  0.00000000000E+00  0.00000000000E+00 -0.70009139987E+03  0.70009139987E+03  0.25500000920E-02 0.  1.
    10030    2    1    2    0    0  0.00000000000E+00  0.00000000000E+00  0.23238459679E+04  0.37240287676E+04  0.29100051855E+04 0.  0.
        5    1    3    3  502    0  0.49488253491E+03  0.81811348549E+03  0.25654298447E+04  0.27378222690E+04  0.46999998093E+01 0. -1.
       -5    1    3    3    0  502 -0.49488253491E+03 -0.81811348549E+03 -0.24158387679E+03  0.98620649867E+03  0.46999998093E+01 0.  1.
</event>
<event>
 5   0  0.7414808E-06  0.3087646E+04  0.7818609E-02  0.8219136E-01
        2   -1    0    0  501    0  0.00000000000E+00  0.00000000000E+00  0.20195093926E+04  0.20195093926E+04  0.25500000920E-02 0. -1.
       -2   -1    0    0    0  501  0.00000000000E+00  0.00000000000E+00 -0.11801826580E+04  0.11801826580E+04  0.25500000920E-02 0.  1.
    10030    2    1    2    0    0  0.00000000000E+00  0.00000000000E+00  0.83932673456E+03  0.31996920506E+04  0.30876463287E+04 0.  0.
        2    1    3    3  502    0  0.14854347461E+04 -0.78862379406E+02 -0.84307454803E+01  0.14875505831E+04  0.25500000920E-02 0.  1.
       -2    1    3    3    0  502 -0.14854347461E+04  0.78862379406E+02  0.84775748004E+03  0.17121414675E+04  0.25500000920E-02 0. -1.
</event>
<event>
 5   0  0.7363513E-06  0.3089056E+04  0.7818609E-02  0.8218748E-01
       -2   -1    0    0    0  501  0.00000000000E+00  0.00000000000E+00  0.14376642024E+04  0.14376642024E+04  0.25500000920E-02 0.  1.
        2   -1    0    0  501    0  0.00000000000E+00  0.00000000000E+00 -0.16593354244E+04  0.16593354244E+04  0.25500000920E-02 0. -1.
    10030    2    1    2    0    0  0.00000000000E+00  0.00000000000E+00 -0.22167122201E+03  0.30969996269E+04  0.30890562569E+04 0.  0.
        4    1    3    3  502    0 -0.23296300420E+03 -0.12613675131E+04 -0.97342338897E+03  0.16102405011E+04  0.12699999809E+01 0. -1.
       -4    1    3    3    0  502  0.23296300420E+03  0.12613675131E+04  0.75175216696E+03  0.14867591257E+04  0.12699999809E+01 0.  1.
</event>
<event>
 5   0  0.7071012E-06  0.3075135E+04  0.7818609E-02  0.8222595E-01
       -2   -1    0    0    0  501  0.00000000000E+00  0.00000000000E+00  0.27849775029E+04  0.27849775029E+04  0.25500000920E-02 0.  1.
        2   -1    0    0  501    0  0.00000000000E+00  0.00000000000E+00 -0.84888102260E+03  0.84888102261E+03  0.25500000920E-02 0. -1.
    10030    2    1    2    0    0  0.00000000000E+00  0.00000000000E+00  0.19360964803E+04  0.36338585255E+04  0.30751354771E+04 0.  0.
        1    1    3    3  502    0 -0.89762556415E+03  0.36399563746E+03 -0.44301599481E+03  0.10651233023E+04  0.50400001928E-02 0. -1.
       -1    1    3    3    0  502  0.89762556415E+03 -0.36399563746E+03  0.23791124751E+04  0.25687352231E+04  0.50400001928E-02 0.  1.
</event>
<event>
 5   0  0.2624011E-06  0.3056725E+04  0.7818609E-02  0.8227716E-01
        1   -1    0    0  501    0  0.00000000000E+00  0.00000000000E+00  0.12694788306E+04  0.12694788306E+04  0.50400001928E-02 0.  1.
       -1   -1    0    0    0  501  0.00000000000E+00  0.00000000000E+00 -0.18400395579E+04  0.18400395579E+04  0.50400001928E-02 0. -1.
    10030    2    1    2    0    0  0.00000000000E+00  0.00000000000E+00 -0.57056072733E+03  0.31095183885E+04  0.30567245648E+04 0.  0.
        1    1    3    3  502    0  0.11674590074E+04 -0.48504042503E+03  0.58842873470E+03  0.13944436610E+04  0.50400001928E-02 0.  1.
       -1    1    3    3    0  502 -0.11674590074E+04  0.48504042503E+03 -0.11589894620E+04  0.17150747275E+04  0.50400001928E-02 0. -1.
</event>
<event>
 5   0  0.2674441E-06  0.3096528E+04  0.7818609E-02  0.8216691E-01
        1   -1    0    0  501    0  0.00000000000E+00  0.00000000000E+00  0.14074972246E+04  0.14074972246E+04  0.50400001928E-02 0.  1.
       -1   -1    0    0    0  501  0.00000000000E+00  0.00000000000E+00 -0.17031092823E+04  0.17031092823E+04  0.50400001928E-02 0. -1.
    10030    2    1    2    0    0  0.00000000000E+00  0.00000000000E+00 -0.29561205772E+03  0.31106065070E+04  0.30965281127E+04 0.  0.
        5    1    3    3  502    0  0.10378714559E+04 -0.10590571490E+04 -0.59516240136E+03  0.15978171290E+04  0.46999998093E+01 0. -1.
       -5    1    3    3    0  502 -0.10378714559E+04  0.10590571490E+04  0.29955034364E+03  0.15127893780E+04  0.46999998093E+01 0.  1.
</event>
<event>
 5   0  0.2598987E-06  0.3054726E+04  0.7818609E-02  0.8228274E-01
        1   -1    0    0  501    0  0.00000000000E+00  0.00000000000E+00  0.26670228404E+04  0.26670228404E+04  0.50400001928E-02 0. -1.
       -1   -1    0    0    0  501  0.00000000000E+00  0.00000000000E+00 -0.87469712824E+03  0.87469712825E+03  0.50400001928E-02 0.  1.
    10030    2    1    2    0    0  0.00000000000E+00  0.00000000000E+00  0.17923257122E+04  0.35417199687E+04  0.30547256633E+04 0.  0.
        2    1    3    3  502    0 -0.12802067748E+04 -0.60932105167E+03  0.23759851765E+03  0.14375863751E+04  0.25500000920E-02 0.  1.
       -2    1    3    3    0  502  0.12802067748E+04  0.60932105167E+03  0.15547271945E+04  0.21041335936E+04  0.25500000920E-02 0. -1.
</event>
<event>
 5   0  0.2674441E-06  0.2404875E+04  0.7818609E-02  0.8437681E-01
       -1   -1    0    0    0  501  0.00000000000E+00  0.00000000000E+00  0.87676711636E+03  0.87676711638E+03  0.50400001928E-02 0.  1.
        1   -1    0    0  501    0  0.00000000000E+00  0.00000000000E+00 -0.16490764798E+04  0.16490764798E+04  0.50400001928E-02 0. -1.
    10030    2    1    2    0    0  0.00000000000E+00  0.00000000000E+00 -0.77230936342E+03  0.25258435962E+04  0.24048750736E+04 0.  0.
        5    1    3    3  502    0  0.67958149723E+03  0.42294652899E+03 -0.13285736432E+04  0.15510785903E+04  0.46999998093E+01 0. -1.
       -5    1    3    3    0  502 -0.67958149723E+03 -0.42294652899E+03  0.55626427979E+03  0.97476500590E+03  0.46999998093E+01 0.  1.
</event>
<event>
 5   0  0.7071012E-06  0.3137101E+04  0.7818609E-02  0.8205629E-01
        2   -1    0    0  501    0  0.00000000000E+00  0.00000000000E+00  0.19772086831E+04  0.19772086831E+04  0.25500000920E-02 0. -1.
       -2   -1    0    0    0  501  0.00000000000E+00  0.00000000000E+00 -0.12443552492E+04  0.12443552492E+04  0.25500000920E-02 0.  1.
    10030    2    1    2    0    0  0.00000000000E+00  0.00000000000E+00  0.73285343394E+03  0.32215639323E+04  0.31371005744E+04 0.  0.
        1    1    3    3  502    0  0.28027664048E+03 -0.23833418575E+03  0.19322726446E+04  0.19669864647E+04  0.50400001928E-02 0. -1.
       -1    1    3    3    0  502 -0.28027664048E+03  0.23833418575E+03 -0.11994192106E+04  0.12545774676E+04  0.50400001928E-02 0.  1.
</event>
<event>
 5   0  0.7363513E-06  0.1921416E+04  0.7818609E-02  0.8644269E-01
        2   -1    0    0  501    0  0.00000000000E+00  0.00000000000E+00  0.10757009924E+04  0.10757009924E+04  0.25500000920E-02 0.  1.
       -2   -1    0    0    0  501  0.00000000000E+00  0.00000000000E+00 -0.85800812309E+03  0.85800812309E+03  0.25500000920E-02 0. -1.
    10030    2    1    2    0    0  0.00000000000E+00  0.00000000000E+00  0.21769286934E+03  0.19337091155E+04  0.19214163417E+04 0.  0.
        4    1    3    3  502    0  0.86502220397E+03 -0.24538754336E+03 -0.23166734898E+03  0.92852023849E+03  0.12699999809E+01 0.  1.
       -4    1    3    3    0  502 -0.86502220397E+03  0.24538754336E+03  0.44936021832E+03  0.10051888770E+04  0.12699999809E+01 0. -1.
</event>
<event>
 5   0  0.2612331E-06  0.3088465E+04  0.7818609E-02  0.8218911E-01
       -1   -1    0    0    0  501  0.00000000000E+00  0.00000000000E+00  0.13812199360E+04  0.13812199360E+04  0.50400001928E-02 0. -1.
        1   -1    0    0  501    0  0.00000000000E+00  0.00000000000E+00 -0.17264838707E+04  0.17264838707E+04  0.50400001928E-02 0.  1.
    10030    2    1    2    0    0  0.00000000000E+00  0.00000000000E+00 -0.34526393471E+03  0.31077038068E+04  0.30884649530E+04 0.  0.
        4    1    3    3  502    0 -0.76451473567E+03 -0.72444213170E+03 -0.13089821108E+04  0.16800996883E+04  0.12699999809E+01 0.  1.
       -4    1    3    3    0  502  0.76451473567E+03  0.72444213170E+03  0.96371817611E+03  0.14276041185E+04  0.12699999809E+01 0. -1.
</event>
<event>
 5   0  0.2598987E-06  0.3167029E+04  0.7818609E-02  0.8197579E-01
       -1   -1    0    0    0  501  0.00000000000E+00  0.00000000000E+00  0.11554668660E+04  0.11554668660E+04  0.50400001928E-02 0. -1.
        1   -1    0    0  501    0  0.00000000000E+00  0.00000000000E+00 -0.21701347164E+04  0.21701347165E+04  0.50400001928E-02 0.  1.
    10030    2    1    2    0    0  0.00000000000E+00  0.00000000000E+00 -0.10146678504E+04  0.33256015825E+04  0.31670293713E+04 0.  0.
        2    1    3    3  502    0 -0.12173669314E+04  0.92464425839E+03 -0.94101335900E+03  0.17951198824E+04  0.25500000920E-02 0.  1.
       -2    1    3    3    0  502  0.12173669314E+04 -0.92464425839E+03 -0.73654491436E+02  0.15304817001E+04  0.25500000920E-02 0. -1.
</event>
<event>
 5   0  0.2598987E-06  0.3081577E+04  0.7818609E-02  0.8220812E-01
        1   -1    0    0  501    0  0.00000000000E+00  0.00000000000E+00  0.15623215723E+04  0.15623215724E+04  0.50400001928E-02 0. -1.
       -1   -1    0    0    0  501  0.00000000000E+00  0.00000000000E+00 -0.15195520132E+04  0.15195520132E+04  0.50400001928E-02 0.  1.
    10030    2    1    2    0    0  0.00000000000E+00  0.00000000000E+00  0.42769559128E+02  0.30818735856E+04  0.30815767981E+04 0.  0.
        2    1    3    3  502    0  0.56120887964E+03 -0.11585485129E+03 -0.14090155808E+04  0.15210860134E+04  0.25500000920E-02 0.  1.
       -2    1    3    3    0  502 -0.56120887964E+03  0.11585485129E+03  0.14517851399E+04  0.15607875722E+04  0.25500000920E-02 0. -1.
</event>
<event>
 5   0  0.7414808E-06  0.3083371E+04  0.7818609E-02  0.8220316E-01
        2   -1    0    0  501    0  0.00000000000E+00  0.00000000000E+00  0.22168606187E+04  0.22168606187E+04  0.25500000920E-02 0. -1.
       -2   -1    0    0    0  501  0.00000000000E+00  0.00000000000E+00 -0.10721445067E+04  0.10721445067E+04  0.25500000920E-02 0.  1.
    10030    2    1    2    0    0  0.00000000000E+00  0.00000000000E+00  0.11447161119E+04  0.32890051254E+04  0.30833714888E+04 0.  0.
        2    1    3    3  502    0  0.47546408024E+03 -0.10927111344E+04  0.16157059206E+04  0.20076327694E+04  0.25500000920E-02 0. -1.
       -2    1    3    3    0  502 -0.47546408024E+03  0.10927111344E+04 -0.47098980867E+03  0.12813723560E+04  0.25500000920E-02 0.  1.
</event>
<event>
 5   0  0.2624011E-06  0.3115886E+04  0.7818609E-02  0.8211392E-01
        1   -1    0    0  501    0  0.00000000000E+00  0.00000000000E+00  0.18367034757E+04  0.18367034757E+04  0.50400001928E-02 0.  1.
       -1   -1    0    0    0  501  0.00000000000E+00  0.00000000000E+00 -0.13214907818E+04  0.13214907818E+04  0.50400001928E-02 0. -1.
    10030    2    1    2    0    0  0.00000000000E+00  0.00000000000E+00  0.51521269390E+03  0.31581942575E+04  0.31158862059E+04 0.  0.
        1    1    3    3  502    0 -0.13805053041E+04  0.65797728881E+03 -0.43850452612E+02  0.15299189094E+04  0.50400001928E-02 0.  1.
       -1    1    3    3    0  502  0.13805053041E+04 -0.65797728881E+03  0.55906314651E+03  0.16282753480E+04  0.50400001928E-02 0. -1.
</event>
<event>
 5   0  0.2598987E-06  0.3006368E+04  0.7818609E-02  0.8241915E-01
       -1   -1    0    0    0  501  0.00000000000E+00  0.00000000000E+00  0.10639505767E+04  0.10639505767E+04  0.50400001928E-02 0. -1.
        1   -1    0    0  501    0  0.00000000000E+00  0.00000000000E+00 -0.21237479158E+04  0.21237479158E+04  0.50400001928E-02 0.  1.
    10030    2    1    2    0    0  0.00000000000E+00  0.00000000000E+00 -0.10597973391E+04  0.31876984925E+04  0.30063684536E+04 0.  0.
        2    1    3    3  502    0 -0.11341367658E+04 -0.47935843605E+03 -0.14441783198E+04  0.18978149892E+04  0.25500000920E-02 0.  1.
       -2    1    3    3    0  502  0.11341367658E+04  0.47935843605E+03  0.38438098067E+03  0.12898835033E+04  0.25500000920E-02 0. -1.
</event>
<event>
 5   0  0.2517725E-06  0.3094998E+04  0.7818609E-02  0.8217112E-01
       -1   -1    0    0    0  501  0.00000000000E+00  0.00000000000E+00  0.15860081816E+04  0.15860081816E+04  0.50400001928E-02 0. -1.
        1   -1    0    0  501    0  0.00000000000E+00  0.00000000000E+00 -0.15099249290E+04  0.15099249290E+04  0.50400001928E-02 0.  1.
    10030    2    1    2    0    0  0.00000000000E+00  0.00000000000E+00  0.76083252566E+02  0.30959331106E+04  0.30949980879E+04 0.  0.
        3    1    3    3  502    0  0.14798885566E+04 -0.38122931337E+03  0.28172834196E+03  0.15539552112E+04  0.10100000352E+00 0. -1.
       -3    1    3    3    0  502 -0.14798885566E+04  0.38122931337E+03 -0.20564508940E+03  0.15419778995E+04  0.10100000352E+00 0.  1.
</event>
<event>
 5   0  0.2612331E-06  0.3109108E+04  0.7818609E-02  0.8213243E-01
       -1   -1    0    0    0  501  0.00000000000E+00  0.00000000000E+00  0.12030273754E+04  0.12030273755E+04  0.50400001928E-02 0.  1.
        1   -1    0    0  501    0  0.00000000000E+00  0.00000000000E+00 -0.20087973358E+04  0.20087973358E+04  0.50400001928E-02 0. -1.
    10030    2    1    2    0    0  0.00000000000E+00  0.00000000000E+00 -0.80576996034E+03  0.32118247113E+04  0.31091080307E+04 0.  0.
        4    1    3    3  502    0  0.10349605749E+04 -0.91927460964E+03 -0.11336648098E+04  0.17892475271E+04  0.12699999809E+01 0. -1.
       -4    1    3    3    0  502 -0.10349605749E+04  0.91927460964E+03  0.32789484946E+03  0.14225771841E+04  0.12699999809E+01 0.  1.
</event>
<event>
 5   0  0.7363513E-06  0.3148090E+04  0.7818609E-02  0.8202663E-01
       -2   -1    0    0    0  501  0.00000000000E+00  0.00000000000E+00  0.93700804162E+03  0.93700804163E+03  0.25500000920E-02 0. -1.
        2   -1    0    0  501    0  0.00000000000E+00  0.00000000000E+00 -0.26441799595E+04  0.26441799595E+04  0.25500000920E-02 0.  1.
    10030    2    1    2    0    0  0.00000000000E+00  0.00000000000E+00 -0.17071719178E+04  0.35811880011E+04  0.31480901420E+04 0.  0.
        4    1    3    3  502    0  0.71778829205E+02  0.85761766472E+03 -0.23528370431E+04  0.25052951969E+04  0.12699999809E+01 0.  1.
       -4    1    3    3    0  502 -0.71778829205E+02 -0.85761766472E+03  0.64566512530E+03  0.10758928042E+04  0.12699999809E+01 0. -1.
</event>
<event>
 5   0  0.7414808E-06  0.3036418E+04  0.7818609E-02  0.8233407E-01
       -2   -1    0    0    0  501  0.00000000000E+00  0.00000000000E+00  0.97529352795E+03  0.97529352796E+03  0.25500000920E-02 0. -1.
        2   -1    0    0  501    0  0.00000000000E+00  0.00000000000E+00 -0.23633479516E+04  0.23633479516E+04  0.25500000920E-02 0.  1.
    10030    2    1    2    0    0  0.00000000000E+00  0.00000000000E+00 -0.13880544237E+04  0.33386414796E+04  0.30364176007E+04 0.  0.
        2    1    3    3  502    0  0.21621342819E+03 -0.73843745057E+03  0.74502584144E+03  0.10710283000E+04  0.25500000920E-02 0. -1.
       -2    1    3    3    0  502 -0.21621342819E+03  0.73843745057E+03 -0.21330802651E+04  0.22676131796E+04  0.25500000920E-02 0.  1.
</event>
<event>
 5   0  0.7079223E-06  0.3176103E+04  0.7818609E-02  0.8195157E-01
        2   -1    0    0  501    0  0.00000000000E+00  0.00000000000E+00  0.16963030268E+04  0.16963030268E+04  0.25500000920E-02 0. -1.
       -2   -1    0    0    0  501  0.00000000000E+00  0.00000000000E+00 -0.14867081528E+04  0.14867081528E+04  0.25500000920E-02 0.  1.
    10030    2    1    2    0    0  0.00000000000E+00  0.00000000000E+00  0.20959487404E+03  0.31830111796E+04  0.31761029830E+04 0.  0.
        5    1    3    3  502    0  0.89811502068E+03 -0.11688724181E+04 -0.48726001063E+03  0.15525197996E+04  0.46999998093E+01 0.  1.
       -5    1    3    3    0  502 -0.89811502068E+03  0.11688724181E+04  0.69685488466E+03  0.16304913800E+04  0.46999998093E+01 0. -1.
</event>
<event>
 5   0  0.7094341E-06  0.3125777E+04  0.7818609E-02  0.8208699E-01
        2   -1    0    0  501    0  0.00000000000E+00  0.00000000000E+00  0.13300512779E+04  0.13300512779E+04  0.25500000920E-02 0. -1.
       -2   -1    0    0    0  501  0.00000000000E+00  0.00000000000E+00 -0.18364856048E+04  0.18364856048E+04  0.25500000920E-02 0.  1.
    10030    2    1    2    0    0  0.00000000000E+00  0.00000000000E+00 -0.50643432687E+03  0.31665368827E+04  0.31257767198E+04 0.  0.
        3    1    3    3  502    0  0.88649186749E+03  0.10225315509E+04 -0.10451925183E+04  0.17099315818E+04  0.10100000352E+00 0.  1.
       -3    1    3    3    0  502 -0.88649186749E+03 -0.10225315509E+04  0.53875819148E+03  0.14566053010E+04  0.10100000352E+00 0. -1.
</event>
<event>
 5   0  0.7071012E-06  0.3048949E+04  0.7818609E-02  0.8229890E-01
       -2   -1    0    0    0  501  0.00000000000E+00  0.00000000000E+00  0.16244357280E+04  0.16244357280E+04  0.25500000920E-02 0. -1.
        2   -1    0    0  501    0  0.00000000000E+00  0.00000000000E+00 -0.14306647892E+04  0.14306647892E+04  0.25500000920E-02 0.  1.
    10030    2    1    2    0    0  0.00000000000E+00  0.00000000000E+00  0.19377093875E+03  0.30551005172E+04  0.30489493262E+04 0.  0.
        1    1    3    3  502    0 -0.39049611910E+03  0.13582906286E+04 -0.47574130514E+03  0.14912311827E+04  0.50400001928E-02 0.  1.
       -1    1    3    3    0  502  0.39049611910E+03 -0.13582906286E+04  0.66951224389E+03  0.15638693345E+04  0.50400001928E-02 0. -1.
</event>
<event>
 5   0  0.2517725E-06  0.3116290E+04  0.7818609E-02  0.8211281E-01
       -1   -1    0    0    0  501  0.00000000000E+00  0.00000000000E+00  0.19559433403E+04  0.19559433403E+04  0.50400001928E-02 0.  1.
        1   -1    0    0  501    0  0.00000000000E+00  0.00000000000E+00 -0.12412509417E+04  0.12412509417E+04  0.50400001928E-02 0. -1.
    10030    2    1    2    0    0  0.00000000000E+00  0.00000000000E+00  0.71469239858E+03  0.31971942820E+04  0.31162904314E+04 0.  0.
        3    1    3    3  502    0  0.74549900094E+02 -0.11244212981E+04  0.14613569360E+04  0.18453847967E+04  0.10100000352E+00 0.  1.
       -3    1    3    3    0  502 -0.74549900094E+02  0.11244212981E+04 -0.74666453740E+03  0.13518094854E+04  0.10100000352E+00 0. -1.
</event>
<event>
 5   0  0.2517725E-06  0.3542198E+04  0.7818609E-02  0.8103862E-01
       -1   -1    0    0    0  501  0.00000000000E+00  0.00000000000E+00  0.19401494601E+04  0.19401494601E+04  0.50400001928E-02 0. -1.
        1   -1    0    0  501    0  0.00000000000E+00  0.00000000000E+00 -0.16167782170E+04  0.16167782170E+04  0.50400001928E-02 0.  1.
    10030    2    1    2    0    0  0.00000000000E+00  0.00000000000E+00  0.32337124302E+03  0.35569276771E+04  0.35421978402E+04 0.  0.
        3    1    3    3  502    0  0.97007085778E+03  0.95443652878E+03  0.12998914341E+04  0.18819416323E+04  0.10100000352E+00 0. -1.
       -3    1    3    3    0  502 -0.97007085778E+03 -0.95443652878E+03 -0.97652019109E+03  0.16749860448E+04  0.10100000352E+00 0.  1.
</event>
<event>
 5   0  0.7079223E-06  0.3156772E+04  0.7818609E-02  0.8200328E-01
        2   -1    0    0  501    0  0.00000000000E+00  0.00000000000E+00  0.20065805044E+04  0.20065805044E+04  0.25500000920E-02 0. -1.
       -2   -1    0    0    0  501  0.00000000000E+00  0.00000000000E+00 -0.12415663978E+04  0.12415663978E+04  0.25500000920E-02 0.  1.
    10030    2    1    2    0    0  0.00000000000E+00  0.00000000000E+00  0.76501410665E+03  0.32481469022E+04  0.31567723571E+04 0.  0.
        5    1    3    3  502    0  0.67080812886E+03  0.90313366341E+03  0.15216417483E+04  0.18923661537E+04  0.46999998093E+01 0. -1.
       -5    1    3    3    0  502 -0.67080812886E+03 -0.90313366341E+03 -0.75662764162E+03  0.13557807484E+04  0.46999998093E+01 0.  1.
</event>
<event>
 5   0  0.2612331E-06  0.1944582E+04  0.7818609E-02  0.8632978E-01
       -1   -1    0    0    0  501  0.00000000000E+00  0.00000000000E+00  0.92746720274E+03  0.92746720275E+03  0.50400001928E-02 0. -1.
        1   -1    0    0  501    0  0.00000000000E+00  0.00000000000E+00 -0.10192815228E+04  0.10192815228E+04  0.50400001928E-02 0.  1.
    10030    2    1    2    0    0  0.00000000000E+00  0.00000000000E+00 -0.91814320091E+02  0.19467487256E+04  0.19445824054E+04 0.  0.
        4    1    3    3  502    0  0.67828008533E+03  0.40425629974E+03  0.52205328329E+03  0.94658769986E+03  0.12699999809E+01 0. -1.
       -4    1    3    3    0  502 -0.67828008533E+03 -0.40425629974E+03 -0.61386760338E+03  0.10001610257E+04  0.12699999809E+01 0.  1.
</event>
<event>
 5   0  0.7071012E-06  0.3009883E+04  0.7818609E-02  0.8240914E-01
        2   -1    0    0  501    0  0.00000000000E+00  0.00000000000E+00  0.19663346888E+04  0.19663346888E+04  0.25500000920E-02 0. -1.
       -2   -1    0    0    0  501  0.00000000000E+00  0.00000000000E+00 -0.11518125544E+04  0.11518125544E+04  0.25500000920E-02 0.  1.
    10030    2    1    2    0    0  0.00000000000E+00  0.00000000000E+00  0.81452213442E+03  0.31181472432E+04  0.30098830414E+04 0.  0.
        1    1    3    3  502    0  0.10942243425E+04  0.90556955680E+03  0.92261386028E+03  0.16936940306E+04  0.50400001928E-02 0. -1.
       -1    1    3    3    0  502 -0.10942243425E+04 -0.90556955680E+03 -0.10809172585E+03  0.14244532127E+04  0.50400001928E-02 0.  1.
</event>
<event>
 5   0  0.7094341E-06  0.3119803E+04  0.7818609E-02  0.8210324E-01
        2   -1    0    0  501    0  0.00000000000E+00  0.00000000000E+00  0.25180067650E+04  0.25180067650E+04  0.25500000920E-02 0. -1.
       -2   -1    0    0    0  501  0.00000000000E+00  0.00000000000E+00 -0.96635669726E+03  0.96635669726E+03  0.25500000920E-02 0.  1.
    10030    2    1    2    0    0  0.00000000000E+00  0.00000000000E+00  0.15516500677E+04  0.34843634622E+04  0.31198030073E+04 0.  0.
        3    1    3    3  502    0 -0.38583179647E+02  0.28240672530E+03  0.24886760788E+04  0.25049452799E+04  0.10100000352E+00 0. -1.
       -3    1    3    3    0  502  0.38583179647E+02 -0.28240672530E+03 -0.93702601105E+03  0.97941818230E+03  0.10100000352E+00 0.  1.
</event>
<event>
 5   0  0.2624011E-06  0.2133546E+04  0.7818609E-02  0.8546608E-01
        1   -1    0    0  501    0  0.00000000000E+00  0.00000000000E+00  0.11406964510E+04  0.11406964510E+04  0.50400001928E-02 0.  1.
       -1   -1    0    0    0  501  0.00000000000E+00  0.00000000000E+00 -0.99764032220E+03  0.99764032221E+03  0.50400001928E-02 0. -1.
    10030    2    1    2    0    0  0.00000000000E+00  0.00000000000E+00  0.14305612877E+03  0.21383367732E+04  0.21335461325E+04 0.  0.
        1    1    3    3  502    0 -0.10305948222E+04  0.17781826836E+03  0.28238046467E+03  0.10832745501E+04  0.50400001928E-02 0.  1.
       -1    1    3    3    0  502  0.10305948222E+04 -0.17781826836E+03 -0.13932433590E+03  0.10550622231E+04  0.50400001928E-02 0. -1.
</event>
<event>
 5   0  0.7094341E-06  0.3259049E+04  0.7818609E-02  0.8173394E-01
        2   -1    0    0  501    0  0.00000000000E+00  0.00000000000E+00  0.22681312024E+04  0.22681312024E+04  0.25500000920E-02 0.  1.
       -2   -1    0    0    0  501  0.00000000000E+00  0.00000000000E+00 -0.11707219122E+04  0.11707219122E+04  0.25500000920E-02 0. -1.
    10030    2    1    2    0    0  0.00000000000E+00  0.00000000000E+00  0.10974092902E+04  0.34388531146E+04  0.32590494923E+04 0.  0.
        3    1    3    3  502    0  0.10005713602E+04 -0.13979096274E+03 -0.80037387833E+03  0.12889076443E+04  0.10100000352E+00 0. -1.
       -3    1    3    3    0  502 -0.10005713602E+04  0.13979096274E+03  0.18977831686E+04  0.21499454703E+04  0.10100000352E+00 0.  1.
</event>
<event>
 5   0  0.7071012E-06  0.3133808E+04  0.7818609E-02  0.8206520E-01
        2   -1    0    0  501    0  0.00000000000E+00  0.00000000000E+00  0.17541022612E+04  0.17541022612E+04  0.25500000920E-02 0.  1.
       -2   -1    0    0    0  501  0.00000000000E+00  0.00000000000E+00 -0.13996838052E+04  0.13996838052E+04  0.25500000920E-02 0. -1.
    10030    2    1    2    0    0  0.00000000000E+00  0.00000000000E+00  0.35441845598E+03  0.31537860665E+04  0.31338082442E+04 0.  0.
        1    1    3    3  502    0  0.12755160327E+04 -0.80590343489E+03  0.60271310920E+03  0.16247106167E+04  0.50400001928E-02 0.  1.
       -1    1    3    3    0  502 -0.12755160327E+04  0.80590343489E+03 -0.24829465322E+03  0.15290754497E+04  0.50400001928E-02 0. -1.
</event>
<event>
 5   0  0.2598987E-06  0.3057576E+04  0.7818609E-02  0.8227478E-01
       -1   -1    0    0    0  501  0.00000000000E+00  0.00000000000E+00  0.13990696501E+04  0.13990696501E+04  0.50400001928E-02 0. -1.
        1   -1    0    0  501    0  0.00000000000E+00  0.00000000000E+00 -0.16705331180E+04  0.16705331180E+04  0.50400001928E-02 0.  1.
    10030    2    1    2    0    0  0.00000000000E+00  0.00000000000E+00 -0.27146346796E+03  0.30696027681E+04  0.30575756311E+04 0.  0.
        2    1    3    3  502    0 -0.10085427112E+04  0.37977936553E+02  0.10170845407E+04  0.14328508949E+04  0.25500000920E-02 0. -1.
       -2    1    3    3    0  502  0.10085427112E+04 -0.37977936553E+02 -0.12885480086E+04  0.16367518733E+04  0.25500000920E-02 0.  1.
</event>
<event>
 5   0  0.7363513E-06  0.3067227E+04  0.7818609E-02  0.8224790E-01
       -2   -1    0    0    0  501  0.00000000000E+00  0.00000000000E+00  0.15100818362E+04  0.15100818362E+04  0.25500000920E-02 0. -1.
        2   -1    0    0  501    0  0.00000000000E+00  0.00000000000E+00 -0.15575115408E+04  0.15575115408E+04  0.25500000920E-02 0.  1.
    10030    2    1    2    0    0  0.00000000000E+00  0.00000000000E+00 -0.47429704659E+02  0.30675933770E+04  0.30672266870E+04 0.  0.
        4    1    3    3  502    0 -0.67846895055E+03  0.93801223543E+03 -0.10297084592E+04  0.15493508946E+04  0.12699999809E+01 0.  1.
       -4    1    3    3    0  502  0.67846895055E+03 -0.93801223543E+03  0.98227875457E+03  0.15182424824E+04  0.12699999809E+01 0. -1.
</event>
<event>
 5   0  0.7414808E-06  0.3136685E+04  0.7818609E-02  0.8205742E-01
        2   -1    0    0  501    0  0.00000000000E+00  0.00000000000E+00  0.19440471802E+04  0.19440471802E+04  0.25500000920E-02 0.  1.
       -2   -1    0    0    0  501  0.00000000000E+00  0.00000000000E+00 -0.12652458070E+04  0.12652458070E+04  0.25500000920E-02 0. -1.
    10030    2    1    2    0    0  0.00000000000E+00  0.00000000000E+00  0.67880137317E+03  0.32092929872E+04  0.31366845830E+04 0.  0.
        2    1    3    3  502    0  0.35686612947E+03  0.88399934043E+03 -0.93477382750E+03  0.13351443281E+04  0.25500000920E-02 0. -1.
       -2    1    3    3    0  502 -0.35686612947E+03 -0.88399934043E+03  0.16135752007E+04  0.18741486591E+04  0.25500000920E-02 0.  1.
</event>
<event>
 5   0  0.2517725E-06  0.2891438E+04  0.7818609E-02  0.8275429E-01
       -1   -1    0    0    0  501  0.00000000000E+00  0.00000000000E+00  0.95501632168E+03  0.95501632170E+03  0.50400001928E-02 0.  1.
        1   -1    0    0  501    0  0.00000000000E+00  0.00000000000E+00 -0.21885525413E+04  0.21885525414E+04  0.50400001928E-02 0. -1.
    10030    2    1    2    0    0  0.00000000000E+00  0.00000000000E+00 -0.12335362197E+04  0.31435688630E+04  0.28914379799E+04 0.  0.
        3    1    3    3  502    0 -0.97016650438E+02  0.13050395295E+04  0.51273943025E+02  0.13096447730E+04  0.10100000352E+00 0. -1.
       -3    1    3    3    0  502  0.97016650438E+02 -0.13050395295E+04 -0.12848101627E+04  0.18339240901E+04  0.10100000352E+00 0.  1.
</event>
<event>
 5   0  0.2612331E-06  0.3124533E+04  0.7818609E-02  0.8209037E-01
       -1   -1    0    0    0  501  0.00000000000E+00  0.00000000000E+00  0.25857821724E+04  0.25857821724E+04  0.50400001928E-02 0.  1.
        1   -1    0    0  501    0  0.00000000000E+00  0.00000000000E+00 -0.94388318383E+03  0.94388318384E+03  0.50400001928E-02 0. -1.
    10030    2    1    2    0    0  0.00000000000E+00  0.00000000000E+00  0.16418989885E+04  0.35296653562E+04  0.31245328032E+04 0.  0.
        4    1    3    3  502    0  0.99962289286E+03 -0.80422265972E+03 -0.18606951150E+03  0.12963963477E+04  0.12699999809E+01 0. -1.
       -4    1    3    3    0  502 -0.99962289286E+03  0.80422265972E+03  0.18279685000E+04  0.22332690085E+04  0.12699999809E+01 0.  1.
</event>
<event>
 5   0  0.2674441E-06  0.3095625E+04  0.7818609E-02  0.8216940E-01
       -1   -1    0    0    0  501  0.00000000000E+00  0.00000000000E+00  0.14464021445E+04  0.14464021445E+04  0.50400001928E-02 0. -1.
        1   -1    0    0  501    0  0.00000000000E+00  0.00000000000E+00 -0.16563324530E+04  0.16563324531E+04  0.50400001928E-02 0.  1.
    10030    2    1    2    0    0  0.00000000000E+00  0.00000000000E+00 -0.20993030853E+03  0.31027345976E+04  0.30956245329E+04 0.  0.
        5    1    3    3  502    0 -0.12894553441E+04  0.58737267427E+03 -0.72929146862E+03  0.15936090735E+04  0.46999998093E+01 0.  1.
       -5    1    3    3    0  502  0.12894553441E+04 -0.58737267427E+03  0.51936116009E+03  0.15091255241E+04  0.46999998093E+01 0. -1.
</event>
<event>
 5   0  0.2612331E-06  0.3016892E+04  0.7818609E-02  0.8238924E-01
       -1   -1    0    0    0  501  0.00000000000E+00  0.00000000000E+00  0.97718189088E+03  0.97718189089E+03  0.50400001928E-02 0.  1.
        1   -1    0    0  501    0  0.00000000000E+00  0.00000000000E+00 -0.23285422522E+04  0.23285422522E+04  0.50400001928E-02 0. -1.
    10030    2    1    2    0    0  0.00000000000E+00  0.00000000000E+00 -0.13513603614E+04  0.33057241431E+04  0.30168919908E+04 0.  0.
        4    1    3    3  502    0  0.69867098178E+03  0.13262304779E+04 -0.49109042864E+03  0.15774028792E+04  0.12699999809E+01 0.  1.
       -4    1    3    3    0  502 -0.69867098178E+03 -0.13262304779E+04 -0.86026993272E+03  0.17283212639E+04  0.12699999809E+01 0. -1.
</event>
<event>
 5   0  0.2624011E-06  0.2969983E+04  0.7818609E-02  0.8252355E-01
        1   -1    0    0  501    0  0.00000000000E+00  0.00000000000E+00  0.27538121891E+04  0.27538121891E+04  0.50400001928E-02 0.  1.
       -1   -1    0    0    0  501  0.00000000000E+00  0.00000000000E+00 -0.80078076206E+03  0.80078076208E+03  0.50400001928E-02 0. -1.
    10030    2    1    2    0    0  0.00000000000E+00  0.00000000000E+00  0.19530314270E+04  0.35545929512E+04  0.29699830460E+04 0.  0.
        1    1    3    3  502    0 -0.11766903187E+04 -0.13328689464E+03  0.20488961196E+04  0.23665039217E+04  0.50400001928E-02 0.  1.
       -1    1    3    3    0  502  0.11766903187E+04  0.13328689464E+03 -0.95864692621E+02  0.11880890294E+04  0.50400001928E-02 0. -1.
</event>
<event>
 5   0  0.7079223E-06  0.2031776E+04  0.7818609E-02  0.8591907E-01
       -2   -1    0    0    0  501  0.00000000000E+00  0.00000000000E+00  0.52988821220E+03  0.52988821221E+03  0.25500000920E-02 0.  1.
        2   -1    0    0  501    0  0.00000000000E+00  0.00000000000E+00 -0.19476336044E+04  0.19476336044E+04  0.25500000920E-02 0. -1.
    10030    2    1    2    0    0  0.00000000000E+00  0.00000000000E+00 -0.14177453922E+04  0.24775218166E+04  0.20317756655E+04 0.  0.
        5    1    3    3  502    0 -0.22432465616E+03 -0.96280624860E+03 -0.42371175682E+03  0.10755794562E+04  0.46999998093E+01 0.  1.
       -5    1    3    3    0  502  0.22432465616E+03  0.96280624860E+03 -0.99403363540E+03  0.14019423604E+04  0.46999998093E+01 0. -1.
</event>
<event>
 5   0  0.2612331E-06  0.2573908E+04  0.7818609E-02  0.8377119E-01
        1   -1    0    0  501    0  0.00000000000E+00  0.00000000000E+00  0.16998069706E+04  0.16998069706E+04  0.50400001928E-02 0.  1.
       -1   -1    0    0    0  501  0.00000000000E+00  0.00000000000E+00 -0.97437548911E+03  0.97437548913E+03  0.50400001928E-02 0. -1.
    10030    2    1    2    0    0  0.00000000000E+00  0.00000000000E+00  0.72543148152E+03  0.26741824598E+04  0.25739077283E+04 0.  0.
        4    1    3    3  502    0 -0.73680832705E+03  0.37263553131E+03 -0.66291274020E+03  0.10588666885E+04  0.12699999809E+01 0. -1.
       -4    1    3    3    0  502  0.73680832705E+03 -0.37263553131E+03  0.13883442217E+04  0.16153157713E+04  0.12699999809E+01 0.  1.
</event>
<event>
 5   0  0.7079223E-06  0.3100681E+04  0.7818609E-02  0.8215551E-01
       -2   -1    0    0    0  501  0.00000000000E+00  0.00000000000E+00  0.17187061629E+04  0.17187061629E+04  0.25500000920E-02 0. -1.
        2   -1    0    0  501    0  0.00000000000E+00  0.00000000000E+00 -0.13984676426E+04  0.13984676426E+04  0.25500000920E-02 0.  1.
    10030    2    1    2    0    0  0.00000000000E+00  0.00000000000E+00  0.32023852025E+03  0.31171738055E+04  0.31006805420E+04 0.  0.
        5    1    3    3  502    0 -0.57129016870E+03  0.13411452004E+04 -0.37040929695E+03  0.15040837885E+04  0.46999998093E+01 0.  1.
       -5    1    3    3    0  502  0.57129016870E+03 -0.13411452004E+04  0.69064781720E+03  0.16130900170E+04  0.46999998093E+01 0. -1.
</event>
<event>
 5   0  0.7094341E-06  0.3106818E+04  0.7818609E-02  0.8213869E-01
        2   -1    0    0  501    0  0.00000000000E+00  0.00000000000E+00  0.26379705062E+04  0.26379705062E+04  0.25500000920E-02 0.  1.
       -2   -1    0    0    0  501  0.00000000000E+00  0.00000000000E+00 -0.91474875762E+03  0.91474875762E+03  0.25500000920E-02 0. -1.
    10030    2    1    2    0    0  0.00000000000E+00  0.00000000000E+00  0.17232217486E+04  0.35527192638E+04  0.31068184647E+04 0.  0.
        3    1    3    3  502    0  0.63618102226E+03  0.14069426602E+04  0.66732532313E+03  0.16821227777E+04  0.10100000352E+00 0.  1.
       -3    1    3    3    0  502 -0.63618102226E+03 -0.14069426602E+04  0.10558964254E+04  0.18705964861E+04  0.10100000352E+00 0. -1.
</event>
<event>
 5   0  0.7094341E-06  0.3124056E+04  0.7818609E-02  0.8209167E-01
        2   -1    0    0  501    0  0.00000000000E+00  0.00000000000E+00  0.17321749738E+04  0.17321749739E+04  0.25500000920E-02 0. -1.
       -2   -1    0    0    0  501  0.00000000000E+00  0.00000000000E+00 -0.14085937914E+04  0.14085937914E+04  0.25500000920E-02 0.  1.
    10030    2    1    2    0    0  0.00000000000E+00  0.00000000000E+00  0.32358118242E+03  0.31407687653E+04  0.31240556422E+04 0.  0.
        3    1    3    3  502    0  0.83372513555E+03 -0.67845261720E+03 -0.97764618545E+03  0.14529926461E+04  0.10100000352E+00 0.  1.
       -3    1    3    3    0  502 -0.83372513555E+03  0.67845261720E+03  0.13012273679E+04  0.16877761192E+04  0.10100000352E+00 0. -1.
</event>
<event>
 5   0  0.2674441E-06  0.3034371E+04  0.7818609E-02  0.8233984E-01
        1   -1    0    0  501    0  0.00000000000E+00  0.00000000000E+00  0.25325111365E+04  0.25325111365E+04  0.50400001928E-02 0.  1.
       -1   -1    0    0    0  501  0.00000000000E+00  0.00000000000E+00 -0.90892081922E+03  0.90892081924E+03  0.50400001928E-02 0. -1.
    10030    2    1    2    0    0  0.00000000000E+00  0.00000000000E+00  0.16235903172E+04  0.34414319557E+04  0.30343711684E+04 0.  0.
        5    1    3    3  502    0  0.95688257513E+03 -0.11318435831E+04  0.11795394113E+04  0.18942094584E+04  0.46999998093E+01 0.  1.
       -5    1    3    3    0  502 -0.95688257513E+03  0.11318435831E+04  0.44405090592E+03  0.15472224973E+04  0.46999998093E+01 0. -1.
</event>
<event>
 5   0  0.7079223E-06  0.2996669E+04  0.7818609E-02  0.8244683E-01
        2   -1    0    0  501    0  0.00000000000E+00  0.00000000000E+00  0.24906064827E+04  0.24906064827E+04  0.25500000920E-02 0.  1.
       -2   -1    0    0    0  501  0.00000000000E+00  0.00000000000E+00 -0.90138953192E+03  0.90138953192E+03  0.25500000920E-02 0. -1.
    10030    2    1    2    0    0  0.00000000000E+00  0.00000000000E+00  0.15892169508E+04  0.33919960146E+04  0.29966692254E+04 0.  0.
        5    1    3    3  502    0 -0.15883640797E+03  0.28607819083E+03 -0.86044382000E+03  0.92057340454E+03  0.46999998093E+01 0. -1.
       -5    1    3    3    0  502  0.15883640797E+03 -0.28607819083E+03  0.24496607708E+04  0.24714226101E+04  0.46999998093E+01 0.  1.
</event>
<event>
 5   0  0.7094341E-06  0.3119191E+04  0.7818609E-02  0.8210491E-01
       -2   -1    0    0    0  501  0.00000000000E+00  0.00000000000E+00  0.12863729777E+04  0.12863729777E+04  0.25500000920E-02 0. -1.
        2   -1    0    0  501    0  0.00000000000E+00  0.00000000000E+00 -0.18908493401E+04  0.18908493401E+04  0.25500000920E-02 0.  1.
    10030    2    1    2    0    0  0.00000000000E+00  0.00000000000E+00 -0.60447636236E+03  0.31772223177E+04  0.31191905975E+04 0.  0.
        3    1    3    3  502    0  0.33279096217E+03  0.82989035239E+03  0.99937354295E+03  0.13409755069E+04  0.10100000352E+00 0. -1.
       -3    1    3    3    0  502 -0.33279096217E+03 -0.82989035239E+03 -0.16038499053E+04  0.18362468109E+04  0.10100000352E+00 0.  1.
</event>
<event>
 5   0  0.2517725E-06  0.3103262E+04  0.7818609E-02  0.8214843E-01
       -1   -1    0    0    0  501  0.00000000000E+00  0.00000000000E+00  0.10464017996E+04  0.10464017996E+04  0.50400001928E-02 0.  1.
        1   -1    0    0  501    0  0.00000000000E+00  0.00000000000E+00 -0.23007982322E+04  0.23007982322E+04  0.50400001928E-02 0. -1.
    10030    2    1    2    0    0  0.00000000000E+00  0.00000000000E+00 -0.12543964326E+04  0.33472000319E+04  0.31032624193E+04 0.  0.
        3    1    3    3  502    0  0.11629066032E+04  0.75270131156E+03  0.12678450143E+03  0.13910375093E+04  0.10100000352E+00 0.  1.
       -3    1    3    3    0  502 -0.11629066032E+04 -0.75270131156E+03 -0.13811809340E+04  0.19561625226E+04  0.10100000352E+00 0. -1.
</event>
<event>
 5   0  0.2517725E-06  0.3098661E+04  0.7818609E-02  0.8216105E-01
        1   -1    0    0  501    0  0.00000000000E+00  0.00000000000E+00  0.24641976289E+04  0.24641976289E+04  0.50400001928E-02 0.  1.
       -1   -1    0    0    0  501  0.00000000000E+00  0.00000000000E+00 -0.97412048567E+03  0.97412048568E+03  0.50400001928E-02 0. -1.
    10030    2    1    2    0    0  0.00000000000E+00  0.00000000000E+00  0.14900771433E+04  0.34383181146E+04  0.30986612536E+04 0.  0.
        3    1    3    3  502    0 -0.42024848130E+03 -0.74966008213E+03 -0.68538538455E+03  0.10992507268E+04  0.10100000352E+00 0. -1.
       -3    1    3    3    0  502  0.42024848130E+03  0.74966008213E+03  0.21754625278E+04  0.23390673878E+04  0.10100000352E+00 0.  1.
</event>
<event>
 5   0  0.2612331E-06  0.2167784E+04  0.7818609E-02  0.8531958E-01
       -1   -1    0    0    0  501  0.00000000000E+00  0.00000000000E+00  0.59999482830E+03  0.59999482832E+03  0.50400001928E-02 0. -1.
        1   -1    0    0  501    0  0.00000000000E+00  0.00000000000E+00 -0.19580529380E+04  0.19580529380E+04  0.50400001928E-02 0.  1.
    10030    2    1    2    0    0  0.00000000000E+00  0.00000000000E+00 -0.13580581097E+04  0.25580477663E+04  0.21677837866E+04 0.  0.
        4    1    3    3  502    0  0.43242478045E+03  0.62587736111E+03 -0.15901049665E+04  0.17627107191E+04  0.12699999809E+01 0.  1.
       -4    1    3    3    0  502 -0.43242478045E+03 -0.62587736111E+03  0.23204685686E+03  0.79533704715E+03  0.12699999809E+01 0. -1.
</event>
<event>
 5   0  0.7071012E-06  0.3162101E+04  0.7818609E-02  0.8198899E-01
        2   -1    0    0  501    0  0.00000000000E+00  0.00000000000E+00  0.22362402405E+04  0.22362402405E+04  0.25500000920E-02 0.  1.
       -2   -1    0    0    0  501  0.00000000000E+00  0.00000000000E+00 -0.11178226509E+04  0.11178226509E+04  0.25500000920E-02 0. -1.
    10030    2    1    2    0    0  0.00000000000E+00  0.00000000000E+00  0.11184175897E+04  0.33540628914E+04  0.31621005637E+04 0.  0.
        1    1    3    3  502    0  0.82277596543E+03 -0.10269087171E+04  0.14888980627E+04  0.19870378063E+04  0.50400001928E-02 0.  1.
       -1    1    3    3    0  502 -0.82277596543E+03  0.10269087171E+04 -0.37048047300E+03  0.13670250851E+04  0.50400001928E-02 0. -1.
</event>
<event>
 5   0  0.7079223E-06  0.3079310E+04  0.7818609E-02  0.8221439E-01
        2   -1    0    0  501    0  0.00000000000E+00  0.00000000000E+00  0.18596694601E+04  0.18596694601E+04  0.25500000920E-02 0. -1.
       -2   -1    0    0    0  501  0.00000000000E+00  0.00000000000E+00 -0.12747094665E+04  0.12747094665E+04  0.25500000920E-02 0.  1.
    10030    2    1    2    0    0  0.00000000000E+00  0.00000000000E+00  0.58495999353E+03  0.31343789266E+04  0.30793104848E+04 0.  0.
        5    1    3    3  502    0  0.36351042493E+03 -0.13241466158E+04  0.10013625677E+04  0.16994861491E+04  0.46999998093E+01 0. -1.
       -5    1    3    3    0  502 -0.36351042493E+03  0.13241466158E+04 -0.41640257416E+03  0.14348927775E+04  0.46999998093E+01 0.  1.
</event>
<event>
 5   0  0.7414808E-06  0.3058974E+04  0.7818609E-02  0.8227088E-01
        2   -1    0    0  501    0  0.00000000000E+00  0.00000000000E+00  0.27420624689E+04  0.27420624689E+04  0.25500000920E-02 0.  1.
       -2   -1    0    0    0  501  0.00000000000E+00  0.00000000000E+00 -0.85312782038E+03  0.85312782038E+03  0.25500000920E-02 0. -1.
    10030    2    1    2    0    0  0.00000000000E+00  0.00000000000E+00  0.18889346485E+04  0.35951902892E+04  0.30589735386E+04 0.  0.
        2    1    3    3  502    0 -0.30484444823E+03 -0.52798577436E+03  0.25930774110E+04  0.26637848214E+04  0.25500000920E-02 0.  1.
       -2    1    3    3    0  502  0.30484444823E+03  0.52798577436E+03 -0.70414276248E+03  0.93140546783E+03  0.25500000920E-02 0. -1.
</event>
<event>
 5   0  0.7094341E-06  0.3107720E+04  0.7818609E-02  0.8213622E-01
       -2   -1    0    0    0  501  0.00000000000E+00  0.00000000000E+00  0.14379120265E+04  0.14379120265E+04  0.25500000920E-02 0. -1.
        2   -1    0    0  501    0  0.00000000000E+00  0.00000000000E+00 -0.16791579245E+04  0.16791579245E+04  0.25500000920E-02 0.  1.
    10030    2    1    2    0    0  0.00000000000E+00  0.00000000000E+00 -0.24124589799E+03  0.31170699509E+04  0.31077203053E+04 0.  0.
        3    1    3    3  502    0  0.62675331487E+03 -0.11245279171E+04 -0.99335484271E+03  0.16260801357E+04  0.10100000352E+00 0.  1.
       -3    1    3    3    0  502 -0.62675331487E+03  0.11245279171E+04  0.75210894472E+03  0.14909898152E+04  0.10100000352E+00 0. -1.
</event>
<event>
 5   0  0.2598987E-06  0.2449930E+04  0.7818609E-02  0.8421044E-01
        1   -1    0    0  501    0  0.00000000000E+00  0.00000000000E+00  0.11418232147E+04  0.11418232147E+04  0.50400001928E-02 0.  1.
       -1   -1    0    0    0  501  0.00000000000E+00  0.00000000000E+00 -0.13141605289E+04  0.13141605289E+04  0.50400001928E-02 0. -1.
    10030    2    1    2    0    0  0.00000000000E+00  0.00000000000E+00 -0.17233731415E+03  0.24559837436E+04  0.24499297947E+04 0.  0.
        2    1    3    3  502    0  0.24349524845E+03  0.95994005753E+03 -0.80889687086E+03  0.12787059857E+04  0.25500000920E-02 0. -1.
       -2    1    3    3    0  502 -0.24349524845E+03 -0.95994005753E+03  0.63655955672E+03  0.11772777579E+04  0.25500000920E-02 0.  1.
</event>
<event>
 5   0  0.2624011E-06  0.3072186E+04  0.7818609E-02  0.8223413E-01
        1   -1    0    0  501    0  0.00000000000E+00  0.00000000000E+00  0.18622804375E+04  0.18622804376E+04  0.50400001928E-02 0. -1.
       -1   -1    0    0    0  501  0.00000000000E+00  0.00000000000E+00 -0.12670384727E+04  0.12670384727E+04  0.50400001928E-02 0.  1.
    10030    2    1    2    0    0  0.00000000000E+00  0.00000000000E+00  0.59524196487E+03  0.31293189102E+04  0.30721855161E+04 0.  0.
        1    1    3    3  502    0 -0.12245560633E+04 -0.12149424672E+03 -0.63886944138E+03  0.13865253576E+04  0.50400001928E-02 0.  1.
       -1    1    3    3    0  502  0.12245560633E+04  0.12149424672E+03  0.12341114063E+04  0.17427935526E+04  0.50400001928E-02 0. -1.
</event>
<event>
 5   0  0.7094341E-06  0.3114471E+04  0.7818609E-02  0.8211778E-01
       -2   -1    0    0    0  501  0.00000000000E+00  0.00000000000E+00  0.12391335684E+04  0.12391335684E+04  0.25500000920E-02 0. -1.
        2   -1    0    0  501    0  0.00000000000E+00  0.00000000000E+00 -0.19569983213E+04  0.19569983213E+04  0.25500000920E-02 0.  1.
    10030    2    1    2    0    0  0.00000000000E+00  0.00000000000E+00 -0.71786475287E+03  0.31961318898E+04  0.31144709428E+04 0.  0.
        3    1    3    3  502    0  0.10013534790E+04 -0.93929557295E+03 -0.11130450146E+04  0.17674428358E+04  0.10100000352E+00 0.  1.
       -3    1    3    3    0  502 -0.10013534790E+04  0.93929557295E+03  0.39518026169E+03  0.14286890539E+04  0.10100000352E+00 0. -1.
</event>
<event>
 5   0  0.7079223E-06  0.3185501E+04  0.7818609E-02  0.8192657E-01
        2   -1    0    0  501    0  0.00000000000E+00  0.00000000000E+00  0.18851953933E+04  0.18851953933E+04  0.25500000920E-02 0. -1.
       -2   -1    0    0    0  501  0.00000000000E+00  0.00000000000E+00 -0.13456718924E+04  0.13456718924E+04  0.25500000920E-02 0.  1.
    10030    2    1    2    0    0  0.00000000000E+00  0.00000000000E+00  0.53952350090E+03  0.32308672858E+04  0.31855011866E+04 0.  0.
        5    1    3    3  502    0 -0.53606775050E+03  0.45836562445E+03 -0.11786391789E+04  0.13735647356E+04  0.46999998093E+01 0.  1.
       -5    1    3    3    0  502  0.53606775050E+03 -0.45836562445E+03  0.17181626798E+04  0.18573025502E+04  0.46999998093E+01 0. -1.
</event>
<event>
 5   0  0.2517725E-06  0.3093026E+04  0.7818609E-02  0.8217655E-01
        1   -1    0    0  501    0  0.00000000000E+00  0.00000000000E+00  0.18533208323E+04  0.18533208323E+04  0.50400001928E-02 0. -1.
       -1   -1    0    0    0  501  0.00000000000E+00  0.00000000000E+00 -0.12904954670E+04  0.12904954670E+04  0.50400001928E-02 0.  1.
    10030    2    1    2    0    0  0.00000000000E+00  0.00000000000E+00  0.56282536533E+03  0.31438162993E+04  0.30930257891E+04 0.  0.
        3    1    3    3  502    0 -0.61338929725E+03  0.13913760156E+04 -0.52260998633E+01  0.15205923086E+04  0.10100000352E+00 0.  1.
       -3    1    3    3    0  502  0.61338929725E+03 -0.13913760156E+04  0.56805146519E+03  0.16232239907E+04  0.10100000352E+00 0. -1.
</event>
<event>
 5   0  0.2598987E-06  0.2342067E+04  0.7818609E-02  0.8461517E-01
        1   -1    0    0  501    0  0.00000000000E+00  0.00000000000E+00  0.13214714818E+04  0.13214714819E+04  0.50400001928E-02 0. -1.
       -1   -1    0    0    0  501  0.00000000000E+00  0.00000000000E+00 -0.10377214080E+04  0.10377214080E+04  0.50400001928E-02 0.  1.
    10030    2    1    2    0    0  0.00000000000E+00  0.00000000000E+00  0.28375007384E+03  0.23591928899E+04  0.23420668195E+04 0.  0.
        2    1    3    3  502    0  0.38922996919E+03 -0.15841234863E+03 -0.95915231953E+03  0.10471712435E+04  0.25500000920E-02 0.  1.
       -2    1    3    3    0  502 -0.38922996919E+03  0.15841234863E+03  0.12429023934E+04  0.13120216464E+04  0.25500000920E-02 0. -1.
</event>
<event>
 5   0  0.2598987E-06  0.3008543E+04  0.7818609E-02  0.8241295E-01
        1   -1    0    0  501    0  0.00000000000E+00  0.00000000000E+00  0.12076896404E+04  0.12076896404E+04  0.50400001928E-02 0. -1.
       -1   -1    0    0    0  501  0.00000000000E+00  0.00000000000E+00 -0.18736876881E+04  0.18736876881E+04  0.50400001928E-02 0.  1.
    10030    2    1    2    0    0  0.00000000000E+00  0.00000000000E+00 -0.66599804767E+03  0.30813773286E+04  0.30085433089E+04 0.  0.
        2    1    3    3  502    0  0.12328190139E+04  0.12458161086E+02 -0.12157432328E+04  0.17314818899E+04  0.25500000920E-02 0.  1.
       -2    1    3    3    0  502 -0.12328190139E+04 -0.12458161086E+02  0.54974518513E+03  0.13498954387E+04  0.25500000920E-02 0. -1.
</event>
<event>
 5   0  0.7363513E-06  0.3052167E+04  0.7818609E-02  0.8228989E-01
       -2   -1    0    0    0  501  0.00000000000E+00  0.00000000000E+00  0.11145770086E+04  0.11145770086E+04  0.25500000920E-02 0.  1.
        2   -1    0    0  501    0  0.00000000000E+00  0.00000000000E+00 -0.20895200312E+04  0.20895200312E+04  0.25500000920E-02 0. -1.
    10030    2    1    2    0    0  0.00000000000E+00  0.00000000000E+00 -0.97494302256E+03  0.32040970398E+04  0.30521670896E+04 0.  0.
        4    1    3    3  502    0  0.94016482990E+03 -0.70863997720E+03  0.53186690726E+03  0.12918841065E+04  0.12699999809E+01 0.  1.
       -4    1    3    3    0  502 -0.94016482990E+03  0.70863997720E+03 -0.15068099298E+04  0.19122129333E+04  0.12699999809E+01 0. -1.
</event>
<event>
 5   0  0.2674441E-06  0.3095554E+04  0.7818609E-02  0.8216959E-01
       -1   -1    0    0    0  501  0.00000000000E+00  0.00000000000E+00  0.24971111974E+04  0.24971111975E+04  0.50400001928E-02 0. -1.
        1   -1    0    0  501    0  0.00000000000E+00  0.00000000000E+00 -0.95935380692E+03  0.95935380693E+03  0.50400001928E-02 0.  1.
    10030    2    1    2    0    0  0.00000000000E+00  0.00000000000E+00  0.15377573905E+04  0.34564650044E+04  0.30955536717E+04 0.  0.
        5    1    3    3  502    0  0.72695152183E+03  0.13503775056E+04  0.53569272945E+03  0.16244896777E+04  0.46999998093E+01 0. -1.
       -5    1    3    3    0  502 -0.72695152183E+03 -0.13503775056E+04  0.10020646611E+04  0.18319753267E+04  0.46999998093E+01 0.  1.
</event>
<event>
 5   0  0.7079223E-06  0.3079593E+04  0.7818609E-02  0.8221361E-01
        2   -1    0    0  501    0  0.00000000000E+00  0.00000000000E+00  0.23424046933E+04  0.23424046933E+04  0.25500000920E-02 0. -1.
       -2   -1    0    0    0  501  0.00000000000E+00  0.00000000000E+00 -0.10121961603E+04  0.10121961603E+04  0.25500000920E-02 0.  1.
    10030    2    1    2    0    0  0.00000000000E+00  0.00000000000E+00  0.13302085330E+04  0.33546008536E+04  0.30795928539E+04 0.  0.
        5    1    3    3  502    0  0.62083094835E+03 -0.77249837134E+03 -0.61859150486E+03  0.11682732300E+04  0.46999998093E+01 0.  1.
       -5    1    3    3    0  502 -0.62083094835E+03  0.77249837134E+03  0.19488000379E+04  0.21863276236E+04  0.46999998093E+01 0. -1.
</event>
<event>
 5   0  0.2598987E-06  0.3141052E+04  0.7818609E-02  0.8204561E-01
        1   -1    0    0  501    0  0.00000000000E+00  0.00000000000E+00  0.15093201018E+04  0.15093201018E+04  0.50400001928E-02 0.  1.
       -1   -1    0    0    0  501  0.00000000000E+00  0.00000000000E+00 -0.16342136971E+04  0.16342136971E+04  0.50400001928E-02 0. -1.
    10030    2    1    2    0    0  0.00000000000E+00  0.00000000000E+00 -0.12489359529E+03  0.31435337989E+04  0.31410517879E+04 0.  0.
        2    1    3    3  502    0  0.82135418696E+03 -0.83541147575E+03 -0.11092257536E+04  0.16133557595E+04  0.25500000920E-02 0. -1.
       -2    1    3    3    0  502 -0.82135418696E+03  0.83541147575E+03  0.98433215833E+03  0.15301780394E+04  0.25500000920E-02 0.  1.
</event>
<event>
 5   0  0.7071012E-06  0.3094035E+04  0.7818609E-02  0.8217377E-01
       -2   -1    0    0    0  501  0.00000000000E+00  0.00000000000E+00  0.13939820385E+04  0.13939820385E+04  0.25500000920E-02 0.  1.
        2   -1    0    0  501    0  0.00000000000E+00  0.00000000000E+00 -0.17168534622E+04  0.17168534622E+04  0.25500000920E-02 0. -1.
    10030    2    1    2    0    0  0.00000000000E+00  0.00000000000E+00 -0.32287142371E+03  0.31108355007E+04  0.30940348343E+04 0.  0.
        1    1    3    3  502    0  0.53894006774E+03 -0.14389847379E+04 -0.34165582823E+03  0.15741226692E+04  0.50400001928E-02 0. -1.
       -1    1    3    3    0  502 -0.53894006774E+03  0.14389847379E+04  0.18784404515E+02  0.15367128315E+04  0.50400001928E-02 0.  1.
</event>
<event>
 5   0  0.2674441E-06  0.2813510E+04  0.7818609E-02  0.8299086E-01
        1   -1    0    0  501    0  0.00000000000E+00  0.00000000000E+00  0.12874776653E+04  0.12874776653E+04  0.50400001928E-02 0. -1.
       -1   -1    0    0    0  501  0.00000000000E+00  0.00000000000E+00 -0.15370829724E+04  0.15370829724E+04  0.50400001928E-02 0.  1.
    10030    2    1    2    0    0  0.00000000000E+00  0.00000000000E+00 -0.24960530705E+03  0.28245606377E+04  0.28135102606E+04 0.  0.
        5    1    3    3  502    0 -0.42020420805E+03 -0.88282153919E+03  0.89060075211E+03  0.13225495213E+04  0.46999998093E+01 0. -1.
       -5    1    3    3    0  502  0.42020420805E+03  0.88282153919E+03 -0.11402060592E+04  0.15020111164E+04  0.46999998093E+01 0.  1.
</event>
<event>
 5   0  0.2598987E-06  0.2590256E+04  0.7818609E-02  0.8371519E-01
       -1   -1    0    0    0  501  0.00000000000E+00  0.00000000000E+00  0.83573385812E+03  0.83573385813E+03  0.50400001928E-02 0.  1.
        1   -1    0    0  501    0  0.00000000000E+00  0.00000000000E+00 -0.20070462621E+04  0.20070462621E+04  0.50400001928E-02 0. -1.
    10030    2    1    2    0    0  0.00000000000E+00  0.00000000000E+00 -0.11713124040E+04  0.28427801203E+04  0.25902559843E+04 0.  0.
        2    1    3    3  502    0 -0.10725939146E+04  0.33264226337E+03 -0.12937269124E+04  0.17131368611E+04  0.25500000920E-02 0.  1.
       -2    1    3    3    0  502  0.10725939146E+04 -0.33264226337E+03  0.12241450841E+03  0.11296432591E+04  0.25500000920E-02 0. -1.
</event>
<event>
 5   0  0.7414808E-06  0.3150528E+04  0.7818609E-02  0.8202006E-01
        2   -1    0    0  501    0  0.00000000000E+00  0.00000000000E+00  0.20034610548E+04  0.20034610548E+04  0.25500000920E-02 0. -1.
       -2   -1    0    0    0  501  0.00000000000E+00  0.00000000000E+00 -0.12385845401E+04  0.12385845401E+04  0.25500000920E-02 0.  1.
    10030    2    1    2    0    0  0.00000000000E+00  0.00000000000E+00  0.76487651472E+03  0.32420455949E+04  0.31505275045E+04 0.  0.
        2    1    3    3  502    0 -0.10450239585E+04  0.11272885623E+04  0.28048965660E+02  0.15374138418E+04  0.25500000920E-02 0.  1.
       -2    1    3    3    0  502  0.10450239585E+04 -0.11272885623E+04  0.73682754906E+03  0.17046317531E+04  0.25500000920E-02 0. -1.
</event>
<event>
 5   0  0.7414808E-06  0.3248273E+04  0.7818609E-02  0.8176184E-01
       -2   -1    0    0    0  501  0.00000000000E+00  0.00000000000E+00  0.17281283011E+04  0.17281283011E+04  0.25500000920E-02 0.  1.
        2   -1    0    0  501    0  0.00000000000E+00  0.00000000000E+00 -0.15264022365E+04  0.15264022365E+04  0.25500000920E-02 0. -1.
    10030    2    1    2    0    0  0.00000000000E+00  0.00000000000E+00  0.20172606466E+03  0.32545305376E+04  0.32482727125E+04 0.  0.
        2    1    3    3  502    0  0.21495223857E+03 -0.89592838466E+03 -0.12392213580E+04  0.15442026128E+04  0.25500000920E-02 0. -1.
       -2    1    3    3    0  502 -0.21495223857E+03  0.89592838466E+03  0.14409474227E+04  0.17103279248E+04  0.25500000920E-02 0.  1.
</event>
<event>
 5   0  0.7363513E-06  0.3082094E+04  0.7818609E-02  0.8220669E-01
       -2   -1    0    0    0  501  0.00000000000E+00  0.00000000000E+00  0.18867440145E+04  0.18867440145E+04  0.25500000920E-02 0. -1.
        2   -1    0    0  501    0  0.00000000000E+00  0.00000000000E+00 -0.12586896214E+04  0.12586896214E+04  0.25500000920E-02 0.  1.
    10030    2    1    2    0    0  0.00000000000E+00  0.00000000000E+00  0.62805439307E+03  0.31454336359E+04  0.30820935153E+04 0.  0.
        4    1    3    3  502    0 -0.14848057637E+04  0.18250369405E+02 -0.10656150391E+03  0.14887371155E+04  0.12699999809E+01 0. -1.
       -4    1    3    3    0  502  0.14848057637E+04 -0.18250369405E+02  0.73461589699E+03  0.16566965205E+04  0.12699999809E+01 0.  1.
</event>
<event>
 5   0  0.7414808E-06  0.3086259E+04  0.7818609E-02  0.8219519E-01
        2   -1    0    0  501    0  0.00000000000E+00  0.00000000000E+00  0.27966886680E+04  0.27966886680E+04  0.25500000920E-02 0. -1.
       -2   -1    0    0    0  501  0.00000000000E+00  0.00000000000E+00 -0.85145292910E+03  0.85145292911E+03  0.25500000920E-02 0.  1.
    10030    2    1    2    0    0  0.00000000000E+00  0.00000000000E+00  0.19452357389E+04  0.36481415971E+04  0.30862590677E+04 0.  0.
        2    1    3    3  502    0 -0.26547663432E+03 -0.15185500064E+04  0.10543151324E+04  0.18676328236E+04  0.25500000920E-02 0. -1.
       -2    1    3    3    0  502  0.26547663432E+03  0.15185500064E+04  0.89092060657E+03  0.17805087735E+04  0.25500000920E-02 0.  1.
</event>
<event>
 5   0  0.7414808E-06  0.3086715E+04  0.7818609E-02  0.8219393E-01
       -2   -1    0    0    0  501  0.00000000000E+00  0.00000000000E+00  0.14587224435E+04  0.14587224435E+04  0.25500000920E-02 0. -1.
        2   -1    0    0  501    0  0.00000000000E+00  0.00000000000E+00 -0.16329033228E+04  0.16329033228E+04  0.25500000920E-02 0.  1.
    10030    2    1    2    0    0  0.00000000000E+00  0.00000000000E+00 -0.17418087925E+03  0.30916257663E+04  0.30867152282E+04 0.  0.
        2    1    3    3  502    0 -0.72076706726E+03 -0.10908327990E+04 -0.90847517024E+03  0.15920893491E+04  0.25500000920E-02 0.  1.
       -2    1    3    3    0  502  0.72076706726E+03  0.10908327990E+04  0.73429429099E+03  0.14995364172E+04  0.25500000920E-02 0. -1.
</event>
<event>
 5   0  0.7094341E-06  0.3109293E+04  0.7818609E-02  0.8213192E-01
       -2   -1    0    0    0  501  0.00000000000E+00  0.00000000000E+00  0.11742230803E+04  0.11742230803E+04  0.25500000920E-02 0. -1.
        2   -1    0    0  501    0  0.00000000000E+00  0.00000000000E+00 -0.20583185242E+04  0.20583185242E+04  0.25500000920E-02 0.  1.
    10030    2    1    2    0    0  0.00000000000E+00  0.00000000000E+00 -0.88409544389E+03  0.32325416045E+04  0.31092925998E+04 0.  0.
        3    1    3    3  502    0  0.19424072992E+03 -0.15301442371E+04 -0.64432165118E+03  0.16715924287E+04  0.10100000352E+00 0.  1.
       -3    1    3    3    0  502 -0.19424072992E+03  0.15301442371E+04 -0.23977379271E+03  0.15609491758E+04  0.10100000352E+00 0. -1.
</event>
<event>
 5   0  0.2612331E-06  0.2561903E+04  0.7818609E-02  0.8381258E-01
        1   -1    0    0  501    0  0.00000000000E+00  0.00000000000E+00  0.12680753137E+04  0.12680753137E+04  0.50400001928E-02 0.  1.
       -1   -1    0    0    0  501  0.00000000000E+00  0.00000000000E+00 -0.12939583675E+04  0.12939583675E+04  0.50400001928E-02 0. -1.
    10030    2    1    2    0    0  0.00000000000E+00  0.00000000000E+00 -0.25883053781E+02  0.25620336811E+04  0.25619029355E+04 0.  0.
        4    1    3    3  502    0  0.11760300274E+03  0.11730897717E+04 -0.51383131244E+03  0.12860771008E+04  0.12699999809E+01 0.  1.
       -4    1    3    3    0  502 -0.11760300274E+03 -0.11730897717E+04  0.48794825866E+03  0.12759565803E+04  0.12699999809E+01 0. -1.
</event>
<event>
 5   0  0.2624011E-06  0.3119241E+04  0.7818609E-02  0.8210477E-01
       -1   -1    0    0    0  501  0.00000000000E+00  0.00000000000E+00  0.17966801044E+04  0.17966801044E+04  0.50400001928E-02 0.  1.
        1   -1    0    0  501    0  0.00000000000E+00  0.00000000000E+00 -0.13538393739E+04  0.13538393739E+04  0.50400001928E-02 0. -1.
    10030    2    1    2    0    0  0.00000000000E+00  0.00000000000E+00  0.44284073049E+03  0.31505194783E+04  0.31192411049E+04 0.  0.
        1    1    3    3  502    0 -0.10366695639E+04 -0.11464622509E+04  0.43173126632E+03  0.16048212872E+04  0.50400001928E-02 0.  1.
       -1    1    3    3    0  502  0.10366695639E+04  0.11464622509E+04  0.11109464167E+02  0.15456981910E+04  0.50400001928E-02 0. -1.
</event>
<event>
 5   0  0.2517725E-06  0.2689107E+04  0.7818609E-02  0.8338548E-01
        1   -1    0    0  501    0  0.00000000000E+00  0.00000000000E+00  0.11248819465E+04  0.11248819465E+04  0.50400001928E-02 0.  1.
       -1   -1    0    0    0  501  0.00000000000E+00  0.00000000000E+00 -0.16071228921E+04  0.16071228921E+04  0.50400001928E-02 0. -1.
    10030    2    1    2    0    0  0.00000000000E+00  0.00000000000E+00 -0.48224094559E+03  0.27320048386E+04  0.26891065633E+04 0.  0.
        3    1    3    3  502    0 -0.62316675228E+03  0.39986948222E+03 -0.13813393989E+04  0.15672686269E+04  0.10100000352E+00 0. -1.
       -3    1    3    3    0  502  0.62316675228E+03 -0.39986948222E+03  0.89909845327E+03  0.11647362117E+04  0.10100000352E+00 0.  1.
</event>
<event>
 5   0  0.2598987E-06  0.3067973E+04  0.7818609E-02  0.8224583E-01
        1   -1    0    0  501    0  0.00000000000E+00  0.00000000000E+00  0.13017189374E+04  0.13017189375E+04  0.50400001928E-02 0. -1.
       -1   -1    0    0    0  501  0.00000000000E+00  0.00000000000E+00 -0.18076984306E+04  0.18076984306E+04  0.50400001928E-02 0.  1.
    10030    2    1    2    0    0  0.00000000000E+00  0.00000000000E+00 -0.50597949320E+03  0.31094173681E+04  0.30679734551E+04 0.  0.
        2    1    3    3  502    0  0.69394035234E+03  0.10427212250E+04 -0.11505570240E+04  0.17007651899E+04  0.25500000920E-02 0.  1.
       -2    1    3    3    0  502 -0.69394035234E+03 -0.10427212250E+04  0.64457753083E+03  0.14086521782E+04  0.25500000920E-02 0. -1.
</event>
<event>
 5   0  0.2624011E-06  0.3146143E+04  0.7818609E-02  0.8203187E-01
       -1   -1    0    0    0  501  0.00000000000E+00  0.00000000000E+00  0.10169887622E+04  0.10169887622E+04  0.50400001928E-02 0.  1.
        1   -1    0    0  501    0  0.00000000000E+00  0.00000000000E+00 -0.24332163008E+04  0.24332163008E+04  0.50400001928E-02 0. -1.
    10030    2    1    2    0    0  0.00000000000E+00  0.00000000000E+00 -0.14162275386E+04  0.34502050630E+04  0.31461428028E+04 0.  0.
        1    1    3    3  502    0  0.88832527410E+02 -0.56518799474E+03  0.89884690557E+03  0.10654831988E+04  0.50400001928E-02 0.  1.
       -1    1    3    3    0  502 -0.88832527410E+02  0.56518799474E+03 -0.23150744442E+04  0.23847218642E+04  0.50400001928E-02 0. -1.
</event>
<event>
 5   0  0.7363513E-06  0.3149726E+04  0.7818609E-02  0.8202222E-01
       -2   -1    0    0    0  501  0.00000000000E+00  0.00000000000E+00  0.14779132801E+04  0.14779132801E+04  0.25500000920E-02 0. -1.
        2   -1    0    0  501    0  0.00000000000E+00  0.00000000000E+00 -0.16781729352E+04  0.16781729352E+04  0.25500000920E-02 0.  1.
    10030    2    1    2    0    0  0.00000000000E+00  0.00000000000E+00 -0.20025965504E+03  0.31560862153E+04  0.31497263800E+04 0.  0.
        4    1    3    3  502    0  0.24199076617E+03 -0.14503441969E+04  0.46504330281E+03  0.15421818008E+04  0.12699999809E+01 0. -1.
       -4    1    3    3    0  502 -0.24199076617E+03  0.14503441969E+04 -0.66530295786E+03  0.16139044145E+04  0.12699999809E+01 0.  1.
</event>
<event>
 5   0  0.7363513E-06  0.3183765E+04  0.7818609E-02  0.8193118E-01
       -2   -1    0    0    0  501  0.00000000000E+00  0.00000000000E+00  0.82493816278E+03  0.82493816279E+03  0.25500000920E-02 0. -1.
        2   -1    0    0  501    0  0.00000000000E+00  0.00000000000E+00 -0.30718548961E+04  0.30718548961E+04  0.25500000920E-02 0.  1.
    10030    2    1    2    0    0  0.00000000000E+00  0.00000000000E+00 -0.22469167333E+04  0.38967930589E+04  0.31837652767E+04 0.  0.
        4    1    3    3  502    0 -0.15447789056E+04 -0.23370295641E+03 -0.74994117511E+03  0.17330240385E+04  0.12699999809E+01 0.  1.
       -4    1    3    3    0  502  0.15447789056E+04  0.23370295641E+03 -0.14969755582E+04  0.21637690204E+04  0.12699999809E+01 0. -1.
</event>
<event>
 5   0  0.7414808E-06  0.3094641E+04  0.7818609E-02  0.8217210E-01
        2   -1    0    0  501    0  0.00000000000E+00  0.00000000000E+00  0.17871797511E+04  0.17871797511E+04  0.25500000920E-02 0. -1.
       -2   -1    0    0    0  501  0.00000000000E+00  0.00000000000E+00 -0.13396533950E+04  0.13396533950E+04  0.25500000920E-02 0.  1.
    10030    2    1    2    0    0  0.00000000000E+00  0.00000000000E+00  0.44752635609E+03  0.31268331462E+04  0.30946414469E+04 0.  0.
        2    1    3    3  502    0 -0.98395107113E+03  0.83592299272E+03  0.10854382674E+04  0.16867433689E+04  0.25500000920E-02 0. -1.
       -2    1    3    3    0  502  0.98395107113E+03 -0.83592299272E+03 -0.63791191129E+03  0.14400897773E+04  0.25500000920E-02 0.  1.
</event>
<event>
 5   0  0.2674441E-06  0.3072889E+04  0.7818609E-02  0.8223218E-01
       -1   -1    0    0    0  501  0.00000000000E+00  0.00000000000E+00  0.11186041076E+04  0.11186041076E+04  0.50400001928E-02 0. -1.
        1   -1    0    0  501    0  0.00000000000E+00  0.00000000000E+00 -0.21103642437E+04  0.21103642437E+04  0.50400001928E-02 0.  1.
    10030    2    1    2    0    0  0.00000000000E+00  0.00000000000E+00 -0.99176013604E+03  0.32289683513E+04  0.30728892668E+04 0.  0.
        5    1    3    3  502    0 -0.10489285243E+04 -0.10198543028E+04 -0.98906579258E+03  0.17659634991E+04  0.46999998093E+01 0.  1.
       -5    1    3    3    0  502  0.10489285243E+04  0.10198543028E+04 -0.26943434640E+01  0.14630048522E+04  0.46999998093E+01 0. -1.
</event>
<event>
 5   0  0.2612331E-06  0.2624469E+04  0.7818609E-02  0.8359937E-01
        1   -1    0    0  501    0  0.00000000000E+00  0.00000000000E+00  0.17325756341E+04  0.17325756341E+04  0.50400001928E-02 0.  1.
       -1   -1    0    0    0  501  0.00000000000E+00  0.00000000000E+00 -0.99387249694E+03  0.99387249696E+03  0.50400001928E-02 0. -1.
    10030    2    1    2    0    0  0.00000000000E+00  0.00000000000E+00  0.73870313718E+03  0.27264481311E+04  0.26244689152E+04 0.  0.
        4    1    3    3  502    0  0.65743438796E+03 -0.10847344725E+04  0.71870548864E+03  0.14578779245E+04  0.12699999809E+01 0.  1.
       -4    1    3    3    0  502 -0.65743438796E+03  0.10847344725E+04  0.19997648531E+02  0.12685702066E+04  0.12699999809E+01 0. -1.
</event>
<event>
 5   0  0.2517725E-06  0.3095333E+04  0.7818609E-02  0.8217020E-01
        1   -1    0    0  501    0  0.00000000000E+00  0.00000000000E+00  0.18209407179E+04  0.18209407179E+04  0.50400001928E-02 0. -1.
       -1   -1    0    0    0  501  0.00000000000E+00  0.00000000000E+00 -0.13154032720E+04  0.13154032720E+04  0.50400001928E-02 0.  1.
    10030    2    1    2    0    0  0.00000000000E+00  0.00000000000E+00  0.50553744596E+03  0.31363439899E+04  0.30953328599E+04 0.  0.
        3    1    3    3  502    0 -0.10784917083E+03  0.18900384115E+03  0.18053621568E+04  0.18184296586E+04  0.10100000352E+00 0. -1.
       -3    1    3    3    0  502  0.10784917083E+03 -0.18900384115E+03 -0.12998247109E+04  0.13179143313E+04  0.10100000352E+00 0.  1.
</event>
<event>
 5   0  0.2612331E-06  0.3144656E+04  0.7818609E-02  0.8203588E-01
       -1   -1    0    0    0  501  0.00000000000E+00  0.00000000000E+00  0.12948803000E+04  0.12948803001E+04  0.50400001928E-02 0. -1.
        1   -1    0    0  501    0  0.00000000000E+00  0.00000000000E+00 -0.19092230009E+04  0.19092230009E+04  0.50400001928E-02 0.  1.
    10030    2    1    2    0    0  0.00000000000E+00  0.00000000000E+00 -0.61434270081E+03  0.32041033009E+04  0.31446559444E+04 0.  0.
        4    1    3    3  502    0 -0.13166483423E+04  0.20503183603E+03  0.54324005420E+03  0.14389969702E+04  0.12699999809E+01 0. -1.
       -4    1    3    3    0  502  0.13166483423E+04 -0.20503183603E+03 -0.11575827550E+04  0.17651063307E+04  0.12699999809E+01 0.  1.
</event>
<event>
 5   0  0.2612331E-06  0.2809346E+04  0.7818609E-02  0.8300373E-01
        1   -1    0    0  501    0  0.00000000000E+00  0.00000000000E+00  0.15048627716E+04  0.15048627716E+04  0.50400001928E-02 0.  1.
       -1   -1    0    0    0  501  0.00000000000E+00  0.00000000000E+00 -0.13111533059E+04  0.13111533059E+04  0.50400001928E-02 0. -1.
    10030    2    1    2    0    0  0.00000000000E+00  0.00000000000E+00  0.19370946572E+03  0.28160160775E+04  0.28093456874E+04 0.  0.
        4    1    3    3  502    0 -0.11053243606E+04  0.45516338219E+03  0.83629763269E+03  0.14588731919E+04  0.12699999809E+01 0.  1.
       -4    1    3    3    0  502  0.11053243606E+04 -0.45516338219E+03 -0.64258816697E+03  0.13571428856E+04  0.12699999809E+01 0. -1.
</event>
<event>
 5   0  0.7071012E-06  0.3522858E+04  0.7818609E-02  0.8108394E-01
        2   -1    0    0  501    0  0.00000000000E+00  0.00000000000E+00  0.20362694364E+04  0.20362694364E+04  0.25500000920E-02 0.  1.
       -2   -1    0    0    0  501  0.00000000000E+00  0.00000000000E+00 -0.15236841282E+04  0.15236841282E+04  0.25500000920E-02 0. -1.
    10030    2    1    2    0    0  0.00000000000E+00  0.00000000000E+00  0.51258530827E+03  0.35599535646E+04  0.35228576020E+04 0.  0.
        1    1    3    3  502    0  0.97199286660E+03 -0.13609326186E+04 -0.30245253246E+03  0.16995250100E+04  0.50400001928E-02 0. -1.
       -1    1    3    3    0  502 -0.97199286660E+03  0.13609326186E+04  0.81503784073E+03  0.18604285546E+04  0.50400001928E-02 0.  1.
</event>
<event>
 5   0  0.7414808E-06  0.3071870E+04  0.7818609E-02  0.8223501E-01
        2   -1    0    0  501    0  0.00000000000E+00  0.00000000000E+00  0.19390009912E+04  0.19390009912E+04  0.25500000920E-02 0. -1.
       -2   -1    0    0    0  501  0.00000000000E+00  0.00000000000E+00 -0.12166557158E+04  0.12166557159E+04  0.25500000920E-02 0.  1.
    10030    2    1    2    0    0  0.00000000000E+00  0.00000000000E+00  0.72234527538E+03  0.31556567071E+04  0.30718702050E+04 0.  0.
        2    1    3    3  502    0 -0.28190053507E+03  0.11000387125E+04 -0.70122263199E+03  0.13346408731E+04  0.25500000920E-02 0.  1.
       -2    1    3    3    0  502  0.28190053507E+03 -0.11000387125E+04  0.14235679074E+04  0.18210158340E+04  0.25500000920E-02 0. -1.
</event>
<event>
 5   0  0.7094341E-06  0.3057035E+04  0.7818609E-02  0.8227629E-01
        2   -1    0    0  501    0  0.00000000000E+00  0.00000000000E+00  0.13809093253E+04  0.13809093253E+04  0.25500000920E-02 0. -1.
       -2   -1    0    0    0  501  0.00000000000E+00  0.00000000000E+00 -0.16919042847E+04  0.16919042847E+04  0.25500000920E-02 0.  1.
    10030    2    1    2    0    0  0.00000000000E+00  0.00000000000E+00 -0.31099495942E+03  0.30728136100E+04  0.30570354295E+04 0.  0.
        3    1    3    3  502    0  0.10526152649E+04  0.10918027371E+04 -0.34709683082E+03  0.15557982944E+04  0.10100000352E+00 0.  1.
       -3    1    3    3    0  502 -0.10526152649E+04 -0.10918027371E+04  0.36101871407E+02  0.15170153156E+04  0.10100000352E+00 0. -1.
</event>
<event>
 5   0  0.7079223E-06  0.3148754E+04  0.7818609E-02  0.8202484E-01
        2   -1    0    0  501    0  0.00000000000E+00  0.00000000000E+00  0.15638177601E+04  0.15638177601E+04  0.25500000920E-02 0.  1.
       -2   -1    0    0    0  501  0.00000000000E+00  0.00000000000E+00 -0.15850073786E+04  0.15850073787E+04  0.25500000920E-02 0. -1.
    10030    2    1    2    0    0  0.00000000000E+00  0.00000000000E+00 -0.21189618520E+02  0.31488251388E+04  0.31487538416E+04 0.  0.
        5    1    3    3  502    0 -0.15373991370E+04 -0.17122717128E+03  0.28220141704E+03  0.15724422344E+04  0.46999998093E+01 0.  1.
       -5    1    3    3    0  502  0.15373991370E+04  0.17122717128E+03 -0.30339103556E+03  0.15763829044E+04  0.46999998093E+01 0. -1.
</event>
<event>
 5   0  0.2674441E-06  0.3073793E+04  0.7818609E-02  0.8222967E-01
       -1   -1    0    0    0  501  0.00000000000E+00  0.00000000000E+00  0.10160676333E+04  0.10160676333E+04  0.50400001928E-02 0. -1.
        1   -1    0    0  501    0  0.00000000000E+00  0.00000000000E+00 -0.23246977720E+04  0.23246977720E+04  0.50400001928E-02 0.  1.
    10030    2    1    2    0    0  0.00000000000E+00  0.00000000000E+00 -0.13086301387E+04  0.33407654052E+04  0.30737925521E+04 0.  0.
        5    1    3    3  502    0 -0.78677691800E+03  0.10661121463E+04  0.19204742524E+03  0.13388492562E+04  0.46999998093E+01 0. -1.
       -5    1    3    3    0  502  0.78677691800E+03 -0.10661121463E+04 -0.15006775639E+04  0.20019161491E+04  0.46999998093E+01 0.  1.
</event>
<event>
 5   0  0.2598987E-06  0.2734833E+04  0.7818609E-02  0.8323791E-01
       -1   -1    0    0    0  501  0.00000000000E+00  0.00000000000E+00  0.79712957084E+03  0.79712957086E+03  0.50400001928E-02 0.  1.
        1   -1    0    0  501    0  0.00000000000E+00  0.00000000000E+00 -0.23457011534E+04  0.23457011534E+04  0.50400001928E-02 0. -1.
    10030    2    1    2    0    0  0.00000000000E+00  0.00000000000E+00 -0.15485715826E+04  0.31428307243E+04  0.27348329044E+04 0.  0.
        2    1    3    3  502    0 -0.42497529092E+03 -0.41899680456E+03  0.63957008220E+03  0.87476408829E+03  0.25500000920E-02 0.  1.
       -2    1    3    3    0  502  0.42497529092E+03  0.41899680456E+03 -0.21881416648E+04  0.22680666360E+04  0.25500000920E-02 0. -1.
</event>
<event>
 5   0  0.2674441E-06  0.3183656E+04  0.7818609E-02  0.8193147E-01
       -1   -1    0    0    0  501  0.00000000000E+00  0.00000000000E+00  0.12665293984E+04  0.12665293985E+04  0.50400001928E-02 0. -1.
        1   -1    0    0  501    0  0.00000000000E+00  0.00000000000E+00 -0.20006764968E+04  0.20006764968E+04  0.50400001928E-02 0.  1.
    10030    2    1    2    0    0  0.00000000000E+00  0.00000000000E+00 -0.73414709839E+03  0.32672058953E+04  0.31836555090E+04 0.  0.
        5    1    3    3  502    0  0.12786599000E+04  0.23786099245E+03  0.57480588186E+03  0.14219609289E+04  0.46999998093E+01 0. -1.
       -5    1    3    3    0  502 -0.12786599000E+04 -0.23786099245E+03 -0.13089529802E+04  0.18452449664E+04  0.46999998093E+01 0.  1.
</event>
<event>
 5   0  0.7414808E-06  0.2019548E+04  0.7818609E-02  0.8597535E-01
        2   -1    0    0  501    0  0.00000000000E+00  0.00000000000E+00  0.14832937518E+04  0.14832937518E+04  0.25500000920E-02 0. -1.
       -2   -1    0    0    0  501  0.00000000000E+00  0.00000000000E+00 -0.68741859581E+03  0.68741859581E+03  0.25500000920E-02 0.  1.
    10030    2    1    2    0    0  0.00000000000E+00  0.00000000000E+00  0.79587515599E+03  0.21707123476E+04  0.20195481753E+04 0.  0.
        2    1    3    3  502    0  0.17296047105E+03  0.66762739758E+03 -0.39483446041E+03  0.79469234153E+03  0.25500000920E-02 0.  1.
       -2    1    3    3    0  502 -0.17296047105E+03 -0.66762739758E+03  0.11907096164E+04  0.13760200061E+04  0.25500000920E-02 0. -1.
</event>
<event>
 5   0  0.7071012E-06  0.2614667E+04  0.7818609E-02  0.8363236E-01
        2   -1    0    0  501    0  0.00000000000E+00  0.00000000000E+00  0.26157581569E+04  0.26157581569E+04  0.25500000920E-02 0.  1.
       -2   -1    0    0    0  501  0.00000000000E+00  0.00000000000E+00 -0.65339415664E+03  0.65339415664E+03  0.25500000920E-02 0. -1.
    10030    2    1    2    0    0  0.00000000000E+00  0.00000000000E+00  0.19623640002E+04  0.32691523135E+04  0.26146671642E+04 0.  0.
        1    1    3    3  502    0 -0.63417682022E+03  0.94931620434E+03  0.18476148120E+03  0.11565112624E+04  0.50400001928E-02 0. -1.
       -1    1    3    3    0  502  0.63417682022E+03 -0.94931620434E+03  0.17776025191E+04  0.21126410511E+04  0.50400001928E-02 0.  1.
</event>
<event>
 5   0  0.7071012E-06  0.3100556E+04  0.7818609E-02  0.8215585E-01
        2   -1    0    0  501    0  0.00000000000E+00  0.00000000000E+00  0.17028227551E+04  0.17028227551E+04  0.25500000920E-02 0. -1.
       -2   -1    0    0    0  501  0.00000000000E+00  0.00000000000E+00 -0.14113988723E+04  0.14113988723E+04  0.25500000920E-02 0.  1.
    10030    2    1    2    0    0  0.00000000000E+00  0.00000000000E+00  0.29142388278E+03  0.31142216274E+04  0.31005561542E+04 0.  0.
        1    1    3    3  502    0 -0.56256916904E+03 -0.95387520827E+03  0.12353899122E+04  0.16590811367E+04  0.50400001928E-02 0. -1.
       -1    1    3    3    0  502  0.56256916904E+03  0.95387520827E+03 -0.94396602946E+03  0.14551404907E+04  0.50400001928E-02 0.  1.
</event>
<event>
 5   0  0.7094341E-06  0.2742457E+04  0.7818609E-02  0.8321359E-01
        2   -1    0    0  501    0  0.00000000000E+00  0.00000000000E+00  0.19177409500E+04  0.19177409500E+04  0.25500000920E-02 0. -1.
       -2   -1    0    0    0  501  0.00000000000E+00  0.00000000000E+00 -0.98045987133E+03  0.98045987133E+03  0.25500000920E-02 0.  1.
    10030    2    1    2    0    0  0.00000000000E+00  0.00000000000E+00  0.93728107870E+03  0.28982008214E+04  0.27424573252E+04 0.  0.
        3    1    3    3  502    0 -0.35758522517E+03  0.11201448961E+04 -0.27688419441E+03  0.12079969573E+04  0.10100000352E+00 0. -1.
       -3    1    3    3    0  502  0.35758522517E+03 -0.11201448961E+04  0.12141652731E+04  0.16902038641E+04  0.10100000352E+00 0.  1.
</event>
<event>
 5   0  0.2612331E-06  0.2810889E+04  0.7818609E-02  0.8299896E-01
       -1   -1    0    0    0  501  0.00000000000E+00  0.00000000000E+00  0.11993756675E+04  0.11993756675E+04  0.50400001928E-02 0.  1.
        1   -1    0    0  501    0  0.00000000000E+00  0.00000000000E+00 -0.16469192472E+04  0.16469192472E+04  0.50400001928E-02 0. -1.
    10030    2    1    2    0    0  0.00000000000E+00  0.00000000000E+00 -0.44754357976E+03  0.28462949147E+04  0.28108894474E+04 0.  0.
        4    1    3    3  502    0 -0.82204138310E+03  0.65833158855E+03  0.71860667159E+03  0.12749704614E+04  0.12699999809E+01 0.  1.
       -4    1    3    3    0  502  0.82204138310E+03 -0.65833158855E+03 -0.11661502513E+04  0.15713244533E+04  0.12699999809E+01 0. -1.
</event>
<event>
 5   0  0.7094341E-06  0.2858596E+04  0.7818609E-02  0.8285304E-01
        2   -1    0    0  501    0  0.00000000000E+00  0.00000000000E+00  0.14526859226E+04  0.14526859227E+04  0.25500000920E-02 0.  1.
       -2   -1    0    0    0  501  0.00000000000E+00  0.00000000000E+00 -0.14062867336E+04  0.14062867336E+04  0.25500000920E-02 0. -1.
    10030    2    1    2    0    0  0.00000000000E+00  0.00000000000E+00  0.46399189028E+02  0.28589726563E+04  0.28585961178E+04 0.  0.
        3    1    3    3  502    0  0.62047650493E+03  0.10842169294E+04 -0.67142445820E+03  0.14182130504E+04  0.10100000352E+00 0. -1.
       -3    1    3    3    0  502 -0.62047650493E+03 -0.10842169294E+04  0.71782364723E+03  0.14407596058E+04  0.10100000352E+00 0.  1.
</event>
<event>
 5   0  0.2598987E-06  0.3141225E+04  0.7818609E-02  0.8204514E-01
       -1   -1    0    0    0  501  0.00000000000E+00  0.00000000000E+00  0.14763470696E+04  0.14763470696E+04  0.50400001928E-02 0.  1.
        1   -1    0    0  501    0  0.00000000000E+00  0.00000000000E+00 -0.16708969808E+04  0.16708969808E+04  0.50400001928E-02 0. -1.
    10030    2    1    2    0    0  0.00000000000E+00  0.00000000000E+00 -0.19454991113E+03  0.31472440504E+04  0.31412251503E+04 0.  0.
        2    1    3    3  502    0 -0.26567597665E+02  0.17871701512E+03 -0.16604497523E+04  0.16702511753E+04  0.25500000920E-02 0. -1.
       -2    1    3    3    0  502  0.26567597665E+02 -0.17871701512E+03  0.14658998412E+04  0.14769928751E+04  0.25500000920E-02 0.  1.
</event>
<event>
 5   0  0.7079223E-06  0.3251033E+04  0.7818609E-02  0.8175468E-01
       -2   -1    0    0    0  501  0.00000000000E+00  0.00000000000E+00  0.24924557945E+04  0.24924557945E+04  0.25500000920E-02 0.  1.
        2   -1    0    0  501    0  0.00000000000E+00  0.00000000000E+00 -0.10601209436E+04  0.10601209436E+04  0.25500000920E-02 0. -1.
    10030    2    1    2    0    0  0.00000000000E+00  0.00000000000E+00  0.14323348509E+04  0.35525767381E+04  0.32510334288E+04 0.  0.
        5    1    3    3  502    0  0.62549529664E+03  0.39151609255E+03 -0.86653488816E+03  0.11381713488E+04  0.46999998093E+01 0. -1.
       -5    1    3    3    0  502 -0.62549529664E+03 -0.39151609255E+03  0.22988697390E+04  0.24144053893E+04  0.46999998093E+01 0.  1.
</event>
<event>
 5   0  0.7094341E-06  0.2283491E+04  0.7818609E-02  0.8484459E-01
       -2   -1    0    0    0  501  0.00000000000E+00  0.00000000000E+00  0.10107247981E+04  0.10107247981E+04  0.25500000920E-02 0.  1.
        2   -1    0    0  501    0  0.00000000000E+00  0.00000000000E+00 -0.12897501484E+04  0.12897501484E+04  0.25500000920E-02 0. -1.
    10030    2    1    2    0    0  0.00000000000E+00  0.00000000000E+00 -0.27902535034E+03  0.23004749465E+04  0.22834907123E+04 0.  0.
        3    1    3    3  502    0  0.31619382869E+03  0.29621472328E+03 -0.12037126858E+04  0.12793146367E+04  0.10100000352E+00 0. -1.
       -3    1    3    3    0  502 -0.31619382869E+03 -0.29621472328E+03  0.92468733546E+03  0.10211603097E+04  0.10100000352E+00 0.  1.
</event>
<event>
 5   0  0.2598987E-06  0.3045671E+04  0.7818609E-02  0.8230808E-01
        1   -1    0    0  501    0  0.00000000000E+00  0.00000000000E+00  0.16111561706E+04  0.16111561706E+04  0.50400001928E-02 0.  1.
       -1   -1    0    0    0  501  0.00000000000E+00  0.00000000000E+00 -0.14393568602E+04  0.14393568602E+04  0.50400001928E-02 0. -1.
    10030    2    1    2    0    0  0.00000000000E+00  0.00000000000E+00  0.17179931040E+03  0.30505130308E+04  0.30456714774E+04 0.  0.
        2    1    3    3  502    0  0.42843597072E+03 -0.72750790093E+03 -0.11834758699E+04  0.14537676092E+04  0.25500000920E-02 0. -1.
       -2    1    3    3    0  502 -0.42843597072E+03  0.72750790093E+03  0.13552751803E+04  0.15967454216E+04  0.25500000920E-02 0.  1.
</event>
<event>
 5   0  0.2598987E-06  0.3102915E+04  0.7818609E-02  0.8214938E-01
        1   -1    0    0  501    0  0.00000000000E+00  0.00000000000E+00  0.13085062482E+04  0.13085062482E+04  0.50400001928E-02 0.  1.
       -1   -1    0    0    0  501  0.00000000000E+00  0.00000000000E+00 -0.18395179477E+04  0.18395179477E+04  0.50400001928E-02 0. -1.
    10030    2    1    2    0    0  0.00000000000E+00  0.00000000000E+00 -0.53101169950E+03  0.31480241959E+04  0.31029152281E+04 0.  0.
        2    1    3    3  502    0  0.12723307530E+04  0.12555640697E+03  0.62615137797E+03  0.14236065132E+04  0.25500000920E-02 0.  1.
       -2    1    3    3    0  502 -0.12723307530E+04 -0.12555640697E+03 -0.11571630775E+04  0.17244176826E+04  0.25500000920E-02 0. -1.
</event>
<event>
 5   0  0.2674441E-06  0.3047806E+04  0.7818609E-02  0.8230210E-01
       -1   -1    0    0    0  501  0.00000000000E+00  0.00000000000E+00  0.14601219596E+04  0.14601219596E+04  0.50400001928E-02 0.  1.
        1   -1    0    0  501    0  0.00000000000E+00  0.00000000000E+00 -0.15904705689E+04  0.15904705689E+04  0.50400001928E-02 0. -1.
    10030    2    1    2    0    0  0.00000000000E+00  0.00000000000E+00 -0.13034860933E+03  0.30505925285E+04  0.30478064268E+04 0.  0.
        5    1    3    3  502    0  0.96023899917E+03  0.31755941620E+03  0.10757606851E+04  0.14765453125E+04  0.46999998093E+01 0.  1.
       -5    1    3    3    0  502 -0.96023899917E+03 -0.31755941620E+03 -0.12061092944E+04  0.15740472160E+04  0.46999998093E+01 0. -1.
</event>
<event>
 5   0  0.7414808E-06  0.3139782E+04  0.7818609E-02  0.8204904E-01
       -2   -1    0    0    0  501  0.00000000000E+00  0.00000000000E+00  0.18612451853E+04  0.18612451853E+04  0.25500000920E-02 0. -1.
        2   -1    0    0  501    0  0.00000000000E+00  0.00000000000E+00 -0.13241449242E+04  0.13241449242E+04  0.25500000920E-02 0.  1.
    10030    2    1    2    0    0  0.00000000000E+00  0.00000000000E+00  0.53710026108E+03  0.31853901095E+04  0.31397823905E+04 0.  0.
        2    1    3    3  502    0 -0.20613914317E+03 -0.15010035070E+04 -0.14858344567E+03  0.15223606389E+04  0.25500000920E-02 0.  1.
       -2    1    3    3    0  502  0.20613914317E+03  0.15010035070E+04  0.68568370674E+03  0.16630294706E+04  0.25500000920E-02 0. -1.
</event>
<event>
 5   0  0.7414808E-06  0.3083577E+04  0.7818609E-02  0.8220260E-01
        2   -1    0    0  501    0  0.00000000000E+00  0.00000000000E+00  0.17753215910E+04  0.17753215910E+04  0.25500000920E-02 0. -1.
       -2   -1    0    0    0  501  0.00000000000E+00  0.00000000000E+00 -0.13389749467E+04  0.13389749467E+04  0.25500000920E-02 0.  1.
    10030    2    1    2    0    0  0.00000000000E+00  0.00000000000E+00  0.43634664426E+03  0.31142965377E+04  0.30835765810E+04 0.  0.
        2    1    3    3  502    0 -0.84129853140E+03 -0.90174863935E+01  0.15230379975E+04  0.17399739296E+04  0.25500000920E-02 0. -1.
       -2    1    3    3    0  502  0.84129853140E+03  0.90174863935E+01 -0.10866913532E+04  0.13743226081E+04  0.25500000920E-02 0.  1.
</event>
<event>
 5   0  0.2517725E-06  0.2729695E+04  0.7818609E-02  0.8325434E-01
        1   -1    0    0  501    0  0.00000000000E+00  0.00000000000E+00  0.18470658754E+04  0.18470658754E+04  0.50400001928E-02 0.  1.
       -1   -1    0    0    0  501  0.00000000000E+00  0.00000000000E+00 -0.10085234540E+04  0.10085234540E+04  0.50400001928E-02 0. -1.
    10030    2    1    2    0    0  0.00000000000E+00  0.00000000000E+00  0.83854242140E+03  0.28555893295E+04  0.27296954090E+04 0.  0.
        3    1    3    3  502    0  0.59811307209E+03  0.59771336341E+03  0.15400407623E+04  0.17569080999E+04  0.10100000352E+00 0.  1.
       -3    1    3    3    0  502 -0.59811307209E+03 -0.59771336341E+03 -0.70149834088E+03  0.10986812296E+04  0.10100000352E+00 0. -1.
</event>
<event>
 5   0  0.7363513E-06  0.3064544E+04  0.7818609E-02  0.8225537E-01
        2   -1    0    0  501    0  0.00000000000E+00  0.00000000000E+00  0.14900960507E+04  0.14900960507E+04  0.25500000920E-02 0.  1.
       -2   -1    0    0    0  501  0.00000000000E+00  0.00000000000E+00 -0.15756412764E+04  0.15756412764E+04  0.25500000920E-02 0. -1.
    10030    2    1    2    0    0  0.00000000000E+00  0.00000000000E+00 -0.85545225680E+02  0.30657373271E+04  0.30645435832E+04 0.  0.
        4    1    3    3  502    0 -0.22021797258E+03 -0.11438565833E+04  0.95308056948E+03  0.15050807365E+04  0.12699999809E+01 0. -1.
       -4    1    3    3    0  502  0.22021797258E+03  0.11438565833E+04 -0.10386257952E+04  0.15606565906E+04  0.12699999809E+01 0.  1.
</event>
<event>
 5   0  0.2624011E-06  0.3048273E+04  0.7818609E-02  0.8230079E-01
       -1   -1    0    0    0  501  0.00000000000E+00  0.00000000000E+00  0.99119996127E+03  0.99119996129E+03  0.50400001928E-02 0. -1.
        1   -1    0    0  501    0  0.00000000000E+00  0.00000000000E+00 -0.23436153096E+04  0.23436153096E+04  0.50400001928E-02 0.  1.
    10030    2    1    2    0    0  0.00000000000E+00  0.00000000000E+00 -0.13524153483E+04  0.33348152709E+04  0.30482725627E+04 0.  0.
        1    1    3    3  502    0 -0.12437646182E+04  0.68207556629E+03 -0.12861211109E+04  0.19147545576E+04  0.50400001928E-02 0.  1.
       -1    1    3    3    0  502  0.12437646182E+04 -0.68207556629E+03 -0.66294237402E+02  0.14200607133E+04  0.50400001928E-02 0. -1.
</event>
<event>
 5   0  0.7414808E-06  0.3101313E+04  0.7818609E-02  0.8215378E-01
        2   -1    0    0  501    0  0.00000000000E+00  0.00000000000E+00  0.20531861134E+04  0.20531861134E+04  0.25500000920E-02 0. -1.
       -2   -1    0    0    0  501  0.00000000000E+00  0.00000000000E+00 -0.11711243066E+04  0.11711243066E+04  0.25500000920E-02 0.  1.
    10030    2    1    2    0    0  0.00000000000E+00  0.00000000000E+00  0.88206180679E+03  0.32243104201E+04  0.31013133757E+04 0.  0.
        2    1    3    3  502    0  0.12279069181E+03 -0.45241242036E+03  0.19777525557E+04  0.20325500544E+04  0.25500000920E-02 0. -1.
       -2    1    3    3    0  502 -0.12279069181E+03  0.45241242036E+03 -0.10956907489E+04  0.11917603657E+04  0.25500000920E-02 0.  1.
</event>
<event>
 5   0  0.2517725E-06  0.3014026E+04  0.7818609E-02  0.8239737E-01
       -1   -1    0    0    0  501  0.00000000000E+00  0.00000000000E+00  0.11657102558E+04  0.11657102558E+04  0.50400001928E-02 0. -1.
        1   -1    0    0  501    0  0.00000000000E+00  0.00000000000E+00 -0.19482437865E+04  0.19482437866E+04  0.50400001928E-02 0.  1.
    10030    2    1    2    0    0  0.00000000000E+00  0.00000000000E+00 -0.78253353072E+03  0.31139540424E+04  0.30140257218E+04 0.  0.
        3    1    3    3  502    0  0.99053411741E+03  0.99891797712E+03 -0.94964137626E+03  0.16972960014E+04  0.10100000352E+00 0.  1.
       -3    1    3    3    0  502 -0.99053411741E+03 -0.99891797712E+03  0.16710784554E+03  0.14166580410E+04  0.10100000352E+00 0. -1.
</event>
<event>
 5   0  0.7071012E-06  0.3097808E+04  0.7818609E-02  0.8216340E-01
       -2   -1    0    0    0  501  0.00000000000E+00  0.00000000000E+00  0.14836007730E+04  0.14836007730E+04  0.25500000920E-02 0.  1.
        2   -1    0    0  501    0  0.00000000000E+00  0.00000000000E+00 -0.16170811839E+04  0.16170811839E+04  0.25500000920E-02 0. -1.
    10030    2    1    2    0    0  0.00000000000E+00  0.00000000000E+00 -0.13348041092E+03  0.31006819570E+04  0.30978075438E+04 0.  0.
        1    1    3    3  502    0 -0.57188838746E+02  0.12649249080E+04  0.82616225977E+03  0.15119026641E+04  0.50400001928E-02 0.  1.
       -1    1    3    3    0  502  0.57188838746E+02 -0.12649249080E+04 -0.95964267069E+03  0.15887792929E+04  0.50400001928E-02 0. -1.
</event>
<event>
 5   0  0.7079223E-06  0.3110465E+04  0.7818609E-02  0.8212872E-01
       -2   -1    0    0    0  501  0.00000000000E+00  0.00000000000E+00  0.91186042473E+03  0.91186042473E+03  0.25500000920E-02 0. -1.
        2   -1    0    0  501    0  0.00000000000E+00  0.00000000000E+00 -0.26525427224E+04  0.26525427224E+04  0.25500000920E-02 0.  1.
    10030    2    1    2    0    0  0.00000000000E+00  0.00000000000E+00 -0.17406822977E+04  0.35644031471E+04  0.31104653886E+04 0.  0.
        5    1    3    3  502    0 -0.97931953214E+03  0.88491580843E+03  0.72247657220E+02  0.13218867380E+04  0.46999998093E+01 0. -1.
       -5    1    3    3    0  502  0.97931953214E+03 -0.88491580843E+03 -0.18129299549E+04  0.22425164092E+04  0.46999998093E+01 0.  1.
</event>
<event>
 5   0  0.2624011E-06  0.2172988E+04  0.7818609E-02  0.8529756E-01
       -1   -1    0    0    0  501  0.00000000000E+00  0.00000000000E+00  0.87487869647E+03  0.87487869649E+03  0.50400001928E-02 0. -1.
        1   -1    0    0  501    0  0.00000000000E+00  0.00000000000E+00 -0.13492942140E+04  0.13492942140E+04  0.50400001928E-02 0.  1.
    10030    2    1    2    0    0  0.00000000000E+00  0.00000000000E+00 -0.47441551755E+03  0.22241729105E+04  0.21729875868E+04 0.  0.
        1    1    3    3  502    0  0.55926827737E+03 -0.58465599786E+03 -0.97945481658E+03  0.12704075644E+04  0.50400001928E-02 0.  1.
       -1    1    3    3    0  502 -0.55926827737E+03  0.58465599786E+03  0.50503929902E+03  0.95376534614E+03  0.50400001928E-02 0. -1.
</event>
<event>
 5   0  0.2612331E-06  0.3098881E+04  0.7818609E-02  0.8216045E-01
        1   -1    0    0  501    0  0.00000000000E+00  0.00000000000E+00  0.17696626922E+04  0.17696626922E+04  0.50400001928E-02 0. -1.
       -1   -1    0    0    0  501  0.00000000000E+00  0.00000000000E+00 -0.13566237603E+04  0.13566237603E+04  0.50400001928E-02 0.  1.
    10030    2    1    2    0    0  0.00000000000E+00  0.00000000000E+00  0.41303893196E+03  0.31262864525E+04  0.30988813827E+04 0.  0.
        4    1    3    3  502    0  0.23445887840E+03 -0.15140097141E+04 -0.26975976556E+02  0.15322942591E+04  0.12699999809E+01 0.  1.
       -4    1    3    3    0  502 -0.23445887840E+03  0.15140097141E+04  0.44001490852E+03  0.15939921935E+04  0.12699999809E+01 0. -1.
</event>
<event>
 5   0  0.2612331E-06  0.3054143E+04  0.7818609E-02  0.8228437E-01
        1   -1    0    0  501    0  0.00000000000E+00  0.00000000000E+00  0.82437946218E+03  0.82437946220E+03  0.50400001928E-02 0. -1.
       -1   -1    0    0    0  501  0.00000000000E+00  0.00000000000E+00 -0.28287296972E+04  0.28287296972E+04  0.50400001928E-02 0.  1.
    10030    2    1    2    0    0  0.00000000000E+00  0.00000000000E+00 -0.20043502350E+04  0.36531091594E+04  0.30541425418E+04 0.  0.
        4    1    3    3  502    0  0.11392766203E+04  0.28562873898E+03 -0.21694827740E+04  0.24670208986E+04  0.12699999809E+01 0. -1.
       -4    1    3    3    0  502 -0.11392766203E+04 -0.28562873898E+03  0.16513253900E+03  0.11860882609E+04  0.12699999809E+01 0.  1.
</event>
<event>
 5   0  0.7414808E-06  0.2512833E+04  0.7818609E-02  0.8398428E-01
       -2   -1    0    0    0  501  0.00000000000E+00  0.00000000000E+00  0.10599889728E+04  0.10599889728E+04  0.25500000920E-02 0.  1.
        2   -1    0    0  501    0  0.00000000000E+00  0.00000000000E+00 -0.14892440645E+04  0.14892440645E+04  0.25500000920E-02 0. -1.
    10030    2    1    2    0    0  0.00000000000E+00  0.00000000000E+00 -0.42925509172E+03  0.25492330373E+04  0.25128328923E+04 0.  0.
        2    1    3    3  502    0 -0.11427697987E+04 -0.24640163234E+03 -0.68167202632E+03  0.13532602591E+04  0.25500000920E-02 0. -1.
       -2    1    3    3    0  502  0.11427697987E+04  0.24640163234E+03  0.25241693460E+03  0.11959727782E+04  0.25500000920E-02 0.  1.
</event>
<event>
 5   0  0.7414808E-06  0.2986445E+04  0.7818609E-02  0.8247612E-01
        2   -1    0    0  501    0  0.00000000000E+00  0.00000000000E+00  0.14968471495E+04  0.14968471495E+04  0.25500000920E-02 0. -1.
       -2   -1    0    0    0  501  0.00000000000E+00  0.00000000000E+00 -0.14896061700E+04  0.14896061700E+04  0.25500000920E-02 0.  1.
    10030    2    1    2    0    0  0.00000000000E+00  0.00000000000E+00  0.72409795308E+01  0.29864533195E+04  0.29864445412E+04 0.  0.
        2    1    3    3  502    0  0.67851068771E+03 -0.13033602835E+04  0.26930523249E+03  0.14938708412E+04  0.25500000920E-02 0. -1.
       -2    1    3    3    0  502 -0.67851068771E+03  0.13033602835E+04 -0.26206425296E+03  0.14925824783E+04  0.25500000920E-02 0.  1.
</event>
<event>
 5   0  0.7363513E-06  0.3074504E+04  0.7818609E-02  0.8222770E-01
        2   -1    0    0  501    0  0.00000000000E+00  0.00000000000E+00  0.24753005977E+04  0.24753005977E+04  0.25500000920E-02 0. -1.
       -2   -1    0    0    0  501  0.00000000000E+00  0.00000000000E+00 -0.95468968497E+03  0.95468968498E+03  0.25500000920E-02 0.  1.
    10030    2    1    2    0    0  0.00000000000E+00  0.00000000000E+00  0.15206109127E+04  0.34299902826E+04  0.30745041537E+04 0.  0.
        4    1    3    3  502    0  0.14567948936E+04  0.48894393383E+03  0.71264856287E+03  0.16938675035E+04  0.12699999809E+01 0.  1.
       -4    1    3    3    0  502 -0.14567948936E+04 -0.48894393383E+03  0.80796234981E+03  0.17361227791E+04  0.12699999809E+01 0. -1.
</event>
<event>
 5   0  0.7079223E-06  0.3087362E+04  0.7818609E-02  0.8219215E-01
        2   -1    0    0  501    0  0.00000000000E+00  0.00000000000E+00  0.83355337512E+03  0.83355337513E+03  0.25500000920E-02 0.  1.
       -2   -1    0    0    0  501  0.00000000000E+00  0.00000000000E+00 -0.28587871772E+04  0.28587871772E+04  0.25500000920E-02 0. -1.
    10030    2    1    2    0    0  0.00000000000E+00  0.00000000000E+00 -0.20252338021E+04  0.36923405523E+04  0.30873624344E+04 0.  0.
        5    1    3    3  502    0  0.11712336597E+04  0.13256301159E+03 -0.22047177954E+04  0.25000327768E+04  0.46999998093E+01 0. -1.
       -5    1    3    3    0  502 -0.11712336597E+04 -0.13256301159E+03  0.17948399333E+03  0.11923077755E+04  0.46999998093E+01 0.  1.
</event>
<event>
 5   0  0.7414808E-06  0.3430536E+04  0.7818609E-02  0.8130452E-01
       -2   -1    0    0    0  501  0.00000000000E+00  0.00000000000E+00  0.16219194119E+04  0.16219194119E+04  0.25500000920E-02 0.  1.
        2   -1    0    0  501    0  0.00000000000E+00  0.00000000000E+00 -0.18139896725E+04  0.18139896725E+04  0.25500000920E-02 0. -1.
    10030    2    1    2    0    0  0.00000000000E+00  0.00000000000E+00 -0.19207026055E+03  0.34359090844E+04  0.34305364378E+04 0.  0.
        2    1    3    3  502    0 -0.14280599700E+04 -0.92593940806E+03  0.11743241863E+03  0.17060215234E+04  0.25500000920E-02 0.  1.
       -2    1    3    3    0  502  0.14280599700E+04  0.92593940806E+03 -0.30950267918E+03  0.17298875610E+04  0.25500000920E-02 0. -1.
</event>
<event>
 5   0  0.7071012E-06  0.3187737E+04  0.7818609E-02  0.8192063E-01
       -2   -1    0    0    0  501  0.00000000000E+00  0.00000000000E+00  0.13081793310E+04  0.13081793310E+04  0.25500000920E-02 0. -1.
        2   -1    0    0  501    0  0.00000000000E+00  0.00000000000E+00 -0.19419483549E+04  0.19419483549E+04  0.25500000920E-02 0.  1.
    10030    2    1    2    0    0  0.00000000000E+00  0.00000000000E+00 -0.63376902390E+03  0.32501276859E+04  0.31877369400E+04 0.  0.
        1    1    3    3  502    0  0.13522427857E+04 -0.53453759330E+03  0.34867488071E+03  0.14952809644E+04  0.50400001928E-02 0.  1.
       -1    1    3    3    0  502 -0.13522427857E+04  0.53453759330E+03 -0.98244390461E+03  0.17548467215E+04  0.50400001928E-02 0. -1.
</event>
<event>
 5   0  0.7363513E-06  0.3118062E+04  0.7818609E-02  0.8210798E-01
        2   -1    0    0  501    0  0.00000000000E+00  0.00000000000E+00  0.24754169116E+04  0.24754169116E+04  0.25500000920E-02 0.  1.
       -2   -1    0    0    0  501  0.00000000000E+00  0.00000000000E+00 -0.98188639640E+03  0.98188639641E+03  0.25500000920E-02 0. -1.
    10030    2    1    2    0    0  0.00000000000E+00  0.00000000000E+00  0.14935305152E+04  0.34573033080E+04  0.31180623412E+04 0.  0.
        4    1    3    3  502    0 -0.84980844726E+03  0.11805391480E+04  0.13688096999E+04  0.19973704425E+04  0.12699999809E+01 0.  1.
       -4    1    3    3    0  502  0.84980844726E+03 -0.11805391480E+04  0.12472081528E+03  0.14599328655E+04  0.12699999809E+01 0. -1.
</event>
<event>
 5   0  0.7363513E-06  0.3131047E+04  0.7818609E-02  0.8207269E-01
       -2   -1    0    0    0  501  0.00000000000E+00  0.00000000000E+00  0.16147655847E+04  0.16147655847E+04  0.25500000920E-02 0.  1.
        2   -1    0    0  501    0  0.00000000000E+00  0.00000000000E+00 -0.15177834324E+04  0.15177834324E+04  0.25500000920E-02 0. -1.
    10030    2    1    2    0    0  0.00000000000E+00  0.00000000000E+00  0.96982152261E+02  0.31325490170E+04  0.31310473977E+04 0.  0.
        4    1    3    3  502    0  0.13041365325E+04  0.85288446899E+03  0.19915820639E+03  0.15709390876E+04  0.12699999809E+01 0.  1.
       -4    1    3    3    0  502 -0.13041365325E+04 -0.85288446899E+03 -0.10217605413E+03  0.15616099295E+04  0.12699999809E+01 0. -1.
</event>
<event>
 5   0  0.7079223E-06  0.3068117E+04  0.7818609E-02  0.8224543E-01
        2   -1    0    0  501    0  0.00000000000E+00  0.00000000000E+00  0.19788146959E+04  0.19788146959E+04  0.25500000920E-02 0.  1.
       -2   -1    0    0    0  501  0.00000000000E+00  0.00000000000E+00 -0.11892648667E+04  0.11892648667E+04  0.25500000920E-02 0. -1.
    10030    2    1    2    0    0  0.00000000000E+00  0.00000000000E+00  0.78954982924E+03  0.31680795626E+04  0.30681165529E+04 0.  0.
        5    1    3    3  502    0  0.85173426203E+03 -0.71591775949E+03 -0.69572239108E+03  0.13122656846E+04  0.46999998093E+01 0. -1.
       -5    1    3    3    0  502 -0.85173426203E+03  0.71591775949E+03  0.14852722203E+04  0.18558138780E+04  0.46999998093E+01 0.  1.
</event>
<event>
 5   0  0.2612331E-06  0.3729085E+04  0.7818609E-02  0.8061547E-01
       -1   -1    0    0    0  501  0.00000000000E+00  0.00000000000E+00  0.10156205338E+04  0.10156205338E+04  0.50400001928E-02 0.  1.
        1   -1    0    0  501    0  0.00000000000E+00  0.00000000000E+00 -0.34230491014E+04  0.34230491014E+04  0.50400001928E-02 0. -1.
    10030    2    1    2    0    0  0.00000000000E+00  0.00000000000E+00 -0.24074285676E+04  0.44386696352E+04  0.37290851187E+04 0.  0.
        4    1    3    3  502    0  0.16469306159E+04  0.10270908702E+03 -0.22369928858E+04  0.27797604922E+04  0.12699999809E+01 0. -1.
       -4    1    3    3    0  502 -0.16469306159E+04 -0.10270908702E+03 -0.17043568182E+03  0.16589091430E+04  0.12699999809E+01 0.  1.
</event>
<event>
 5   0  0.7079223E-06  0.2941148E+04  0.7818609E-02  0.8260739E-01
        2   -1    0    0  501    0  0.00000000000E+00  0.00000000000E+00  0.19471078156E+04  0.19471078156E+04  0.25500000920E-02 0. -1.
       -2   -1    0    0    0  501  0.00000000000E+00  0.00000000000E+00 -0.11106667582E+04  0.11106667582E+04  0.25500000920E-02 0.  1.
    10030    2    1    2    0    0  0.00000000000E+00  0.00000000000E+00  0.83644105735E+03  0.30577745738E+04  0.29411480245E+04 0.  0.
        5    1    3    3  502    0  0.12882342785E+04  0.61098980578E+03  0.43786879354E+02  0.14264625757E+04  0.46999998093E+01 0.  1.
       -5    1    3    3    0  502 -0.12882342785E+04 -0.61098980578E+03  0.79265417799E+03  0.16313119981E+04  0.46999998093E+01 0. -1.
</event>
<event>
 5   0  0.7094341E-06  0.3076233E+04  0.7818609E-02  0.8222291E-01
        2   -1    0    0  501    0  0.00000000000E+00  0.00000000000E+00  0.23361896780E+04  0.23361896780E+04  0.25500000920E-02 0.  1.
       -2   -1    0    0    0  501  0.00000000000E+00  0.00000000000E+00 -0.10126759228E+04  0.10126759228E+04  0.25500000920E-02 0. -1.
    10030    2    1    2    0    0  0.00000000000E+00  0.00000000000E+00  0.13235137552E+04  0.33488656008E+04  0.30762334359E+04 0.  0.
        3    1    3    3  502    0 -0.93277326891E+03  0.14908404276E+03 -0.65970647036E+03  0.11521738846E+04  0.10100000352E+00 0. -1.
       -3    1    3    3    0  502  0.93277326891E+03 -0.14908404276E+03  0.19832202256E+04  0.21966917163E+04  0.10100000352E+00 0.  1.
</event>
<event>
 5   0  0.7079223E-06  0.2313959E+04  0.7818609E-02  0.8472437E-01
       -2   -1    0    0    0  501  0.00000000000E+00  0.00000000000E+00  0.60915790737E+03  0.60915790738E+03  0.25500000920E-02 0.  1.
        2   -1    0    0  501    0  0.00000000000E+00  0.00000000000E+00 -0.21974631704E+04  0.21974631704E+04  0.25500000920E-02 0. -1.
    10030    2    1    2    0    0  0.00000000000E+00  0.00000000000E+00 -0.15883052630E+04  0.28066210777E+04  0.23139594347E+04 0.  0.
        5    1    3    3  502    0 -0.93300104057E+03  0.21851007269E+03 -0.15805275119E+04  0.18483308414E+04  0.46999998093E+01 0. -1.
       -5    1    3    3    0  502  0.93300104057E+03 -0.21851007269E+03 -0.77777510910E+01  0.95829023629E+03  0.46999998093E+01 0.  1.
</event>
<event>
 5   0  0.2624011E-06  0.2633882E+04  0.7818609E-02  0.8356782E-01
       -1   -1    0    0    0  501  0.00000000000E+00  0.00000000000E+00  0.15206659150E+04  0.15206659150E+04  0.50400001928E-02 0.  1.
        1   -1    0    0  501    0  0.00000000000E+00  0.00000000000E+00 -0.11405094230E+04  0.11405094231E+04  0.50400001928E-02 0. -1.
    10030    2    1    2    0    0  0.00000000000E+00  0.00000000000E+00  0.38015649199E+03  0.26611753381E+04  0.26338821579E+04 0.  0.
        1    1    3    3  502    0 -0.12137719203E+04 -0.51092453972E+03  0.18310413631E+03  0.13295913976E+04  0.50400001928E-02 0. -1.
       -1    1    3    3    0  502  0.12137719203E+04  0.51092453972E+03  0.19705235568E+03  0.13315839405E+04  0.50400001928E-02 0.  1.
</event>
<event>
 5   0  0.2674441E-06  0.3102258E+04  0.7818609E-02  0.8215118E-01
       -1   -1    0    0    0  501  0.00000000000E+00  0.00000000000E+00  0.15045800074E+04  0.15045800074E+04  0.50400001928E-02 0.  1.
        1   -1    0    0  501    0  0.00000000000E+00  0.00000000000E+00 -0.15991186053E+04  0.15991186053E+04  0.50400001928E-02 0. -1.
    10030    2    1    2    0    0  0.00000000000E+00  0.00000000000E+00 -0.94538597885E+02  0.31036986127E+04  0.31022584567E+04 0.  0.
        5    1    3    3  502    0  0.59802831311E+03  0.91627878737E+03 -0.11472227840E+04  0.15853538676E+04  0.46999998093E+01 0. -1.
       -5    1    3    3    0  502 -0.59802831311E+03 -0.91627878737E+03  0.10526841861E+04  0.15183447451E+04  0.46999998093E+01 0.  1.
</event>
<event>
 5   0  0.2674441E-06  0.3155839E+04  0.7818609E-02  0.8200578E-01
       -1   -1    0    0    0  501  0.00000000000E+00  0.00000000000E+00  0.16830042383E+04  0.16830042383E+04  0.50400001928E-02 0. -1.
        1   -1    0    0  501    0  0.00000000000E+00  0.00000000000E+00 -0.14793958787E+04  0.14793958787E+04  0.50400001928E-02 0.  1.
    10030    2    1    2    0    0  0.00000000000E+00  0.00000000000E+00  0.20360835955E+03  0.31624001170E+04  0.31558387373E+04 0.  0.
        5    1    3    3  502    0  0.13027856379E+04  0.88939984707E+03  0.62672537600E+02  0.15786806020E+04  0.46999998093E+01 0. -1.
       -5    1    3    3    0  502 -0.13027856379E+04 -0.88939984707E+03  0.14093582195E+03  0.15837195150E+04  0.46999998093E+01 0.  1.
</event>
<event>
 5   0  0.7071012E-06  0.2478527E+04  0.7818609E-02  0.8410676E-01
        2   -1    0    0  501    0  0.00000000000E+00  0.00000000000E+00  0.12021244631E+04  0.12021244631E+04  0.25500000920E-02 0.  1.
       -2   -1    0    0    0  501  0.00000000000E+00  0.00000000000E+00 -0.12775499764E+04  0.12775499764E+04  0.25500000920E-02 0. -1.
    10030    2    1    2    0    0  0.00000000000E+00  0.00000000000E+00 -0.75425513275E+02  0.24796744395E+04  0.24785270461E+04 0.  0.
        1    1    3    3  502    0  0.17365219229E+03 -0.61856273805E+03 -0.10979198701E+04  0.12720860765E+04  0.50400001928E-02 0. -1.
       -1    1    3    3    0  502 -0.17365219229E+03  0.61856273805E+03  0.10224943568E+04  0.12075883631E+04  0.50400001928E-02 0.  1.
</event>
<event>
 5   0  0.7071012E-06  0.3121933E+04  0.7818609E-02  0.8209744E-01
        2   -1    0    0  501    0  0.00000000000E+00  0.00000000000E+00  0.95551301176E+03  0.95551301176E+03  0.25500000920E-02 0.  1.
       -2   -1    0    0    0  501  0.00000000000E+00  0.00000000000E+00 -0.25500612359E+04  0.25500612359E+04  0.25500000920E-02 0. -1.
    10030    2    1    2    0    0  0.00000000000E+00  0.00000000000E+00 -0.15945482242E+04  0.35055742477E+04  0.31219331778E+04 0.  0.
        1    1    3    3  502    0 -0.61641364512E+01 -0.88042632443E+03 -0.22446334028E+04  0.24111340946E+04  0.50400001928E-02 0. -1.
       -1    1    3    3    0  502  0.61641364512E+01  0.88042632443E+03  0.65008517857E+03  0.10944401531E+04  0.50400001928E-02 0.  1.
</event>
<event>
 5   0  0.2612331E-06  0.3100286E+04  0.7818609E-02  0.8215659E-01
       -1   -1    0    0    0  501  0.00000000000E+00  0.00000000000E+00  0.22472678642E+04  0.22472678642E+04  0.50400001928E-02 0.  1.
        1   -1    0    0  501    0  0.00000000000E+00  0.00000000000E+00 -0.10692734622E+04  0.10692734622E+04  0.50400001928E-02 0. -1.
    10030    2    1    2    0    0  0.00000000000E+00  0.00000000000E+00  0.11779944020E+04  0.33165413264E+04  0.31002863672E+04 0.  0.
        4    1    3    3  502    0 -0.11132174415E+03 -0.60268217727E+03  0.21121559768E+04  0.21992777952E+04  0.12699999809E+01 0.  1.
       -4    1    3    3    0  502  0.11132174415E+03  0.60268217727E+03 -0.93416157472E+03  0.11172635312E+04  0.12699999809E+01 0. -1.
</event>
<event>
 5   0  0.7414808E-06  0.3116580E+04  0.7818609E-02  0.8211202E-01
        2   -1    0    0  501    0  0.00000000000E+00  0.00000000000E+00  0.15437983967E+04  0.15437983967E+04  0.25500000920E-02 0.  1.
       -2   -1    0    0    0  501  0.00000000000E+00  0.00000000000E+00 -0.15729174403E+04  0.15729174403E+04  0.25500000920E-02 0. -1.
    10030    2    1    2    0    0  0.00000000000E+00  0.00000000000E+00 -0.29119043646E+02  0.31167158370E+04  0.31165798064E+04 0.  0.
        2    1    3    3  502    0  0.11469880619E+04  0.32442396004E+03  0.98919485461E+03  0.15489799806E+04  0.25500000920E-02 0.  1.
       -2    1    3    3    0  502 -0.11469880619E+04 -0.32442396004E+03 -0.10183138983E+04  0.15677358564E+04  0.25500000920E-02 0. -1.
</event>
<event>
 5   0  0.2393250E-06  0.3014135E+04  0.7818609E-02  0.8239706E-01
        3   -1    0    0  501    0  0.00000000000E+00  0.00000000000E+00  0.17665543134E+04  0.17665543163E+04  0.10100000352E+00 0.  1.
       -3   -1    0    0    0  501  0.00000000000E+00  0.00000000000E+00 -0.12856961340E+04  0.12856961379E+04  0.10100000352E+00 0. -1.
    10030    2    1    2    0    0  0.00000000000E+00  0.00000000000E+00  0.48085817942E+03  0.30522504542E+04  0.30141347426E+04 0.  0.
        4    1    3    3  502    0  0.69939560502E+03  0.75305762734E+02 -0.11092514199E+04  0.13134936222E+04  0.12699999809E+01 0. -1.
       -4    1    3    3    0  502 -0.69939560502E+03 -0.75305762734E+02  0.15901095993E+04  0.17387568320E+04  0.12699999809E+01 0.  1.
</event>
<event>
 5   0  0.7079223E-06  0.3137722E+04  0.7818609E-02  0.8205461E-01
        2   -1    0    0  501    0  0.00000000000E+00  0.00000000000E+00  0.12545317004E+04  0.12545317004E+04  0.25500000920E-02 0.  1.
       -2   -1    0    0    0  501  0.00000000000E+00  0.00000000000E+00 -0.19619474275E+04  0.19619474275E+04  0.25500000920E-02 0. -1.
    10030    2    1    2    0    0  0.00000000000E+00  0.00000000000E+00 -0.70741572707E+03  0.32164791279E+04  0.31377222581E+04 0.  0.
        5    1    3    3  502    0  0.45499103934E+03 -0.14939723838E+04 -0.50690055570E+03  0.16419319696E+04  0.46999998093E+01 0. -1.
       -5    1    3    3    0  502 -0.45499103934E+03  0.14939723838E+04 -0.20051517138E+03  0.15745471582E+04  0.46999998093E+01 0.  1.
</event>
<event>
 5   0  0.7079223E-06  0.3153954E+04  0.7818609E-02  0.8201085E-01
       -2   -1    0    0    0  501  0.00000000000E+00  0.00000000000E+00  0.19467634216E+04  0.19467634216E+04  0.25500000920E-02 0.  1.
        2   -1    0    0  501    0  0.00000000000E+00  0.00000000000E+00 -0.12774312876E+04  0.12774312876E+04  0.25500000920E-02 0. -1.
    10030    2    1    2    0    0  0.00000000000E+00  0.00000000000E+00  0.66933213407E+03  0.32241947092E+04  0.31539540290E+04 0.  0.
        5    1    3    3  502    0  0.98205668027E+03 -0.63938880037E+03  0.14134309951E+04  0.18360453778E+04  0.46999998093E+01 0.  1.
       -5    1    3    3    0  502 -0.98205668027E+03  0.63938880037E+03 -0.74409886107E+03  0.13881493314E+04  0.46999998093E+01 0. -1.
</event>
<event>
 5   0  0.2624011E-06  0.3158737E+04  0.7818609E-02  0.8199800E-01
       -1   -1    0    0    0  501  0.00000000000E+00  0.00000000000E+00  0.16355592681E+04  0.16355592681E+04  0.50400001928E-02 0. -1.
        1   -1    0    0  501    0  0.00000000000E+00  0.00000000000E+00 -0.15251080882E+04  0.15251080882E+04  0.50400001928E-02 0.  1.
    10030    2    1    2    0    0  0.00000000000E+00  0.00000000000E+00  0.11045117986E+03  0.31606673564E+04  0.31587368796E+04 0.  0.
        1    1    3    3  502    0  0.30211670460E+03  0.78774564427E+03  0.13911771249E+04  0.16270192058E+04  0.50400001928E-02 0. -1.
       -1    1    3    3    0  502 -0.30211670460E+03 -0.78774564427E+03 -0.12807259450E+04  0.15336481505E+04  0.50400001928E-02 0.  1.
</event>
<event>
 5   0  0.2612331E-06  0.3009894E+04  0.7818609E-02  0.8240911E-01
       -1   -1    0    0    0  501  0.00000000000E+00  0.00000000000E+00  0.96221249973E+03  0.96221249975E+03  0.50400001928E-02 0.  1.
        1   -1    0    0  501    0  0.00000000000E+00  0.00000000000E+00 -0.23538096452E+04  0.23538096452E+04  0.50400001928E-02 0. -1.
    10030    2    1    2    0    0  0.00000000000E+00  0.00000000000E+00 -0.13915971454E+04  0.33160221449E+04  0.30098937274E+04 0.  0.
        4    1    3    3  502    0  0.25319031752E+03  0.86987142047E+03 -0.20197198479E+04  0.22136059951E+04  0.12699999809E+01 0. -1.
       -4    1    3    3    0  502 -0.25319031752E+03 -0.86987142047E+03  0.62812270244E+03  0.11024161498E+04  0.12699999809E+01 0.  1.
</event>
<event>
 5   0  0.7094341E-06  0.3142651E+04  0.7818609E-02  0.8204129E-01
        2   -1    0    0  501    0  0.00000000000E+00  0.00000000000E+00  0.19536558328E+04  0.19536558328E+04  0.25500000920E-02 0.  1.
       -2   -1    0    0    0  501  0.00000000000E+00  0.00000000000E+00 -0.12638172005E+04  0.12638172005E+04  0.25500000920E-02 0. -1.
    10030    2    1    2    0    0  0.00000000000E+00  0.00000000000E+00  0.68983863225E+03  0.32174730333E+04  0.31426510117E+04 0.  0.
        3    1    3    3  502    0  0.12985557664E+04  0.81034447779E+03 -0.18725300534E+02  0.15307697078E+04  0.10100000352E+00 0.  1.
       -3    1    3    3    0  502 -0.12985557664E+04 -0.81034447779E+03  0.70856393279E+03  0.16867033255E+04  0.10100000352E+00 0. -1.
</event>
<event>
 5   0  0.7071012E-06  0.3040957E+04  0.7818609E-02  0.8232131E-01
       -2   -1    0    0    0  501  0.00000000000E+00  0.00000000000E+00  0.13178224436E+04  0.13178224436E+04  0.25500000920E-02 0. -1.
        2   -1    0    0  501    0  0.00000000000E+00  0.00000000000E+00 -0.17542995377E+04  0.17542995377E+04  0.25500000920E-02 0.  1.
    10030    2    1    2    0    0  0.00000000000E+00  0.00000000000E+00 -0.43647709406E+03  0.30721219813E+04  0.30409572859E+04 0.  0.
        1    1    3    3  502    0  0.54305342115E+03 -0.13430542175E+04  0.24817862022E+03  0.14697939573E+04  0.50400001928E-02 0. -1.
       -1    1    3    3    0  502 -0.54305342115E+03  0.13430542175E+04 -0.68465571429E+03  0.16023280240E+04  0.50400001928E-02 0.  1.
</event>
<event>
 5   0  0.7079223E-06  0.3110206E+04  0.7818609E-02  0.8212942E-01
       -2   -1    0    0    0  501  0.00000000000E+00  0.00000000000E+00  0.10281087198E+04  0.10281087198E+04  0.25500000920E-02 0. -1.
        2   -1    0    0  501    0  0.00000000000E+00  0.00000000000E+00 -0.23522276662E+04  0.23522276662E+04  0.25500000920E-02 0.  1.
    10030    2    1    2    0    0  0.00000000000E+00  0.00000000000E+00 -0.13241189464E+04  0.33803363859E+04  0.31102062790E+04 0.  0.
        5    1    3    3  502    0  0.26741230584E+03  0.15293249439E+04 -0.56497267630E+03  0.16521381118E+04  0.46999998093E+01 0. -1.
       -5    1    3    3    0  502 -0.26741230584E+03 -0.15293249439E+04 -0.75914627007E+03  0.17281982742E+04  0.46999998093E+01 0.  1.
</event>
<event>
 5   0  0.2393250E-06  0.2696009E+04  0.7818609E-02  0.8336301E-01
       -4   -1    0    0    0  501  0.00000000000E+00  0.00000000000E+00  0.15778742628E+04  0.15778747739E+04  0.12699999809E+01 0.  1.
        4   -1    0    0  501    0  0.00000000000E+00  0.00000000000E+00 -0.11516216418E+04  0.11516223421E+04  0.12699999809E+01 0. -1.
    10030    2    1    2    0    0  0.00000000000E+00  0.00000000000E+00  0.42625262097E+03  0.27294971159E+04  0.26960087554E+04 0.  0.
        2    1    3    3  502    0  0.64311354309E+02  0.94791116193E+03 -0.75501770578E+03  0.12135580980E+04  0.25500000920E-02 0. -1.
       -2    1    3    3    0  502 -0.64311354309E+02 -0.94791116193E+03  0.11812703267E+04  0.15159390179E+04  0.25500000920E-02 0.  1.
</event>
<event>
 5   0  0.7094341E-06  0.3108295E+04  0.7818609E-02  0.8213465E-01
        2   -1    0    0  501    0  0.00000000000E+00  0.00000000000E+00  0.20489975243E+04  0.20489975243E+04  0.25500000920E-02 0.  1.
       -2   -1    0    0    0  501  0.00000000000E+00  0.00000000000E+00 -0.11788081441E+04  0.11788081441E+04  0.25500000920E-02 0. -1.
    10030    2    1    2    0    0  0.00000000000E+00  0.00000000000E+00  0.87018938018E+03  0.32278056683E+04  0.31082953327E+04 0.  0.
        3    1    3    3  502    0 -0.13576754625E+04 -0.50563032123E+02 -0.34859759384E+03  0.14026259567E+04  0.10100000352E+00 0. -1.
       -3    1    3    3    0  502  0.13576754625E+04  0.50563032123E+02  0.12187869740E+04  0.18251797117E+04  0.10100000352E+00 0.  1.
</event>
<event>
 5   0  0.7363513E-06  0.2974111E+04  0.7818609E-02  0.8251163E-01
        2   -1    0    0  501    0  0.00000000000E+00  0.00000000000E+00  0.21936452220E+04  0.21936452220E+04  0.25500000920E-02 0.  1.
       -2   -1    0    0    0  501  0.00000000000E+00  0.00000000000E+00 -0.10080633548E+04  0.10080633548E+04  0.25500000920E-02 0. -1.
    10030    2    1    2    0    0  0.00000000000E+00  0.00000000000E+00  0.11855818671E+04  0.32017085768E+04  0.29741105304E+04 0.  0.
        4    1    3    3  502    0 -0.84768753050E+03 -0.11864057358E+04  0.90701686233E+03  0.17172110880E+04  0.12699999809E+01 0. -1.
       -4    1    3    3    0  502  0.84768753050E+03  0.11864057358E+04  0.27856500482E+03  0.14844974888E+04  0.12699999809E+01 0.  1.
</event>
<event>
 5   0  0.2674441E-06  0.3329490E+04  0.7818609E-02  0.8155432E-01
       -1   -1    0    0    0  501  0.00000000000E+00  0.00000000000E+00  0.15057155753E+04  0.15057155754E+04  0.50400001928E-02 0. -1.
        1   -1    0    0  501    0  0.00000000000E+00  0.00000000000E+00 -0.18405709985E+04  0.18405709985E+04  0.50400001928E-02 0.  1.
    10030    2    1    2    0    0  0.00000000000E+00  0.00000000000E+00 -0.33485542312E+03  0.33462865738E+04  0.33294903033E+04 0.  0.
        5    1    3    3  502    0  0.65131246606E+02  0.15116671462E+03 -0.18323657417E+04  0.18397499168E+04  0.46999998093E+01 0.  1.
       -5    1    3    3    0  502 -0.65131246606E+02 -0.15116671462E+03  0.14975103186E+04  0.15065366571E+04  0.46999998093E+01 0. -1.
</event>
<event>
 5   0  0.7094341E-06  0.3172263E+04  0.7818609E-02  0.8196181E-01
       -2   -1    0    0    0  501  0.00000000000E+00  0.00000000000E+00  0.13020135761E+04  0.13020135761E+04  0.25500000920E-02 0.  1.
        2   -1    0    0  501    0  0.00000000000E+00  0.00000000000E+00 -0.19322475035E+04  0.19322475035E+04  0.25500000920E-02 0. -1.
    10030    2    1    2    0    0  0.00000000000E+00  0.00000000000E+00 -0.63023392741E+03  0.32342610797E+04  0.31722625882E+04 0.  0.
        3    1    3    3  502    0 -0.57475157179E+03  0.13466815410E+04 -0.93688993392E+03  0.17382903384E+04  0.10100000352E+00 0. -1.
       -3    1    3    3    0  502  0.57475157179E+03 -0.13466815410E+04  0.30665600651E+03  0.14959707413E+04  0.10100000352E+00 0.  1.
</event>
<event>
 5   0  0.7363513E-06  0.3194881E+04  0.7818609E-02  0.8190170E-01
       -2   -1    0    0    0  501  0.00000000000E+00  0.00000000000E+00  0.12772009014E+04  0.12772009014E+04  0.25500000920E-02 0. -1.
        2   -1    0    0  501    0  0.00000000000E+00  0.00000000000E+00 -0.19979760308E+04  0.19979760308E+04  0.25500000920E-02 0.  1.
    10030    2    1    2    0    0  0.00000000000E+00  0.00000000000E+00 -0.72077512946E+03  0.32751769322E+04  0.31948813984E+04 0.  0.
        4    1    3    3  502    0 -0.62570707439E+03 -0.45476683527E+03  0.10724136817E+04  0.13222688588E+04  0.12699999809E+01 0. -1.
       -4    1    3    3    0  502  0.62570707439E+03  0.45476683527E+03 -0.17931888112E+04  0.19529080733E+04  0.12699999809E+01 0.  1.
</event>
<event>
 5   0  0.7071012E-06  0.3121792E+04  0.7818609E-02  0.8209783E-01
        2   -1    0    0  501    0  0.00000000000E+00  0.00000000000E+00  0.13617100253E+04  0.13617100253E+04  0.25500000920E-02 0. -1.
       -2   -1    0    0    0  501  0.00000000000E+00  0.00000000000E+00 -0.17892182488E+04  0.17892182488E+04  0.25500000920E-02 0.  1.
    10030    2    1    2    0    0  0.00000000000E+00  0.00000000000E+00 -0.42750822352E+03  0.31509282740E+04  0.31217920666E+04 0.  0.
        1    1    3    3  502    0  0.12157464971E+03  0.98386223226E+02 -0.17812898494E+04  0.17881425480E+04  0.50400001928E-02 0.  1.
       -1    1    3    3    0  502 -0.12157464971E+03 -0.98386223226E+02  0.13537816259E+04  0.13627857260E+04  0.50400001928E-02 0. -1.
</event>
<event>
 5   0  0.2612331E-06  0.3213282E+04  0.7818609E-02  0.8185318E-01
       -1   -1    0    0    0  501  0.00000000000E+00  0.00000000000E+00  0.88877574599E+03  0.88877574601E+03  0.50400001928E-02 0. -1.
        1   -1    0    0  501    0  0.00000000000E+00  0.00000000000E+00 -0.29043276659E+04  0.29043276659E+04  0.50400001928E-02 0.  1.
    10030    2    1    2    0    0  0.00000000000E+00  0.00000000000E+00 -0.20155519199E+04  0.37931034119E+04  0.32132824263E+04 0.  0.
        4    1    3    3  502    0 -0.72656783732E+03 -0.10717990298E+03 -0.26945762193E+04  0.27928714558E+04  0.12699999809E+01 0.  1.
       -4    1    3    3    0  502  0.72656783732E+03  0.10717990298E+03  0.67902429946E+03  0.10002319561E+04  0.12699999809E+01 0. -1.
</event>
<event>
 5   0  0.7094341E-06  0.2824853E+04  0.7818609E-02  0.8295594E-01
        2   -1    0    0  501    0  0.00000000000E+00  0.00000000000E+00  0.14314730749E+04  0.14314730749E+04  0.25500000920E-02 0.  1.
       -2   -1    0    0    0  501  0.00000000000E+00  0.00000000000E+00 -0.13936335709E+04  0.13936335709E+04  0.25500000920E-02 0. -1.
    10030    2    1    2    0    0  0.00000000000E+00  0.00000000000E+00  0.37839503982E+02  0.28251066457E+04  0.28248532230E+04 0.  0.
        3    1    3    3  502    0 -0.10214068111E+04 -0.12245957112E+03  0.98682923776E+03  0.14255175113E+04  0.10100000352E+00 0. -1.
       -3    1    3    3    0  502  0.10214068111E+04  0.12245957112E+03 -0.94898973377E+03  0.13995891345E+04  0.10100000352E+00 0.  1.
</event>
<event>
 5   0  0.7079223E-06  0.3142070E+04  0.7818609E-02  0.8204286E-01
       -2   -1    0    0    0  501  0.00000000000E+00  0.00000000000E+00  0.88461357612E+03  0.88461357613E+03  0.25500000920E-02 0.  1.
        2   -1    0    0  501    0  0.00000000000E+00  0.00000000000E+00 -0.27900888989E+04  0.27900888989E+04  0.25500000920E-02 0. -1.
    10030    2    1    2    0    0  0.00000000000E+00  0.00000000000E+00 -0.19054753227E+04  0.36747024750E+04  0.31420697119E+04 0.  0.
        5    1    3    3  502    0 -0.58835066553E+03 -0.98237723298E+02  0.74701743465E+03  0.95596249590E+03  0.46999998093E+01 0.  1.
       -5    1    3    3    0  502  0.58835066553E+03  0.98237723298E+02 -0.26524927574E+04  0.27187399791E+04  0.46999998093E+01 0. -1.
</event>
<event>
 5   0  0.2517725E-06  0.2747870E+04  0.7818609E-02  0.8319638E-01
       -1   -1    0    0    0  501  0.00000000000E+00  0.00000000000E+00  0.13038785573E+04  0.13038785574E+04  0.50400001928E-02 0. -1.
        1   -1    0    0  501    0  0.00000000000E+00  0.00000000000E+00 -0.14477554050E+04  0.14477554050E+04  0.50400001928E-02 0.  1.
    10030    2    1    2    0    0  0.00000000000E+00  0.00000000000E+00 -0.14387684765E+03  0.27516339624E+04  0.27478698869E+04 0.  0.
        3    1    3    3  502    0 -0.93202748631E+03  0.59244846834E+03 -0.89038707617E+03  0.14186118491E+04  0.10100000352E+00 0.  1.
       -3    1    3    3    0  502  0.93202748631E+03 -0.59244846834E+03  0.74651022852E+03  0.13330221132E+04  0.10100000352E+00 0. -1.
</event>
<event>
 5   0  0.2612331E-06  0.3107719E+04  0.7818609E-02  0.8213623E-01
       -1   -1    0    0    0  501  0.00000000000E+00  0.00000000000E+00  0.17153119628E+04  0.17153119628E+04  0.50400001928E-02 0.  1.
        1   -1    0    0  501    0  0.00000000000E+00  0.00000000000E+00 -0.14076040574E+04  0.14076040575E+04  0.50400001928E-02 0. -1.
    10030    2    1    2    0    0  0.00000000000E+00  0.00000000000E+00  0.30770790533E+03  0.31229160202E+04  0.31077194716E+04 0.  0.
        4    1    3    3  502    0 -0.10928655693E+04 -0.84313548043E+03 -0.56325023145E+03  0.14908001298E+04  0.12699999809E+01 0. -1.
       -4    1    3    3    0  502  0.10928655693E+04  0.84313548043E+03  0.87095813677E+03  0.16321158904E+04  0.12699999809E+01 0.  1.
</event>
<event>
 5   0  0.7363513E-06  0.3132204E+04  0.7818609E-02  0.8206955E-01
       -2   -1    0    0    0  501  0.00000000000E+00  0.00000000000E+00  0.17863146204E+04  0.17863146204E+04  0.25500000920E-02 0. -1.
        2   -1    0    0  501    0  0.00000000000E+00  0.00000000000E+00 -0.13730364425E+04  0.13730364425E+04  0.25500000920E-02 0.  1.
    10030    2    1    2    0    0  0.00000000000E+00  0.00000000000E+00  0.41327817792E+03  0.31593510629E+04  0.31322037428E+04 0.  0.
        4    1    3    3  502    0  0.92334908782E+03  0.11489595413E+03  0.14772790338E+04  0.17458893364E+04  0.12699999809E+01 0. -1.
       -4    1    3    3    0  502 -0.92334908782E+03 -0.11489595413E+03 -0.10640008559E+04  0.14134617266E+04  0.12699999809E+01 0.  1.
</event>
<event>
 5   0  0.2517725E-06  0.2931458E+04  0.7818609E-02  0.8263579E-01
       -1   -1    0    0    0  501  0.00000000000E+00  0.00000000000E+00  0.14920587400E+04  0.14920587400E+04  0.50400001928E-02 0. -1.
        1   -1    0    0  501    0  0.00000000000E+00  0.00000000000E+00 -0.14398634907E+04  0.14398634907E+04  0.50400001928E-02 0.  1.
    10030    2    1    2    0    0  0.00000000000E+00  0.00000000000E+00  0.52195249251E+02  0.29319222307E+04  0.29314575936E+04 0.  0.
        3    1    3    3  502    0  0.10495664521E+04  0.99257063267E+03 -0.22208419986E+03  0.14615428835E+04  0.10100000352E+00 0. -1.
       -3    1    3    3    0  502 -0.10495664521E+04 -0.99257063267E+03  0.27427944912E+03  0.14703793472E+04  0.10100000352E+00 0.  1.
</event>
<event>
 5   0  0.7079223E-06  0.3085357E+04  0.7818609E-02  0.8219768E-01
       -2   -1    0    0    0  501  0.00000000000E+00  0.00000000000E+00  0.17044724657E+04  0.17044724657E+04  0.25500000920E-02 0. -1.
        2   -1    0    0  501    0  0.00000000000E+00  0.00000000000E+00 -0.13962422554E+04  0.13962422554E+04  0.25500000920E-02 0.  1.
    10030    2    1    2    0    0  0.00000000000E+00  0.00000000000E+00  0.30823021035E+03  0.31007147211E+04  0.30853566924E+04 0.  0.
        5    1    3    3  502    0 -0.14744402675E+04 -0.45117484007E+03  0.20232839310E+03  0.15551500594E+04  0.46999998093E+01 0.  1.
       -5    1    3    3    0  502  0.14744402675E+04  0.45117484007E+03  0.10590181725E+03  0.15455646617E+04  0.46999998093E+01 0. -1.
</event>
<event>
 5   0  0.7414808E-06  0.3250034E+04  0.7818609E-02  0.8175727E-01
        2   -1    0    0  501    0  0.00000000000E+00  0.00000000000E+00  0.21168593182E+04  0.21168593182E+04  0.25500000920E-02 0. -1.
       -2   -1    0    0    0  501  0.00000000000E+00  0.00000000000E+00 -0.12474518940E+04  0.12474518940E+04  0.25500000920E-02 0.  1.
    10030    2    1    2    0    0  0.00000000000E+00  0.00000000000E+00  0.86940742427E+03  0.33643112122E+04  0.32500339480E+04 0.  0.
        2    1    3    3  502    0  0.78388105084E+03 -0.14200077450E+04  0.33228717964E+03  0.16556890612E+04  0.25500000920E-02 0.  1.
       -2    1    3    3    0  502 -0.78388105084E+03  0.14200077450E+04  0.53712024463E+03  0.17086221510E+04  0.25500000920E-02 0. -1.
</event>
<event>
 5   0  0.7079223E-06  0.2810984E+04  0.7818609E-02  0.8299866E-01
       -2   -1    0    0    0  501  0.00000000000E+00  0.00000000000E+00  0.66858392111E+03  0.66858392111E+03  0.25500000920E-02 0. -1.
        2   -1    0    0  501    0  0.00000000000E+00  0.00000000000E+00 -0.29546147883E+04  0.29546147883E+04  0.25500000920E-02 0.  1.
    10030    2    1    2    0    0  0.00000000000E+00  0.00000000000E+00 -0.22860308672E+04  0.36231987094E+04  0.28109841270E+04 0.  0.
        5    1    3    3  502    0  0.48978235397E+03  0.14423383079E+03 -0.28308399422E+04  0.28765199496E+04  0.46999998093E+01 0.  1.
       -5    1    3    3    0  502 -0.48978235397E+03 -0.14423383079E+03  0.54480907498E+03  0.74667875983E+03  0.46999998093E+01 0. -1.
</event>
<event>
 5   0  0.2517725E-06  0.2585475E+04  0.7818609E-02  0.8373152E-01
        1   -1    0    0  501    0  0.00000000000E+00  0.00000000000E+00  0.14474318090E+04  0.14474318090E+04  0.50400001928E-02 0. -1.
       -1   -1    0    0    0  501  0.00000000000E+00  0.00000000000E+00 -0.11545757880E+04  0.11545757880E+04  0.50400001928E-02 0.  1.
    10030    2    1    2    0    0  0.00000000000E+00  0.00000000000E+00  0.29285602095E+03  0.26020075970E+04  0.25854745959E+04 0.  0.
        3    1    3    3  502    0 -0.61368639476E+03 -0.10417258141E+04 -0.31406327240E+03  0.12491754930E+04  0.10100000352E+00 0.  1.
       -3    1    3    3    0  502  0.61368639476E+03  0.10417258141E+04  0.60691929335E+03  0.13528321041E+04  0.10100000352E+00 0. -1.
</event>
<event>
 5   0  0.2612331E-06  0.3071366E+04  0.7818609E-02  0.8223641E-01
       -1   -1    0    0    0  501  0.00000000000E+00  0.00000000000E+00  0.18705758383E+04  0.18705758383E+04  0.50400001928E-02 0.  1.
        1   -1    0    0  501    0  0.00000000000E+00  0.00000000000E+00 -0.12607463863E+04  0.12607463863E+04  0.50400001928E-02 0. -1.
    10030    2    1    2    0    0  0.00000000000E+00  0.00000000000E+00  0.60982945204E+03  0.31313222246E+04  0.30713656431E+04 0.  0.
        4    1    3    3  502    0 -0.98047445310E+03 -0.11742797579E+04  0.16791516112E+03  0.15389802524E+04  0.12699999809E+01 0.  1.
       -4    1    3    3    0  502  0.98047445310E+03  0.11742797579E+04  0.44191429092E+03  0.15923419722E+04  0.12699999809E+01 0. -1.
</event>
<event>
 5   0  0.7094341E-06  0.3130898E+04  0.7818609E-02  0.8207309E-01
        2   -1    0    0  501    0  0.00000000000E+00  0.00000000000E+00  0.16922795360E+04  0.16922795360E+04  0.25500000920E-02 0. -1.
       -2   -1    0    0    0  501  0.00000000000E+00  0.00000000000E+00 -0.14481236226E+04  0.14481236226E+04  0.25500000920E-02 0.  1.
    10030    2    1    2    0    0  0.00000000000E+00  0.00000000000E+00  0.24415591340E+03  0.31404031585E+04  0.31308976170E+04 0.  0.
        3    1    3    3  502    0  0.50832716973E+03 -0.10697204969E+04  0.11488711684E+04  0.16500313406E+04  0.10100000352E+00 0. -1.
       -3    1    3    3    0  502 -0.50832716973E+03  0.10697204969E+04 -0.90471525503E+03  0.14903718180E+04  0.10100000352E+00 0.  1.
</event>
<event>
 5   0  0.2598987E-06  0.3167319E+04  0.7818609E-02  0.8197502E-01
       -1   -1    0    0    0  501  0.00000000000E+00  0.00000000000E+00  0.10163153317E+04  0.10163153317E+04  0.50400001928E-02 0.  1.
        1   -1    0    0  501    0  0.00000000000E+00  0.00000000000E+00 -0.24677150887E+04  0.24677150887E+04  0.50400001928E-02 0. -1.
    10030    2    1    2    0    0  0.00000000000E+00  0.00000000000E+00 -0.14513997569E+04  0.34840304204E+04  0.31673185372E+04 0.  0.
        2    1    3    3  502    0 -0.13518080302E+04 -0.31013211001E+03 -0.15666087645E+04  0.20923264319E+04  0.25500000920E-02 0.  1.
       -2    1    3    3    0  502  0.13518080302E+04  0.31013211001E+03  0.11520900759E+03  0.13917039885E+04  0.25500000920E-02 0. -1.
</event>
<event>
 5   0  0.7363513E-06  0.3118554E+04  0.7818609E-02  0.8210664E-01
        2   -1    0    0  501    0  0.00000000000E+00  0.00000000000E+00  0.73386811236E+03  0.73386811236E+03  0.25500000920E-02 0.  1.
       -2   -1    0    0    0  501  0.00000000000E+00  0.00000000000E+00 -0.33130550786E+04  0.33130550786E+04  0.25500000920E-02 0. -1.
    10030    2    1    2    0    0  0.00000000000E+00  0.00000000000E+00 -0.25791869663E+04  0.40469231910E+04  0.31185544579E+04 0.  0.
        4    1    3    3  502    0  0.86972358803E+03 -0.11598465330E+04 -0.54448684350E+03  0.15485898861E+04  0.12699999809E+01 0.  1.
       -4    1    3    3    0  502 -0.86972358803E+03  0.11598465330E+04 -0.20347001228E+04  0.24983333049E+04  0.12699999809E+01 0. -1.
</event>
<event>
 5   0  0.2612331E-06  0.3051497E+04  0.7818609E-02  0.8229177E-01
        1   -1    0    0  501    0  0.00000000000E+00  0.00000000000E+00  0.24169154403E+04  0.24169154403E+04  0.50400001928E-02 0.  1.
       -1   -1    0    0    0  501  0.00000000000E+00  0.00000000000E+00 -0.96317350327E+03  0.96317350329E+03  0.50400001928E-02 0. -1.
    10030    2    1    2    0    0  0.00000000000E+00  0.00000000000E+00  0.14537419371E+04  0.33800889436E+04  0.30514972796E+04 0.  0.
        4    1    3    3  502    0  0.10090467334E+04 -0.11913557910E+03 -0.53391201055E+03  0.11477945131E+04  0.12699999809E+01 0. -1.
       -4    1    3    3    0  502 -0.10090467334E+04  0.11913557910E+03  0.19876539476E+04  0.22322944306E+04  0.12699999809E+01 0.  1.
</event>
<event>
 5   0  0.2624011E-06  0.2803017E+04  0.7818609E-02  0.8302332E-01
        1   -1    0    0  501    0  0.00000000000E+00  0.00000000000E+00  0.21090842529E+04  0.21090842530E+04  0.50400001928E-02 0. -1.
       -1   -1    0    0    0  501  0.00000000000E+00  0.00000000000E+00 -0.93131709562E+03  0.93131709564E+03  0.50400001928E-02 0.  1.
    10030    2    1    2    0    0  0.00000000000E+00  0.00000000000E+00  0.11777671573E+04  0.30404013486E+04  0.28030171037E+04 0.  0.
        1    1    3    3  502    0 -0.66068496145E+03 -0.86271747459E+03  0.15489650411E+04  0.18921096051E+04  0.50400001928E-02 0. -1.
       -1    1    3    3    0  502  0.66068496145E+03  0.86271747459E+03 -0.37119788374E+03  0.11482917435E+04  0.50400001928E-02 0.  1.
</event>
<event>
 5   0  0.2674441E-06  0.2112918E+04  0.7818609E-02  0.8555574E-01
       -1   -1    0    0    0  501  0.00000000000E+00  0.00000000000E+00  0.10430638823E+04  0.10430638823E+04  0.50400001928E-02 0. -1.
        1   -1    0    0  501    0  0.00000000000E+00  0.00000000000E+00 -0.10700263820E+04  0.10700263820E+04  0.50400001928E-02 0.  1.
    10030    2    1    2    0    0  0.00000000000E+00  0.00000000000E+00 -0.26962499703E+02  0.21130902644E+04  0.21129182400E+04 0.  0.
        5    1    3    3  502    0  0.85002660746E+03  0.31495606201E+03 -0.55605765710E+03  0.10634682705E+04  0.46999998093E+01 0.  1.
       -5    1    3    3    0  502 -0.85002660746E+03 -0.31495606201E+03  0.52909515740E+03  0.10496219939E+04  0.46999998093E+01 0. -1.
</event>
<event>
 5   0  0.2517725E-06  0.3100038E+04  0.7818609E-02  0.8215727E-01
       -1   -1    0    0    0  501  0.00000000000E+00  0.00000000000E+00  0.16121941709E+04  0.16121941709E+04  0.50400001928E-02 0. -1.
        1   -1    0    0  501    0  0.00000000000E+00  0.00000000000E+00 -0.14902418148E+04  0.14902418149E+04  0.50400001928E-02 0.  1.
    10030    2    1    2    0    0  0.00000000000E+00  0.00000000000E+00  0.12195235610E+03  0.31024359858E+04  0.31000381722E+04 0.  0.
        3    1    3    3  502    0  0.13571555021E+04  0.10779811487E+03  0.80254032186E+03  0.15803678271E+04  0.10100000352E+00 0. -1.
       -3    1    3    3    0  502 -0.13571555021E+04 -0.10779811487E+03 -0.68058796577E+03  0.15220681587E+04  0.10100000352E+00 0.  1.
</event>
<event>
 5   0  0.7414808E-06  0.3063802E+04  0.7818609E-02  0.8225743E-01
        2   -1    0    0  501    0  0.00000000000E+00  0.00000000000E+00  0.19550341070E+04  0.19550341070E+04  0.25500000920E-02 0.  1.
       -2   -1    0    0    0  501  0.00000000000E+00  0.00000000000E+00 -0.12003480129E+04  0.12003480129E+04  0.25500000920E-02 0. -1.
    10030    2    1    2    0    0  0.00000000000E+00  0.00000000000E+00  0.75468609409E+03  0.31553821199E+04  0.30638024124E+04 0.  0.
        2    1    3    3  502    0  0.14587977092E+04 -0.31913208931E+03  0.25389602483E+02  0.14935128653E+04  0.25500000920E-02 0. -1.
       -2    1    3    3    0  502 -0.14587977092E+04  0.31913208931E+03  0.72929649160E+03  0.16618692547E+04  0.25500000920E-02 0.  1.
</event>
<event>
 5   0  0.2612331E-06  0.3111696E+04  0.7818609E-02  0.8212535E-01
       -1   -1    0    0    0  501  0.00000000000E+00  0.00000000000E+00  0.11056148097E+04  0.11056148097E+04  0.50400001928E-02 0. -1.
        1   -1    0    0  501    0  0.00000000000E+00  0.00000000000E+00 -0.21894273033E+04  0.21894273033E+04  0.50400001928E-02 0.  1.
    10030    2    1    2    0    0  0.00000000000E+00  0.00000000000E+00 -0.10838124937E+04  0.32950421130E+04  0.31116961621E+04 0.  0.
        4    1    3    3  502    0  0.12186410332E+04  0.95128536217E+03 -0.35657431248E+03  0.15865612693E+04  0.12699999809E+01 0. -1.
       -4    1    3    3    0  502 -0.12186410332E+04 -0.95128536217E+03 -0.72723818120E+03  0.17084808437E+04  0.12699999809E+01 0.  1.
</event>
<event>
 5   0  0.7094341E-06  0.3142640E+04  0.7818609E-02  0.8204132E-01
        2   -1    0    0  501    0  0.00000000000E+00  0.00000000000E+00  0.12489777561E+04  0.12489777561E+04  0.25500000920E-02 0. -1.
       -2   -1    0    0    0  501  0.00000000000E+00  0.00000000000E+00 -0.19768537549E+04  0.19768537549E+04  0.25500000920E-02 0.  1.
    10030    2    1    2    0    0  0.00000000000E+00  0.00000000000E+00 -0.72787599879E+03  0.32258315110E+04  0.31426398884E+04 0.  0.
        3    1    3    3  502    0  0.69171572486E+03  0.61933492645E+03  0.93729477855E+03  0.13193058430E+04  0.10100000352E+00 0. -1.
       -3    1    3    3    0  502 -0.69171572486E+03 -0.61933492645E+03 -0.16651707773E+04  0.19065256681E+04  0.10100000352E+00 0.  1.
</event>
<event>
 5   0  0.7363513E-06  0.3103408E+04  0.7818609E-02  0.8214803E-01
       -2   -1    0    0    0  501  0.00000000000E+00  0.00000000000E+00  0.11686507964E+04  0.11686507964E+04  0.25500000920E-02 0.  1.
        2   -1    0    0  501    0  0.00000000000E+00  0.00000000000E+00 -0.20603114116E+04  0.20603114116E+04  0.25500000920E-02 0. -1.
    10030    2    1    2    0    0  0.00000000000E+00  0.00000000000E+00 -0.89166061523E+03  0.32289622080E+04  0.31034075285E+04 0.  0.
        4    1    3    3  502    0  0.40268584254E+03 -0.11963607198E+04  0.49309100292E+03  0.13552030142E+04  0.12699999809E+01 0.  1.
       -4    1    3    3    0  502 -0.40268584254E+03  0.11963607198E+04 -0.13847516181E+04  0.18737591938E+04  0.12699999809E+01 0. -1.
</event>
<event>
 5   0  0.2624011E-06  0.2224094E+04  0.7818609E-02  0.8508466E-01
        1   -1    0    0  501    0  0.00000000000E+00  0.00000000000E+00  0.14021307588E+04  0.14021307588E+04  0.50400001928E-02 0. -1.
       -1   -1    0    0    0  501  0.00000000000E+00  0.00000000000E+00 -0.88197779703E+03  0.88197779704E+03  0.50400001928E-02 0.  1.
    10030    2    1    2    0    0  0.00000000000E+00  0.00000000000E+00  0.52015296180E+03  0.22841085559E+04  0.22240937011E+04 0.  0.
        1    1    3    3  502    0  0.10960189165E+04 -0.12296069960E+03  0.40629605640E+03  0.11753524087E+04  0.50400001928E-02 0. -1.
       -1    1    3    3    0  502 -0.10960189165E+04  0.12296069960E+03  0.11385690539E+03  0.11087561472E+04  0.50400001928E-02 0.  1.
</event>
<event>
 5   0  0.7079223E-06  0.3026373E+04  0.7818609E-02  0.8236240E-01
       -2   -1    0    0    0  501  0.00000000000E+00  0.00000000000E+00  0.22226160106E+04  0.22226160106E+04  0.25500000920E-02 0.  1.
        2   -1    0    0  501    0  0.00000000000E+00  0.00000000000E+00 -0.10301971624E+04  0.10301971624E+04  0.25500000920E-02 0. -1.
    10030    2    1    2    0    0  0.00000000000E+00  0.00000000000E+00  0.11924188482E+04  0.32528131729E+04  0.30263725528E+04 0.  0.
        5    1    3    3  502    0 -0.96944480284E+03 -0.11617407799E+04  0.57936000574E+03  0.16202299132E+04  0.46999998093E+01 0.  1.
       -5    1    3    3    0  502  0.96944480284E+03  0.11617407799E+04  0.61305884245E+03  0.16325832597E+04  0.46999998093E+01 0. -1.
</event>
<event>
 5   0  0.2393250E-06  0.3087950E+04  0.7818609E-02  0.8219053E-01
        3   -1    0    0  501    0  0.00000000000E+00  0.00000000000E+00  0.11392788207E+04  0.11392788252E+04  0.10100000352E+00 0. -1.
       -3   -1    0    0    0  501  0.00000000000E+00  0.00000000000E+00 -0.20924281837E+04  0.20924281862E+04  0.10100000352E+00 0.  1.
    10030    2    1    2    0    0  0.00000000000E+00  0.00000000000E+00 -0.95314936301E+03  0.32317070114E+04  0.30879502100E+04 0.  0.
        5    1    3    3  502    0 -0.19407097138E+03 -0.55021609093E+03 -0.19726111642E+04  0.20570897364E+04  0.46999998093E+01 0.  1.
       -5    1    3    3    0  502  0.19407097138E+03  0.55021609093E+03  0.10194618012E+04  0.11746172750E+04  0.46999998093E+01 0. -1.
</event>
<event>
 5   0  0.7071012E-06  0.2153593E+04  0.7818609E-02  0.8537996E-01
        2   -1    0    0  501    0  0.00000000000E+00  0.00000000000E+00  0.15668955647E+04  0.15668955647E+04  0.25500000920E-02 0. -1.
       -2   -1    0    0    0  501  0.00000000000E+00  0.00000000000E+00 -0.73999248675E+03  0.73999248676E+03  0.25500000920E-02 0.  1.
    10030    2    1    2    0    0  0.00000000000E+00  0.00000000000E+00  0.82690307792E+03  0.23068880514E+04  0.21535932256E+04 0.  0.
        1    1    3    3  502    0 -0.36197679287E+02 -0.10575734424E+04  0.19996894372E+03  0.10769212768E+04  0.50400001928E-02 0.  1.
       -1    1    3    3    0  502  0.36197679287E+02  0.10575734424E+04  0.62693413420E+03  0.12299667746E+04  0.50400001928E-02 0. -1.
</event>
<event>
 5   0  0.7094341E-06  0.3065159E+04  0.7818609E-02  0.8225365E-01
       -2   -1    0    0    0  501  0.00000000000E+00  0.00000000000E+00  0.18151515495E+04  0.18151515495E+04  0.25500000920E-02 0.  1.
        2   -1    0    0  501    0  0.00000000000E+00  0.00000000000E+00 -0.12939962092E+04  0.12939962092E+04  0.25500000920E-02 0. -1.
    10030    2    1    2    0    0  0.00000000000E+00  0.00000000000E+00  0.52115534033E+03  0.31091477587E+04  0.30651585435E+04 0.  0.
        3    1    3    3  502    0 -0.93229078517E+03 -0.15837625094E+03 -0.96277804852E+03  0.13495149965E+04  0.10100000352E+00 0. -1.
       -3    1    3    3    0  502  0.93229078517E+03  0.15837625094E+03  0.14839333889E+04  0.17596327622E+04  0.10100000352E+00 0.  1.
</event>
<event>
 5   0  0.2624011E-06  0.3145098E+04  0.7818609E-02  0.8203469E-01
        1   -1    0    0  501    0  0.00000000000E+00  0.00000000000E+00  0.82712933767E+03  0.82712933768E+03  0.50400001928E-02 0. -1.
       -1   -1    0    0    0  501  0.00000000000E+00  0.00000000000E+00 -0.29897504366E+04  0.29897504366E+04  0.50400001928E-02 0.  1.
    10030    2    1    2    0    0  0.00000000000E+00  0.00000000000E+00 -0.21626210989E+04  0.38168797743E+04  0.31450979625E+04 0.  0.
        1    1    3    3  502    0 -0.92299974313E+03 -0.38536054739E+03  0.39133714326E+03  0.10740465712E+04  0.50400001928E-02 0. -1.
       -1    1    3    3    0  502  0.92299974313E+03  0.38536054739E+03 -0.25539582422E+04  0.27428332031E+04  0.50400001928E-02 0.  1.
</event>
<event>
 5   0  0.2598987E-06  0.3022201E+04  0.7818609E-02  0.8237420E-01
        1   -1    0    0  501    0  0.00000000000E+00  0.00000000000E+00  0.16797241013E+04  0.16797241014E+04  0.50400001928E-02 0.  1.
       -1   -1    0    0    0  501  0.00000000000E+00  0.00000000000E+00 -0.13594044118E+04  0.13594044118E+04  0.50400001928E-02 0. -1.
    10030    2    1    2    0    0  0.00000000000E+00  0.00000000000E+00  0.32031968958E+03  0.30391285131E+04  0.30222007570E+04 0.  0.
        2    1    3    3  502    0 -0.14495852608E+04 -0.42537964835E+03  0.19468991334E+03  0.15232036752E+04  0.25500000920E-02 0.  1.
       -2    1    3    3    0  502  0.14495852608E+04  0.42537964835E+03  0.12562977625E+03  0.15159248380E+04  0.25500000920E-02 0. -1.
</event>
<event>
 5   0  0.7071012E-06  0.2944137E+04  0.7818609E-02  0.8259865E-01
        2   -1    0    0  501    0  0.00000000000E+00  0.00000000000E+00  0.15522333608E+04  0.15522333608E+04  0.25500000920E-02 0. -1.
       -2   -1    0    0    0  501  0.00000000000E+00  0.00000000000E+00 -0.13960434150E+04  0.13960434150E+04  0.25500000920E-02 0.  1.
    10030    2    1    2    0    0  0.00000000000E+00  0.00000000000E+00  0.15618994585E+03  0.29482767758E+04  0.29441366557E+04 0.  0.
        1    1    3    3  502    0 -0.99938536441E+03  0.35888121583E+03  0.10990473209E+04  0.15282250643E+04  0.50400001928E-02 0. -1.
       -1    1    3    3    0  502  0.99938536441E+03 -0.35888121583E+03 -0.94285737502E+03  0.14200517115E+04  0.50400001928E-02 0.  1.
</event>
<event>
 5   0  0.7094341E-06  0.3089202E+04  0.7818609E-02  0.8218708E-01
       -2   -1    0    0    0  501  0.00000000000E+00  0.00000000000E+00  0.93991581868E+03  0.93991581868E+03  0.25500000920E-02 0. -1.
        2   -1    0    0  501    0  0.00000000000E+00  0.00000000000E+00 -0.25383041492E+04  0.25383041492E+04  0.25500000920E-02 0.  1.
    10030    2    1    2    0    0  0.00000000000E+00  0.00000000000E+00 -0.15983883305E+04  0.34782199679E+04  0.30892019827E+04 0.  0.
        3    1    3    3  502    0 -0.11993857747E+04 -0.84975793429E+03 -0.13334793934E+04  0.19846365124E+04  0.10100000352E+00 0.  1.
       -3    1    3    3    0  502  0.11993857747E+04  0.84975793429E+03 -0.26490893715E+03  0.14935834555E+04  0.10100000352E+00 0. -1.
</event>
<event>
 5   0  0.2674441E-06  0.3164443E+04  0.7818609E-02  0.8198271E-01
        1   -1    0    0  501    0  0.00000000000E+00  0.00000000000E+00  0.76218201873E+03  0.76218201875E+03  0.50400001928E-02 0. -1.
       -1   -1    0    0    0  501  0.00000000000E+00  0.00000000000E+00 -0.32845499654E+04  0.32845499654E+04  0.50400001928E-02 0.  1.
    10030    2    1    2    0    0  0.00000000000E+00  0.00000000000E+00 -0.25223679467E+04  0.40467319841E+04  0.31644430305E+04 0.  0.
        5    1    3    3  502    0  0.18190936488E+03 -0.11883289634E+04  0.54307946513E+02  0.12034069076E+04  0.46999998093E+01 0. -1.
       -5    1    3    3    0  502 -0.18190936488E+03  0.11883289634E+04 -0.25766758932E+04  0.28433250765E+04  0.46999998093E+01 0.  1.
</event>
<event>
 5   0  0.7094341E-06  0.3042194E+04  0.7818609E-02  0.8231784E-01
        2   -1    0    0  501    0  0.00000000000E+00  0.00000000000E+00  0.14274930241E+04  0.14274930241E+04  0.25500000920E-02 0.  1.
       -2   -1    0    0    0  501  0.00000000000E+00  0.00000000000E+00 -0.16208384823E+04  0.16208384823E+04  0.25500000920E-02 0. -1.
    10030    2    1    2    0    0  0.00000000000E+00  0.00000000000E+00 -0.19334545818E+03  0.30483315063E+04  0.30421936997E+04 0.  0.
        3    1    3    3  502    0  0.10954739867E+03 -0.12048175273E+04 -0.10205686245E+04  0.15827653756E+04  0.10100000352E+00 0. -1.
       -3    1    3    3    0  502 -0.10954739867E+03  0.12048175273E+04  0.82722316634E+03  0.14655661308E+04  0.10100000352E+00 0.  1.
</event>
<event>
 5   0  0.2612331E-06  0.3155120E+04  0.7818609E-02  0.8200772E-01
        1   -1    0    0  501    0  0.00000000000E+00  0.00000000000E+00  0.14359153360E+04  0.14359153360E+04  0.50400001928E-02 0. -1.
       -1   -1    0    0    0  501  0.00000000000E+00  0.00000000000E+00 -0.17331765942E+04  0.17331765942E+04  0.50400001928E-02 0.  1.
    10030    2    1    2    0    0  0.00000000000E+00  0.00000000000E+00 -0.29726125816E+03  0.31690919302E+04  0.31551195551E+04 0.  0.
        4    1    3    3  502    0  0.96021585264E+03  0.73828277380E+03 -0.11638575763E+04  0.16797743922E+04  0.12699999809E+01 0.  1.
       -4    1    3    3    0  502 -0.96021585264E+03 -0.73828277380E+03  0.86659631813E+03  0.14893175381E+04  0.12699999809E+01 0. -1.
</event>
<event>
 5   0  0.2612331E-06  0.3117535E+04  0.7818609E-02  0.8210942E-01
        1   -1    0    0  501    0  0.00000000000E+00  0.00000000000E+00  0.12198531656E+04  0.12198531656E+04  0.50400001928E-02 0.  1.
       -1   -1    0    0    0  501  0.00000000000E+00  0.00000000000E+00 -0.19918427283E+04  0.19918427284E+04  0.50400001928E-02 0. -1.
    10030    2    1    2    0    0  0.00000000000E+00  0.00000000000E+00 -0.77198956279E+03  0.32116958939E+04  0.31175347039E+04 0.  0.
        4    1    3    3  502    0  0.75122443668E+02 -0.12148996300E+03 -0.19850856500E+04  0.19902185416E+04  0.12699999809E+01 0. -1.
       -4    1    3    3    0  502 -0.75122443668E+02  0.12148996300E+03  0.12130960872E+04  0.12214773523E+04  0.12699999809E+01 0.  1.
</event>
<event>
 5   0  0.7094341E-06  0.3084772E+04  0.7818609E-02  0.8219930E-01
       -2   -1    0    0    0  501  0.00000000000E+00  0.00000000000E+00  0.14807394153E+04  0.14807394153E+04  0.25500000920E-02 0. -1.
        2   -1    0    0  501    0  0.00000000000E+00  0.00000000000E+00 -0.16065992342E+04  0.16065992342E+04  0.25500000920E-02 0.  1.
    10030    2    1    2    0    0  0.00000000000E+00  0.00000000000E+00 -0.12585981894E+03  0.30873386495E+04  0.30847721541E+04 0.  0.
        3    1    3    3  502    0  0.14158503531E+04  0.38715885012E+03 -0.53706512822E+03  0.15629981317E+04  0.10100000352E+00 0.  1.
       -3    1    3    3    0  502 -0.14158503531E+04 -0.38715885012E+03  0.41120530929E+03  0.15243405178E+04  0.10100000352E+00 0. -1.
</event>
<event>
 5   0  0.2517725E-06  0.3254640E+04  0.7818609E-02  0.8174534E-01
        1   -1    0    0  501    0  0.00000000000E+00  0.00000000000E+00  0.15572046992E+04  0.15572046992E+04  0.50400001928E-02 0.  1.
       -1   -1    0    0    0  501  0.00000000000E+00  0.00000000000E+00 -0.17005923556E+04  0.17005923556E+04  0.50400001928E-02 0. -1.
    10030    2    1    2    0    0  0.00000000000E+00  0.00000000000E+00 -0.14338765648E+03  0.32577970548E+04  0.32546400155E+04 0.  0.
        3    1    3    3  502    0 -0.46412445284E+03 -0.36822648808E+02 -0.16325020321E+04  0.16975954495E+04  0.10100000352E+00 0. -1.
       -3    1    3    3    0  502  0.46412445284E+03  0.36822648808E+02  0.14891143756E+04  0.15602016053E+04  0.10100000352E+00 0.  1.
</event>
<event>
 5   0  0.2624011E-06  0.2778149E+04  0.7818609E-02  0.8310085E-01
       -1   -1    0    0    0  501  0.00000000000E+00  0.00000000000E+00  0.14463253387E+04  0.14463253387E+04  0.50400001928E-02 0. -1.
        1   -1    0    0  501    0  0.00000000000E+00  0.00000000000E+00 -0.13340896511E+04  0.13340896511E+04  0.50400001928E-02 0.  1.
    10030    2    1    2    0    0  0.00000000000E+00  0.00000000000E+00  0.11223568758E+03  0.27804149899E+04  0.27781487841E+04 0.  0.
        1    1    3    3  502    0 -0.43247925414E+03 -0.21487265499E+03 -0.12473727363E+04  0.13375901115E+04  0.50400001928E-02 0.  1.
       -1    1    3    3    0  502  0.43247925414E+03  0.21487265499E+03  0.13596084239E+04  0.14428248783E+04  0.50400001928E-02 0. -1.
</event>
<event>
 5   0  0.2612331E-06  0.3104854E+04  0.7818609E-02  0.8214407E-01
        1   -1    0    0  501    0  0.00000000000E+00  0.00000000000E+00  0.23456985516E+04  0.23456985516E+04  0.50400001928E-02 0. -1.
       -1   -1    0    0    0  501  0.00000000000E+00  0.00000000000E+00 -0.10274253029E+04  0.10274253029E+04  0.50400001928E-02 0.  1.
    10030    2    1    2    0    0  0.00000000000E+00  0.00000000000E+00  0.13182732487E+04  0.33731238544E+04  0.31048542927E+04 0.  0.
        4    1    3    3  502    0 -0.11974497675E+04 -0.57597702812E+03  0.15312369603E+04  0.20273933324E+04  0.12699999809E+01 0. -1.
       -4    1    3    3    0  502  0.11974497675E+04  0.57597702812E+03 -0.21296371161E+03  0.13457305221E+04  0.12699999809E+01 0.  1.
</event>
<event>
 5   0  0.7414808E-06  0.3152165E+04  0.7818609E-02  0.8201566E-01
       -2   -1    0    0    0  501  0.00000000000E+00  0.00000000000E+00  0.13949376338E+04  0.13949376338E+04  0.25500000920E-02 0. -1.
        2   -1    0    0  501    0  0.00000000000E+00  0.00000000000E+00 -0.17807505456E+04  0.17807505456E+04  0.25500000920E-02 0.  1.
    10030    2    1    2    0    0  0.00000000000E+00  0.00000000000E+00 -0.38581291176E+03  0.31756881795E+04  0.31521649402E+04 0.  0.
        2    1    3    3  502    0 -0.11279870305E+04  0.54830394836E+03 -0.11545156175E+04  0.17046695492E+04  0.25500000920E-02 0.  1.
       -2    1    3    3    0  502  0.11279870305E+04 -0.54830394836E+03  0.76870270573E+03  0.14710186303E+04  0.25500000920E-02 0. -1.
</event>
<event>
 5   0  0.7414808E-06  0.2010220E+04  0.7818609E-02  0.8601857E-01
       -2   -1    0    0    0  501  0.00000000000E+00  0.00000000000E+00  0.10868636036E+04  0.10868636037E+04  0.25500000920E-02 0.  1.
        2   -1    0    0  501    0  0.00000000000E+00  0.00000000000E+00 -0.92950590143E+03  0.92950590143E+03  0.25500000920E-02 0. -1.
    10030    2    1    2    0    0  0.00000000000E+00  0.00000000000E+00  0.15735770222E+03  0.20163695051E+04  0.20102200214E+04 0.  0.
        2    1    3    3  502    0 -0.57025913028E+03  0.77011105842E+03 -0.22553033335E+03  0.98444423368E+03  0.25500000920E-02 0. -1.
       -2    1    3    3    0  502  0.57025913028E+03 -0.77011105842E+03  0.38288803557E+03  0.10319252714E+04  0.25500000920E-02 0.  1.
</event>
<event>
 5   0  0.7414808E-06  0.3126606E+04  0.7818609E-02  0.8208474E-01
        2   -1    0    0  501    0  0.00000000000E+00  0.00000000000E+00  0.24304946097E+04  0.24304946097E+04  0.25500000920E-02 0.  1.
       -2   -1    0    0    0  501  0.00000000000E+00  0.00000000000E+00 -0.10055222029E+04  0.10055222029E+04  0.25500000920E-02 0. -1.
    10030    2    1    2    0    0  0.00000000000E+00  0.00000000000E+00  0.14249724068E+04  0.34360168125E+04  0.31266060154E+04 0.  0.
        2    1    3    3  502    0  0.78567817242E+02  0.55948825460E+03 -0.88940344287E+03  0.10536785530E+04  0.25500000920E-02 0. -1.
       -2    1    3    3    0  502 -0.78567817242E+02 -0.55948825460E+03  0.23143758497E+04  0.23823382595E+04  0.25500000920E-02 0.  1.
</event>
<event>
 5   0  0.2598987E-06  0.2964424E+04  0.7818609E-02  0.8253963E-01
       -1   -1    0    0    0  501  0.00000000000E+00  0.00000000000E+00  0.13284535037E+04  0.13284535037E+04  0.50400001928E-02 0. -1.
        1   -1    0    0  501    0  0.00000000000E+00  0.00000000000E+00 -0.16537672534E+04  0.16537672534E+04  0.50400001928E-02 0.  1.
    10030    2    1    2    0    0  0.00000000000E+00  0.00000000000E+00 -0.32531374972E+03  0.29822207571E+04  0.29644243300E+04 0.  0.
        2    1    3    3  502    0 -0.27602633324E+02 -0.12419093605E+04 -0.97612247724E+03  0.15798467824E+04  0.25500000920E-02 0.  1.
       -2    1    3    3    0  502  0.27602633324E+02  0.12419093605E+04  0.65080872752E+03  0.14023739747E+04  0.25500000920E-02 0. -1.
</event>
<event>
 5   0  0.2612331E-06  0.2924329E+04  0.7818609E-02  0.8265676E-01
       -1   -1    0    0    0  501  0.00000000000E+00  0.00000000000E+00  0.16875628628E+04  0.16875628628E+04  0.50400001928E-02 0.  1.
        1   -1    0    0  501    0  0.00000000000E+00  0.00000000000E+00 -0.12668711648E+04  0.12668711648E+04  0.50400001928E-02 0. -1.
    10030    2    1    2    0    0  0.00000000000E+00  0.00000000000E+00  0.42069169801E+03  0.29544340276E+04  0.29243287980E+04 0.  0.
        4    1    3    3  502    0  0.10150075544E+04  0.58113857687E+03  0.10968532894E+04  0.16034497599E+04  0.12699999809E+01 0.  1.
       -4    1    3    3    0  502 -0.10150075544E+04 -0.58113857687E+03 -0.67616159143E+03  0.13509842677E+04  0.12699999809E+01 0. -1.
</event>
<event>
 5   0  0.2517725E-06  0.3094992E+04  0.7818609E-02  0.8217114E-01
        1   -1    0    0  501    0  0.00000000000E+00  0.00000000000E+00  0.15274487475E+04  0.15274487475E+04  0.50400001928E-02 0. -1.
       -1   -1    0    0    0  501  0.00000000000E+00  0.00000000000E+00 -0.15678058837E+04  0.15678058837E+04  0.50400001928E-02 0.  1.
    10030    2    1    2    0    0  0.00000000000E+00  0.00000000000E+00 -0.40357136239E+02  0.30952546312E+04  0.30949915240E+04 0.  0.
        3    1    3    3  502    0 -0.55079782555E+03  0.95989231993E+03 -0.11019227806E+04  0.15617315182E+04  0.10100000352E+00 0.  1.
       -3    1    3    3    0  502  0.55079782555E+03 -0.95989231993E+03  0.10615656443E+04  0.15335231129E+04  0.10100000352E+00 0. -1.
</event>
<event>
 5   0  0.7079223E-06  0.2877308E+04  0.7818609E-02  0.8279661E-01
        2   -1    0    0  501    0  0.00000000000E+00  0.00000000000E+00  0.13697752894E+04  0.13697752894E+04  0.25500000920E-02 0. -1.
       -2   -1    0    0    0  501  0.00000000000E+00  0.00000000000E+00 -0.15109964601E+04  0.15109964601E+04  0.25500000920E-02 0.  1.
    10030    2    1    2    0    0  0.00000000000E+00  0.00000000000E+00 -0.14122117065E+03  0.28807717495E+04  0.28773081958E+04 0.  0.
        5    1    3    3  502    0 -0.77785580647E+03 -0.64841499113E+03  0.95248143973E+03  0.13902318653E+04  0.46999998093E+01 0. -1.
       -5    1    3    3    0  502  0.77785580647E+03  0.64841499113E+03 -0.10937026104E+04  0.14905398842E+04  0.46999998093E+01 0.  1.
</event>
<event>
 5   0  0.2612331E-06  0.3060362E+04  0.7818609E-02  0.8226701E-01
       -1   -1    0    0    0  501  0.00000000000E+00  0.00000000000E+00  0.14999717179E+04  0.14999717179E+04  0.50400001928E-02 0.  1.
        1   -1    0    0  501    0  0.00000000000E+00  0.00000000000E+00 -0.15609990997E+04  0.15609990997E+04  0.50400001928E-02 0. -1.
    10030    2    1    2    0    0  0.00000000000E+00  0.00000000000E+00 -0.61027381805E+02  0.30609708176E+04  0.30603623976E+04 0.  0.
        4    1    3    3  502    0  0.65398751766E+02 -0.85889983163E+03 -0.12954654698E+04  0.15557050857E+04  0.12699999809E+01 0. -1.
       -4    1    3    3    0  502 -0.65398751766E+02  0.85889983163E+03  0.12344380880E+04  0.15052657318E+04  0.12699999809E+01 0.  1.
</event>
<event>
 5   0  0.7079223E-06  0.3207869E+04  0.7818609E-02  0.8186742E-01
       -2   -1    0    0    0  501  0.00000000000E+00  0.00000000000E+00  0.13894272698E+04  0.13894272698E+04  0.25500000920E-02 0. -1.
        2   -1    0    0  501    0  0.00000000000E+00  0.00000000000E+00 -0.18515588950E+04  0.18515588950E+04  0.25500000920E-02 0.  1.
    10030    2    1    2    0    0  0.00000000000E+00  0.00000000000E+00 -0.46213162513E+03  0.32409861648E+04  0.32078693367E+04 0.  0.
        5    1    3    3  502    0 -0.80485631479E+03  0.10445685256E+04  0.69141400710E+03  0.14889568534E+04  0.46999998093E+01 0. -1.
       -5    1    3    3    0  502  0.80485631479E+03 -0.10445685256E+04 -0.11535456322E+04  0.17520293113E+04  0.46999998093E+01 0.  1.
</event>
<event>
 5   0  0.2612331E-06  0.3109519E+04  0.7818609E-02  0.8213130E-01
       -1   -1    0    0    0  501  0.00000000000E+00  0.00000000000E+00  0.12690933535E+04  0.12690933535E+04  0.50400001928E-02 0. -1.
        1   -1    0    0  501    0  0.00000000000E+00  0.00000000000E+00 -0.19047281212E+04  0.19047281212E+04  0.50400001928E-02 0.  1.
    10030    2    1    2    0    0  0.00000000000E+00  0.00000000000E+00 -0.63563476768E+03  0.31738214747E+04  0.31095194477E+04 0.  0.
        4    1    3    3  502    0 -0.98053539628E+02 -0.36219817854E+03 -0.18578168857E+04  0.18953330079E+04  0.12699999809E+01 0.  1.
       -4    1    3    3    0  502  0.98053539628E+02  0.36219817854E+03  0.12221821180E+04  0.12784884668E+04  0.12699999809E+01 0. -1.
</event>
<event>
 5   0  0.2674441E-06  0.3059599E+04  0.7818609E-02  0.8226914E-01
       -1   -1    0    0    0  501  0.00000000000E+00  0.00000000000E+00  0.20566443246E+04  0.20566443246E+04  0.50400001928E-02 0. -1.
        1   -1    0    0  501    0  0.00000000000E+00  0.00000000000E+00 -0.11379151121E+04  0.11379151121E+04  0.50400001928E-02 0.  1.
    10030    2    1    2    0    0  0.00000000000E+00  0.00000000000E+00  0.91872921252E+03  0.31945594368E+04  0.30595990961E+04 0.  0.
        5    1    3    3  502    0 -0.12708719059E+04 -0.69785106939E+03 -0.50170983470E+02  0.14507414428E+04  0.46999998093E+01 0.  1.
       -5    1    3    3    0  502  0.12708719059E+04  0.69785106939E+03  0.96890019599E+03  0.17438179940E+04  0.46999998093E+01 0. -1.
</event>
<event>
 5   0  0.2517725E-06  0.3064472E+04  0.7818609E-02  0.8225556E-01
        1   -1    0    0  501    0  0.00000000000E+00  0.00000000000E+00  0.91891020988E+03  0.91891020989E+03  0.50400001928E-02 0.  1.
       -1   -1    0    0    0  501  0.00000000000E+00  0.00000000000E+00 -0.25549257414E+04  0.25549257414E+04  0.50400001928E-02 0. -1.
    10030    2    1    2    0    0  0.00000000000E+00  0.00000000000E+00 -0.16360155315E+04  0.34738359512E+04  0.30644721237E+04 0.  0.
        3    1    3    3  502    0  0.14491430739E+04  0.11525701759E+03 -0.13668865483E+04  0.19954144118E+04  0.10100000352E+00 0.  1.
       -3    1    3    3    0  502 -0.14491430739E+04 -0.11525701759E+03 -0.26912898319E+03  0.14784215395E+04  0.10100000352E+00 0. -1.
</event>
<event>
 5   0  0.2624011E-06  0.2534525E+04  0.7818609E-02  0.8390788E-01
        1   -1    0    0  501    0  0.00000000000E+00  0.00000000000E+00  0.16800749710E+04  0.16800749710E+04  0.50400001928E-02 0. -1.
       -1   -1    0    0    0  501  0.00000000000E+00  0.00000000000E+00 -0.95588259500E+03  0.95588259501E+03  0.50400001928E-02 0.  1.
    10030    2    1    2    0    0  0.00000000000E+00  0.00000000000E+00  0.72419237597E+03  0.26359575660E+04  0.25345251414E+04 0.  0.
        1    1    3    3  502    0  0.10719369381E+04  0.60201613639E+03  0.68177716865E+03  0.14058066494E+04  0.50400001928E-02 0. -1.
       -1    1    3    3    0  502 -0.10719369381E+04 -0.60201613639E+03  0.42415207327E+02  0.12301509166E+04  0.50400001928E-02 0.  1.
</event>
<event>
 5   0  0.7363513E-06  0.3045406E+04  0.7818609E-02  0.8230883E-01
       -2   -1    0    0    0  501  0.00000000000E+00  0.00000000000E+00  0.10576926575E+04  0.10576926575E+04  0.25500000920E-02 0.  1.
        2   -1    0    0  501    0  0.00000000000E+00  0.00000000000E+00 -0.21921527712E+04  0.21921527712E+04  0.25500000920E-02 0. -1.
    10030    2    1    2    0    0  0.00000000000E+00  0.00000000000E+00 -0.11344601138E+04  0.32498454287E+04  0.30454056480E+04 0.  0.
        4    1    3    3  502    0  0.66457091704E+03  0.18262840826E+03  0.88171737771E+03  0.11191223286E+04  0.12699999809E+01 0.  1.
       -4    1    3    3    0  502 -0.66457091704E+03 -0.18262840826E+03 -0.20161774915E+04  0.21307231001E+04  0.12699999809E+01 0. -1.
</event>
<event>
 5   0  0.7414808E-06  0.3017864E+04  0.7818609E-02  0.8238648E-01
        2   -1    0    0  501    0  0.00000000000E+00  0.00000000000E+00  0.22524244071E+04  0.22524244071E+04  0.25500000920E-02 0. -1.
       -2   -1    0    0    0  501  0.00000000000E+00  0.00000000000E+00 -0.10108557110E+04  0.10108557110E+04  0.25500000920E-02 0.  1.
    10030    2    1    2    0    0  0.00000000000E+00  0.00000000000E+00  0.12415686961E+04  0.32632801181E+04  0.30178641955E+04 0.  0.
        2    1    3    3  502    0  0.58657681648E+03  0.11620781677E+04  0.14459804351E+04  0.19455995087E+04  0.25500000920E-02 0. -1.
       -2    1    3    3    0  502 -0.58657681648E+03 -0.11620781677E+04 -0.20441173897E+03  0.13176806094E+04  0.25500000920E-02 0.  1.
</event>
<event>
 5   0  0.2517725E-06  0.3066468E+04  0.7818609E-02  0.8225001E-01
        1   -1    0    0  501    0  0.00000000000E+00  0.00000000000E+00  0.19219730978E+04  0.19219730978E+04  0.50400001928E-02 0. -1.
       -1   -1    0    0    0  501  0.00000000000E+00  0.00000000000E+00 -0.12231215959E+04  0.12231215960E+04  0.50400001928E-02 0.  1.
    10030    2    1    2    0    0  0.00000000000E+00  0.00000000000E+00  0.69885150189E+03  0.31450946938E+04  0.30664681983E+04 0.  0.
        3    1    3    3  502    0 -0.11379884039E+04  0.83387088957E+02 -0.70096045008E+03  0.13391477053E+04  0.10100000352E+00 0.  1.
       -3    1    3    3    0  502  0.11379884039E+04 -0.83387088957E+02  0.13998119520E+04  0.18059469884E+04  0.10100000352E+00 0. -1.
</event>
<event>
 5   0  0.7094341E-06  0.3132557E+04  0.7818609E-02  0.8206859E-01
       -2   -1    0    0    0  501  0.00000000000E+00  0.00000000000E+00  0.13206726345E+04  0.13206726345E+04  0.25500000920E-02 0. -1.
        2   -1    0    0  501    0  0.00000000000E+00  0.00000000000E+00 -0.18575599550E+04  0.18575599550E+04  0.25500000920E-02 0.  1.
    10030    2    1    2    0    0  0.00000000000E+00  0.00000000000E+00 -0.53688732050E+03  0.31782325894E+04  0.31325571659E+04 0.  0.
        3    1    3    3  502    0 -0.47064556750E+03 -0.70418296378E+02  0.12455485159E+04  0.13333630797E+04  0.10100000352E+00 0. -1.
       -3    1    3    3    0  502  0.47064556750E+03  0.70418296378E+02 -0.17824358364E+04  0.18448695097E+04  0.10100000352E+00 0.  1.
</event>
<event>
 5   0  0.2624011E-06  0.3105057E+04  0.7818609E-02  0.8214351E-01
        1   -1    0    0  501    0  0.00000000000E+00  0.00000000000E+00  0.14309458904E+04  0.14309458904E+04  0.50400001928E-02 0.  1.
       -1   -1    0    0    0  501  0.00000000000E+00  0.00000000000E+00 -0.16844415441E+04  0.16844415441E+04  0.50400001928E-02 0. -1.
    10030    2    1    2    0    0  0.00000000000E+00  0.00000000000E+00 -0.25349565374E+03  0.31153874345E+04  0.31050569754E+04 0.  0.
        1    1    3    3  502    0 -0.15235859567E+04  0.29741473177E+03 -0.10268857993E+03  0.15557360428E+04  0.50400001928E-02 0.  1.
       -1    1    3    3    0  502  0.15235859567E+04 -0.29741473177E+03 -0.15080707381E+03  0.15596513917E+04  0.50400001928E-02 0. -1.
</event>
<event>
 5   0  0.2612331E-06  0.3042084E+04  0.7818609E-02  0.8231814E-01
        1   -1    0    0  501    0  0.00000000000E+00  0.00000000000E+00  0.28424359576E+04  0.28424359576E+04  0.50400001928E-02 0. -1.
       -1   -1    0    0    0  501  0.00000000000E+00  0.00000000000E+00 -0.81393900736E+03  0.81393900738E+03  0.50400001928E-02 0.  1.
    10030    2    1    2    0    0  0.00000000000E+00  0.00000000000E+00  0.20284969502E+04  0.36563749650E+04  0.30420844839E+04 0.  0.
        4    1    3    3  502    0 -0.13133283215E+04  0.76619101621E+03  0.96486775724E+03  0.18007918689E+04  0.12699999809E+01 0. -1.
       -4    1    3    3    0  502  0.13133283215E+04 -0.76619101621E+03  0.10636291930E+04  0.18555830960E+04  0.12699999809E+01 0.  1.
</event>
<event>
 5   0  0.2674441E-06  0.3137404E+04  0.7818609E-02  0.8205547E-01
       -1   -1    0    0    0  501  0.00000000000E+00  0.00000000000E+00  0.12762975102E+04  0.12762975102E+04  0.50400001928E-02 0. -1.
        1   -1    0    0  501    0  0.00000000000E+00  0.00000000000E+00 -0.19280968582E+04  0.19280968582E+04  0.50400001928E-02 0.  1.
    10030    2    1    2    0    0  0.00000000000E+00  0.00000000000E+00 -0.65179934804E+03  0.32043943684E+04  0.31374035249E+04 0.  0.
        5    1    3    3  502    0 -0.69404250941E+03  0.58875963166E+03  0.97906337208E+03  0.13367573023E+04  0.46999998093E+01 0.  1.
       -5    1    3    3    0  502  0.69404250941E+03 -0.58875963166E+03 -0.16308627201E+04  0.18676370661E+04  0.46999998093E+01 0. -1.
</event>
<event>
 5   0  0.7094341E-06  0.2273666E+04  0.7818609E-02  0.8488377E-01
        2   -1    0    0  501    0  0.00000000000E+00  0.00000000000E+00  0.13333159887E+04  0.13333159887E+04  0.25500000920E-02 0.  1.
       -2   -1    0    0    0  501  0.00000000000E+00  0.00000000000E+00 -0.96930464243E+03  0.96930464243E+03  0.25500000920E-02 0. -1.
    10030    2    1    2    0    0  0.00000000000E+00  0.00000000000E+00  0.36401134630E+03  0.23026206312E+04  0.22736660948E+04 0.  0.
        3    1    3    3  502    0 -0.86062878522E+03 -0.52607682276E+03  0.71304058266E+03  0.12352593299E+04  0.10100000352E+00 0. -1.
       -3    1    3    3    0  502  0.86062878522E+03  0.52607682276E+03 -0.34902923635E+03  0.10673613013E+04  0.10100000352E+00 0.  1.
</event>
<event>
 5   0  0.2624011E-06  0.3052526E+04  0.7818609E-02  0.8228889E-01
       -1   -1    0    0    0  501  0.00000000000E+00  0.00000000000E+00  0.13886645931E+04  0.13886645931E+04  0.50400001928E-02 0. -1.
        1   -1    0    0  501    0  0.00000000000E+00  0.00000000000E+00 -0.16774956170E+04  0.16774956170E+04  0.50400001928E-02 0.  1.
    10030    2    1    2    0    0  0.00000000000E+00  0.00000000000E+00 -0.28883102383E+03  0.30661602101E+04  0.30525260152E+04 0.  0.
        1    1    3    3  502    0 -0.12444155019E+04 -0.14333858429E+02 -0.10319362217E+04  0.16166841889E+04  0.50400001928E-02 0.  1.
       -1    1    3    3    0  502  0.12444155019E+04  0.14333858429E+02  0.74310519788E+03  0.14494760212E+04  0.50400001928E-02 0. -1.
</event>
<event>
 5   0  0.7071012E-06  0.3129301E+04  0.7818609E-02  0.8207742E-01
        2   -1    0    0  501    0  0.00000000000E+00  0.00000000000E+00  0.19623795690E+04  0.19623795690E+04  0.25500000920E-02 0.  1.
       -2   -1    0    0    0  501  0.00000000000E+00  0.00000000000E+00 -0.12475320970E+04  0.12475320970E+04  0.25500000920E-02 0. -1.
    10030    2    1    2    0    0  0.00000000000E+00  0.00000000000E+00  0.71484747200E+03  0.32099116660E+04  0.31293011992E+04 0.  0.
        1    1    3    3  502    0 -0.58991676571E+03 -0.11941975174E+04 -0.48471326607E+03  0.14174118849E+04  0.50400001928E-02 0. -1.
       -1    1    3    3    0  502  0.58991676571E+03  0.11941975174E+04  0.11995607381E+04  0.17924997811E+04  0.50400001928E-02 0.  1.
</event>
<event>
 5   0  0.2612331E-06  0.3158434E+04  0.7818609E-02  0.8199882E-01
        1   -1    0    0  501    0  0.00000000000E+00  0.00000000000E+00  0.17161527977E+04  0.17161527977E+04  0.50400001928E-02 0.  1.
       -1   -1    0    0    0  501  0.00000000000E+00  0.00000000000E+00 -0.14532078923E+04  0.14532078923E+04  0.50400001928E-02 0. -1.
    10030    2    1    2    0    0  0.00000000000E+00  0.00000000000E+00  0.26294490541E+03  0.31693606900E+04  0.31584342894E+04 0.  0.
        4    1    3    3  502    0  0.44398173625E+03  0.14008087600E+04 -0.44892297919E+03  0.15365280402E+04  0.12699999809E+01 0. -1.
       -4    1    3    3    0  502 -0.44398173625E+03 -0.14008087600E+04  0.71186788460E+03  0.16328326498E+04  0.12699999809E+01 0.  1.
</event>
<event>
 5   0  0.2674441E-06  0.1957882E+04  0.7818609E-02  0.8626569E-01
       -1   -1    0    0    0  501  0.00000000000E+00  0.00000000000E+00  0.65971816680E+03  0.65971816682E+03  0.50400001928E-02 0.  1.
        1   -1    0    0  501    0  0.00000000000E+00  0.00000000000E+00 -0.14526282288E+04  0.14526282288E+04  0.50400001928E-02 0. -1.
    10030    2    1    2    0    0  0.00000000000E+00  0.00000000000E+00 -0.79291006201E+03  0.21123463956E+04  0.19578817453E+04 0.  0.
        5    1    3    3  502    0 -0.70808684076E+02  0.29581185237E+03 -0.14003392201E+04  0.14330005384E+04  0.46999998093E+01 0. -1.
       -5    1    3    3    0  502  0.70808684076E+02 -0.29581185237E+03  0.60742915805E+03  0.67934585727E+03  0.46999998093E+01 0.  1.
</event>
<event>
 5   0  0.2598987E-06  0.3123601E+04  0.7818609E-02  0.8209291E-01
       -1   -1    0    0    0  501  0.00000000000E+00  0.00000000000E+00  0.14330252788E+04  0.14330252788E+04  0.50400001928E-02 0. -1.
        1   -1    0    0  501    0  0.00000000000E+00  0.00000000000E+00 -0.17021474302E+04  0.17021474302E+04  0.50400001928E-02 0.  1.
    10030    2    1    2    0    0  0.00000000000E+00  0.00000000000E+00 -0.26912215140E+03  0.31351727090E+04  0.31236006760E+04 0.  0.
        2    1    3    3  502    0  0.14422902779E+04 -0.58317490883E+03 -0.27264281474E+03  0.15794392437E+04  0.25500000920E-02 0.  1.
       -2    1    3    3    0  502 -0.14422902779E+04  0.58317490883E+03  0.35206633384E+01  0.15557334653E+04  0.25500000920E-02 0. -1.
</event>
<event>
 5   0  0.2598987E-06  0.3074065E+04  0.7818609E-02  0.8222892E-01
        1   -1    0    0  501    0  0.00000000000E+00  0.00000000000E+00  0.15251374874E+04  0.15251374874E+04  0.50400001928E-02 0. -1.
       -1   -1    0    0    0  501  0.00000000000E+00  0.00000000000E+00 -0.15490205962E+04  0.15490205962E+04  0.50400001928E-02 0.  1.
    10030    2    1    2    0    0  0.00000000000E+00  0.00000000000E+00 -0.23883108755E+02  0.30741580836E+04  0.30740653084E+04 0.  0.
        2    1    3    3  502    0  0.64558325107E+03  0.57174964159E+03 -0.12842983067E+04  0.15469639709E+04  0.25500000920E-02 0.  1.
       -2    1    3    3    0  502 -0.64558325107E+03 -0.57174964159E+03  0.12604151979E+04  0.15271941127E+04  0.25500000920E-02 0. -1.
</event>
<event>
 5   0  0.2674441E-06  0.2987515E+04  0.7818609E-02  0.8247305E-01
       -1   -1    0    0    0  501  0.00000000000E+00  0.00000000000E+00  0.28329561210E+04  0.28329561211E+04  0.50400001928E-02 0. -1.
        1   -1    0    0  501    0  0.00000000000E+00  0.00000000000E+00 -0.78762666806E+03  0.78762666808E+03  0.50400001928E-02 0.  1.
    10030    2    1    2    0    0  0.00000000000E+00  0.00000000000E+00  0.20453294530E+04  0.36205827891E+04  0.29875152153E+04 0.  0.
        5    1    3    3  502    0 -0.32528599393E+03 -0.77752733456E+02 -0.74165880670E+03  0.81359470313E+03  0.46999998093E+01 0.  1.
       -5    1    3    3    0  502  0.32528599393E+03  0.77752733456E+02  0.27869882597E+04  0.28069880860E+04  0.46999998093E+01 0. -1.
</event>
<event>
 5   0  0.7414808E-06  0.3036434E+04  0.7818609E-02  0.8233403E-01
        2   -1    0    0  501    0  0.00000000000E+00  0.00000000000E+00  0.16162576140E+04  0.16162576140E+04  0.25500000920E-02 0. -1.
       -2   -1    0    0    0  501  0.00000000000E+00  0.00000000000E+00 -0.14261230917E+04  0.14261230917E+04  0.25500000920E-02 0.  1.
    10030    2    1    2    0    0  0.00000000000E+00  0.00000000000E+00  0.19013452235E+03  0.30423807057E+04  0.30364336354E+04 0.  0.
        2    1    3    3  502    0  0.12103232996E+04  0.64795552306E+03 -0.55447200664E+03  0.14805971956E+04  0.25500000920E-02 0.  1.
       -2    1    3    3    0  502 -0.12103232996E+04 -0.64795552306E+03  0.74460652899E+03  0.15617835101E+04  0.25500000920E-02 0. -1.
</event>
<event>
 5   0  0.2612331E-06  0.3011361E+04  0.7818609E-02  0.8240494E-01
        1   -1    0    0  501    0  0.00000000000E+00  0.00000000000E+00  0.17074526911E+04  0.17074526911E+04  0.50400001928E-02 0.  1.
       -1   -1    0    0    0  501  0.00000000000E+00  0.00000000000E+00 -0.13277522316E+04  0.13277522316E+04  0.50400001928E-02 0. -1.
    10030    2    1    2    0    0  0.00000000000E+00  0.00000000000E+00  0.37970045951E+03  0.30352049227E+04  0.30113612343E+04 0.  0.
        4    1    3    3  502    0  0.70811500903E+02  0.56230239665E+03 -0.12161407955E+04  0.13417146870E+04  0.12699999809E+01 0. -1.
       -4    1    3    3    0  502 -0.70811500903E+02 -0.56230239665E+03  0.15958412551E+04  0.16934902356E+04  0.12699999809E+01 0.  1.
</event>
<event>
 5   0  0.2624011E-06  0.2874019E+04  0.7818609E-02  0.8280650E-01
        1   -1    0    0  501    0  0.00000000000E+00  0.00000000000E+00  0.13187974487E+04  0.13187974487E+04  0.50400001928E-02 0.  1.
       -1   -1    0    0    0  501  0.00000000000E+00  0.00000000000E+00 -0.15658171791E+04  0.15658171791E+04  0.50400001928E-02 0. -1.
    10030    2    1    2    0    0  0.00000000000E+00  0.00000000000E+00 -0.24701973040E+03  0.28846146278E+04  0.28740185809E+04 0.  0.
        1    1    3    3  502    0 -0.30238197397E+03  0.28232879911E+03  0.12577365604E+04  0.13240263080E+04  0.50400001928E-02 0.  1.
       -1    1    3    3    0  502  0.30238197397E+03 -0.28232879911E+03 -0.15047562908E+04  0.15605883197E+04  0.50400001928E-02 0. -1.
</event>
<event>
 5   0  0.2624011E-06  0.3033757E+04  0.7818609E-02  0.8234157E-01
       -1   -1    0    0    0  501  0.00000000000E+00  0.00000000000E+00  0.19226776874E+04  0.19226776874E+04  0.50400001928E-02 0.  1.
        1   -1    0    0  501    0  0.00000000000E+00  0.00000000000E+00 -0.11967270142E+04  0.11967270142E+04  0.50400001928E-02 0. -1.
    10030    2    1    2    0    0  0.00000000000E+00  0.00000000000E+00  0.72595067320E+03  0.31194047017E+04  0.30337569634E+04 0.  0.
        1    1    3    3  502    0  0.85665171541E+03  0.95534920066E+03  0.11947479968E+04  0.17532732339E+04  0.50400001928E-02 0.  1.
       -1    1    3    3    0  502 -0.85665171541E+03 -0.95534920066E+03 -0.46879732358E+03  0.13661314678E+04  0.50400001928E-02 0. -1.
</event>
<event>
 5   0  0.7363513E-06  0.3040821E+04  0.7818609E-02  0.8232169E-01
       -2   -1    0    0    0  501  0.00000000000E+00  0.00000000000E+00  0.19419172047E+04  0.19419172047E+04  0.25500000920E-02 0.  1.
        2   -1    0    0  501    0  0.00000000000E+00  0.00000000000E+00 -0.11903945449E+04  0.11903945449E+04  0.25500000920E-02 0. -1.
    10030    2    1    2    0    0  0.00000000000E+00  0.00000000000E+00  0.75152265976E+03  0.31323117496E+04  0.30408207097E+04 0.  0.
        4    1    3    3  502    0  0.99566315694E+03 -0.10587699691E+04 -0.84109128482E+02  0.14558210494E+04  0.12699999809E+01 0. -1.
       -4    1    3    3    0  502 -0.99566315694E+03  0.10587699691E+04  0.83563178824E+03  0.16764907002E+04  0.12699999809E+01 0.  1.
</event>
<event>
 5   0  0.2517725E-06  0.3093986E+04  0.7818609E-02  0.8217390E-01
        1   -1    0    0  501    0  0.00000000000E+00  0.00000000000E+00  0.16538867265E+04  0.16538867265E+04  0.50400001928E-02 0.  1.
       -1   -1    0    0    0  501  0.00000000000E+00  0.00000000000E+00 -0.14470078849E+04  0.14470078849E+04  0.50400001928E-02 0. -1.
    10030    2    1    2    0    0  0.00000000000E+00  0.00000000000E+00  0.20687884158E+03  0.31008946114E+04  0.30939858655E+04 0.  0.
        3    1    3    3  502    0 -0.93678859529E+03 -0.91126354583E+03 -0.72618490636E+03  0.14950982077E+04  0.10100000352E+00 0. -1.
       -3    1    3    3    0  502  0.93678859529E+03  0.91126354583E+03  0.93306374794E+03  0.16057964037E+04  0.10100000352E+00 0.  1.
</event>
<event>
 5   0  0.7363513E-06  0.3073162E+04  0.7818609E-02  0.8223142E-01
        2   -1    0    0  501    0  0.00000000000E+00  0.00000000000E+00  0.21250478802E+04  0.21250478802E+04  0.25500000920E-02 0. -1.
       -2   -1    0    0    0  501  0.00000000000E+00  0.00000000000E+00 -0.11110721274E+04  0.11110721275E+04  0.25500000920E-02 0.  1.
    10030    2    1    2    0    0  0.00000000000E+00  0.00000000000E+00  0.10139757527E+04  0.32361200076E+04  0.30731621950E+04 0.  0.
        4    1    3    3  502    0 -0.13699002666E+04 -0.68933180722E+03  0.60840022433E+03  0.16498356060E+04  0.12699999809E+01 0.  1.
       -4    1    3    3    0  502  0.13699002666E+04  0.68933180722E+03  0.40557552838E+03  0.15862844017E+04  0.12699999809E+01 0. -1.
</event>
<event>
 5   0  0.7094341E-06  0.2597934E+04  0.7818609E-02  0.8368903E-01
        2   -1    0    0  501    0  0.00000000000E+00  0.00000000000E+00  0.16172228866E+04  0.16172228866E+04  0.25500000920E-02 0.  1.
       -2   -1    0    0    0  501  0.00000000000E+00  0.00000000000E+00 -0.10433408099E+04  0.10433408099E+04  0.25500000920E-02 0. -1.
    10030    2    1    2    0    0  0.00000000000E+00  0.00000000000E+00  0.57388207662E+03  0.26605636965E+04  0.25979335144E+04 0.  0.
        3    1    3    3  502    0  0.66170884185E+01 -0.62198258249E+03  0.14547869085E+04  0.15821855384E+04  0.10100000352E+00 0.  1.
       -3    1    3    3    0  502 -0.66170884185E+01  0.62198258249E+03 -0.88090483186E+03  0.10783781581E+04  0.10100000352E+00 0. -1.
</event>
<event>
 5   0  0.7071012E-06  0.3079967E+04  0.7818609E-02  0.8221257E-01
        2   -1    0    0  501    0  0.00000000000E+00  0.00000000000E+00  0.16965212408E+04  0.16965212408E+04  0.25500000920E-02 0.  1.
       -2   -1    0    0    0  501  0.00000000000E+00  0.00000000000E+00 -0.13978897191E+04  0.13978897191E+04  0.25500000920E-02 0. -1.
    10030    2    1    2    0    0  0.00000000000E+00  0.00000000000E+00  0.29863152177E+03  0.30944109599E+04  0.30799672730E+04 0.  0.
        1    1    3    3  502    0  0.33570737440E+02 -0.15196601643E+04 -0.98937298363E+02  0.15232473859E+04  0.50400001928E-02 0. -1.
       -1    1    3    3    0  502 -0.33570737440E+02  0.15196601643E+04  0.39756882013E+03  0.15711635740E+04  0.50400001928E-02 0.  1.
</event>
<event>
 5   0  0.7363513E-06  0.3098975E+04  0.7818609E-02  0.8216019E-01
       -2   -1    0    0    0  501  0.00000000000E+00  0.00000000000E+00  0.16156038356E+04  0.16156038356E+04  0.25500000920E-02 0.  1.
        2   -1    0    0  501    0  0.00000000000E+00  0.00000000000E+00 -0.14860769062E+04  0.14860769062E+04  0.25500000920E-02 0. -1.
    10030    2    1    2    0    0  0.00000000000E+00  0.00000000000E+00  0.12952692935E+03  0.31016807418E+04  0.30989750239E+04 0.  0.
        4    1    3    3  502    0  0.24368658297E+03  0.71983920837E+03  0.14162602799E+04  0.16072792010E+04  0.12699999809E+01 0.  1.
       -4    1    3    3    0  502 -0.24368658297E+03 -0.71983920837E+03 -0.12867333506E+04  0.14944015408E+04  0.12699999809E+01 0. -1.
</event>
<event>
 5   0  0.2517725E-06  0.2964853E+04  0.7818609E-02  0.8253839E-01
       -1   -1    0    0    0  501  0.00000000000E+00  0.00000000000E+00  0.15704562034E+04  0.15704562034E+04  0.50400001928E-02 0.  1.
        1   -1    0    0  501    0  0.00000000000E+00  0.00000000000E+00 -0.13993309280E+04  0.13993309280E+04  0.50400001928E-02 0. -1.
    10030    2    1    2    0    0  0.00000000000E+00  0.00000000000E+00  0.17112527542E+03  0.29697871314E+04  0.29648527359E+04 0.  0.
        3    1    3    3  502    0 -0.90061908984E+01 -0.13896830567E+04 -0.43132702001E+03  0.14551093148E+04  0.10100000352E+00 0.  1.
       -3    1    3    3    0  502  0.90061908984E+01  0.13896830567E+04  0.60245229543E+03  0.15146778166E+04  0.10100000352E+00 0. -1.
</event>
<event>
 5   0  0.7094341E-06  0.3026017E+04  0.7818609E-02  0.8236340E-01
       -2   -1    0    0    0  501  0.00000000000E+00  0.00000000000E+00  0.15592723102E+04  0.15592723102E+04  0.25500000920E-02 0.  1.
        2   -1    0    0  501    0  0.00000000000E+00  0.00000000000E+00 -0.14681176047E+04  0.14681176047E+04  0.25500000920E-02 0. -1.
    10030    2    1    2    0    0  0.00000000000E+00  0.00000000000E+00  0.91154705510E+02  0.30273899149E+04  0.30260172697E+04 0.  0.
        3    1    3    3  502    0  0.11775582451E+04 -0.31049098107E+03 -0.85268684825E+03  0.14866482238E+04  0.10100000352E+00 0. -1.
       -3    1    3    3    0  502 -0.11775582451E+04  0.31049098107E+03  0.94384155376E+03  0.15407416911E+04  0.10100000352E+00 0.  1.
</event>
<event>
 5   0  0.2624011E-06  0.3062792E+04  0.7818609E-02  0.8226024E-01
       -1   -1    0    0    0  501  0.00000000000E+00  0.00000000000E+00  0.13882690692E+04  0.13882690692E+04  0.50400001928E-02 0.  1.
        1   -1    0    0  501    0  0.00000000000E+00  0.00000000000E+00 -0.16892788520E+04  0.16892788520E+04  0.50400001928E-02 0. -1.
    10030    2    1    2    0    0  0.00000000000E+00  0.00000000000E+00 -0.30100978281E+03  0.30775479213E+04  0.30627919156E+04 0.  0.
        1    1    3    3  502    0 -0.35265397422E+03  0.25103830311E+03  0.13255135093E+04  0.13944070849E+04  0.50400001928E-02 0.  1.
       -1    1    3    3    0  502  0.35265397422E+03 -0.25103830311E+03 -0.16265232921E+04  0.16831408363E+04  0.50400001928E-02 0. -1.
</event>
<event>
 5   0  0.7363513E-06  0.3102065E+04  0.7818609E-02  0.8215171E-01
       -2   -1    0    0    0  501  0.00000000000E+00  0.00000000000E+00  0.19740427622E+04  0.19740427622E+04  0.25500000920E-02 0.  1.
        2   -1    0    0  501    0  0.00000000000E+00  0.00000000000E+00 -0.12186677671E+04  0.12186677671E+04  0.25500000920E-02 0. -1.
    10030    2    1    2    0    0  0.00000000000E+00  0.00000000000E+00  0.75537499508E+03  0.31927105293E+04  0.31020653025E+04 0.  0.
        4    1    3    3  502    0  0.39927321464E+03  0.61427384301E+03  0.17847304625E+04  0.19292526767E+04  0.12699999809E+01 0.  1.
       -4    1    3    3    0  502 -0.39927321464E+03 -0.61427384301E+03 -0.10293554674E+04  0.12634578526E+04  0.12699999809E+01 0. -1.
</event>
<event>
 5   0  0.7414808E-06  0.2913413E+04  0.7818609E-02  0.8268898E-01
       -2   -1    0    0    0  501  0.00000000000E+00  0.00000000000E+00  0.89885524714E+03  0.89885524714E+03  0.25500000920E-02 0. -1.
        2   -1    0    0  501    0  0.00000000000E+00  0.00000000000E+00 -0.23607741864E+04  0.23607741864E+04  0.25500000920E-02 0.  1.
    10030    2    1    2    0    0  0.00000000000E+00  0.00000000000E+00 -0.14619189392E+04  0.32596294335E+04  0.29134133004E+04 0.  0.
        2    1    3    3  502    0 -0.39085085756E+03  0.25719701495E+02  0.83882989871E+03  0.92577615809E+03  0.25500000920E-02 0. -1.
       -2    1    3    3    0  502  0.39085085756E+03 -0.25719701495E+02 -0.23007488380E+04  0.23338532754E+04  0.25500000920E-02 0.  1.
</event>
<event>
 5   0  0.7071012E-06  0.3119326E+04  0.7818609E-02  0.8210454E-01
       -2   -1    0    0    0  501  0.00000000000E+00  0.00000000000E+00  0.12905430643E+04  0.12905430643E+04  0.25500000920E-02 0. -1.
        2   -1    0    0  501    0  0.00000000000E+00  0.00000000000E+00 -0.18849032274E+04  0.18849032274E+04  0.25500000920E-02 0.  1.
    10030    2    1    2    0    0  0.00000000000E+00  0.00000000000E+00 -0.59436016312E+03  0.31754462917E+04  0.31193260728E+04 0.  0.
        1    1    3    3  502    0  0.12243519767E+04  0.38661112798E+03  0.60421233178E+03  0.14190061554E+04  0.50400001928E-02 0. -1.
       -1    1    3    3    0  502 -0.12243519767E+04 -0.38661112798E+03 -0.11985724949E+04  0.17564401364E+04  0.50400001928E-02 0.  1.
</event>
<event>
 5   0  0.7094341E-06  0.3082503E+04  0.7818609E-02  0.8220556E-01
        2   -1    0    0  501    0  0.00000000000E+00  0.00000000000E+00  0.16099405977E+04  0.16099405977E+04  0.25500000920E-02 0.  1.
       -2   -1    0    0    0  501  0.00000000000E+00  0.00000000000E+00 -0.14754928316E+04  0.14754928316E+04  0.25500000920E-02 0. -1.
    10030    2    1    2    0    0  0.00000000000E+00  0.00000000000E+00  0.13444776612E+03  0.30854334293E+04  0.30825027567E+04 0.  0.
        3    1    3    3  502    0 -0.24226015459E+02  0.11436117220E+04  0.11011731197E+04  0.15877710541E+04  0.10100000352E+00 0.  1.
       -3    1    3    3    0  502  0.24226015459E+02 -0.11436117220E+04 -0.96672535363E+03  0.14976623752E+04  0.10100000352E+00 0. -1.
</event>
<event>
 5   0  0.7414808E-06  0.3200778E+04  0.7818609E-02  0.8188612E-01
        2   -1    0    0  501    0  0.00000000000E+00  0.00000000000E+00  0.16824167102E+04  0.16824167102E+04  0.25500000920E-02 0. -1.
       -2   -1    0    0    0  501  0.00000000000E+00  0.00000000000E+00 -0.15223604040E+04  0.15223604040E+04  0.25500000920E-02 0.  1.
    10030    2    1    2    0    0  0.00000000000E+00  0.00000000000E+00  0.16005630619E+03  0.32047771142E+04  0.32007777696E+04 0.  0.
        2    1    3    3  502    0 -0.35705200851E+03  0.74028431877E+03 -0.12949092794E+04  0.15337200042E+04  0.25500000920E-02 0.  1.
       -2    1    3    3    0  502  0.35705200851E+03 -0.74028431877E+03  0.14549655856E+04  0.16710571100E+04  0.25500000920E-02 0. -1.
</event>
<event>
 5   0  0.2598987E-06  0.3027047E+04  0.7818609E-02  0.8236049E-01
       -1   -1    0    0    0  501  0.00000000000E+00  0.00000000000E+00  0.98101988356E+03  0.98101988357E+03  0.50400001928E-02 0.  1.
        1   -1    0    0  501    0  0.00000000000E+00  0.00000000000E+00 -0.23350727641E+04  0.23350727641E+04  0.50400001928E-02 0. -1.
    10030    2    1    2    0    0  0.00000000000E+00  0.00000000000E+00 -0.13540528805E+04  0.33160926477E+04  0.30270466208E+04 0.  0.
        2    1    3    3  502    0  0.98886682991E+03 -0.78771667398E+03  0.23453372217E+03  0.12858309502E+04  0.25500000920E-02 0.  1.
       -2    1    3    3    0  502 -0.98886682991E+03  0.78771667398E+03 -0.15885866027E+04  0.20302616974E+04  0.25500000920E-02 0. -1.
</event>
<event>
 5   0  0.2598987E-06  0.3091538E+04  0.7818609E-02  0.8218064E-01
       -1   -1    0    0    0  501  0.00000000000E+00  0.00000000000E+00  0.25139545262E+04  0.25139545262E+04  0.50400001928E-02 0.  1.
        1   -1    0    0  501    0  0.00000000000E+00  0.00000000000E+00 -0.95045531213E+03  0.95045531214E+03  0.50400001928E-02 0. -1.
    10030    2    1    2    0    0  0.00000000000E+00  0.00000000000E+00  0.15634992141E+04  0.34644098384E+04  0.30915377623E+04 0.  0.
        2    1    3    3  502    0 -0.13351717383E+04 -0.56902821164E+03  0.18568932524E+03  0.14632010121E+04  0.25500000920E-02 0. -1.
       -2    1    3    3    0  502  0.13351717383E+04  0.56902821164E+03  0.13778098888E+04  0.20012088262E+04  0.25500000920E-02 0.  1.
</event>
<event>
 5   0  0.2612331E-06  0.3091042E+04  0.7818609E-02  0.8218201E-01
        1   -1    0    0  501    0  0.00000000000E+00  0.00000000000E+00  0.19997700780E+04  0.19997700780E+04  0.50400001928E-02 0.  1.
       -1   -1    0    0    0  501  0.00000000000E+00  0.00000000000E+00 -0.11944549635E+04  0.11944549635E+04  0.50400001928E-02 0. -1.
    10030    2    1    2    0    0  0.00000000000E+00  0.00000000000E+00  0.80531511451E+03  0.31942250415E+04  0.30910420867E+04 0.  0.
        4    1    3    3  502    0 -0.12337316482E+04 -0.87970028619E+03  0.71723231331E+03  0.16764218375E+04  0.12699999809E+01 0. -1.
       -4    1    3    3    0  502  0.12337316482E+04  0.87970028619E+03  0.88082801203E+02  0.15178032040E+04  0.12699999809E+01 0.  1.
</event>
<event>
 5   0  0.2674441E-06  0.3107485E+04  0.7818609E-02  0.8213687E-01
       -1   -1    0    0    0  501  0.00000000000E+00  0.00000000000E+00  0.14120397401E+04  0.14120397401E+04  0.50400001928E-02 0. -1.
        1   -1    0    0  501    0  0.00000000000E+00  0.00000000000E+00 -0.17096657811E+04  0.17096657811E+04  0.50400001928E-02 0.  1.
    10030    2    1    2    0    0  0.00000000000E+00  0.00000000000E+00 -0.29762604099E+03  0.31217055211E+04  0.31074851730E+04 0.  0.
        5    1    3    3  502    0 -0.89272350003E+03 -0.10840567721E+04 -0.81665567632E+03  0.16245254434E+04  0.46999998093E+01 0.  1.
       -5    1    3    3    0  502  0.89272350003E+03  0.10840567721E+04  0.51902963533E+03  0.14971800777E+04  0.46999998093E+01 0. -1.
</event>
<event>
 5   0  0.2674441E-06  0.3015193E+04  0.7818609E-02  0.8239406E-01
        1   -1    0    0  501    0  0.00000000000E+00  0.00000000000E+00  0.16633291910E+04  0.16633291910E+04  0.50400001928E-02 0.  1.
       -1   -1    0    0    0  501  0.00000000000E+00  0.00000000000E+00 -0.13664444560E+04  0.13664444560E+04  0.50400001928E-02 0. -1.
    10030    2    1    2    0    0  0.00000000000E+00  0.00000000000E+00  0.29688473498E+03  0.30297736469E+04  0.30151928306E+04 0.  0.
        5    1    3    3  502    0  0.10510201307E+03 -0.12498082371E+04  0.98900284435E+03  0.15972525720E+04  0.46999998093E+01 0.  1.
       -5    1    3    3    0  502 -0.10510201307E+03  0.12498082371E+04 -0.69211810937E+03  0.14325210749E+04  0.46999998093E+01 0. -1.
</event>
<event>
 5   0  0.7094341E-06  0.3098746E+04  0.7818609E-02  0.8216082E-01
       -2   -1    0    0    0  501  0.00000000000E+00  0.00000000000E+00  0.10508943313E+04  0.10508943313E+04  0.25500000920E-02 0.  1.
        2   -1    0    0  501    0  0.00000000000E+00  0.00000000000E+00 -0.22842994422E+04  0.22842994422E+04  0.25500000920E-02 0. -1.
    10030    2    1    2    0    0  0.00000000000E+00  0.00000000000E+00 -0.12334051109E+04  0.33351937735E+04  0.30987464141E+04 0.  0.
        3    1    3    3  502    0  0.11430418999E+04 -0.33593546052E+02  0.50847761730E+03  0.12514882376E+04  0.10100000352E+00 0.  1.
       -3    1    3    3    0  502 -0.11430418999E+04  0.33593546052E+02 -0.17418827282E+04  0.20837055359E+04  0.10100000352E+00 0. -1.
</event>
<event>
 5   0  0.7094341E-06  0.2919301E+04  0.7818609E-02  0.8267158E-01
        2   -1    0    0  501    0  0.00000000000E+00  0.00000000000E+00  0.22613584745E+04  0.22613584745E+04  0.25500000920E-02 0. -1.
       -2   -1    0    0    0  501  0.00000000000E+00  0.00000000000E+00 -0.94216798519E+03  0.94216798519E+03  0.25500000920E-02 0.  1.
    10030    2    1    2    0    0  0.00000000000E+00  0.00000000000E+00  0.13191904893E+04  0.32035264597E+04  0.29193009833E+04 0.  0.
        3    1    3    3  502    0 -0.50766047234E+03  0.80354036189E+03 -0.55604244495E+03  0.11011718663E+04  0.10100000352E+00 0.  1.
       -3    1    3    3    0  502  0.50766047234E+03 -0.80354036189E+03  0.18752329343E+04  0.21023545934E+04  0.10100000352E+00 0. -1.
</event>
<event>
 5   0  0.2674441E-06  0.3009868E+04  0.7818609E-02  0.8240919E-01
        1   -1    0    0  501    0  0.00000000000E+00  0.00000000000E+00  0.21190936864E+04  0.21190936864E+04  0.50400001928E-02 0.  1.
       -1   -1    0    0    0  501  0.00000000000E+00  0.00000000000E+00 -0.10687711779E+04  0.10687711779E+04  0.50400001928E-02 0. -1.
    10030    2    1    2    0    0  0.00000000000E+00  0.00000000000E+00  0.10503225085E+04  0.31878648643E+04  0.30098679408E+04 0.  0.
        5    1    3    3  502    0 -0.72639906443E+03 -0.69196613225E+03 -0.66293050939E+03  0.12024856254E+04  0.46999998093E+01 0. -1.
       -5    1    3    3    0  502  0.72639906443E+03  0.69196613225E+03  0.17132530179E+04  0.19853792389E+04  0.46999998093E+01 0.  1.
</event>
<event>
 5   0  0.7071012E-06  0.3066714E+04  0.7818609E-02  0.8224933E-01
       -2   -1    0    0    0  501  0.00000000000E+00  0.00000000000E+00  0.10469708383E+04  0.10469708383E+04  0.25500000920E-02 0. -1.
        2   -1    0    0  501    0  0.00000000000E+00  0.00000000000E+00 -0.22457017047E+04  0.22457017047E+04  0.25500000920E-02 0.  1.
    10030    2    1    2    0    0  0.00000000000E+00  0.00000000000E+00 -0.11987308663E+04  0.32926725430E+04  0.30667143306E+04 0.  0.
        1    1    3    3  502    0  0.17032339222E+03 -0.91731591415E+03 -0.19058659523E+04  0.21219810490E+04  0.50400001928E-02 0.  1.
       -1    1    3    3    0  502 -0.17032339222E+03  0.91731591415E+03  0.70713508595E+03  0.11706914940E+04  0.50400001928E-02 0. -1.
</event>
<event>
 5   0  0.2598987E-06  0.3114943E+04  0.7818609E-02  0.8211649E-01
        1   -1    0    0  501    0  0.00000000000E+00  0.00000000000E+00  0.84008404326E+03  0.84008404328E+03  0.50400001928E-02 0.  1.
       -1   -1    0    0    0  501  0.00000000000E+00  0.00000000000E+00 -0.28874705042E+04  0.28874705042E+04  0.50400001928E-02 0. -1.
    10030    2    1    2    0    0  0.00000000000E+00  0.00000000000E+00 -0.20473864609E+04  0.37275545475E+04  0.31149432714E+04 0.  0.
        2    1    3    3  502    0  0.15233165431E+04  0.32142260866E+03 -0.10760207975E+04  0.18925185707E+04  0.25500000920E-02 0. -1.
       -2    1    3    3    0  502 -0.15233165431E+04 -0.32142260866E+03 -0.97136566346E+03  0.18350359768E+04  0.25500000920E-02 0.  1.
</event>
<event>
 5   0  0.7094341E-06  0.3225366E+04  0.7818609E-02  0.8182150E-01
        2   -1    0    0  501    0  0.00000000000E+00  0.00000000000E+00  0.18986419792E+04  0.18986419792E+04  0.25500000920E-02 0. -1.
       -2   -1    0    0    0  501  0.00000000000E+00  0.00000000000E+00 -0.13697926210E+04  0.13697926210E+04  0.25500000920E-02 0.  1.
    10030    2    1    2    0    0  0.00000000000E+00  0.00000000000E+00  0.52884935820E+03  0.32684346001E+04  0.32253655749E+04 0.  0.
        3    1    3    3  502    0  0.13858487850E+04 -0.27742121704E+03  0.10514592599E+04  0.17615635021E+04  0.10100000352E+00 0. -1.
       -3    1    3    3    0  502 -0.13858487850E+04  0.27742121704E+03 -0.52260990167E+03  0.15068710980E+04  0.10100000352E+00 0.  1.
</event>
<event>
 5   0  0.7363513E-06  0.3100448E+04  0.7818609E-02  0.8215615E-01
        2   -1    0    0  501    0  0.00000000000E+00  0.00000000000E+00  0.15055424115E+04  0.15055424115E+04  0.25500000920E-02 0.  1.
       -2   -1    0    0    0  501  0.00000000000E+00  0.00000000000E+00 -0.15962316795E+04  0.15962316795E+04  0.25500000920E-02 0. -1.
    10030    2    1    2    0    0  0.00000000000E+00  0.00000000000E+00 -0.90689268062E+02  0.31017740910E+04  0.31004480270E+04 0.  0.
        4    1    3    3  502    0  0.42905633650E+03  0.14389839724E+03  0.14379886747E+04  0.15075175389E+04  0.12699999809E+01 0.  1.
       -4    1    3    3    0  502 -0.42905633650E+03 -0.14389839724E+03 -0.15286779427E+04  0.15942565522E+04  0.12699999809E+01 0. -1.
</event>
<event>
 5   0  0.7079223E-06  0.2555103E+04  0.7818609E-02  0.8383614E-01
        2   -1    0    0  501    0  0.00000000000E+00  0.00000000000E+00  0.18253091843E+04  0.18253091843E+04  0.25500000920E-02 0.  1.
       -2   -1    0    0    0  501  0.00000000000E+00  0.00000000000E+00 -0.89417075084E+03  0.89417075084E+03  0.25500000920E-02 0. -1.
    10030    2    1    2    0    0  0.00000000000E+00  0.00000000000E+00  0.93113843342E+03  0.27194799351E+04  0.25551031946E+04 0.  0.
        5    1    3    3  502    0  0.56128530112E+03  0.68810365406E+03 -0.51198905122E+03  0.10250281492E+04  0.46999998093E+01 0. -1.
       -5    1    3    3    0  502 -0.56128530112E+03 -0.68810365406E+03  0.14431274846E+04  0.16944517860E+04  0.46999998093E+01 0.  1.
</event>
<event>
 5   0  0.2624011E-06  0.3158051E+04  0.7818609E-02  0.8199985E-01
       -1   -1    0    0    0  501  0.00000000000E+00  0.00000000000E+00  0.16392561020E+04  0.16392561020E+04  0.50400001928E-02 0.  1.
        1   -1    0    0  501    0  0.00000000000E+00  0.00000000000E+00 -0.15210076689E+04  0.15210076689E+04  0.50400001928E-02 0. -1.
    10030    2    1    2    0    0  0.00000000000E+00  0.00000000000E+00  0.11824843306E+03  0.31602637709E+04  0.31580507295E+04 0.  0.
        1    1    3    3  502    0 -0.46493943146E+03 -0.12140930268E+04 -0.83767930196E+03  0.15465759488E+04  0.50400001928E-02 0. -1.
       -1    1    3    3    0  502  0.46493943146E+03  0.12140930268E+04  0.95592773501E+03  0.16136878221E+04  0.50400001928E-02 0.  1.
</event>
<event>
 5   0  0.2517725E-06  0.3140659E+04  0.7818609E-02  0.8204667E-01
        1   -1    0    0  501    0  0.00000000000E+00  0.00000000000E+00  0.24157401796E+04  0.24157401796E+04  0.50400001928E-02 0.  1.
       -1   -1    0    0    0  501  0.00000000000E+00  0.00000000000E+00 -0.10207783564E+04  0.10207783564E+04  0.50400001928E-02 0. -1.
    10030    2    1    2    0    0  0.00000000000E+00  0.00000000000E+00  0.13949618231E+04  0.34365185360E+04  0.31406593512E+04 0.  0.
        3    1    3    3  502    0  0.90276855124E+03 -0.11111018335E+04 -0.85953667333E+01  0.14316466855E+04  0.10100000352E+00 0. -1.
       -3    1    3    3    0  502 -0.90276855124E+03  0.11111018335E+04  0.14035571899E+04  0.20048718505E+04  0.10100000352E+00 0.  1.
</event>
<event>
 5   0  0.2612331E-06  0.3149851E+04  0.7818609E-02  0.8202188E-01
        1   -1    0    0  501    0  0.00000000000E+00  0.00000000000E+00  0.10123189011E+04  0.10123189011E+04  0.50400001928E-02 0. -1.
       -1   -1    0    0    0  501  0.00000000000E+00  0.00000000000E+00 -0.24502063553E+04  0.24502063553E+04  0.50400001928E-02 0.  1.
    10030    2    1    2    0    0  0.00000000000E+00  0.00000000000E+00 -0.14378874543E+04  0.34625252564E+04  0.31498509203E+04 0.  0.
        4    1    3    3  502    0  0.58599055449E+03 -0.88097391327E+03  0.56342891017E+03  0.11987300428E+04  0.12699999809E+01 0. -1.
       -4    1    3    3    0  502 -0.58599055449E+03  0.88097391327E+03 -0.20013163644E+04  0.22637952136E+04  0.12699999809E+01 0.  1.
</event>
<event>
 5   0  0.2674441E-06  0.3186813E+04  0.7818609E-02  0.8192308E-01
       -1   -1    0    0    0  501  0.00000000000E+00  0.00000000000E+00  0.30890309436E+04  0.30890309436E+04  0.50400001928E-02 0.  1.
        1   -1    0    0  501    0  0.00000000000E+00  0.00000000000E+00 -0.82192278156E+03  0.82192278158E+03  0.50400001928E-02 0. -1.
    10030    2    1    2    0    0  0.00000000000E+00  0.00000000000E+00  0.22671081620E+04  0.39109537252E+04  0.31868133962E+04 0.  0.
        5    1    3    3  502    0  0.11373529242E+04 -0.83087372749E+03  0.21928816173E+03  0.14254936734E+04  0.46999998093E+01 0. -1.
       -5    1    3    3    0  502 -0.11373529242E+04  0.83087372749E+03  0.20478200003E+04  0.24854600517E+04  0.46999998093E+01 0.  1.
</event>
<event>
 5   0  0.7094341E-06  0.3086648E+04  0.7818609E-02  0.8219412E-01
       -2   -1    0    0    0  501  0.00000000000E+00  0.00000000000E+00  0.10965011193E+04  0.10965011193E+04  0.25500000920E-02 0. -1.
        2   -1    0    0  501    0  0.00000000000E+00  0.00000000000E+00 -0.21722261315E+04  0.21722261315E+04  0.25500000920E-02 0.  1.
    10030    2    1    2    0    0  0.00000000000E+00  0.00000000000E+00 -0.10757250122E+04  0.32687272507E+04  0.30866476212E+04 0.  0.
        3    1    3    3  502    0  0.86435226991E+03  0.11081209446E+04 -0.12133047858E+04  0.18566489673E+04  0.10100000352E+00 0.  1.
       -3    1    3    3    0  502 -0.86435226991E+03 -0.11081209446E+04  0.13757977354E+03  0.14120782835E+04  0.10100000352E+00 0. -1.
</event>
<event>
 5   0  0.2598987E-06  0.3072761E+04  0.7818609E-02  0.8223253E-01
        1   -1    0    0  501    0  0.00000000000E+00  0.00000000000E+00  0.16309552859E+04  0.16309552859E+04  0.50400001928E-02 0.  1.
       -1   -1    0    0    0  501  0.00000000000E+00  0.00000000000E+00 -0.14472901654E+04  0.14472901654E+04  0.50400001928E-02 0. -1.
    10030    2    1    2    0    0  0.00000000000E+00  0.00000000000E+00  0.18366512050E+03  0.30782454513E+04  0.30727613285E+04 0.  0.
        2    1    3    3  502    0 -0.10092585005E+04 -0.68787057176E+03  0.10255351300E+04  0.15948325765E+04  0.25500000920E-02 0.  1.
       -2    1    3    3    0  502  0.10092585005E+04  0.68787057176E+03 -0.84187000947E+03  0.14834128748E+04  0.25500000920E-02 0. -1.
</event>
<event>
 5   0  0.2612331E-06  0.3118030E+04  0.7818609E-02  0.8210807E-01
        1   -1    0    0  501    0  0.00000000000E+00  0.00000000000E+00  0.13666983205E+04  0.13666983205E+04  0.50400001928E-02 0. -1.
       -1   -1    0    0    0  501  0.00000000000E+00  0.00000000000E+00 -0.17783937933E+04  0.17783937933E+04  0.50400001928E-02 0.  1.
    10030    2    1    2    0    0  0.00000000000E+00  0.00000000000E+00 -0.41169547277E+03  0.31450921138E+04  0.31180300258E+04 0.  0.
        4    1    3    3  502    0 -0.85335242317E+03 -0.12830661950E+04  0.32970738463E+02  0.15412844972E+04  0.12699999809E+01 0. -1.
       -4    1    3    3    0  502  0.85335242317E+03  0.12830661950E+04 -0.44466621123E+03  0.16038076166E+04  0.12699999809E+01 0.  1.
</event>
<event>
 5   0  0.2517725E-06  0.3113435E+04  0.7818609E-02  0.8212060E-01
        1   -1    0    0  501    0  0.00000000000E+00  0.00000000000E+00  0.15526289628E+04  0.15526289628E+04  0.50400001928E-02 0.  1.
       -1   -1    0    0    0  501  0.00000000000E+00  0.00000000000E+00 -0.15608170693E+04  0.15608170693E+04  0.50400001928E-02 0. -1.
    10030    2    1    2    0    0  0.00000000000E+00  0.00000000000E+00 -0.81881065048E+01  0.31134460321E+04  0.31134352650E+04 0.  0.
        3    1    3    3  502    0 -0.19275039183E+02 -0.20751711938E+03  0.15386150431E+04  0.15526658182E+04  0.10100000352E+00 0.  1.
       -3    1    3    3    0  502  0.19275039183E+02  0.20751711938E+03 -0.15468031496E+04  0.15607802138E+04  0.10100000352E+00 0. -1.
</event>
<event>
 5   0  0.2612331E-06  0.2999619E+04  0.7818609E-02  0.8243840E-01
       -1   -1    0    0    0  501  0.00000000000E+00  0.00000000000E+00  0.19932623390E+04  0.19932623390E+04  0.50400001928E-02 0.  1.
        1   -1    0    0  501    0  0.00000000000E+00  0.00000000000E+00 -0.11285162363E+04  0.11285162363E+04  0.50400001928E-02 0. -1.
    10030    2    1    2    0    0  0.00000000000E+00  0.00000000000E+00  0.86474610271E+03  0.31217785753E+04  0.29996192510E+04 0.  0.
        4    1    3    3  502    0  0.10714374941E+04  0.10493628249E+04  0.44999354167E+03  0.15657702393E+04  0.12699999809E+01 0.  1.
       -4    1    3    3    0  502 -0.10714374941E+04 -0.10493628249E+04  0.41475256105E+03  0.15560083360E+04  0.12699999809E+01 0. -1.
</event>
<event>
 5   0  0.7414808E-06  0.2985955E+04  0.7818609E-02  0.8247753E-01
        2   -1    0    0  501    0  0.00000000000E+00  0.00000000000E+00  0.15016532697E+04  0.15016532697E+04  0.25500000920E-02 0. -1.
       -2   -1    0    0    0  501  0.00000000000E+00  0.00000000000E+00 -0.14843517339E+04  0.14843517339E+04  0.25500000920E-02 0.  1.
    10030    2    1    2    0    0  0.00000000000E+00  0.00000000000E+00  0.17301535740E+02  0.29860050036E+04  0.29859548788E+04 0.  0.
        2    1    3    3  502    0  0.78118912038E+03 -0.53130830458E+02  0.12798535683E+04  0.15003681159E+04  0.25500000920E-02 0. -1.
       -2    1    3    3    0  502 -0.78118912038E+03  0.53130830458E+02 -0.12625520326E+04  0.14856368876E+04  0.25500000920E-02 0.  1.
</event>
<event>
 5   0  0.7079223E-06  0.3169808E+04  0.7818609E-02  0.8196837E-01
        2   -1    0    0  501    0  0.00000000000E+00  0.00000000000E+00  0.17716334985E+04  0.17716334985E+04  0.25500000920E-02 0.  1.
       -2   -1    0    0    0  501  0.00000000000E+00  0.00000000000E+00 -0.14178557978E+04  0.14178557978E+04  0.25500000920E-02 0. -1.
    10030    2    1    2    0    0  0.00000000000E+00  0.00000000000E+00  0.35377770065E+03  0.31894892963E+04  0.31698080872E+04 0.  0.
        5    1    3    3  502    0 -0.10058997813E+04  0.11570522958E+04  0.58099714067E+03  0.16395682824E+04  0.46999998093E+01 0.  1.
       -5    1    3    3    0  502  0.10058997813E+04 -0.11570522958E+04 -0.22721944001E+03  0.15499210139E+04  0.46999998093E+01 0. -1.
</event>
<event>
 5   0  0.7094341E-06  0.2660754E+04  0.7818609E-02  0.8347853E-01
        2   -1    0    0  501    0  0.00000000000E+00  0.00000000000E+00  0.26698175299E+04  0.26698175299E+04  0.25500000920E-02 0.  1.
       -2   -1    0    0    0  501  0.00000000000E+00  0.00000000000E+00 -0.66293013357E+03  0.66293013358E+03  0.25500000920E-02 0. -1.
    10030    2    1    2    0    0  0.00000000000E+00  0.00000000000E+00  0.20068873964E+04  0.33327476635E+04  0.26607536464E+04 0.  0.
        3    1    3    3  502    0  0.12767217846E+04  0.63288294464E+01  0.14718465699E+04  0.19484329357E+04  0.10100000352E+00 0.  1.
       -3    1    3    3    0  502 -0.12767217846E+04 -0.63288294464E+01  0.53504082642E+03  0.13843147278E+04  0.10100000352E+00 0. -1.
</event>
<event>
 5   0  0.7079223E-06  0.2979134E+04  0.7818609E-02  0.8249714E-01
       -2   -1    0    0    0  501  0.00000000000E+00  0.00000000000E+00  0.17068813267E+04  0.17068813267E+04  0.25500000920E-02 0.  1.
        2   -1    0    0  501    0  0.00000000000E+00  0.00000000000E+00 -0.12999204084E+04  0.12999204084E+04  0.25500000920E-02 0. -1.
    10030    2    1    2    0    0  0.00000000000E+00  0.00000000000E+00  0.40696091825E+03  0.30068017351E+04  0.29791340159E+04 0.  0.
        5    1    3    3  502    0 -0.84852564064E+03 -0.68541537728E+03  0.12272965963E+04  0.16419710800E+04  0.46999998093E+01 0.  1.
       -5    1    3    3    0  502  0.84852564064E+03  0.68541537728E+03 -0.82033567808E+03  0.13648306550E+04  0.46999998093E+01 0. -1.
</event>
<event>
 5   0  0.2612331E-06  0.3115297E+04  0.7818609E-02  0.8211552E-01
        1   -1    0    0  501    0  0.00000000000E+00  0.00000000000E+00  0.18245803313E+04  0.18245803313E+04  0.50400001928E-02 0. -1.
       -1   -1    0    0    0  501  0.00000000000E+00  0.00000000000E+00 -0.13297681651E+04  0.13297681651E+04  0.50400001928E-02 0.  1.
    10030    2    1    2    0    0  0.00000000000E+00  0.00000000000E+00  0.49481216621E+03  0.31543484964E+04  0.31152969934E+04 0.  0.
        4    1    3    3  502    0  0.83421688319E+03 -0.47094454494E+03  0.14910372723E+04  0.17722585400E+04  0.12699999809E+01 0. -1.
       -4    1    3    3    0  502 -0.83421688319E+03  0.47094454494E+03 -0.99622510605E+03  0.13820899563E+04  0.12699999809E+01 0.  1.
</event>
<event>
 5   0  0.2517725E-06  0.2593175E+04  0.7818609E-02  0.8370523E-01
        1   -1    0    0  501    0  0.00000000000E+00  0.00000000000E+00  0.19992974740E+04  0.19992974740E+04  0.50400001928E-02 0. -1.
       -1   -1    0    0    0  501  0.00000000000E+00  0.00000000000E+00 -0.84086462711E+03  0.84086462712E+03  0.50400001928E-02 0.  1.
    10030    2    1    2    0    0  0.00000000000E+00  0.00000000000E+00  0.11584328469E+04  0.28401621011E+04  0.25931745217E+04 0.  0.
        3    1    3    3  502    0  0.11337165113E+04 -0.62461129042E+03  0.49662794046E+03  0.13863952228E+04  0.10100000352E+00 0. -1.
       -3    1    3    3    0  502 -0.11337165113E+04  0.62461129042E+03  0.66180490639E+03  0.14537668783E+04  0.10100000352E+00 0.  1.
</event>
<event>
 5   0  0.2517725E-06  0.3172879E+04  0.7818609E-02  0.8196017E-01
       -1   -1    0    0    0  501  0.00000000000E+00  0.00000000000E+00  0.25996780141E+04  0.25996780141E+04  0.50400001928E-02 0. -1.
        1   -1    0    0  501    0  0.00000000000E+00  0.00000000000E+00 -0.96811601384E+03  0.96811601385E+03  0.50400001928E-02 0.  1.
    10030    2    1    2    0    0  0.00000000000E+00  0.00000000000E+00  0.16315620003E+04  0.35677940280E+04  0.31728787663E+04 0.  0.
        3    1    3    3  502    0  0.94715158461E+03  0.30511003742E+03 -0.57356098231E+03  0.11485471126E+04  0.10100000352E+00 0.  1.
       -3    1    3    3    0  502 -0.94715158461E+03 -0.30511003742E+03  0.22051229826E+04  0.24192469154E+04  0.10100000352E+00 0. -1.
</event>
<event>
 5   0  0.2674441E-06  0.3081801E+04  0.7818609E-02  0.8220750E-01
       -1   -1    0    0    0  501  0.00000000000E+00  0.00000000000E+00  0.86673311978E+03  0.86673311979E+03  0.50400001928E-02 0.  1.
        1   -1    0    0  501    0  0.00000000000E+00  0.00000000000E+00 -0.27394528716E+04  0.27394528716E+04  0.50400001928E-02 0. -1.
    10030    2    1    2    0    0  0.00000000000E+00  0.00000000000E+00 -0.18727197518E+04  0.36061859914E+04  0.30818011188E+04 0.  0.
        5    1    3    3  502    0 -0.19339119885E+03 -0.11466465654E+04 -0.21194059740E+04  0.24174578123E+04  0.46999998093E+01 0. -1.
       -5    1    3    3    0  502  0.19339119885E+03  0.11466465654E+04  0.24668622214E+03  0.11887281791E+04  0.46999998093E+01 0.  1.
</event>
<event>
 5   0  0.7414808E-06  0.3140999E+04  0.7818609E-02  0.8204575E-01
       -2   -1    0    0    0  501  0.00000000000E+00  0.00000000000E+00  0.10923244326E+04  0.10923244326E+04  0.25500000920E-02 0.  1.
        2   -1    0    0  501    0  0.00000000000E+00  0.00000000000E+00 -0.22579999454E+04  0.22579999454E+04  0.25500000920E-02 0. -1.
    10030    2    1    2    0    0  0.00000000000E+00  0.00000000000E+00 -0.11656755128E+04  0.33503243781E+04  0.31409988916E+04 0.  0.
        2    1    3    3  502    0 -0.97691580909E+03  0.96940391296E+03 -0.13898009682E+04  0.19559282133E+04  0.25500000920E-02 0. -1.
       -2    1    3    3    0  502  0.97691580909E+03 -0.96940391296E+03  0.22412545540E+03  0.13943961648E+04  0.25500000920E-02 0.  1.
</event>
<event>
 5   0  0.7094341E-06  0.3087119E+04  0.7818609E-02  0.8219282E-01
        2   -1    0    0  501    0  0.00000000000E+00  0.00000000000E+00  0.17286319117E+04  0.17286319117E+04  0.25500000920E-02 0.  1.
       -2   -1    0    0    0  501  0.00000000000E+00  0.00000000000E+00 -0.13783013216E+04  0.13783013216E+04  0.25500000920E-02 0. -1.
    10030    2    1    2    0    0  0.00000000000E+00  0.00000000000E+00  0.35033059009E+03  0.31069332333E+04  0.30871188176E+04 0.  0.
        3    1    3    3  502    0  0.74011553774E+03  0.12326001269E+04  0.74046574155E+03  0.16172085848E+04  0.10100000352E+00 0.  1.
       -3    1    3    3    0  502 -0.74011553774E+03 -0.12326001269E+04 -0.39013515146E+03  0.14897246486E+04  0.10100000352E+00 0. -1.
</event>
<event>
 5   0  0.7094341E-06  0.2218731E+04  0.7818609E-02  0.8510672E-01
       -2   -1    0    0    0  501  0.00000000000E+00  0.00000000000E+00  0.20270693626E+04  0.20270693626E+04  0.25500000920E-02 0.  1.
        2   -1    0    0  501    0  0.00000000000E+00  0.00000000000E+00 -0.60712850507E+03  0.60712850508E+03  0.25500000920E-02 0. -1.
    10030    2    1    2    0    0  0.00000000000E+00  0.00000000000E+00  0.14199408576E+04  0.26341978677E+04  0.22187308010E+04 0.  0.
        3    1    3    3  502    0 -0.76262239248E+03  0.62810037647E+03  0.11092019048E+03  0.99418624779E+03  0.10100000352E+00 0. -1.
       -3    1    3    3    0  502  0.76262239248E+03 -0.62810037647E+03  0.13090206671E+04  0.16400116199E+04  0.10100000352E+00 0.  1.
</event>
<event>
 5   0  0.2598987E-06  0.2987500E+04  0.7818609E-02  0.8247309E-01
        1   -1    0    0  501    0  0.00000000000E+00  0.00000000000E+00  0.21151426713E+04  0.21151426713E+04  0.50400001928E-02 0. -1.
       -1   -1    0    0    0  501  0.00000000000E+00  0.00000000000E+00 -0.10549119569E+04  0.10549119569E+04  0.50400001928E-02 0.  1.
    10030    2    1    2    0    0  0.00000000000E+00  0.00000000000E+00  0.10602307144E+04  0.31700546282E+04  0.29875001553E+04 0.  0.
        2    1    3    3  502    0 -0.36819208732E+03  0.25435287928E+03  0.20423417654E+04  0.20907942718E+04  0.25500000920E-02 0. -1.
       -2    1    3    3    0  502  0.36819208732E+03 -0.25435287928E+03 -0.98211105099E+03  0.10792603564E+04  0.25500000920E-02 0.  1.
</event>
<event>
 5   0  0.7363513E-06  0.1918026E+04  0.7818609E-02  0.8645935E-01
        2   -1    0    0  501    0  0.00000000000E+00  0.00000000000E+00  0.16068986001E+04  0.16068986001E+04  0.25500000920E-02 0. -1.
       -2   -1    0    0    0  501  0.00000000000E+00  0.00000000000E+00 -0.57234851877E+03  0.57234851877E+03  0.25500000920E-02 0.  1.
    10030    2    1    2    0    0  0.00000000000E+00  0.00000000000E+00  0.10345500813E+04  0.21792471188E+04  0.19180261037E+04 0.  0.
        4    1    3    3  502    0  0.22135621631E+03  0.20752868911E+03  0.15509216796E+04  0.15803247769E+04  0.12699999809E+01 0. -1.
       -4    1    3    3    0  502 -0.22135621631E+03 -0.20752868911E+03 -0.51637159828E+03  0.59892234197E+03  0.12699999809E+01 0.  1.
</event>
<event>
 5   0  0.7094341E-06  0.2661586E+04  0.7818609E-02  0.8347578E-01
        2   -1    0    0  501    0  0.00000000000E+00  0.00000000000E+00  0.13694581913E+04  0.13694581913E+04  0.25500000920E-02 0. -1.
       -2   -1    0    0    0  501  0.00000000000E+00  0.00000000000E+00 -0.12932198233E+04  0.12932198233E+04  0.25500000920E-02 0.  1.
    10030    2    1    2    0    0  0.00000000000E+00  0.00000000000E+00  0.76238368036E+02  0.26626780146E+04  0.26615863542E+04 0.  0.
        3    1    3    3  502    0 -0.30248965320E+03 -0.65583503477E+03 -0.10801008223E+04  0.12993218922E+04  0.10100000352E+00 0.  1.
       -3    1    3    3    0  502  0.30248965320E+03  0.65583503477E+03  0.11563391903E+04  0.13633561224E+04  0.10100000352E+00 0. -1.
</event>
<event>
 5   0  0.7094341E-06  0.3107152E+04  0.7818609E-02  0.8213778E-01
       -2   -1    0    0    0  501  0.00000000000E+00  0.00000000000E+00  0.13431108513E+04  0.13431108513E+04  0.25500000920E-02 0. -1.
        2   -1    0    0  501    0  0.00000000000E+00  0.00000000000E+00 -0.17970210622E+04  0.17970210622E+04  0.25500000920E-02 0.  1.
    10030    2    1    2    0    0  0.00000000000E+00  0.00000000000E+00 -0.45391021085E+03  0.31401319135E+04  0.31071520649E+04 0.  0.
        3    1    3    3  502    0  0.13535999568E+04  0.63969654129E+02  0.54089456500E+03  0.14590722739E+04  0.10100000352E+00 0. -1.
       -3    1    3    3    0  502 -0.13535999568E+04 -0.63969654129E+02 -0.99480477584E+03  0.16810596396E+04  0.10100000352E+00 0.  1.
</event>
<event>
 5   0  0.7094341E-06  0.2792856E+04  0.7818609E-02  0.8305490E-01
        2   -1    0    0  501    0  0.00000000000E+00  0.00000000000E+00  0.21935442368E+04  0.21935442368E+04  0.25500000920E-02 0. -1.
       -2   -1    0    0    0  501  0.00000000000E+00  0.00000000000E+00 -0.88897755852E+03  0.88897755852E+03  0.25500000920E-02 0.  1.
    10030    2    1    2    0    0  0.00000000000E+00  0.00000000000E+00  0.13045666783E+04  0.30825217953E+04  0.27928563158E+04 0.  0.
        3    1    3    3  502    0  0.40436277106E+03 -0.96812718233E+03  0.16693999881E+04  0.19717190019E+04  0.10100000352E+00 0. -1.
       -3    1    3    3    0  502 -0.40436277106E+03  0.96812718233E+03 -0.36483330984E+03  0.11108027935E+04  0.10100000352E+00 0.  1.
</event>
<event>
 5   0  0.7079223E-06  0.2916324E+04  0.7818609E-02  0.8268037E-01
       -2   -1    0    0    0  501  0.00000000000E+00  0.00000000000E+00  0.18418268156E+04  0.18418268156E+04  0.25500000920E-02 0. -1.
        2   -1    0    0  501    0  0.00000000000E+00  0.00000000000E+00 -0.11544168006E+04  0.11544168006E+04  0.25500000920E-02 0.  1.
    10030    2    1    2    0    0  0.00000000000E+00  0.00000000000E+00  0.68741001495E+03  0.29962436162E+04  0.29163235896E+04 0.  0.
        5    1    3    3  502    0  0.47710527378E+02  0.24400607264E+03 -0.11324711122E+04  0.11594516669E+04  0.46999998093E+01 0.  1.
       -5    1    3    3    0  502 -0.47710527378E+02 -0.24400607264E+03  0.18198811272E+04  0.18367919493E+04  0.46999998093E+01 0. -1.
</event>
<event>
 5   0  0.2517725E-06  0.2346090E+04  0.7818609E-02  0.8459967E-01
       -1   -1    0    0    0  501  0.00000000000E+00  0.00000000000E+00  0.14429590473E+04  0.14429590473E+04  0.50400001928E-02 0. -1.
        1   -1    0    0  501    0  0.00000000000E+00  0.00000000000E+00 -0.95361982261E+03  0.95361982262E+03  0.50400001928E-02 0.  1.
    10030    2    1    2    0    0  0.00000000000E+00  0.00000000000E+00  0.48933922471E+03  0.23965788700E+04  0.23460898114E+04 0.  0.
        3    1    3    3  502    0  0.73762490115E+03 -0.76438787327E+03  0.75302878550E+03  0.13020874309E+04  0.10100000352E+00 0. -1.
       -3    1    3    3    0  502 -0.73762490115E+03  0.76438787327E+03 -0.26368956079E+03  0.10944914391E+04  0.10100000352E+00 0.  1.
</event>
<event>
 5   0  0.2598987E-06  0.1902677E+04  0.7818609E-02  0.8653525E-01
       -1   -1    0    0    0  501  0.00000000000E+00  0.00000000000E+00  0.56122488385E+03  0.56122488387E+03  0.50400001928E-02 0. -1.
        1   -1    0    0  501    0  0.00000000000E+00  0.00000000000E+00 -0.16126245680E+04  0.16126245681E+04  0.50400001928E-02 0.  1.
    10030    2    1    2    0    0  0.00000000000E+00  0.00000000000E+00 -0.10513996842E+04  0.21738494519E+04  0.19026770992E+04 0.  0.
        2    1    3    3  502    0 -0.91673642475E+03  0.11672890487E+02 -0.23552838498E+03  0.94658097856E+03  0.25500000920E-02 0. -1.
       -2    1    3    3    0  502  0.91673642475E+03 -0.11672890487E+02 -0.81587129922E+03  0.12272684734E+04  0.25500000920E-02 0.  1.
</event>
<event>
 5   0  0.2612331E-06  0.3065549E+04  0.7818609E-02  0.8225257E-01
       -1   -1    0    0    0  501  0.00000000000E+00  0.00000000000E+00  0.13897618657E+04  0.13897618657E+04  0.50400001928E-02 0.  1.
        1   -1    0    0  501    0  0.00000000000E+00  0.00000000000E+00 -0.16905032320E+04  0.16905032320E+04  0.50400001928E-02 0. -1.
    10030    2    1    2    0    0  0.00000000000E+00  0.00000000000E+00 -0.30074136626E+03  0.30802650977E+04  0.30655485158E+04 0.  0.
        4    1    3    3  502    0  0.11899544934E+04  0.91580685277E+03 -0.45958397737E+03  0.15703225571E+04  0.12699999809E+01 0.  1.
       -4    1    3    3    0  502 -0.11899544934E+04 -0.91580685277E+03  0.15884261111E+03  0.15099425406E+04  0.12699999809E+01 0. -1.
</event>
<event>
 5   0  0.7094341E-06  0.3114817E+04  0.7818609E-02  0.8211683E-01
        2   -1    0    0  501    0  0.00000000000E+00  0.00000000000E+00  0.20415213329E+04  0.20415213329E+04  0.25500000920E-02 0.  1.
       -2   -1    0    0    0  501  0.00000000000E+00  0.00000000000E+00 -0.11880950475E+04  0.11880950475E+04  0.25500000920E-02 0. -1.
    10030    2    1    2    0    0  0.00000000000E+00  0.00000000000E+00  0.85342628540E+03  0.32296163804E+04  0.31148170957E+04 0.  0.
        3    1    3    3  502    0 -0.93676082875E+03  0.46157980160E+03 -0.77126808501E+03  0.12982415926E+04  0.10100000352E+00 0. -1.
       -3    1    3    3    0  502  0.93676082875E+03 -0.46157980160E+03  0.16246943704E+04  0.19313747878E+04  0.10100000352E+00 0.  1.
</event>
<event>
 5   0  0.7094341E-06  0.2801328E+04  0.7818609E-02  0.8302856E-01
       -2   -1    0    0    0  501  0.00000000000E+00  0.00000000000E+00  0.15025606828E+04  0.15025606828E+04  0.25500000920E-02 0. -1.
        2   -1    0    0  501    0  0.00000000000E+00  0.00000000000E+00 -0.13056777695E+04  0.13056777695E+04  0.25500000920E-02 0.  1.
    10030    2    1    2    0    0  0.00000000000E+00  0.00000000000E+00  0.19688291329E+03  0.28082384523E+04  0.28013283141E+04 0.  0.
        3    1    3    3  502    0 -0.45287643122E+03 -0.86631179380E+03  0.11040444586E+04  0.14746210913E+04  0.10100000352E+00 0. -1.
       -3    1    3    3    0  502  0.45287643122E+03  0.86631179380E+03 -0.90716154534E+03  0.13336173610E+04  0.10100000352E+00 0.  1.
</event>
<event>
 5   0  0.7071012E-06  0.3080997E+04  0.7818609E-02  0.8220973E-01
       -2   -1    0    0    0  501  0.00000000000E+00  0.00000000000E+00  0.11691453371E+04  0.11691453372E+04  0.25500000920E-02 0.  1.
        2   -1    0    0  501    0  0.00000000000E+00  0.00000000000E+00 -0.20298038140E+04  0.20298038140E+04  0.25500000920E-02 0. -1.
    10030    2    1    2    0    0  0.00000000000E+00  0.00000000000E+00 -0.86065847682E+03  0.31989491511E+04  0.30809970233E+04 0.  0.
        1    1    3    3  502    0  0.80523734462E+03  0.69226015244E+03  0.72841792756E+03  0.12877204576E+04  0.50400001928E-02 0.  1.
       -1    1    3    3    0  502 -0.80523734462E+03 -0.69226015244E+03 -0.15890764044E+04  0.19112286935E+04  0.50400001928E-02 0. -1.
</event>
<event>
 5   0  0.2624011E-06  0.3087086E+04  0.7818609E-02  0.8219291E-01
       -1   -1    0    0    0  501  0.00000000000E+00  0.00000000000E+00  0.11577677523E+04  0.11577677523E+04  0.50400001928E-02 0. -1.
        1   -1    0    0  501    0  0.00000000000E+00  0.00000000000E+00 -0.20578602983E+04  0.20578602983E+04  0.50400001928E-02 0.  1.
    10030    2    1    2    0    0  0.00000000000E+00  0.00000000000E+00 -0.90009254602E+03  0.32156280506E+04  0.30870855460E+04 0.  0.
        1    1    3    3  502    0 -0.96602607125E+03 -0.11971530240E+04 -0.58238999124E+03  0.16448586064E+04  0.50400001928E-02 0. -1.
       -1    1    3    3    0  502  0.96602607125E+03  0.11971530240E+04 -0.31770255478E+03  0.15707694441E+04  0.50400001928E-02 0.  1.
</event>
<event>
 5   0  0.7414808E-06  0.2998479E+04  0.7818609E-02  0.8244165E-01
        2   -1    0    0  501    0  0.00000000000E+00  0.00000000000E+00  0.20603343960E+04  0.20603343960E+04  0.25500000920E-02 0. -1.
       -2   -1    0    0    0  501  0.00000000000E+00  0.00000000000E+00 -0.10909487177E+04  0.10909487177E+04  0.25500000920E-02 0.  1.
    10030    2    1    2    0    0  0.00000000000E+00  0.00000000000E+00  0.96938567830E+03  0.31512831136E+04  0.29984790593E+04 0.  0.
        2    1    3    3  502    0 -0.98033289875E+03 -0.45073830990E+03  0.15786521544E+04  0.19121611441E+04  0.25500000920E-02 0. -1.
       -2    1    3    3    0  502  0.98033289875E+03  0.45073830990E+03 -0.60926647615E+03  0.12391219695E+04  0.25500000920E-02 0.  1.
</event>
<event>
 5   0  0.7094341E-06  0.3121290E+04  0.7818609E-02  0.8209919E-01
       -2   -1    0    0    0  501  0.00000000000E+00  0.00000000000E+00  0.17656771238E+04  0.17656771238E+04  0.25500000920E-02 0.  1.
        2   -1    0    0  501    0  0.00000000000E+00  0.00000000000E+00 -0.13794214989E+04  0.13794214989E+04  0.25500000920E-02 0. -1.
    10030    2    1    2    0    0  0.00000000000E+00  0.00000000000E+00  0.38625562486E+03  0.31450986227E+04  0.31212901080E+04 0.  0.
        3    1    3    3  502    0  0.66107632899E+03 -0.73779088805E+03 -0.10219959529E+04  0.14233176192E+04  0.10100000352E+00 0. -1.
       -3    1    3    3    0  502 -0.66107632899E+03  0.73779088805E+03  0.14082515778E+04  0.17217810034E+04  0.10100000352E+00 0.  1.
</event>
<event>
 5   0  0.2624011E-06  0.3036258E+04  0.7818609E-02  0.8233452E-01
       -1   -1    0    0    0  501  0.00000000000E+00  0.00000000000E+00  0.10133580072E+04  0.10133580072E+04  0.50400001928E-02 0.  1.
        1   -1    0    0  501    0  0.00000000000E+00  0.00000000000E+00 -0.22743350059E+04  0.22743350059E+04  0.50400001928E-02 0. -1.
    10030    2    1    2    0    0  0.00000000000E+00  0.00000000000E+00 -0.12609769987E+04  0.32876930131E+04  0.30362579529E+04 0.  0.
        1    1    3    3  502    0  0.73745646401E+03 -0.12452232309E+04 -0.11270404001E+04  0.18342963213E+04  0.50400001928E-02 0.  1.
       -1    1    3    3    0  502 -0.73745646401E+03  0.12452232309E+04 -0.13393659867E+03  0.14533966917E+04  0.50400001928E-02 0. -1.
</event>
<event>
 5   0  0.7363513E-06  0.3094885E+04  0.7818609E-02  0.8217143E-01
        2   -1    0    0  501    0  0.00000000000E+00  0.00000000000E+00  0.20240063657E+04  0.20240063657E+04  0.25500000920E-02 0. -1.
       -2   -1    0    0    0  501  0.00000000000E+00  0.00000000000E+00 -0.11830881507E+04  0.11830881507E+04  0.25500000920E-02 0.  1.
    10030    2    1    2    0    0  0.00000000000E+00  0.00000000000E+00  0.84091821504E+03  0.32070945164E+04  0.30948847786E+04 0.  0.
        4    1    3    3  502    0  0.13972876134E+04 -0.22262987564E+03  0.10697543191E+04  0.17737961136E+04  0.12699999809E+01 0. -1.
       -4    1    3    3    0  502 -0.13972876134E+04  0.22262987564E+03 -0.22883610410E+03  0.14332984029E+04  0.12699999809E+01 0.  1.
</event>
<event>
 5   0  0.2674441E-06  0.3105130E+04  0.7818609E-02  0.8214332E-01
       -1   -1    0    0    0  501  0.00000000000E+00  0.00000000000E+00  0.12810588268E+04  0.12810588268E+04  0.50400001928E-02 0.  1.
        1   -1    0    0  501    0  0.00000000000E+00  0.00000000000E+00 -0.18816136056E+04  0.18816136056E+04  0.50400001928E-02 0. -1.
    10030    2    1    2    0    0  0.00000000000E+00  0.00000000000E+00 -0.60055477883E+03  0.31626724324E+04  0.31051297674E+04 0.  0.
        5    1    3    3  502    0  0.91377005406E+02  0.15117563695E+04  0.47635060760E+02  0.15152716809E+04  0.46999998093E+01 0. -1.
       -5    1    3    3    0  502 -0.91377005406E+02 -0.15117563695E+04 -0.64818983959E+03  0.16474007515E+04  0.46999998093E+01 0.  1.
</event>
<event>
 5   0  0.7079223E-06  0.3069266E+04  0.7818609E-02  0.8224224E-01
        2   -1    0    0  501    0  0.00000000000E+00  0.00000000000E+00  0.17902236060E+04  0.17902236060E+04  0.25500000920E-02 0.  1.
       -2   -1    0    0    0  501  0.00000000000E+00  0.00000000000E+00 -0.13155329355E+04  0.13155329355E+04  0.25500000920E-02 0. -1.
    10030    2    1    2    0    0  0.00000000000E+00  0.00000000000E+00  0.47469067053E+03  0.31057565415E+04  0.30692657855E+04 0.  0.
        5    1    3    3  502    0 -0.96792399555E+03 -0.90463918239E+03  0.10210383164E+04  0.16726596321E+04  0.46999998093E+01 0.  1.
       -5    1    3    3    0  502  0.96792399555E+03  0.90463918239E+03 -0.54634764585E+03  0.14330969094E+04  0.46999998093E+01 0. -1.
</event>
<event>
 5   0  0.7363513E-06  0.2383887E+04  0.7818609E-02  0.8445561E-01
        2   -1    0    0  501    0  0.00000000000E+00  0.00000000000E+00  0.13681064278E+04  0.13681064278E+04  0.25500000920E-02 0.  1.
       -2   -1    0    0    0  501  0.00000000000E+00  0.00000000000E+00 -0.10384641874E+04  0.10384641874E+04  0.25500000920E-02 0. -1.
    10030    2    1    2    0    0  0.00000000000E+00  0.00000000000E+00  0.32964224045E+03  0.24065706152E+04  0.23838871868E+04 0.  0.
        4    1    3    3  502    0 -0.11589302160E+04 -0.51279958697E+02 -0.11160739413E+03  0.11654212557E+04  0.12699999809E+01 0. -1.
       -4    1    3    3    0  502  0.11589302160E+04  0.51279958697E+02  0.44124963458E+03  0.12411493596E+04  0.12699999809E+01 0.  1.
</event>
<event>
 5   0  0.7094341E-06  0.3100083E+04  0.7818609E-02  0.8215715E-01
       -2   -1    0    0    0  501  0.00000000000E+00  0.00000000000E+00  0.12319293008E+04  0.12319293008E+04  0.25500000920E-02 0. -1.
        2   -1    0    0  501    0  0.00000000000E+00  0.00000000000E+00 -0.19502973429E+04  0.19502973429E+04  0.25500000920E-02 0.  1.
    10030    2    1    2    0    0  0.00000000000E+00  0.00000000000E+00 -0.71836804216E+03  0.31822266437E+04  0.31000828647E+04 0.  0.
        3    1    3    3  502    0  0.69689426460E+03 -0.74241903928E+02 -0.17783717228E+04  0.19114861943E+04  0.10100000352E+00 0.  1.
       -3    1    3    3    0  502 -0.69689426460E+03  0.74241903928E+02  0.10600036807E+04  0.12707404493E+04  0.10100000352E+00 0. -1.
</event>
<event>
 5   0  0.7094341E-06  0.3077093E+04  0.7818609E-02  0.8222053E-01
       -2   -1    0    0    0  501  0.00000000000E+00  0.00000000000E+00  0.17859894485E+04  0.17859894485E+04  0.25500000920E-02 0. -1.
        2   -1    0    0  501    0  0.00000000000E+00  0.00000000000E+00 -0.13253861257E+04  0.13253861257E+04  0.25500000920E-02 0.  1.
    10030    2    1    2    0    0  0.00000000000E+00  0.00000000000E+00  0.46060332282E+03  0.31113755743E+04  0.30770931970E+04 0.  0.
        3    1    3    3  502    0 -0.11601341700E+04  0.13463308691E+03 -0.78239962758E+03  0.14057690237E+04  0.10100000352E+00 0.  1.
       -3    1    3    3    0  502  0.11601341700E+04 -0.13463308691E+03  0.12430029504E+04  0.17056065506E+04  0.10100000352E+00 0. -1.
</event>
<event>
 5   0  0.7363513E-06  0.3084570E+04  0.7818609E-02  0.8219985E-01
       -2   -1    0    0    0  501  0.00000000000E+00  0.00000000000E+00  0.11670029132E+04  0.11670029132E+04  0.25500000920E-02 0.  1.
        2   -1    0    0  501    0  0.00000000000E+00  0.00000000000E+00 -0.20382498231E+04  0.20382498231E+04  0.25500000920E-02 0. -1.
    10030    2    1    2    0    0  0.00000000000E+00  0.00000000000E+00 -0.87124690989E+03  0.32052527362E+04  0.30845702983E+04 0.  0.
        4    1    3    3  502    0 -0.10603170292E+04  0.26451168007E+03 -0.15665057375E+04  0.19100210653E+04  0.12699999809E+01 0. -1.
       -4    1    3    3    0  502  0.10603170292E+04 -0.26451168007E+03  0.69525882759E+03  0.12952316710E+04  0.12699999809E+01 0.  1.
</event>
<event>
 5   0  0.7094341E-06  0.3128892E+04  0.7818609E-02  0.8207853E-01
        2   -1    0    0  501    0  0.00000000000E+00  0.00000000000E+00  0.19104585018E+04  0.19104585018E+04  0.25500000920E-02 0.  1.
       -2   -1    0    0    0  501  0.00000000000E+00  0.00000000000E+00 -0.12811016680E+04  0.12811016680E+04  0.25500000920E-02 0. -1.
    10030    2    1    2    0    0  0.00000000000E+00  0.00000000000E+00  0.62935683380E+03  0.31915601699E+04  0.31288921832E+04 0.  0.
        3    1    3    3  502    0  0.31776136399E+03 -0.70960212734E+03 -0.10700775093E+04  0.13227143870E+04  0.10100000352E+00 0. -1.
       -3    1    3    3    0  502 -0.31776136399E+03  0.70960212734E+03  0.16994343431E+04  0.18688457829E+04  0.10100000352E+00 0.  1.
</event>
<event>
 5   0  0.2674441E-06  0.3115060E+04  0.7818609E-02  0.8211617E-01
        1   -1    0    0  501    0  0.00000000000E+00  0.00000000000E+00  0.31028323548E+04  0.31028323548E+04  0.50400001928E-02 0. -1.
       -1   -1    0    0    0  501  0.00000000000E+00  0.00000000000E+00 -0.78183388333E+03  0.78183388335E+03  0.50400001928E-02 0.  1.
    10030    2    1    2    0    0  0.00000000000E+00  0.00000000000E+00  0.23209984715E+04  0.38846662382E+04  0.31150598513E+04 0.  0.
        5    1    3    3  502    0 -0.13516907838E+04 -0.45389661050E+03  0.19420658839E+04  0.24093011634E+04  0.46999998093E+01 0. -1.
       -5    1    3    3    0  502  0.13516907838E+04  0.45389661050E+03  0.37893258756E+03  0.14753650748E+04  0.46999998093E+01 0.  1.
</event>
<event>
 5   0  0.7071012E-06  0.2906737E+04  0.7818609E-02  0.8270876E-01
        2   -1    0    0  501    0  0.00000000000E+00  0.00000000000E+00  0.12283175141E+04  0.12283175141E+04  0.25500000920E-02 0. -1.
       -2   -1    0    0    0  501  0.00000000000E+00  0.00000000000E+00 -0.17196529070E+04  0.17196529070E+04  0.25500000920E-02 0.  1.
    10030    2    1    2    0    0  0.00000000000E+00  0.00000000000E+00 -0.49133539287E+03  0.29479704210E+04  0.29067368534E+04 0.  0.
        1    1    3    3  502    0  0.16529713678E+03 -0.91788696075E+01  0.12187236155E+04  0.12299165199E+04  0.50400001928E-02 0. -1.
       -1    1    3    3    0  502 -0.16529713678E+03  0.91788696075E+01 -0.17100590083E+04  0.17180539011E+04  0.50400001928E-02 0.  1.
</event>
<event>
 5   0  0.2624011E-06  0.2988377E+04  0.7818609E-02  0.8247058E-01
       -1   -1    0    0    0  501  0.00000000000E+00  0.00000000000E+00  0.11982562074E+04  0.11982562074E+04  0.50400001928E-02 0.  1.
        1   -1    0    0  501    0  0.00000000000E+00  0.00000000000E+00 -0.18632072754E+04  0.18632072754E+04  0.50400001928E-02 0. -1.
    10030    2    1    2    0    0  0.00000000000E+00  0.00000000000E+00 -0.66495106796E+03  0.30614634828E+04  0.29883772744E+04 0.  0.
        1    1    3    3  502    0  0.12116565849E+04 -0.47524529691E+03  0.41938777559E+03  0.13674267360E+04  0.50400001928E-02 0.  1.
       -1    1    3    3    0  502 -0.12116565849E+04  0.47524529691E+03 -0.10843388435E+04  0.16940367468E+04  0.50400001928E-02 0. -1.
</event>
<event>
 5   0  0.7363513E-06  0.2999927E+04  0.7818609E-02  0.8243752E-01
        2   -1    0    0  501    0  0.00000000000E+00  0.00000000000E+00  0.24739564791E+04  0.24739564791E+04  0.25500000920E-02 0.  1.
       -2   -1    0    0    0  501  0.00000000000E+00  0.00000000000E+00 -0.90943035802E+03  0.90943035802E+03  0.25500000920E-02 0. -1.
    10030    2    1    2    0    0  0.00000000000E+00  0.00000000000E+00  0.15645261211E+04  0.33833868371E+04  0.29999274168E+04 0.  0.
        4    1    3    3  502    0  0.13460971159E+04  0.65954710938E+03  0.84309944770E+03  0.17198250279E+04  0.12699999809E+01 0. -1.
       -4    1    3    3    0  502 -0.13460971159E+04 -0.65954710938E+03  0.72142667338E+03  0.16635618092E+04  0.12699999809E+01 0.  1.
</event>
<event>
 5   0  0.7363513E-06  0.3160731E+04  0.7818609E-02  0.8199266E-01
       -2   -1    0    0    0  501  0.00000000000E+00  0.00000000000E+00  0.96298593293E+03  0.96298593294E+03  0.25500000920E-02 0.  1.
        2   -1    0    0  501    0  0.00000000000E+00  0.00000000000E+00 -0.25935535496E+04  0.25935535496E+04  0.25500000920E-02 0. -1.
    10030    2    1    2    0    0  0.00000000000E+00  0.00000000000E+00 -0.16305676166E+04  0.35565394825E+04  0.31607312980E+04 0.  0.
        4    1    3    3  502    0 -0.48268964891E+03 -0.15045441095E+04 -0.84925926761E+03  0.17938464792E+04  0.12699999809E+01 0. -1.
       -4    1    3    3    0  502  0.48268964891E+03  0.15045441095E+04 -0.78130834903E+03  0.17626930033E+04  0.12699999809E+01 0.  1.
</event>
<event>
 5   0  0.2393250E-06  0.3172034E+04  0.7818609E-02  0.8196242E-01
       -3   -1    0    0    0  501  0.00000000000E+00  0.00000000000E+00  0.22961549955E+04  0.22961549978E+04  0.10100000352E+00 0.  1.
        3   -1    0    0  501    0  0.00000000000E+00  0.00000000000E+00 -0.10955052752E+04  0.10955052798E+04  0.10100000352E+00 0. -1.
    10030    2    1    2    0    0  0.00000000000E+00  0.00000000000E+00  0.12006497204E+04  0.33916602776E+04  0.31720339985E+04 0.  0.
        4    1    3    3  502    0 -0.13265099199E+04 -0.76820024740E+03  0.10355562382E+04  0.18499023010E+04  0.12699999809E+01 0.  1.
       -4    1    3    3    0  502  0.13265099199E+04  0.76820024740E+03  0.16509348215E+03  0.15417579766E+04  0.12699999809E+01 0. -1.
</event>
<event>
 5   0  0.7363513E-06  0.3108013E+04  0.7818609E-02  0.8213542E-01
       -2   -1    0    0    0  501  0.00000000000E+00  0.00000000000E+00  0.13646222215E+04  0.13646222215E+04  0.25500000920E-02 0.  1.
        2   -1    0    0  501    0  0.00000000000E+00  0.00000000000E+00 -0.17696735772E+04  0.17696735772E+04  0.25500000920E-02 0. -1.
    10030    2    1    2    0    0  0.00000000000E+00  0.00000000000E+00 -0.40505135575E+03  0.31342957987E+04  0.31080127981E+04 0.  0.
        4    1    3    3  502    0  0.14285790548E+03 -0.23102329294E+03  0.13404965614E+04  0.13677400291E+04  0.12699999809E+01 0.  1.
       -4    1    3    3    0  502 -0.14285790548E+03  0.23102329294E+03 -0.17455479172E+04  0.17665557696E+04  0.12699999809E+01 0. -1.
</event>
<event>
 5   0  0.7071012E-06  0.3083249E+04  0.7818609E-02  0.8220350E-01
       -2   -1    0    0    0  501  0.00000000000E+00  0.00000000000E+00  0.10502111682E+04  0.10502111682E+04  0.25500000920E-02 0. -1.
        2   -1    0    0  501    0  0.00000000000E+00  0.00000000000E+00 -0.22629797549E+04  0.22629797549E+04  0.25500000920E-02 0.  1.
    10030    2    1    2    0    0  0.00000000000E+00  0.00000000000E+00 -0.12127685867E+04  0.33131909231E+04  0.30832493327E+04 0.  0.
        1    1    3    3  502    0 -0.77089850073E+03  0.11610457732E+04 -0.13145422586E+04  0.19158113518E+04  0.50400001928E-02 0.  1.
       -1    1    3    3    0  502  0.77089850073E+03 -0.11610457732E+04  0.10177367188E+03  0.13973795713E+04  0.50400001928E-02 0. -1.
</event>
<event>
 5   0  0.2612331E-06  0.3093737E+04  0.7818609E-02  0.8217459E-01
       -1   -1    0    0    0  501  0.00000000000E+00  0.00000000000E+00  0.13296554856E+04  0.13296554856E+04  0.50400001928E-02 0. -1.
        1   -1    0    0  501    0  0.00000000000E+00  0.00000000000E+00 -0.17995660578E+04  0.17995660578E+04  0.50400001928E-02 0.  1.
    10030    2    1    2    0    0  0.00000000000E+00  0.00000000000E+00 -0.46991057224E+03  0.31292215434E+04  0.30937374682E+04 0.  0.
        4    1    3    3  502    0 -0.11012578816E+04  0.33590539908E+03  0.80994715588E+03  0.14076993170E+04  0.12699999809E+01 0. -1.
       -4    1    3    3    0  502  0.11012578816E+04 -0.33590539908E+03 -0.12798577281E+04  0.17215222264E+04  0.12699999809E+01 0.  1.
</event>
<event>
 5   0  0.2393250E-06  0.3137062E+04  0.7818609E-02  0.8205640E-01
       -3   -1    0    0    0  501  0.00000000000E+00  0.00000000000E+00  0.11669263357E+04  0.11669263400E+04  0.10100000352E+00 0.  1.
        3   -1    0    0  501    0  0.00000000000E+00  0.00000000000E+00 -0.21083497496E+04  0.21083497521E+04  0.10100000352E+00 0. -1.
    10030    2    1    2    0    0  0.00000000000E+00  0.00000000000E+00 -0.94142341398E+03  0.32752760921E+04  0.31370615925E+04 0.  0.
        3    1    3    3  502    0 -0.76488889558E+01 -0.34176295729E+03 -0.20689837988E+04  0.20970346669E+04  0.10100000352E+00 0. -1.
       -3    1    3    3    0  502  0.76488889558E+01  0.34176295729E+03  0.11275603848E+04  0.11782414252E+04  0.10100000352E+00 0.  1.
</event>
<event>
 5   0  0.2674441E-06  0.3378877E+04  0.7818609E-02  0.8143110E-01
       -1   -1    0    0    0  501  0.00000000000E+00  0.00000000000E+00  0.93696853189E+03  0.93696853190E+03  0.50400001928E-02 0. -1.
        1   -1    0    0  501    0  0.00000000000E+00  0.00000000000E+00 -0.30462091482E+04  0.30462091482E+04  0.50400001928E-02 0.  1.
    10030    2    1    2    0    0  0.00000000000E+00  0.00000000000E+00 -0.21092406163E+04  0.39831776801E+04  0.33788768036E+04 0.  0.
        5    1    3    3  502    0  0.12680645609E+04 -0.46069961469E+02  0.26024027141E+03  0.12953212964E+04  0.46999998093E+01 0. -1.
       -5    1    3    3    0  502 -0.12680645609E+04  0.46069961469E+02 -0.23694808877E+04  0.26878563837E+04  0.46999998093E+01 0.  1.
</event>
<event>
 5   0  0.7363513E-06  0.2218746E+04  0.7818609E-02  0.8510666E-01
       -2   -1    0    0    0  501  0.00000000000E+00  0.00000000000E+00  0.64017078765E+03  0.64017078765E+03  0.25500000920E-02 0.  1.
        2   -1    0    0  501    0  0.00000000000E+00  0.00000000000E+00 -0.19224697428E+04  0.19224697428E+04  0.25500000920E-02 0. -1.
    10030    2    1    2    0    0  0.00000000000E+00  0.00000000000E+00 -0.12822989552E+04  0.25626405305E+04  0.22187464655E+04 0.  0.
        4    1    3    3  502    0 -0.83862897892E+03  0.19775013184E+03 -0.14482451333E+04  0.16851763284E+04  0.12699999809E+01 0. -1.
       -4    1    3    3    0  502  0.83862897892E+03 -0.19775013184E+03  0.16594617812E+03  0.87746420204E+03  0.12699999809E+01 0.  1.
</event>
<event>
 5   0  0.7071012E-06  0.3038089E+04  0.7818609E-02  0.8232937E-01
       -2   -1    0    0    0  501  0.00000000000E+00  0.00000000000E+00  0.11638008588E+04  0.11638008588E+04  0.25500000920E-02 0. -1.
        2   -1    0    0  501    0  0.00000000000E+00  0.00000000000E+00 -0.19827247615E+04  0.19827247615E+04  0.25500000920E-02 0.  1.
    10030    2    1    2    0    0  0.00000000000E+00  0.00000000000E+00 -0.81892390270E+03  0.31465256203E+04  0.30380893866E+04 0.  0.
        1    1    3    3  502    0  0.40297717757E+03 -0.68354831372E+03  0.93209651566E+03  0.12241049046E+04  0.50400001928E-02 0. -1.
       -1    1    3    3    0  502 -0.40297717757E+03  0.68354831372E+03 -0.17510204184E+04  0.19224207158E+04  0.50400001928E-02 0.  1.
</event>
<event>
 5   0  0.7414808E-06  0.2297957E+04  0.7818609E-02  0.8478727E-01
        2   -1    0    0  501    0  0.00000000000E+00  0.00000000000E+00  0.11872422765E+04  0.11872422765E+04  0.25500000920E-02 0.  1.
       -2   -1    0    0    0  501  0.00000000000E+00  0.00000000000E+00 -0.11119478773E+04  0.11119478773E+04  0.25500000920E-02 0. -1.
    10030    2    1    2    0    0  0.00000000000E+00  0.00000000000E+00  0.75294399179E+02  0.22991901539E+04  0.22979569441E+04 0.  0.
        2    1    3    3  502    0 -0.11058827031E+04  0.25769996913E+03  0.21314287488E+03  0.11553422490E+04  0.25500000920E-02 0.  1.
       -2    1    3    3    0  502  0.11058827031E+04 -0.25769996913E+03 -0.13784847570E+03  0.11438479049E+04  0.25500000920E-02 0. -1.
</event>
<event>
 5   0  0.7079223E-06  0.3167944E+04  0.7818609E-02  0.8197335E-01
       -2   -1    0    0    0  501  0.00000000000E+00  0.00000000000E+00  0.17565983238E+04  0.17565983238E+04  0.25500000920E-02 0. -1.
        2   -1    0    0  501    0  0.00000000000E+00  0.00000000000E+00 -0.14283099039E+04  0.14283099039E+04  0.25500000920E-02 0.  1.
    10030    2    1    2    0    0  0.00000000000E+00  0.00000000000E+00  0.32828841994E+03  0.31849082277E+04  0.31679436756E+04 0.  0.
        5    1    3    3  502    0  0.14344631211E+04  0.67175658851E+03  0.16597960257E+03  0.15926432992E+04  0.46999998093E+01 0. -1.
       -5    1    3    3    0  502 -0.14344631211E+04 -0.67175658851E+03  0.16230881738E+03  0.15922649284E+04  0.46999998093E+01 0.  1.
</event>
<event>
 5   0  0.7414808E-06  0.3073081E+04  0.7818609E-02  0.8223165E-01
        2   -1    0    0  501    0  0.00000000000E+00  0.00000000000E+00  0.12802696454E+04  0.12802696454E+04  0.25500000920E-02 0.  1.
       -2   -1    0    0    0  501  0.00000000000E+00  0.00000000000E+00 -0.18441088462E+04  0.18441088462E+04  0.25500000920E-02 0. -1.
    10030    2    1    2    0    0  0.00000000000E+00  0.00000000000E+00 -0.56383920074E+03  0.31243784916E+04  0.30730809157E+04 0.  0.
        2    1    3    3  502    0 -0.10676063409E+04  0.11001254252E+04 -0.38805241080E+03  0.15813424435E+04  0.25500000920E-02 0. -1.
       -2    1    3    3    0  502  0.10676063409E+04 -0.11001254252E+04 -0.17578678994E+03  0.15430360481E+04  0.25500000920E-02 0.  1.
</event>
<event>
 5   0  0.2517725E-06  0.3085267E+04  0.7818609E-02  0.8219793E-01
       -1   -1    0    0    0  501  0.00000000000E+00  0.00000000000E+00  0.11575648108E+04  0.11575648109E+04  0.50400001928E-02 0. -1.
        1   -1    0    0  501    0  0.00000000000E+00  0.00000000000E+00 -0.20557963280E+04  0.20557963280E+04  0.50400001928E-02 0.  1.
    10030    2    1    2    0    0  0.00000000000E+00  0.00000000000E+00 -0.89823151713E+03  0.32133611388E+04  0.30852665931E+04 0.  0.
        3    1    3    3  502    0  0.38653428631E+03  0.11416963747E+04  0.55357908635E+03  0.13263970679E+04  0.10100000352E+00 0. -1.
       -3    1    3    3    0  502 -0.38653428631E+03 -0.11416963747E+04 -0.14518106035E+04  0.18869640710E+04  0.10100000352E+00 0.  1.
</event>
<event>
 5   0  0.7071012E-06  0.2703635E+04  0.7818609E-02  0.8333827E-01
       -2   -1    0    0    0  501  0.00000000000E+00  0.00000000000E+00  0.19009660532E+04  0.19009660532E+04  0.25500000920E-02 0.  1.
        2   -1    0    0  501    0  0.00000000000E+00  0.00000000000E+00 -0.96130625398E+03  0.96130625398E+03  0.25500000920E-02 0. -1.
    10030    2    1    2    0    0  0.00000000000E+00  0.00000000000E+00  0.93965979922E+03  0.28622723072E+04  0.27036350017E+04 0.  0.
        1    1    3    3  502    0  0.84131475695E+03  0.19977484208E+02  0.15898270578E+04  0.17988217516E+04  0.50400001928E-02 0.  1.
       -1    1    3    3    0  502 -0.84131475695E+03 -0.19977484208E+02 -0.65016725857E+03  0.10634505556E+04  0.50400001928E-02 0. -1.
</event>
<event>
 5   0  0.2598987E-06  0.3096022E+04  0.7818609E-02  0.8216830E-01
        1   -1    0    0  501    0  0.00000000000E+00  0.00000000000E+00  0.11591724975E+04  0.11591724975E+04  0.50400001928E-02 0.  1.
       -1   -1    0    0    0  501  0.00000000000E+00  0.00000000000E+00 -0.20672837893E+04  0.20672837893E+04  0.50400001928E-02 0. -1.
    10030    2    1    2    0    0  0.00000000000E+00  0.00000000000E+00 -0.90811129182E+03  0.32264562869E+04  0.30960222952E+04 0.  0.
        2    1    3    3  502    0 -0.34105744651E+03 -0.43386216987E+03 -0.19612869707E+04  0.20374501578E+04  0.25500000920E-02 0. -1.
       -2    1    3    3    0  502  0.34105744651E+03  0.43386216987E+03  0.10531756789E+04  0.11890061290E+04  0.25500000920E-02 0.  1.
</event>
<event>
 5   0  0.2612331E-06  0.2121241E+04  0.7818609E-02  0.8551944E-01
       -1   -1    0    0    0  501  0.00000000000E+00  0.00000000000E+00  0.82506868367E+03  0.82506868369E+03  0.50400001928E-02 0. -1.
        1   -1    0    0  501    0  0.00000000000E+00  0.00000000000E+00 -0.13634202964E+04  0.13634202964E+04  0.50400001928E-02 0.  1.
    10030    2    1    2    0    0  0.00000000000E+00  0.00000000000E+00 -0.53835161269E+03  0.21884889801E+04  0.21212405703E+04 0.  0.
        4    1    3    3  502    0 -0.23464848014E+03  0.57958304655E+03  0.61468512363E+03  0.87682143632E+03  0.12699999809E+01 0. -1.
       -4    1    3    3    0  502  0.23464848014E+03 -0.57958304655E+03 -0.11530367363E+04  0.13116675437E+04  0.12699999809E+01 0.  1.
</event>
<event>
 5   0  0.7094341E-06  0.3028163E+04  0.7818609E-02  0.8235734E-01
       -2   -1    0    0    0  501  0.00000000000E+00  0.00000000000E+00  0.20019364943E+04  0.20019364943E+04  0.25500000920E-02 0.  1.
        2   -1    0    0  501    0  0.00000000000E+00  0.00000000000E+00 -0.11451130181E+04  0.11451130181E+04  0.25500000920E-02 0. -1.
    10030    2    1    2    0    0  0.00000000000E+00  0.00000000000E+00  0.85682347629E+03  0.31470495124E+04  0.30281634969E+04 0.  0.
        3    1    3    3  502    0 -0.41140770568E+03  0.17308233184E+03  0.19320130767E+04  0.19828989719E+04  0.10100000352E+00 0.  1.
       -3    1    3    3    0  502  0.41140770568E+03 -0.17308233184E+03 -0.10751896004E+04  0.11641505405E+04  0.10100000352E+00 0. -1.
</event>
<event>
 5   0  0.7079223E-06  0.3048620E+04  0.7818609E-02  0.8229982E-01
        2   -1    0    0  501    0  0.00000000000E+00  0.00000000000E+00  0.21095924748E+04  0.21095924748E+04  0.25500000920E-02 0. -1.
       -2   -1    0    0    0  501  0.00000000000E+00  0.00000000000E+00 -0.11014072468E+04  0.11014072468E+04  0.25500000920E-02 0.  1.
    10030    2    1    2    0    0  0.00000000000E+00  0.00000000000E+00  0.10081852280E+04  0.32109997217E+04  0.30486196481E+04 0.  0.
        5    1    3    3  502    0 -0.99921223687E+03 -0.74306599382E+03 -0.42189682519E+03  0.13147589842E+04  0.46999998093E+01 0.  1.
       -5    1    3    3    0  502  0.99921223687E+03  0.74306599382E+03  0.14300820532E+04  0.18962407374E+04  0.46999998093E+01 0. -1.
</event>
<event>
 5   0  0.2393250E-06  0.3070187E+04  0.7818609E-02  0.8223968E-01
       -3   -1    0    0    0  501  0.00000000000E+00  0.00000000000E+00  0.22521619771E+04  0.22521619793E+04  0.10100000352E+00 0. -1.
        3   -1    0    0  501    0  0.00000000000E+00  0.00000000000E+00 -0.10463329975E+04  0.10463330024E+04  0.10100000352E+00 0.  1.
    10030    2    1    2    0    0  0.00000000000E+00  0.00000000000E+00  0.12058289795E+04  0.32984949818E+04  0.30701865769E+04 0.  0.
        1    1    3    3  502    0 -0.13555372574E+04  0.45659539329E+03  0.12016256885E+04  0.18681180115E+04  0.50400001928E-02 0.  1.
       -1    1    3    3    0  502  0.13555372574E+04 -0.45659539329E+03  0.42032910208E+01  0.14303769703E+04  0.50400001928E-02 0. -1.
</event>
<event>
 5   0  0.7079223E-06  0.3070261E+04  0.7818609E-02  0.8223947E-01
        2   -1    0    0  501    0  0.00000000000E+00  0.00000000000E+00  0.14827819758E+04  0.14827819758E+04  0.25500000920E-02 0. -1.
       -2   -1    0    0    0  501  0.00000000000E+00  0.00000000000E+00 -0.15893273539E+04  0.15893273539E+04  0.25500000920E-02 0.  1.
    10030    2    1    2    0    0  0.00000000000E+00  0.00000000000E+00 -0.10654537812E+03  0.30721093297E+04  0.30702611967E+04 0.  0.
        5    1    3    3  502    0  0.14060423355E+04  0.14059356191E+03 -0.65353567739E+03  0.15568726893E+04  0.46999998093E+01 0.  1.
       -5    1    3    3    0  502 -0.14060423355E+04 -0.14059356191E+03  0.54699029927E+03  0.15152366404E+04  0.46999998093E+01 0. -1.
</event>
<event>
 5   0  0.7071012E-06  0.3097172E+04  0.7818609E-02  0.8216514E-01
        2   -1    0    0  501    0  0.00000000000E+00  0.00000000000E+00  0.20036622802E+04  0.20036622802E+04  0.25500000920E-02 0. -1.
       -2   -1    0    0    0  501  0.00000000000E+00  0.00000000000E+00 -0.11968678301E+04  0.11968678301E+04  0.25500000920E-02 0.  1.
    10030    2    1    2    0    0  0.00000000000E+00  0.00000000000E+00  0.80679445005E+03  0.32005301103E+04  0.30971722107E+04 0.  0.
        1    1    3    3  502    0 -0.56553996296E+03  0.88224753134E+03 -0.77479279287E+03  0.13032651412E+04  0.50400001928E-02 0.  1.
       -1    1    3    3    0  502  0.56553996296E+03 -0.88224753134E+03  0.15815872429E+04  0.18972649692E+04  0.50400001928E-02 0. -1.
</event>
<event>
 5   0  0.2612331E-06  0.3015891E+04  0.7818609E-02  0.8239208E-01
       -1   -1    0    0    0  501  0.00000000000E+00  0.00000000000E+00  0.11604671398E+04  0.11604671398E+04  0.50400001928E-02 0.  1.
        1   -1    0    0  501    0  0.00000000000E+00  0.00000000000E+00 -0.19594688282E+04  0.19594688282E+04  0.50400001928E-02 0. -1.
    10030    2    1    2    0    0  0.00000000000E+00  0.00000000000E+00 -0.79900168843E+03  0.31199359680E+04  0.30158907053E+04 0.  0.
        4    1    3    3  502    0 -0.32321504714E+03  0.44044751123E+03  0.10544894910E+04  0.11876075430E+04  0.12699999809E+01 0.  1.
       -4    1    3    3    0  502  0.32321504714E+03 -0.44044751123E+03 -0.18534911794E+04  0.19323284249E+04  0.12699999809E+01 0. -1.
</event>
<event>
 5   0  0.2674441E-06  0.3129846E+04  0.7818609E-02  0.8207594E-01
       -1   -1    0    0    0  501  0.00000000000E+00  0.00000000000E+00  0.17278556371E+04  0.17278556371E+04  0.50400001928E-02 0.  1.
        1   -1    0    0  501    0  0.00000000000E+00  0.00000000000E+00 -0.14173544683E+04  0.14173544684E+04  0.50400001928E-02 0. -1.
    10030    2    1    2    0    0  0.00000000000E+00  0.00000000000E+00  0.31050116879E+03  0.31452101055E+04  0.31298459438E+04 0.  0.
        5    1    3    3  502    0  0.72002400937E+03 -0.10923200984E+04 -0.70766374314E+03  0.14874164967E+04  0.46999998093E+01 0. -1.
       -5    1    3    3    0  502 -0.72002400937E+03  0.10923200984E+04  0.10181649119E+04  0.16577936088E+04  0.46999998093E+01 0.  1.
</event>
<event>
 5   0  0.7079223E-06  0.3098142E+04  0.7818609E-02  0.8216248E-01
        2   -1    0    0  501    0  0.00000000000E+00  0.00000000000E+00  0.16117770940E+04  0.16117770940E+04  0.25500000920E-02 0. -1.
       -2   -1    0    0    0  501  0.00000000000E+00  0.00000000000E+00 -0.14888045171E+04  0.14888045171E+04  0.25500000920E-02 0.  1.
    10030    2    1    2    0    0  0.00000000000E+00  0.00000000000E+00  0.12297257694E+03  0.31005816111E+04  0.30981420356E+04 0.  0.
        5    1    3    3  502    0  0.36368474648E+03  0.11172167929E+04 -0.94884268725E+03  0.15102200146E+04  0.46999998093E+01 0.  1.
       -5    1    3    3    0  502 -0.36368474648E+03 -0.11172167929E+04  0.10718152642E+04  0.15903615966E+04  0.46999998093E+01 0. -1.
</event>
<event>
 5   0  0.7414808E-06  0.2177437E+04  0.7818609E-02  0.8527878E-01
        2   -1    0    0  501    0  0.00000000000E+00  0.00000000000E+00  0.17597456103E+04  0.17597456103E+04  0.25500000920E-02 0. -1.
       -2   -1    0    0    0  501  0.00000000000E+00  0.00000000000E+00 -0.67356808552E+03  0.67356808552E+03  0.25500000920E-02 0.  1.
    10030    2    1    2    0    0  0.00000000000E+00  0.00000000000E+00  0.10861775248E+04  0.24333136958E+04  0.21774374680E+04 0.  0.
        2    1    3    3  502    0  0.87163390282E+03 -0.48996479263E+03  0.61782810498E+02  0.10018124946E+04  0.25500000920E-02 0.  1.
       -2    1    3    3    0  502 -0.87163390282E+03  0.48996479263E+03  0.10243947143E+04  0.14315012013E+04  0.25500000920E-02 0. -1.
</event>
<event>
 5   0  0.7094341E-06  0.3015514E+04  0.7818609E-02  0.8239315E-01
       -2   -1    0    0    0  501  0.00000000000E+00  0.00000000000E+00  0.13616873277E+04  0.13616873277E+04  0.25500000920E-02 0. -1.
        2   -1    0    0  501    0  0.00000000000E+00  0.00000000000E+00 -0.16694959146E+04  0.16694959146E+04  0.25500000920E-02 0.  1.
    10030    2    1    2    0    0  0.00000000000E+00  0.00000000000E+00 -0.30780858691E+03  0.30311832423E+04  0.30155141721E+04 0.  0.
        3    1    3    3  502    0 -0.12929183689E+04 -0.25160924222E+03 -0.89146507851E+03  0.15904889549E+04  0.10100000352E+00 0.  1.
       -3    1    3    3    0  502  0.12929183689E+04  0.25160924222E+03  0.58365649160E+03  0.14406942874E+04  0.10100000352E+00 0. -1.
</event>
<event>
 5   0  0.2624011E-06  0.3171932E+04  0.7818609E-02  0.8196269E-01
       -1   -1    0    0    0  501  0.00000000000E+00  0.00000000000E+00  0.15505370729E+04  0.15505370729E+04  0.50400001928E-02 0.  1.
        1   -1    0    0  501    0  0.00000000000E+00  0.00000000000E+00 -0.16222042510E+04  0.16222042510E+04  0.50400001928E-02 0. -1.
    10030    2    1    2    0    0  0.00000000000E+00  0.00000000000E+00 -0.71667178169E+02  0.31727413239E+04  0.31719317969E+04 0.  0.
        1    1    3    3  502    0  0.48457488670E+03 -0.81331345732E+03  0.12368889740E+04  0.15576218844E+04  0.50400001928E-02 0.  1.
       -1    1    3    3    0  502 -0.48457488670E+03  0.81331345732E+03 -0.13085561521E+04  0.16151194395E+04  0.50400001928E-02 0. -1.
</event>
<event>
 5   0  0.7094341E-06  0.3088052E+04  0.7818609E-02  0.8219025E-01
       -2   -1    0    0    0  501  0.00000000000E+00  0.00000000000E+00  0.13988349861E+04  0.13988349861E+04  0.25500000920E-02 0.  1.
        2   -1    0    0  501    0  0.00000000000E+00  0.00000000000E+00 -0.17042868066E+04  0.17042868066E+04  0.25500000920E-02 0. -1.
    10030    2    1    2    0    0  0.00000000000E+00  0.00000000000E+00 -0.30545182053E+03  0.31031217927E+04  0.30880518204E+04 0.  0.
        3    1    3    3  502    0  0.11667443756E+04  0.46047374797E+03  0.75204989290E+03  0.14625004486E+04  0.10100000352E+00 0.  1.
       -3    1    3    3    0  502 -0.11667443756E+04 -0.46047374797E+03 -0.10575017134E+04  0.16406213441E+04  0.10100000352E+00 0. -1.
</event>
<event>
 5   0  0.7079223E-06  0.3085158E+04  0.7818609E-02  0.8219823E-01
       -2   -1    0    0    0  501  0.00000000000E+00  0.00000000000E+00  0.27480911480E+04  0.27480911480E+04  0.25500000920E-02 0. -1.
        2   -1    0    0  501    0  0.00000000000E+00  0.00000000000E+00 -0.86589213562E+03  0.86589213562E+03  0.25500000920E-02 0.  1.
    10030    2    1    2    0    0  0.00000000000E+00  0.00000000000E+00  0.18821990124E+04  0.36139832837E+04  0.30851583512E+04 0.  0.
        5    1    3    3  502    0  0.99895143766E+03 -0.95858521628E+03  0.17379496444E+04  0.22219992457E+04  0.46999998093E+01 0. -1.
       -5    1    3    3    0  502 -0.99895143766E+03  0.95858521628E+03  0.14424936806E+03  0.13919840379E+04  0.46999998093E+01 0.  1.
</event>
<event>
 5   0  0.2624011E-06  0.3119743E+04  0.7818609E-02  0.8210340E-01
       -1   -1    0    0    0  501  0.00000000000E+00  0.00000000000E+00  0.12294440471E+04  0.12294440472E+04  0.50400001928E-02 0. -1.
        1   -1    0    0  501    0  0.00000000000E+00  0.00000000000E+00 -0.19791054501E+04  0.19791054501E+04  0.50400001928E-02 0.  1.
    10030    2    1    2    0    0  0.00000000000E+00  0.00000000000E+00 -0.74966140297E+03  0.32085494973E+04  0.31197432037E+04 0.  0.
        1    1    3    3  502    0  0.28956253782E+03 -0.14494823703E+04  0.13770640028E+03  0.14845230405E+04  0.50400001928E-02 0.  1.
       -1    1    3    3    0  502 -0.28956253782E+03  0.14494823703E+04 -0.88736780325E+03  0.17240264567E+04  0.50400001928E-02 0. -1.
</event>
<event>
 5   0  0.2598987E-06  0.2736405E+04  0.7818609E-02  0.8323289E-01
        1   -1    0    0  501    0  0.00000000000E+00  0.00000000000E+00  0.22390662603E+04  0.22390662603E+04  0.50400001928E-02 0. -1.
       -1   -1    0    0    0  501  0.00000000000E+00  0.00000000000E+00 -0.83605313168E+03  0.83605313169E+03  0.50400001928E-02 0.  1.
    10030    2    1    2    0    0  0.00000000000E+00  0.00000000000E+00  0.14030131286E+04  0.30751193920E+04  0.27364052032E+04 0.  0.
        2    1    3    3  502    0 -0.49275665625E+03 -0.48597091495E+03 -0.62484107118E+03  0.93241794100E+03  0.25500000920E-02 0.  1.
       -2    1    3    3    0  502  0.49275665625E+03  0.48597091495E+03  0.20278541998E+04  0.21427014510E+04  0.25500000920E-02 0. -1.
</event>
<event>
 5   0  0.7363513E-06  0.3164458E+04  0.7818609E-02  0.8198267E-01
        2   -1    0    0  501    0  0.00000000000E+00  0.00000000000E+00  0.18834840806E+04  0.18834840806E+04  0.25500000920E-02 0. -1.
       -2   -1    0    0    0  501  0.00000000000E+00  0.00000000000E+00 -0.13291579995E+04  0.13291579995E+04  0.25500000920E-02 0.  1.
    10030    2    1    2    0    0  0.00000000000E+00  0.00000000000E+00  0.55432608110E+03  0.32126420800E+04  0.31644575728E+04 0.  0.
        4    1    3    3  502    0 -0.32018422264E+03  0.15236573785E+04 -0.89014510546E+01  0.15569619752E+04  0.12699999809E+01 0.  1.
       -4    1    3    3    0  502  0.32018422264E+03 -0.15236573785E+04  0.56322753215E+03  0.16556801048E+04  0.12699999809E+01 0. -1.
</event>
<event>
 5   0  0.7363513E-06  0.3105849E+04  0.7818609E-02  0.8214135E-01
       -2   -1    0    0    0  501  0.00000000000E+00  0.00000000000E+00  0.19489360417E+04  0.19489360417E+04  0.25500000920E-02 0.  1.
        2   -1    0    0  501    0  0.00000000000E+00  0.00000000000E+00 -0.12373799731E+04  0.12373799731E+04  0.25500000920E-02 0. -1.
    10030    2    1    2    0    0  0.00000000000E+00  0.00000000000E+00  0.71155606865E+03  0.31863160148E+04  0.31058489512E+04 0.  0.
        4    1    3    3  502    0 -0.14823489730E+04 -0.44132243471E+03  0.21270577898E+03  0.15612076512E+04  0.12699999809E+01 0.  1.
       -4    1    3    3    0  502  0.14823489730E+04  0.44132243471E+03  0.49885028967E+03  0.16251083636E+04  0.12699999809E+01 0. -1.
</event>
<event>
 5   0  0.7414808E-06  0.3085596E+04  0.7818609E-02  0.8219702E-01
        2   -1    0    0  501    0  0.00000000000E+00  0.00000000000E+00  0.14545363357E+04  0.14545363357E+04  0.25500000920E-02 0.  1.
       -2   -1    0    0    0  501  0.00000000000E+00  0.00000000000E+00 -0.16364151311E+04  0.16364151311E+04  0.25500000920E-02 0. -1.
    10030    2    1    2    0    0  0.00000000000E+00  0.00000000000E+00 -0.18187879542E+03  0.30909514667E+04  0.30855957404E+04 0.  0.
        2    1    3    3  502    0  0.12491577653E+04 -0.10874287735E+02  0.81601150712E+03  0.14921086262E+04  0.25500000920E-02 0.  1.
       -2    1    3    3    0  502 -0.12491577653E+04  0.10874287735E+02 -0.99789030253E+03  0.15988428405E+04  0.25500000920E-02 0. -1.
</event>
<event>
 5   0  0.7071012E-06  0.3061224E+04  0.7818609E-02  0.8226461E-01
        2   -1    0    0  501    0  0.00000000000E+00  0.00000000000E+00  0.22864188328E+04  0.22864188328E+04  0.25500000920E-02 0.  1.
       -2   -1    0    0    0  501  0.00000000000E+00  0.00000000000E+00 -0.10246477079E+04  0.10246477079E+04  0.25500000920E-02 0. -1.
    10030    2    1    2    0    0  0.00000000000E+00  0.00000000000E+00  0.12617711249E+04  0.33110665407E+04  0.30612244716E+04 0.  0.
        1    1    3    3  502    0 -0.95540475523E+03  0.11749993789E+04  0.39060134785E+03  0.15639664957E+04  0.50400001928E-02 0. -1.
       -1    1    3    3    0  502  0.95540475523E+03 -0.11749993789E+04  0.87116977706E+03  0.17471000450E+04  0.50400001928E-02 0.  1.
</event>
<event>
 5   0  0.7363513E-06  0.3012128E+04  0.7818609E-02  0.8240276E-01
       -2   -1    0    0    0  501  0.00000000000E+00  0.00000000000E+00  0.80398490357E+03  0.80398490357E+03  0.25500000920E-02 0. -1.
        2   -1    0    0  501    0  0.00000000000E+00  0.00000000000E+00 -0.28212324699E+04  0.28212324699E+04  0.25500000920E-02 0.  1.
    10030    2    1    2    0    0  0.00000000000E+00  0.00000000000E+00 -0.20172475663E+04  0.36252173734E+04  0.30121276967E+04 0.  0.
        4    1    3    3  502    0  0.16072781244E+03 -0.14718098930E+04 -0.67646208856E+03  0.16277777370E+04  0.12699999809E+01 0. -1.
       -4    1    3    3    0  502 -0.16072781244E+03  0.14718098930E+04 -0.13407854777E+04  0.19974396364E+04  0.12699999809E+01 0.  1.
</event>
<event>
 5   0  0.7094341E-06  0.3065122E+04  0.7818609E-02  0.8225376E-01
       -2   -1    0    0    0  501  0.00000000000E+00  0.00000000000E+00  0.16321814530E+04  0.16321814531E+04  0.25500000920E-02 0. -1.
        2   -1    0    0  501    0  0.00000000000E+00  0.00000000000E+00 -0.14390205596E+04  0.14390205596E+04  0.25500000920E-02 0.  1.
    10030    2    1    2    0    0  0.00000000000E+00  0.00000000000E+00  0.19316089349E+03  0.30712020126E+04  0.30651216406E+04 0.  0.
        3    1    3    3  502    0 -0.15779432126E+03 -0.34437592704E+03 -0.13913734312E+04  0.14420172891E+04  0.10100000352E+00 0.  1.
       -3    1    3    3    0  502  0.15779432126E+03  0.34437592704E+03  0.15845343247E+04  0.16291847235E+04  0.10100000352E+00 0. -1.
</event>
<event>
 5   0  0.2624011E-06  0.3047988E+04  0.7818609E-02  0.8230159E-01
        1   -1    0    0  501    0  0.00000000000E+00  0.00000000000E+00  0.19671994471E+04  0.19671994471E+04  0.50400001928E-02 0. -1.
       -1   -1    0    0    0  501  0.00000000000E+00  0.00000000000E+00 -0.11806415123E+04  0.11806415123E+04  0.50400001928E-02 0.  1.
    10030    2    1    2    0    0  0.00000000000E+00  0.00000000000E+00  0.78655793482E+03  0.31478409595E+04  0.30479877495E+04 0.  0.
        1    1    3    3  502    0 -0.14435717793E+04  0.29579944217E+02 -0.11032582228E+03  0.14480836447E+04  0.50400001928E-02 0.  1.
       -1    1    3    3    0  502  0.14435717793E+04 -0.29579944217E+02  0.89688375710E+03  0.16997573147E+04  0.50400001928E-02 0. -1.
</event>
<event>
 5   0  0.2517725E-06  0.3098876E+04  0.7818609E-02  0.8216046E-01
       -1   -1    0    0    0  501  0.00000000000E+00  0.00000000000E+00  0.11160140955E+04  0.11160140955E+04  0.50400001928E-02 0. -1.
        1   -1    0    0  501    0  0.00000000000E+00  0.00000000000E+00 -0.21511896883E+04  0.21511896883E+04  0.50400001928E-02 0.  1.
    10030    2    1    2    0    0  0.00000000000E+00  0.00000000000E+00 -0.10351755928E+04  0.32672037838E+04  0.30988759344E+04 0.  0.
        3    1    3    3  502    0 -0.76197868106E+02  0.13388242812E+04 -0.13359603886E+04  0.18928937480E+04  0.10100000352E+00 0.  1.
       -3    1    3    3    0  502  0.76197868106E+02 -0.13388242812E+04  0.30078479581E+03  0.13743100358E+04  0.10100000352E+00 0. -1.
</event>
<event>
 5   0  0.2612331E-06  0.3134960E+04  0.7818609E-02  0.8206209E-01
        1   -1    0    0  501    0  0.00000000000E+00  0.00000000000E+00  0.17098660017E+04  0.17098660017E+04  0.50400001928E-02 0.  1.
       -1   -1    0    0    0  501  0.00000000000E+00  0.00000000000E+00 -0.14369506381E+04  0.14369506381E+04  0.50400001928E-02 0. -1.
    10030    2    1    2    0    0  0.00000000000E+00  0.00000000000E+00  0.27291536353E+03  0.31468166398E+04  0.31349596758E+04 0.  0.
        4    1    3    3  502    0  0.12810070260E+04  0.72417273402E+03 -0.40557194042E+03  0.15263994763E+04  0.12699999809E+01 0.  1.
       -4    1    3    3    0  502 -0.12810070260E+04 -0.72417273402E+03  0.67848730395E+03  0.16204171635E+04  0.12699999809E+01 0. -1.
</event>
<event>
 5   0  0.2624011E-06  0.3086280E+04  0.7818609E-02  0.8219513E-01
       -1   -1    0    0    0  501  0.00000000000E+00  0.00000000000E+00  0.10363590414E+04  0.10363590414E+04  0.50400001928E-02 0.  1.
        1   -1    0    0  501    0  0.00000000000E+00  0.00000000000E+00 -0.22977380382E+04  0.22977380382E+04  0.50400001928E-02 0. -1.
    10030    2    1    2    0    0  0.00000000000E+00  0.00000000000E+00 -0.12613789968E+04  0.33340970796E+04  0.30862803442E+04 0.  0.
        1    1    3    3  502    0  0.61398127886E+03  0.15814829675E+03  0.88915245241E+03  0.10920512709E+04  0.50400001928E-02 0.  1.
       -1    1    3    3    0  502 -0.61398127886E+03 -0.15814829675E+03 -0.21505314492E+04  0.22420458088E+04  0.50400001928E-02 0. -1.
</event>
<event>
 5   0  0.7071012E-06  0.2957291E+04  0.7818609E-02  0.8256033E-01
       -2   -1    0    0    0  501  0.00000000000E+00  0.00000000000E+00  0.10050025484E+04  0.10050025484E+04  0.25500000920E-02 0. -1.
        2   -1    0    0  501    0  0.00000000000E+00  0.00000000000E+00 -0.21755091089E+04  0.21755091089E+04  0.25500000920E-02 0.  1.
    10030    2    1    2    0    0  0.00000000000E+00  0.00000000000E+00 -0.11705065605E+04  0.31805116573E+04  0.29572907862E+04 0.  0.
        1    1    3    3  502    0 -0.80125095306E+03  0.10008989421E+04  0.20695434958E+03  0.12987039251E+04  0.50400001928E-02 0. -1.
       -1    1    3    3    0  502  0.80125095306E+03 -0.10008989421E+04 -0.13774609101E+04  0.18818077322E+04  0.50400001928E-02 0.  1.
</event>
<event>
 5   0  0.7363513E-06  0.3082123E+04  0.7818609E-02  0.8220661E-01
       -2   -1    0    0    0  501  0.00000000000E+00  0.00000000000E+00  0.10566071029E+04  0.10566071029E+04  0.25500000920E-02 0. -1.
        2   -1    0    0  501    0  0.00000000000E+00  0.00000000000E+00 -0.22476375298E+04  0.22476375298E+04  0.25500000920E-02 0.  1.
    10030    2    1    2    0    0  0.00000000000E+00  0.00000000000E+00 -0.11910304269E+04  0.33042446327E+04  0.30821225015E+04 0.  0.
        4    1    3    3  502    0  0.99113661210E+02 -0.71274712781E+03 -0.20564555482E+04  0.21787250907E+04  0.12699999809E+01 0.  1.
       -4    1    3    3    0  502 -0.99113661210E+02  0.71274712781E+03  0.86542512125E+03  0.11255195420E+04  0.12699999809E+01 0. -1.
</event>
<event>
 5   0  0.7414808E-06  0.3182248E+04  0.7818609E-02  0.8193521E-01
        2   -1    0    0  501    0  0.00000000000E+00  0.00000000000E+00  0.18276256322E+04  0.18276256322E+04  0.25500000920E-02 0.  1.
       -2   -1    0    0    0  501  0.00000000000E+00  0.00000000000E+00 -0.13852261556E+04  0.13852261556E+04  0.25500000920E-02 0. -1.
    10030    2    1    2    0    0  0.00000000000E+00  0.00000000000E+00  0.44239947655E+03  0.32128517878E+04  0.31822475255E+04 0.  0.
        2    1    3    3  502    0  0.76737981512E+03 -0.81037995977E+03  0.13661641040E+04  0.17640838469E+04  0.25500000920E-02 0.  1.
       -2    1    3    3    0  502 -0.76737981512E+03  0.81037995977E+03 -0.92376462742E+03  0.14487679409E+04  0.25500000920E-02 0. -1.
</event>
<event>
 5   0  0.2674441E-06  0.3057533E+04  0.7818609E-02  0.8227490E-01
       -1   -1    0    0    0  501  0.00000000000E+00  0.00000000000E+00  0.15996885507E+04  0.15996885507E+04  0.50400001928E-02 0.  1.
        1   -1    0    0  501    0  0.00000000000E+00  0.00000000000E+00 -0.14609891176E+04  0.14609891176E+04  0.50400001928E-02 0. -1.
    10030    2    1    2    0    0  0.00000000000E+00  0.00000000000E+00  0.13869943307E+03  0.30606776683E+04  0.30575333615E+04 0.  0.
        5    1    3    3  502    0  0.63454497487E+02  0.90622160427E+03  0.13001837831E+04  0.15861160200E+04  0.46999998093E+01 0.  1.
       -5    1    3    3    0  502 -0.63454497487E+02 -0.90622160427E+03 -0.11614843500E+04  0.14745616483E+04  0.46999998093E+01 0. -1.
</event>
<event>
 5   0  0.2517725E-06  0.3124262E+04  0.7818609E-02  0.8209111E-01
       -1   -1    0    0    0  501  0.00000000000E+00  0.00000000000E+00  0.92169308350E+03  0.92169308352E+03  0.50400001928E-02 0.  1.
        1   -1    0    0  501    0  0.00000000000E+00  0.00000000000E+00 -0.26475776536E+04  0.26475776536E+04  0.50400001928E-02 0. -1.
    10030    2    1    2    0    0  0.00000000000E+00  0.00000000000E+00 -0.17258845701E+04  0.35692707372E+04  0.31242624803E+04 0.  0.
        3    1    3    3  502    0 -0.92902249478E+03 -0.21055531015E+03  0.55148315821E+03  0.11007043283E+04  0.10100000352E+00 0.  1.
       -3    1    3    3    0  502  0.92902249478E+03  0.21055531015E+03 -0.22773677283E+04  0.24685664088E+04  0.10100000352E+00 0. -1.
</event>
<event>
 5   0  0.7071012E-06  0.2927373E+04  0.7818609E-02  0.8264779E-01
       -2   -1    0    0    0  501  0.00000000000E+00  0.00000000000E+00  0.12337756616E+04  0.12337756616E+04  0.25500000920E-02 0. -1.
        2   -1    0    0  501    0  0.00000000000E+00  0.00000000000E+00 -0.17364411246E+04  0.17364411246E+04  0.25500000920E-02 0.  1.
    10030    2    1    2    0    0  0.00000000000E+00  0.00000000000E+00 -0.50266546293E+03  0.29702167862E+04  0.29273734284E+04 0.  0.
        1    1    3    3  502    0 -0.88032582076E+03  0.79119441580E+03 -0.11249901863E+04  0.16329620552E+04  0.50400001928E-02 0.  1.
       -1    1    3    3    0  502  0.88032582076E+03 -0.79119441580E+03  0.62232472340E+03  0.13372547310E+04  0.50400001928E-02 0. -1.
</event>
<event>
 5   0  0.2612331E-06  0.3093707E+04  0.7818609E-02  0.8217467E-01
        1   -1    0    0  501    0  0.00000000000E+00  0.00000000000E+00  0.12436981436E+04  0.12436981436E+04  0.50400001928E-02 0. -1.
       -1   -1    0    0    0  501  0.00000000000E+00  0.00000000000E+00 -0.19239040494E+04  0.19239040494E+04  0.50400001928E-02 0.  1.
    10030    2    1    2    0    0  0.00000000000E+00  0.00000000000E+00 -0.68020590583E+03  0.31676021930E+04  0.30937070932E+04 0.  0.
        4    1    3    3  502    0  0.24495971610E+03 -0.73475364569E+03  0.10308665433E+04  0.12894012662E+04  0.12699999809E+01 0. -1.
       -4    1    3    3    0  502 -0.24495971610E+03  0.73475364569E+03 -0.17110724491E+04  0.18782009268E+04  0.12699999809E+01 0.  1.
</event>
<event>
 5   0  0.2517725E-06  0.3128204E+04  0.7818609E-02  0.8208040E-01
        1   -1    0    0  501    0  0.00000000000E+00  0.00000000000E+00  0.14586806016E+04  0.14586806016E+04  0.50400001928E-02 0. -1.
       -1   -1    0    0    0  501  0.00000000000E+00  0.00000000000E+00 -0.16771422376E+04  0.16771422377E+04  0.50400001928E-02 0.  1.
    10030    2    1    2    0    0  0.00000000000E+00  0.00000000000E+00 -0.21846163603E+03  0.31358228393E+04  0.31282038605E+04 0.  0.
        3    1    3    3  502    0 -0.13395167806E+04 -0.46878729966E+03 -0.76836411135E+03  0.16138308944E+04  0.10100000352E+00 0. -1.
       -3    1    3    3    0  502  0.13395167806E+04  0.46878729966E+03  0.54990247532E+03  0.15219919449E+04  0.10100000352E+00 0.  1.
</event>
<event>
 5   0  0.2624011E-06  0.3110012E+04  0.7818609E-02  0.8212996E-01
        1   -1    0    0  501    0  0.00000000000E+00  0.00000000000E+00  0.11451816264E+04  0.11451816264E+04  0.50400001928E-02 0. -1.
       -1   -1    0    0    0  501  0.00000000000E+00  0.00000000000E+00 -0.21114936490E+04  0.21114936490E+04  0.50400001928E-02 0.  1.
    10030    2    1    2    0    0  0.00000000000E+00  0.00000000000E+00 -0.96631202262E+03  0.32566752755E+04  0.31100120458E+04 0.  0.
        1    1    3    3  502    0  0.48355253241E+03  0.13881709996E+04 -0.10142232599E+04  0.17859144987E+04  0.50400001928E-02 0.  1.
       -1    1    3    3    0  502 -0.48355253241E+03 -0.13881709996E+04  0.47911237319E+02  0.14707607767E+04  0.50400001928E-02 0. -1.
</event>
<event>
 5   0  0.2674441E-06  0.2809969E+04  0.7818609E-02  0.8300180E-01
       -1   -1    0    0    0  501  0.00000000000E+00  0.00000000000E+00  0.12191212136E+04  0.12191212136E+04  0.50400001928E-02 0. -1.
        1   -1    0    0  501    0  0.00000000000E+00  0.00000000000E+00 -0.16191843218E+04  0.16191843218E+04  0.50400001928E-02 0.  1.
    10030    2    1    2    0    0  0.00000000000E+00  0.00000000000E+00 -0.40006310821E+03  0.28383055355E+04  0.28099693632E+04 0.  0.
        5    1    3    3  502    0 -0.50269644657E+02  0.81873285879E+03  0.95213285519E+03  0.12567535937E+04  0.46999998093E+01 0. -1.
       -5    1    3    3    0  502  0.50269644657E+02 -0.81873285879E+03 -0.13521959634E+04  0.15815519418E+04  0.46999998093E+01 0.  1.
</event>
<event>
 5   0  0.2517725E-06  0.3091648E+04  0.7818609E-02  0.8218034E-01
       -1   -1    0    0    0  501  0.00000000000E+00  0.00000000000E+00  0.11265224449E+04  0.11265224449E+04  0.50400001928E-02 0.  1.
        1   -1    0    0  501    0  0.00000000000E+00  0.00000000000E+00 -0.21211929416E+04  0.21211929416E+04  0.50400001928E-02 0. -1.
    10030    2    1    2    0    0  0.00000000000E+00  0.00000000000E+00 -0.99467049667E+03  0.32477153865E+04  0.30916477540E+04 0.  0.
        3    1    3    3  502    0 -0.22067503504E+03 -0.11795797255E+04 -0.15209289014E+04  0.19373514223E+04  0.10100000352E+00 0. -1.
       -3    1    3    3    0  502  0.22067503504E+03  0.11795797255E+04  0.52625840473E+03  0.13103639642E+04  0.10100000352E+00 0.  1.
</event>
<event>
 5   0  0.7363513E-06  0.3284050E+04  0.7818609E-02  0.8166966E-01
        2   -1    0    0  501    0  0.00000000000E+00  0.00000000000E+00  0.17899930677E+04  0.17899930677E+04  0.25500000920E-02 0. -1.
       -2   -1    0    0    0  501  0.00000000000E+00  0.00000000000E+00 -0.15062890182E+04  0.15062890182E+04  0.25500000920E-02 0.  1.
    10030    2    1    2    0    0  0.00000000000E+00  0.00000000000E+00  0.28370404951E+03  0.32962820859E+04  0.32840504872E+04 0.  0.
        4    1    3    3  502    0  0.91061242821E+03 -0.10615347571E+04  0.10053901811E+04  0.17224639515E+04  0.12699999809E+01 0. -1.
       -4    1    3    3    0  502 -0.91061242821E+03  0.10615347571E+04 -0.72168613160E+03  0.15738181345E+04  0.12699999809E+01 0.  1.
</event>
<event>
 5   0  0.7071012E-06  0.2762872E+04  0.7818609E-02  0.8314889E-01
       -2   -1    0    0    0  501  0.00000000000E+00  0.00000000000E+00  0.78396805780E+03  0.78396805780E+03  0.25500000920E-02 0. -1.
        2   -1    0    0  501    0  0.00000000000E+00  0.00000000000E+00 -0.24342394658E+04  0.24342394658E+04  0.25500000920E-02 0.  1.
    10030    2    1    2    0    0  0.00000000000E+00  0.00000000000E+00 -0.16502714080E+04  0.32182075236E+04  0.27628724084E+04 0.  0.
        1    1    3    3  502    0 -0.11770873682E+04  0.57447633443E+03 -0.13366008319E+04  0.18713790410E+04  0.50400001928E-02 0.  1.
       -1    1    3    3    0  502  0.11770873682E+04 -0.57447633443E+03 -0.31367057614E+03  0.13468284826E+04  0.50400001928E-02 0. -1.
</event>
<event>
 5   0  0.2612331E-06  0.3110356E+04  0.7818609E-02  0.8212902E-01
        1   -1    0    0  501    0  0.00000000000E+00  0.00000000000E+00  0.16225631353E+04  0.16225631354E+04  0.50400001928E-02 0.  1.
       -1   -1    0    0    0  501  0.00000000000E+00  0.00000000000E+00 -0.14905913376E+04  0.14905913376E+04  0.50400001928E-02 0. -1.
    10030    2    1    2    0    0  0.00000000000E+00  0.00000000000E+00  0.13197179779E+03  0.31131544729E+04  0.31103559630E+04 0.  0.
        4    1    3    3  502    0  0.90994639653E+03 -0.91486948871E+03  0.93486160443E+03  0.15934103233E+04  0.12699999809E+01 0.  1.
       -4    1    3    3    0  502 -0.90994639653E+03  0.91486948871E+03 -0.80288980663E+03  0.15197441497E+04  0.12699999809E+01 0. -1.
</event>
<event>
 5   0  0.7079223E-06  0.3083599E+04  0.7818609E-02  0.8220253E-01
        2   -1    0    0  501    0  0.00000000000E+00  0.00000000000E+00  0.30776837332E+04  0.30776837332E+04  0.25500000920E-02 0. -1.
       -2   -1    0    0    0  501  0.00000000000E+00  0.00000000000E+00 -0.77238148262E+03  0.77238148263E+03  0.25500000920E-02 0.  1.
    10030    2    1    2    0    0  0.00000000000E+00  0.00000000000E+00  0.23053022506E+04  0.38500652158E+04  0.30835991470E+04 0.  0.
        5    1    3    3  502    0  0.66009094555E+02  0.43930378406E+03  0.29960375435E+04  0.30287964717E+04  0.46999998093E+01 0. -1.
       -5    1    3    3    0  502 -0.66009094555E+02 -0.43930378406E+03 -0.69073529287E+03  0.82126874412E+03  0.46999998093E+01 0.  1.
</event>
<event>
 5   0  0.2612331E-06  0.3377135E+04  0.7818609E-02  0.8143541E-01
        1   -1    0    0  501    0  0.00000000000E+00  0.00000000000E+00  0.14360561198E+04  0.14360561198E+04  0.50400001928E-02 0.  1.
       -1   -1    0    0    0  501  0.00000000000E+00  0.00000000000E+00 -0.19854800453E+04  0.19854800453E+04  0.50400001928E-02 0. -1.
    10030    2    1    2    0    0  0.00000000000E+00  0.00000000000E+00 -0.54942392556E+03  0.34215361651E+04  0.33771353362E+04 0.  0.
        4    1    3    3  502    0 -0.12979353090E+04 -0.45976877664E+03 -0.12649234415E+04  0.18697744035E+04  0.12699999809E+01 0.  1.
       -4    1    3    3    0  502  0.12979353090E+04  0.45976877664E+03  0.71549951593E+03  0.15517617616E+04  0.12699999809E+01 0. -1.
</event>
<event>
 5   0  0.2624011E-06  0.3174699E+04  0.7818609E-02  0.8195531E-01
        1   -1    0    0  501    0  0.00000000000E+00  0.00000000000E+00  0.25158794053E+04  0.25158794053E+04  0.50400001928E-02 0.  1.
       -1   -1    0    0    0  501  0.00000000000E+00  0.00000000000E+00 -0.10015103114E+04  0.10015103114E+04  0.50400001928E-02 0. -1.
    10030    2    1    2    0    0  0.00000000000E+00  0.00000000000E+00  0.15143690939E+04  0.35173897168E+04  0.31746994609E+04 0.  0.
        1    1    3    3  502    0  0.10660750131E+04 -0.11359116402E+04  0.41954689755E+03  0.16133291007E+04  0.50400001928E-02 0. -1.
       -1    1    3    3    0  502 -0.10660750131E+04  0.11359116402E+04  0.10948221964E+04  0.19040606161E+04  0.50400001928E-02 0.  1.
</event>
<event>
 5   0  0.2624011E-06  0.3109834E+04  0.7818609E-02  0.8213044E-01
       -1   -1    0    0    0  501  0.00000000000E+00  0.00000000000E+00  0.84618022648E+03  0.84618022650E+03  0.50400001928E-02 0.  1.
        1   -1    0    0  501    0  0.00000000000E+00  0.00000000000E+00 -0.28572714333E+04  0.28572714333E+04  0.50400001928E-02 0. -1.
    10030    2    1    2    0    0  0.00000000000E+00  0.00000000000E+00 -0.20110912068E+04  0.37034516598E+04  0.31098338146E+04 0.  0.
        1    1    3    3  502    0  0.22491152528E+02 -0.13862877836E+04 -0.18438019103E+04  0.23069254768E+04  0.50400001928E-02 0. -1.
       -1    1    3    3    0  502 -0.22491152528E+02  0.13862877836E+04 -0.16728929647E+03  0.13965261830E+04  0.50400001928E-02 0.  1.
</event>
<event>
 5   0  0.2517725E-06  0.3444080E+04  0.7818609E-02  0.8127172E-01
       -1   -1    0    0    0  501  0.00000000000E+00  0.00000000000E+00  0.13696793953E+04  0.13696793953E+04  0.50400001928E-02 0. -1.
        1   -1    0    0  501    0  0.00000000000E+00  0.00000000000E+00 -0.21650486519E+04  0.21650486519E+04  0.50400001928E-02 0.  1.
    10030    2    1    2    0    0  0.00000000000E+00  0.00000000000E+00 -0.79536925657E+03  0.35347280472E+04  0.34440804453E+04 0.  0.
        3    1    3    3  502    0  0.12158211747E+04  0.30309901216E+03  0.81464733345E+03  0.14945703155E+04  0.10100000352E+00 0. -1.
       -3    1    3    3    0  502 -0.12158211747E+04 -0.30309901216E+03 -0.16100165900E+04  0.20401577317E+04  0.10100000352E+00 0.  1.
</event>
<event>
 5   0  0.7079223E-06  0.2815704E+04  0.7818609E-02  0.8298409E-01
       -2   -1    0    0    0  501  0.00000000000E+00  0.00000000000E+00  0.12940855586E+04  0.12940855586E+04  0.25500000920E-02 0.  1.
        2   -1    0    0  501    0  0.00000000000E+00  0.00000000000E+00 -0.15316197097E+04  0.15316197097E+04  0.25500000920E-02 0. -1.
    10030    2    1    2    0    0  0.00000000000E+00  0.00000000000E+00 -0.23753415112E+03  0.28257052683E+04  0.28157037824E+04 0.  0.
        5    1    3    3  502    0  0.66998562532E+03 -0.16223205795E+03  0.11131211044E+04  0.13092977743E+04  0.46999998093E+01 0.  1.
       -5    1    3    3    0  502 -0.66998562532E+03  0.16223205795E+03 -0.13506552555E+04  0.15164074940E+04  0.46999998093E+01 0. -1.
</event>
<event>
 5   0  0.7071012E-06  0.2908922E+04  0.7818609E-02  0.8270228E-01
        2   -1    0    0  501    0  0.00000000000E+00  0.00000000000E+00  0.18478297482E+04  0.18478297482E+04  0.25500000920E-02 0.  1.
       -2   -1    0    0    0  501  0.00000000000E+00  0.00000000000E+00 -0.11448327910E+04  0.11448327910E+04  0.25500000920E-02 0. -1.
    10030    2    1    2    0    0  0.00000000000E+00  0.00000000000E+00  0.70299695729E+03  0.29926625392E+04  0.29089215100E+04 0.  0.
        1    1    3    3  502    0  0.54776729391E+03  0.33921907078E+02 -0.10342202103E+04  0.11708164448E+04  0.50400001928E-02 0. -1.
       -1    1    3    3    0  502 -0.54776729391E+03 -0.33921907078E+02  0.17372171676E+04  0.18218460944E+04  0.50400001928E-02 0.  1.
</event>
<event>
 5   0  0.2612331E-06  0.3122547E+04  0.7818609E-02  0.8209577E-01
       -1   -1    0    0    0  501  0.00000000000E+00  0.00000000000E+00  0.15004810385E+04  0.15004810385E+04  0.50400001928E-02 0.  1.
        1   -1    0    0  501    0  0.00000000000E+00  0.00000000000E+00 -0.16245293909E+04  0.16245293909E+04  0.50400001928E-02 0. -1.
    10030    2    1    2    0    0  0.00000000000E+00  0.00000000000E+00 -0.12404835239E+03  0.31250104294E+04  0.31225473880E+04 0.  0.
        4    1    3    3  502    0 -0.69817198672E+03  0.11244034405E+04 -0.89083605020E+03  0.15954051841E+04  0.12699999809E+01 0.  1.
       -4    1    3    3    0  502  0.69817198672E+03 -0.11244034405E+04  0.76678769780E+03  0.15296052453E+04  0.12699999809E+01 0. -1.
</event>
<event>
 5   0  0.2517725E-06  0.3078396E+04  0.7818609E-02  0.8221692E-01
       -1   -1    0    0    0  501  0.00000000000E+00  0.00000000000E+00  0.11465882113E+04  0.11465882113E+04  0.50400001928E-02 0. -1.
        1   -1    0    0  501    0  0.00000000000E+00  0.00000000000E+00 -0.20662439886E+04  0.20662439886E+04  0.50400001928E-02 0.  1.
    10030    2    1    2    0    0  0.00000000000E+00  0.00000000000E+00 -0.91965577730E+03  0.32128321999E+04  0.30783963351E+04 0.  0.
        3    1    3    3  502    0  0.14931508063E+04  0.12353242350E+03 -0.82789225152E+03  0.17117725259E+04  0.10100000352E+00 0. -1.
       -3    1    3    3    0  502 -0.14931508063E+04 -0.12353242350E+03 -0.91763525779E+02  0.15010596740E+04  0.10100000352E+00 0.  1.
</event>
<event>
 5   0  0.7079223E-06  0.3021917E+04  0.7818609E-02  0.8237500E-01
       -2   -1    0    0    0  501  0.00000000000E+00  0.00000000000E+00  0.15282373542E+04  0.15282373542E+04  0.25500000920E-02 0. -1.
        2   -1    0    0  501    0  0.00000000000E+00  0.00000000000E+00 -0.14938754058E+04  0.14938754058E+04  0.25500000920E-02 0.  1.
    10030    2    1    2    0    0  0.00000000000E+00  0.00000000000E+00  0.34361948434E+02  0.30221127600E+04  0.30219174030E+04 0.  0.
        5    1    3    3  502    0  0.42569732600E+03  0.34576302140E+03  0.14251795969E+04  0.15270655696E+04  0.46999998093E+01 0. -1.
       -5    1    3    3    0  502 -0.42569732600E+03 -0.34576302140E+03 -0.13908176485E+04  0.14950471904E+04  0.46999998093E+01 0.  1.
</event>
<event>
 5   0  0.2517725E-06  0.3054109E+04  0.7818609E-02  0.8228446E-01
        1   -1    0    0  501    0  0.00000000000E+00  0.00000000000E+00  0.14677450250E+04  0.14677450251E+04  0.50400001928E-02 0.  1.
       -1   -1    0    0    0  501  0.00000000000E+00  0.00000000000E+00 -0.15887601113E+04  0.15887601113E+04  0.50400001928E-02 0. -1.
    10030    2    1    2    0    0  0.00000000000E+00  0.00000000000E+00 -0.12101508622E+03  0.30565051363E+04  0.30541085438E+04 0.  0.
        3    1    3    3  502    0  0.10967160429E+04  0.51151418810E+03  0.87159966296E+03  0.14913479896E+04  0.10100000352E+00 0.  1.
       -3    1    3    3    0  502 -0.10967160429E+04 -0.51151418810E+03 -0.99261474919E+03  0.15651571467E+04  0.10100000352E+00 0. -1.
</event>
<event>
 5   0  0.2517725E-06  0.3107994E+04  0.7818609E-02  0.8213548E-01
        1   -1    0    0  501    0  0.00000000000E+00  0.00000000000E+00  0.19795793187E+04  0.19795793187E+04  0.50400001928E-02 0. -1.
       -1   -1    0    0    0  501  0.00000000000E+00  0.00000000000E+00 -0.12199088243E+04  0.12199088244E+04  0.50400001928E-02 0.  1.
    10030    2    1    2    0    0  0.00000000000E+00  0.00000000000E+00  0.75967049434E+03  0.31994881431E+04  0.31079937448E+04 0.  0.
        3    1    3    3  502    0 -0.83883203026E+03 -0.58356309680E+03 -0.82540863277E+03  0.13135769807E+04  0.10100000352E+00 0.  1.
       -3    1    3    3    0  502  0.83883203026E+03  0.58356309680E+03  0.15850791271E+04  0.18859111624E+04  0.10100000352E+00 0. -1.
</event>
<event>
 5   0  0.7363513E-06  0.3143981E+04  0.7818609E-02  0.8203770E-01
       -2   -1    0    0    0  501  0.00000000000E+00  0.00000000000E+00  0.12405358734E+04  0.12405358734E+04  0.25500000920E-02 0.  1.
        2   -1    0    0  501    0  0.00000000000E+00  0.00000000000E+00 -0.19920047789E+04  0.19920047789E+04  0.25500000920E-02 0. -1.
    10030    2    1    2    0    0  0.00000000000E+00  0.00000000000E+00 -0.75146890557E+03  0.32325406523E+04  0.31439805268E+04 0.  0.
        4    1    3    3  502    0  0.14283607399E+03 -0.44905117141E+03 -0.19176791190E+04  0.19747262886E+04  0.12699999809E+01 0. -1.
       -4    1    3    3    0  502 -0.14283607399E+03  0.44905117141E+03  0.11662102134E+04  0.12578143637E+04  0.12699999809E+01 0.  1.
</event>
<event>
 5   0  0.7414808E-06  0.3019198E+04  0.7818609E-02  0.8238270E-01
       -2   -1    0    0    0  501  0.00000000000E+00  0.00000000000E+00  0.14109120895E+04  0.14109120895E+04  0.25500000920E-02 0. -1.
        2   -1    0    0  501    0  0.00000000000E+00  0.00000000000E+00 -0.16151883858E+04  0.16151883858E+04  0.25500000920E-02 0.  1.
    10030    2    1    2    0    0  0.00000000000E+00  0.00000000000E+00 -0.20427629631E+03  0.30261004754E+04  0.30191977878E+04 0.  0.
        2    1    3    3  502    0  0.12165528080E+04 -0.11365827728E+03 -0.99071445982E+03  0.15730334006E+04  0.25500000920E-02 0.  1.
       -2    1    3    3    0  502 -0.12165528080E+04  0.11365827728E+03  0.78643816351E+03  0.14530670747E+04  0.25500000920E-02 0. -1.
</event>
<event>
 5   0  0.2598987E-06  0.3157575E+04  0.7818609E-02  0.8200112E-01
        1   -1    0    0  501    0  0.00000000000E+00  0.00000000000E+00  0.18637693553E+04  0.18637693553E+04  0.50400001928E-02 0.  1.
       -1   -1    0    0    0  501  0.00000000000E+00  0.00000000000E+00 -0.13373808916E+04  0.13373808916E+04  0.50400001928E-02 0. -1.
    10030    2    1    2    0    0  0.00000000000E+00  0.00000000000E+00  0.52638846366E+03  0.32011502469E+04  0.31575747163E+04 0.  0.
        2    1    3    3  502    0 -0.15647095594E+04 -0.20256275085E+03  0.32073888788E+03  0.16100376106E+04  0.25500000920E-02 0. -1.
       -2    1    3    3    0  502  0.15647095594E+04  0.20256275085E+03  0.20564957579E+03  0.15911126363E+04  0.25500000920E-02 0.  1.
</event>
<event>
 5   0  0.7414808E-06  0.3138772E+04  0.7818609E-02  0.8205177E-01
        2   -1    0    0  501    0  0.00000000000E+00  0.00000000000E+00  0.15923718718E+04  0.15923718718E+04  0.25500000920E-02 0. -1.
       -2   -1    0    0    0  501  0.00000000000E+00  0.00000000000E+00 -0.15467314827E+04  0.15467314827E+04  0.25500000920E-02 0.  1.
    10030    2    1    2    0    0  0.00000000000E+00  0.00000000000E+00  0.45640389141E+02  0.31391033545E+04  0.31387715471E+04 0.  0.
        2    1    3    3  502    0  0.10218931810E+03 -0.12500113566E+04  0.96631838537E+03  0.15832694876E+04  0.25500000920E-02 0. -1.
       -2    1    3    3    0  502 -0.10218931810E+03  0.12500113566E+04 -0.92067799623E+03  0.15558338668E+04  0.25500000920E-02 0.  1.
</event>
<event>
 5   0  0.2598987E-06  0.2273351E+04  0.7818609E-02  0.8488503E-01
        1   -1    0    0  501    0  0.00000000000E+00  0.00000000000E+00  0.15738369424E+04  0.15738369425E+04  0.50400001928E-02 0.  1.
       -1   -1    0    0    0  501  0.00000000000E+00  0.00000000000E+00 -0.82094345875E+03  0.82094345876E+03  0.50400001928E-02 0. -1.
    10030    2    1    2    0    0  0.00000000000E+00  0.00000000000E+00  0.75289348370E+03  0.23947804012E+04  0.22733509567E+04 0.  0.
        2    1    3    3  502    0  0.11001639492E+04  0.28287595384E+03  0.33363581608E+03  0.11839309009E+04  0.25500000920E-02 0.  1.
       -2    1    3    3    0  502 -0.11001639492E+04 -0.28287595384E+03  0.41925766762E+03  0.12108495003E+04  0.25500000920E-02 0. -1.
</event>
<event>
 5   0  0.2393250E-06  0.3079439E+04  0.7818609E-02  0.8221404E-01
       -3   -1    0    0    0  501  0.00000000000E+00  0.00000000000E+00  0.17994617679E+04  0.17994617707E+04  0.10100000352E+00 0. -1.
        3   -1    0    0  501    0  0.00000000000E+00  0.00000000000E+00 -0.13174692813E+04  0.13174692852E+04  0.10100000352E+00 0.  1.
    10030    2    1    2    0    0  0.00000000000E+00  0.00000000000E+00  0.48199248656E+03  0.31169310560E+04  0.30794386583E+04 0.  0.
        4    1    3    3  502    0 -0.13039456200E+04  0.80864464895E+03  0.37122369468E+03  0.15786034945E+04  0.12699999809E+01 0. -1.
       -4    1    3    3    0  502  0.13039456200E+04 -0.80864464895E+03  0.11076879188E+03  0.15383275615E+04  0.12699999809E+01 0.  1.
</event>
<event>
 5   0  0.2624011E-06  0.3081103E+04  0.7818609E-02  0.8220943E-01
       -1   -1    0    0    0  501  0.00000000000E+00  0.00000000000E+00  0.10021459893E+04  0.10021459893E+04  0.50400001928E-02 0.  1.
        1   -1    0    0  501    0  0.00000000000E+00  0.00000000000E+00 -0.23682166734E+04  0.23682166734E+04  0.50400001928E-02 0. -1.
    10030    2    1    2    0    0  0.00000000000E+00  0.00000000000E+00 -0.13660706842E+04  0.33703626627E+04  0.30811029461E+04 0.  0.
        1    1    3    3  502    0  0.49127769679E+03 -0.87482126971E+03  0.59574616609E+03  0.11668673977E+04  0.50400001928E-02 0.  1.
       -1    1    3    3    0  502 -0.49127769679E+03  0.87482126971E+03 -0.19618168502E+04  0.22034952651E+04  0.50400001928E-02 0. -1.
</event>
<event>
 5   0  0.7414808E-06  0.3188793E+04  0.7818609E-02  0.8191783E-01
       -2   -1    0    0    0  501  0.00000000000E+00  0.00000000000E+00  0.14008858509E+04  0.14008858509E+04  0.25500000920E-02 0.  1.
        2   -1    0    0  501    0  0.00000000000E+00  0.00000000000E+00 -0.18146378834E+04  0.18146378834E+04  0.25500000920E-02 0. -1.
    10030    2    1    2    0    0  0.00000000000E+00  0.00000000000E+00 -0.41375203249E+03  0.32155237343E+04  0.31887932108E+04 0.  0.
        2    1    3    3  502    0  0.32577798841E+03 -0.11466563432E+04  0.86084287489E+03  0.14703749598E+04  0.25500000920E-02 0.  1.
       -2    1    3    3    0  502 -0.32577798841E+03  0.11466563432E+04 -0.12745949074E+04  0.17451487745E+04  0.25500000920E-02 0. -1.
</event>
<event>
 5   0  0.7363513E-06  0.2960914E+04  0.7818609E-02  0.8254981E-01
       -2   -1    0    0    0  501  0.00000000000E+00  0.00000000000E+00  0.11259772392E+04  0.11259772392E+04  0.25500000920E-02 0. -1.
        2   -1    0    0  501    0  0.00000000000E+00  0.00000000000E+00 -0.19465344550E+04  0.19465344550E+04  0.25500000920E-02 0.  1.
    10030    2    1    2    0    0  0.00000000000E+00  0.00000000000E+00 -0.82055721573E+03  0.30725116942E+04  0.29609143802E+04 0.  0.
        4    1    3    3  502    0  0.14257006975E+04 -0.83184417648E+01  0.35766358186E+01  0.14257300167E+04  0.12699999809E+01 0. -1.
       -4    1    3    3    0  502 -0.14257006975E+04  0.83184417648E+01 -0.82413385154E+03  0.16467816775E+04  0.12699999809E+01 0.  1.
</event>
<event>
 5   0  0.7071012E-06  0.3011604E+04  0.7818609E-02  0.8240425E-01
       -2   -1    0    0    0  501  0.00000000000E+00  0.00000000000E+00  0.10770599967E+04  0.10770599967E+04  0.25500000920E-02 0.  1.
        2   -1    0    0  501    0  0.00000000000E+00  0.00000000000E+00 -0.21052126984E+04  0.21052126984E+04  0.25500000920E-02 0. -1.
    10030    2    1    2    0    0  0.00000000000E+00  0.00000000000E+00 -0.10281527017E+04  0.31822726951E+04  0.30116044773E+04 0.  0.
        1    1    3    3  502    0 -0.10631110733E+04 -0.40499975078E+03  0.52834388998E+03  0.12543433415E+04  0.50400001928E-02 0.  1.
       -1    1    3    3    0  502  0.10631110733E+04  0.40499975078E+03 -0.15564965917E+04  0.19279293535E+04  0.50400001928E-02 0. -1.
</event>
<event>
 5   0  0.7071012E-06  0.3130635E+04  0.7818609E-02  0.8207380E-01
       -2   -1    0    0    0  501  0.00000000000E+00  0.00000000000E+00  0.13584180923E+04  0.13584180923E+04  0.25500000920E-02 0.  1.
        2   -1    0    0  501    0  0.00000000000E+00  0.00000000000E+00 -0.18037295225E+04  0.18037295225E+04  0.25500000920E-02 0. -1.
    10030    2    1    2    0    0  0.00000000000E+00  0.00000000000E+00 -0.44531143021E+03  0.31621476148E+04  0.31306349624E+04 0.  0.
        1    1    3    3  502    0  0.13806297780E+03 -0.11258241443E+04  0.86694157313E+03  0.14276305828E+04  0.50400001928E-02 0.  1.
       -1    1    3    3    0  502 -0.13806297780E+03  0.11258241443E+04 -0.13122530033E+04  0.17345170320E+04  0.50400001928E-02 0. -1.
</event>
<event>
 5   0  0.2598987E-06  0.3105287E+04  0.7818609E-02  0.8214288E-01
        1   -1    0    0  501    0  0.00000000000E+00  0.00000000000E+00  0.16255120500E+04  0.16255120500E+04  0.50400001928E-02 0. -1.
       -1   -1    0    0    0  501  0.00000000000E+00  0.00000000000E+00 -0.14830414434E+04  0.14830414434E+04  0.50400001928E-02 0.  1.
    10030    2    1    2    0    0  0.00000000000E+00  0.00000000000E+00  0.14247060662E+03  0.31085534934E+04  0.31052869348E+04 0.  0.
        2    1    3    3  502    0  0.15409235187E+04  0.17585178140E+03  0.14433675663E+03  0.15576271180E+04  0.25500000920E-02 0. -1.
       -2    1    3    3    0  502 -0.15409235187E+04 -0.17585178140E+03 -0.18661500060E+01  0.15509263754E+04  0.25500000920E-02 0.  1.
</event>
<event>
 5   0  0.2393250E-06  0.2994790E+04  0.7818609E-02  0.8245220E-01
       -4   -1    0    0    0  501  0.00000000000E+00  0.00000000000E+00  0.15054470804E+04  0.15054476161E+04  0.12699999809E+01 0. -1.
        4   -1    0    0  501    0  0.00000000000E+00  0.00000000000E+00 -0.14893845118E+04  0.14893850533E+04  0.12699999809E+01 0.  1.
    10030    2    1    2    0    0  0.00000000000E+00  0.00000000000E+00  0.16062568572E+02  0.29948326693E+04  0.29947895938E+04 0.  0.
        4    1    3    3  502    0  0.66168716914E+03  0.23672337357E+03 -0.13142288996E+04  0.14903244877E+04  0.12699999809E+01 0.  1.
       -4    1    3    3    0  502 -0.66168716914E+03 -0.23672337357E+03  0.13302914681E+04  0.15045081816E+04  0.12699999809E+01 0. -1.
</event>
<event>
 5   0  0.7071012E-06  0.2971955E+04  0.7818609E-02  0.8251785E-01
       -2   -1    0    0    0  501  0.00000000000E+00  0.00000000000E+00  0.18016982867E+04  0.18016982867E+04  0.25500000920E-02 0.  1.
        2   -1    0    0  501    0  0.00000000000E+00  0.00000000000E+00 -0.12255823307E+04  0.12255823307E+04  0.25500000920E-02 0. -1.
    10030    2    1    2    0    0  0.00000000000E+00  0.00000000000E+00  0.57611595594E+03  0.30272806174E+04  0.29719553062E+04 0.  0.
        1    1    3    3  502    0  0.10727856861E+04 -0.96482546479E+03  0.65016447418E+03  0.15825521000E+04  0.50400001928E-02 0. -1.
       -1    1    3    3    0  502 -0.10727856861E+04  0.96482546479E+03 -0.74048518236E+02  0.14447285174E+04  0.50400001928E-02 0.  1.
</event>
<event>
 5   0  0.7079223E-06  0.3131964E+04  0.7818609E-02  0.8207020E-01
        2   -1    0    0  501    0  0.00000000000E+00  0.00000000000E+00  0.11056554976E+04  0.11056554976E+04  0.25500000920E-02 0. -1.
       -2   -1    0    0    0  501  0.00000000000E+00  0.00000000000E+00 -0.22179593632E+04  0.22179593632E+04  0.25500000920E-02 0.  1.
    10030    2    1    2    0    0  0.00000000000E+00  0.00000000000E+00 -0.11123038656E+04  0.33236148608E+04  0.31319635779E+04 0.  0.
        5    1    3    3  502    0  0.94318493675E+03 -0.12336726274E+04 -0.34198324484E+03  0.15901322606E+04  0.46999998093E+01 0. -1.
       -5    1    3    3    0  502 -0.94318493675E+03  0.12336726274E+04 -0.77032062077E+03  0.17334826002E+04  0.46999998093E+01 0.  1.
</event>
<event>
 5   0  0.7363513E-06  0.3118338E+04  0.7818609E-02  0.8210723E-01
       -2   -1    0    0    0  501  0.00000000000E+00  0.00000000000E+00  0.15580111989E+04  0.15580111990E+04  0.25500000920E-02 0.  1.
        2   -1    0    0  501    0  0.00000000000E+00  0.00000000000E+00 -0.15603273040E+04  0.15603273040E+04  0.25500000920E-02 0. -1.
    10030    2    1    2    0    0  0.00000000000E+00  0.00000000000E+00 -0.23161050426E+01  0.31183385029E+04  0.31183376428E+04 0.  0.
        4    1    3    3  502    0  0.74619173739E+03  0.12792107174E+04  0.48651372599E+03  0.15588070397E+04  0.12699999809E+01 0. -1.
       -4    1    3    3    0  502 -0.74619173739E+03 -0.12792107174E+04 -0.48882983104E+03  0.15595314633E+04  0.12699999809E+01 0.  1.
</event>
<event>
 5   0  0.2624011E-06  0.2259336E+04  0.7818609E-02  0.8494129E-01
        1   -1    0    0  501    0  0.00000000000E+00  0.00000000000E+00  0.85588868601E+03  0.85588868603E+03  0.50400001928E-02 0.  1.
       -1   -1    0    0    0  501  0.00000000000E+00  0.00000000000E+00 -0.14910227666E+04  0.14910227666E+04  0.50400001928E-02 0. -1.
    10030    2    1    2    0    0  0.00000000000E+00  0.00000000000E+00 -0.63513408061E+03  0.23469114527E+04  0.22593357578E+04 0.  0.
        1    1    3    3  502    0 -0.47199085860E+03  0.45987524858E+03  0.63554360601E+03  0.91551968303E+03  0.50400001928E-02 0.  1.
       -1    1    3    3    0  502  0.47199085860E+03 -0.45987524858E+03 -0.12706776866E+04  0.14313917696E+04  0.50400001928E-02 0. -1.
</event>
<event>
 5   0  0.7094341E-06  0.3145763E+04  0.7818609E-02  0.8203290E-01
        2   -1    0    0  501    0  0.00000000000E+00  0.00000000000E+00  0.26789377768E+04  0.26789377768E+04  0.25500000920E-02 0. -1.
       -2   -1    0    0    0  501  0.00000000000E+00  0.00000000000E+00 -0.92348391501E+03  0.92348391501E+03  0.25500000920E-02 0.  1.
    10030    2    1    2    0    0  0.00000000000E+00  0.00000000000E+00  0.17554538618E+04  0.36024216918E+04  0.31457628303E+04 0.  0.
        3    1    3    3  502    0 -0.16198278862E+03 -0.11903584676E+04 -0.28492105118E+03  0.12346544945E+04  0.10100000352E+00 0.  1.
       -3    1    3    3    0  502  0.16198278862E+03  0.11903584676E+04  0.20403749129E+04  0.23677671973E+04  0.10100000352E+00 0. -1.
</event>
<event>
 5   0  0.7071012E-06  0.3045191E+04  0.7818609E-02  0.8230943E-01
        2   -1    0    0  501    0  0.00000000000E+00  0.00000000000E+00  0.18906438584E+04  0.18906438584E+04  0.25500000920E-02 0. -1.
       -2   -1    0    0    0  501  0.00000000000E+00  0.00000000000E+00 -0.12261941966E+04  0.12261941966E+04  0.25500000920E-02 0.  1.
    10030    2    1    2    0    0  0.00000000000E+00  0.00000000000E+00  0.66444966175E+03  0.31168380550E+04  0.30451906522E+04 0.  0.
        1    1    3    3  502    0 -0.12899704126E+04 -0.12321664785E+03 -0.48601560413E+03  0.13839859737E+04  0.50400001928E-02 0.  1.
       -1    1    3    3    0  502  0.12899704126E+04  0.12321664785E+03  0.11504652659E+04  0.17328520814E+04  0.50400001928E-02 0. -1.
</event>
<event>
 5   0  0.2612331E-06  0.3130998E+04  0.7818609E-02  0.8207282E-01
        1   -1    0    0  501    0  0.00000000000E+00  0.00000000000E+00  0.17718794392E+04  0.17718794392E+04  0.50400001928E-02 0.  1.
       -1   -1    0    0    0  501  0.00000000000E+00  0.00000000000E+00 -0.13831572431E+04  0.13831572431E+04  0.50400001928E-02 0. -1.
    10030    2    1    2    0    0  0.00000000000E+00  0.00000000000E+00  0.38872219611E+03  0.31550366822E+04  0.31309984862E+04 0.  0.
        4    1    3    3  502    0 -0.12476573605E+04  0.41718445413E+03 -0.66073771784E+03  0.14721642920E+04  0.12699999809E+01 0. -1.
       -4    1    3    3    0  502  0.12476573605E+04 -0.41718445413E+03  0.10494599139E+04  0.16828723902E+04  0.12699999809E+01 0.  1.
</event>
<event>
 5   0  0.7094341E-06  0.3017727E+04  0.7818609E-02  0.8238687E-01
       -2   -1    0    0    0  501  0.00000000000E+00  0.00000000000E+00  0.29879128248E+04  0.29879128248E+04  0.25500000920E-02 0. -1.
        2   -1    0    0  501    0  0.00000000000E+00  0.00000000000E+00 -0.76195954424E+03  0.76195954424E+03  0.25500000920E-02 0.  1.
    10030    2    1    2    0    0  0.00000000000E+00  0.00000000000E+00  0.22259532805E+04  0.37498723690E+04  0.30177267565E+04 0.  0.
        3    1    3    3  502    0 -0.53744308445E+03 -0.39077972632E+03  0.27963024955E+04  0.28741714493E+04  0.10100000352E+00 0. -1.
       -3    1    3    3    0  502  0.53744308445E+03  0.39077972632E+03 -0.57034921497E+03  0.87570091969E+03  0.10100000352E+00 0.  1.
</event>
<event>
 5   0  0.7071012E-06  0.2714196E+04  0.7818609E-02  0.8330414E-01
       -2   -1    0    0    0  501  0.00000000000E+00  0.00000000000E+00  0.10015419358E+04  0.10015419358E+04  0.25500000920E-02 0.  1.
        2   -1    0    0  501    0  0.00000000000E+00  0.00000000000E+00 -0.18388789414E+04  0.18388789414E+04  0.25500000920E-02 0. -1.
    10030    2    1    2    0    0  0.00000000000E+00  0.00000000000E+00 -0.83733700560E+03  0.28404208772E+04  0.27141955527E+04 0.  0.
        1    1    3    3  502    0  0.26205244036E+03 -0.48728285046E+03 -0.17154905198E+04  0.18025048630E+04  0.50400001928E-02 0. -1.
       -1    1    3    3    0  502 -0.26205244036E+03  0.48728285046E+03  0.87815351418E+03  0.10379160141E+04  0.50400001928E-02 0.  1.
</event>
<event>
 5   0  0.2598987E-06  0.2780973E+04  0.7818609E-02  0.8309200E-01
        1   -1    0    0  501    0  0.00000000000E+00  0.00000000000E+00  0.21171332786E+04  0.21171332786E+04  0.50400001928E-02 0. -1.
       -1   -1    0    0    0  501  0.00000000000E+00  0.00000000000E+00 -0.91324081426E+03  0.91324081428E+03  0.50400001928E-02 0.  1.
    10030    2    1    2    0    0  0.00000000000E+00  0.00000000000E+00  0.12038924644E+04  0.30303740929E+04  0.27809728652E+04 0.  0.
        2    1    3    3  502    0  0.16726206625E+03  0.12543037063E+04  0.12300018241E+04  0.17646979554E+04  0.25500000920E-02 0.  1.
       -2    1    3    3    0  502 -0.16726206625E+03 -0.12543037063E+04 -0.26109359720E+02  0.12656761375E+04  0.25500000920E-02 0. -1.
</event>
<event>
 5   0  0.7079223E-06  0.3152868E+04  0.7818609E-02  0.8201377E-01
       -2   -1    0    0    0  501  0.00000000000E+00  0.00000000000E+00  0.12210782136E+04  0.12210782136E+04  0.25500000920E-02 0.  1.
        2   -1    0    0  501    0  0.00000000000E+00  0.00000000000E+00 -0.20352049873E+04  0.20352049873E+04  0.25500000920E-02 0. -1.
    10030    2    1    2    0    0  0.00000000000E+00  0.00000000000E+00 -0.81412677376E+03  0.32562832009E+04  0.31528681991E+04 0.  0.
        5    1    3    3  502    0 -0.38627081161E+03 -0.99004824530E+03  0.79548242005E+03  0.13274844777E+04  0.46999998093E+01 0.  1.
       -5    1    3    3    0  502  0.38627081161E+03  0.99004824530E+03 -0.16096091938E+04  0.19287987232E+04  0.46999998093E+01 0. -1.
</event>
<event>
 5   0  0.2624011E-06  0.3078053E+04  0.7818609E-02  0.8221787E-01
       -1   -1    0    0    0  501  0.00000000000E+00  0.00000000000E+00  0.15095039173E+04  0.15095039173E+04  0.50400001928E-02 0.  1.
        1   -1    0    0  501    0  0.00000000000E+00  0.00000000000E+00 -0.15691266062E+04  0.15691266062E+04  0.50400001928E-02 0. -1.
    10030    2    1    2    0    0  0.00000000000E+00  0.00000000000E+00 -0.59622688915E+02  0.30786305235E+04  0.30780531241E+04 0.  0.
        1    1    3    3  502    0  0.42369849006E+03 -0.37600503101E+03  0.14014366694E+04  0.15115968154E+04  0.50400001928E-02 0.  1.
       -1    1    3    3    0  502 -0.42369849006E+03  0.37600503101E+03 -0.14610593583E+04  0.15670337081E+04  0.50400001928E-02 0. -1.
</event>
<event>
 5   0  0.7071012E-06  0.3137654E+04  0.7818609E-02  0.8205479E-01
        2   -1    0    0  501    0  0.00000000000E+00  0.00000000000E+00  0.16732738723E+04  0.16732738723E+04  0.25500000920E-02 0.  1.
       -2   -1    0    0    0  501  0.00000000000E+00  0.00000000000E+00 -0.14709000573E+04  0.14709000573E+04  0.25500000920E-02 0. -1.
    10030    2    1    2    0    0  0.00000000000E+00  0.00000000000E+00  0.20237381497E+03  0.31441739296E+04  0.31376543051E+04 0.  0.
        1    1    3    3  502    0  0.29440237603E+03  0.51393771999E+03 -0.13545580293E+04  0.14783883772E+04  0.50400001928E-02 0. -1.
       -1    1    3    3    0  502 -0.29440237603E+03 -0.51393771999E+03  0.15569318442E+04  0.16657855524E+04  0.50400001928E-02 0.  1.
</event>
<event>
 5   0  0.7414808E-06  0.3060008E+04  0.7818609E-02  0.8226800E-01
       -2   -1    0    0    0  501  0.00000000000E+00  0.00000000000E+00  0.11649609319E+04  0.11649609319E+04  0.25500000920E-02 0. -1.
        2   -1    0    0  501    0  0.00000000000E+00  0.00000000000E+00 -0.20094334836E+04  0.20094334836E+04  0.25500000920E-02 0.  1.
    10030    2    1    2    0    0  0.00000000000E+00  0.00000000000E+00 -0.84447255170E+03  0.31743944156E+04  0.30600075188E+04 0.  0.
        2    1    3    3  502    0 -0.96130694545E+03  0.98386130031E+03 -0.11172177640E+04  0.17720805946E+04  0.25500000920E-02 0. -1.
       -2    1    3    3    0  502  0.96130694545E+03 -0.98386130031E+03  0.27274521229E+03  0.14023138210E+04  0.25500000920E-02 0.  1.
</event>
<event>
 5   0  0.2674441E-06  0.3084516E+04  0.7818609E-02  0.8220000E-01
        1   -1    0    0  501    0  0.00000000000E+00  0.00000000000E+00  0.12499050936E+04  0.12499050936E+04  0.50400001928E-02 0. -1.
       -1   -1    0    0    0  501  0.00000000000E+00  0.00000000000E+00 -0.19029918946E+04  0.19029918946E+04  0.50400001928E-02 0.  1.
    10030    2    1    2    0    0  0.00000000000E+00  0.00000000000E+00 -0.65308680096E+03  0.31528969882E+04  0.30845156911E+04 0.  0.
        5    1    3    3  502    0  0.19194515090E+03  0.14277509594E+04  0.23631965381E+03  0.14598578053E+04  0.46999998093E+01 0. -1.
       -5    1    3    3    0  502 -0.19194515090E+03 -0.14277509594E+04 -0.88940645477E+03  0.16930391829E+04  0.46999998093E+01 0.  1.
</event>
<event>
 5   0  0.2517725E-06  0.3072483E+04  0.7818609E-02  0.8223331E-01
        1   -1    0    0  501    0  0.00000000000E+00  0.00000000000E+00  0.18544494832E+04  0.18544494833E+04  0.50400001928E-02 0.  1.
       -1   -1    0    0    0  501  0.00000000000E+00  0.00000000000E+00 -0.12726350529E+04  0.12726350529E+04  0.50400001928E-02 0. -1.
    10030    2    1    2    0    0  0.00000000000E+00  0.00000000000E+00  0.58181443035E+03  0.31270845362E+04  0.30724826549E+04 0.  0.
        3    1    3    3  502    0  0.96431266157E+03 -0.77886387558E+03 -0.63269401925E+03  0.13917002472E+04  0.10100000352E+00 0. -1.
       -3    1    3    3    0  502 -0.96431266157E+03  0.77886387558E+03  0.12145084496E+04  0.17353842889E+04  0.10100000352E+00 0.  1.
</event>
<event>
 5   0  0.7094341E-06  0.3067765E+04  0.7818609E-02  0.8224641E-01
        2   -1    0    0  501    0  0.00000000000E+00  0.00000000000E+00  0.85822824938E+03  0.85822824938E+03  0.25500000920E-02 0. -1.
       -2   -1    0    0    0  501  0.00000000000E+00  0.00000000000E+00 -0.27414559323E+04  0.27414559323E+04  0.25500000920E-02 0.  1.
    10030    2    1    2    0    0  0.00000000000E+00  0.00000000000E+00 -0.18832276829E+04  0.35996841817E+04  0.30677646100E+04 0.  0.
        3    1    3    3  502    0 -0.11971052429E+04  0.65122213430E+03 -0.17677034420E+04  0.22320230061E+04  0.10100000352E+00 0.  1.
       -3    1    3    3    0  502  0.11971052429E+04 -0.65122213430E+03 -0.11552424096E+03  0.13676611756E+04  0.10100000352E+00 0. -1.
</event>
<event>
 5   0  0.7079223E-06  0.3134157E+04  0.7818609E-02  0.8206426E-01
       -2   -1    0    0    0  501  0.00000000000E+00  0.00000000000E+00  0.15122489063E+04  0.15122489063E+04  0.25500000920E-02 0.  1.
        2   -1    0    0  501    0  0.00000000000E+00  0.00000000000E+00 -0.16238961678E+04  0.16238961678E+04  0.25500000920E-02 0. -1.
    10030    2    1    2    0    0  0.00000000000E+00  0.00000000000E+00 -0.11164726150E+03  0.31361450742E+04  0.31341571140E+04 0.  0.
        5    1    3    3  502    0  0.79546086566E+02  0.15494427771E+04  0.16479890382E+03  0.15602183399E+04  0.46999998093E+01 0. -1.
       -5    1    3    3    0  502 -0.79546086566E+02 -0.15494427771E+04 -0.27644616532E+03  0.15759267343E+04  0.46999998093E+01 0.  1.
</event>
<event>
 5   0  0.2674441E-06  0.2042367E+04  0.7818609E-02  0.8587065E-01
        1   -1    0    0  501    0  0.00000000000E+00  0.00000000000E+00  0.10936479119E+04  0.10936479119E+04  0.50400001928E-02 0. -1.
       -1   -1    0    0    0  501  0.00000000000E+00  0.00000000000E+00 -0.95352068640E+03  0.95352068641E+03  0.50400001928E-02 0.  1.
    10030    2    1    2    0    0  0.00000000000E+00  0.00000000000E+00  0.14012722552E+03  0.20471685983E+04  0.20423671635E+04 0.  0.
        5    1    3    3  502    0 -0.43276673183E+03  0.82659988050E+03  0.48605664630E+03  0.10520587246E+04  0.46999998093E+01 0.  1.
       -5    1    3    3    0  502  0.43276673183E+03 -0.82659988050E+03 -0.34592942078E+03  0.99510987373E+03  0.46999998093E+01 0. -1.
</event>
<event>
 5   0  0.7071012E-06  0.2344969E+04  0.7818609E-02  0.8460398E-01
        2   -1    0    0  501    0  0.00000000000E+00  0.00000000000E+00  0.17635234631E+04  0.17635234631E+04  0.25500000920E-02 0. -1.
       -2   -1    0    0    0  501  0.00000000000E+00  0.00000000000E+00 -0.77953053757E+03  0.77953053757E+03  0.25500000920E-02 0.  1.
    10030    2    1    2    0    0  0.00000000000E+00  0.00000000000E+00  0.98399292552E+03  0.25430540007E+04  0.23449694183E+04 0.  0.
        1    1    3    3  502    0  0.83198345432E+03  0.20606291986E+03  0.13596161948E+04  0.16072381878E+04  0.50400001928E-02 0. -1.
       -1    1    3    3    0  502 -0.83198345432E+03 -0.20606291986E+03 -0.37562326924E+03  0.93581581287E+03  0.50400001928E-02 0.  1.
</event>
<event>
 5   0  0.2624011E-06  0.3175129E+04  0.7818609E-02  0.8195417E-01
       -1   -1    0    0    0  501  0.00000000000E+00  0.00000000000E+00  0.12576434826E+04  0.12576434826E+04  0.50400001928E-02 0.  1.
        1   -1    0    0  501    0  0.00000000000E+00  0.00000000000E+00 -0.20040342043E+04  0.20040342043E+04  0.50400001928E-02 0. -1.
    10030    2    1    2    0    0  0.00000000000E+00  0.00000000000E+00 -0.74639072172E+03  0.32616776869E+04  0.31751286940E+04 0.  0.
        1    1    3    3  502    0  0.96027692537E+03 -0.11205441201E+04 -0.97447917069E+03  0.17684344920E+04  0.50400001928E-02 0. -1.
       -1    1    3    3    0  502 -0.96027692537E+03  0.11205441201E+04  0.22808844896E+03  0.14932431949E+04  0.50400001928E-02 0.  1.
</event>
<event>
 5   0  0.7094341E-06  0.3024841E+04  0.7818609E-02  0.8236673E-01
        2   -1    0    0  501    0  0.00000000000E+00  0.00000000000E+00  0.18213744783E+04  0.18213744783E+04  0.25500000920E-02 0. -1.
       -2   -1    0    0    0  501  0.00000000000E+00  0.00000000000E+00 -0.12558733701E+04  0.12558733701E+04  0.25500000920E-02 0.  1.
    10030    2    1    2    0    0  0.00000000000E+00  0.00000000000E+00  0.56550110818E+03  0.30772478484E+04  0.30248409574E+04 0.  0.
        3    1    3    3  502    0  0.94113932803E+03  0.50074574227E+02  0.14861073020E+04  0.17597629445E+04  0.10100000352E+00 0. -1.
       -3    1    3    3    0  502 -0.94113932803E+03 -0.50074574227E+02 -0.92060619381E+03  0.13174849039E+04  0.10100000352E+00 0.  1.
</event>
<event>
 5   0  0.7363513E-06  0.3045923E+04  0.7818609E-02  0.8230738E-01
        2   -1    0    0  501    0  0.00000000000E+00  0.00000000000E+00  0.20486601352E+04  0.20486601352E+04  0.25500000920E-02 0.  1.
       -2   -1    0    0    0  501  0.00000000000E+00  0.00000000000E+00 -0.11321600075E+04  0.11321600075E+04  0.25500000920E-02 0. -1.
    10030    2    1    2    0    0  0.00000000000E+00  0.00000000000E+00  0.91650012771E+03  0.31808201428E+04  0.30459225690E+04 0.  0.
        4    1    3    3  502    0  0.86611528926E+02  0.73271442549E+03  0.18495604183E+04  0.19912928816E+04  0.12699999809E+01 0.  1.
       -4    1    3    3    0  502 -0.86611528926E+02 -0.73271442549E+03 -0.93306029062E+03  0.11895272612E+04  0.12699999809E+01 0. -1.
</event>
<event>
 5   0  0.7414808E-06  0.3065650E+04  0.7818609E-02  0.8225229E-01
        2   -1    0    0  501    0  0.00000000000E+00  0.00000000000E+00  0.25330482237E+04  0.25330482237E+04  0.25500000920E-02 0. -1.
       -2   -1    0    0    0  501  0.00000000000E+00  0.00000000000E+00 -0.92755946917E+03  0.92755946918E+03  0.25500000920E-02 0.  1.
    10030    2    1    2    0    0  0.00000000000E+00  0.00000000000E+00  0.16054887545E+04  0.34606076929E+04  0.30656502513E+04 0.  0.
        2    1    3    3  502    0 -0.66206643759E+03 -0.11931102253E+04  0.14410667402E+02  0.13645701319E+04  0.25500000920E-02 0.  1.
       -2    1    3    3    0  502  0.66206643759E+03  0.11931102253E+04  0.15910780871E+04  0.20960375609E+04  0.25500000920E-02 0. -1.
</event>
<event>
 5   0  0.7363513E-06  0.3025399E+04  0.7818609E-02  0.8236515E-01
        2   -1    0    0  501    0  0.00000000000E+00  0.00000000000E+00  0.10362830672E+04  0.10362830672E+04  0.25500000920E-02 0.  1.
       -2   -1    0    0    0  501  0.00000000000E+00  0.00000000000E+00 -0.22081409289E+04  0.22081409289E+04  0.25500000920E-02 0. -1.
    10030    2    1    2    0    0  0.00000000000E+00  0.00000000000E+00 -0.11718578617E+04  0.32444239962E+04  0.30253985223E+04 0.  0.
        4    1    3    3  502    0 -0.26309438040E+03 -0.14672214302E+04 -0.86205790987E+03  0.17219473950E+04  0.12699999809E+01 0. -1.
       -4    1    3    3    0  502  0.26309438040E+03  0.14672214302E+04 -0.30979995185E+03  0.15224766012E+04  0.12699999809E+01 0.  1.
</event>
<event>
 5   0  0.7071012E-06  0.3092048E+04  0.7818609E-02  0.8217924E-01
       -2   -1    0    0    0  501  0.00000000000E+00  0.00000000000E+00  0.12630528388E+04  0.12630528388E+04  0.25500000920E-02 0.  1.
        2   -1    0    0  501    0  0.00000000000E+00  0.00000000000E+00 -0.18923912956E+04  0.18923912956E+04  0.25500000920E-02 0. -1.
    10030    2    1    2    0    0  0.00000000000E+00  0.00000000000E+00 -0.62933845678E+03  0.31554441344E+04  0.30920479932E+04 0.  0.
        1    1    3    3  502    0  0.96886405073E+03  0.87572456266E+03 -0.11590385464E+04  0.17461275470E+04  0.50400001928E-02 0. -1.
       -1    1    3    3    0  502 -0.96886405073E+03 -0.87572456266E+03  0.52970008964E+03  0.14093165874E+04  0.50400001928E-02 0.  1.
</event>
<event>
 5   0  0.2674441E-06  0.3596549E+04  0.7818609E-02  0.8091283E-01
        1   -1    0    0  501    0  0.00000000000E+00  0.00000000000E+00  0.17554991520E+04  0.17554991520E+04  0.50400001928E-02 0.  1.
       -1   -1    0    0    0  501  0.00000000000E+00  0.00000000000E+00 -0.18420921408E+04  0.18420921408E+04  0.50400001928E-02 0. -1.
    10030    2    1    2    0    0  0.00000000000E+00  0.00000000000E+00 -0.86592988786E+02  0.35975912927E+04  0.35965490076E+04 0.  0.
        5    1    3    3  502    0 -0.94475012893E+03  0.14781712605E+04 -0.43866541284E+03  0.18083120626E+04  0.46999998093E+01 0. -1.
       -5    1    3    3    0  502  0.94475012893E+03 -0.14781712605E+04  0.35207242405E+03  0.17892792301E+04  0.46999998093E+01 0.  1.
</event>
<event>
 5   0  0.2624011E-06  0.2805370E+04  0.7818609E-02  0.8301603E-01
       -1   -1    0    0    0  501  0.00000000000E+00  0.00000000000E+00  0.10508780429E+04  0.10508780429E+04  0.50400001928E-02 0. -1.
        1   -1    0    0  501    0  0.00000000000E+00  0.00000000000E+00 -0.18722681516E+04  0.18722681516E+04  0.50400001928E-02 0.  1.
    10030    2    1    2    0    0  0.00000000000E+00  0.00000000000E+00 -0.82139010867E+03  0.29231461945E+04  0.28053702009E+04 0.  0.
        1    1    3    3  502    0  0.80635373297E+03 -0.56187163439E+03 -0.14535207495E+04  0.17546021331E+04  0.50400001928E-02 0.  1.
       -1    1    3    3    0  502 -0.80635373297E+03  0.56187163439E+03  0.63213064088E+03  0.11685440614E+04  0.50400001928E-02 0. -1.
</event>
<event>
 5   0  0.7071012E-06  0.3176265E+04  0.7818609E-02  0.8195114E-01
        2   -1    0    0  501    0  0.00000000000E+00  0.00000000000E+00  0.10498657148E+04  0.10498657148E+04  0.25500000920E-02 0. -1.
       -2   -1    0    0    0  501  0.00000000000E+00  0.00000000000E+00 -0.24023691967E+04  0.24023691967E+04  0.25500000920E-02 0.  1.
    10030    2    1    2    0    0  0.00000000000E+00  0.00000000000E+00 -0.13525034819E+04  0.34522349116E+04  0.31762651363E+04 0.  0.
        1    1    3    3  502    0  0.11013585490E+04 -0.82182396112E+03 -0.15415240020E+04  0.20651105359E+04  0.50400001928E-02 0.  1.
       -1    1    3    3    0  502 -0.11013585490E+04  0.82182396112E+03  0.18902052011E+03  0.13871243757E+04  0.50400001928E-02 0. -1.
</event>
<event>
 5   0  0.2598987E-06  0.2566715E+04  0.7818609E-02  0.8379596E-01
        1   -1    0    0  501    0  0.00000000000E+00  0.00000000000E+00  0.11699383090E+04  0.11699383090E+04  0.50400001928E-02 0.  1.
       -1   -1    0    0    0  501  0.00000000000E+00  0.00000000000E+00 -0.14077716720E+04  0.14077716720E+04  0.50400001928E-02 0. -1.
    10030    2    1    2    0    0  0.00000000000E+00  0.00000000000E+00 -0.23783336306E+03  0.25777099810E+04  0.25667146389E+04 0.  0.
        2    1    3    3  502    0 -0.90855333591E+03  0.71172013775E+03 -0.68256178509E+03  0.13408599141E+04  0.25500000920E-02 0. -1.
       -2    1    3    3    0  502  0.90855333591E+03 -0.71172013775E+03  0.44472842203E+03  0.12368500669E+04  0.25500000920E-02 0.  1.
</event>
<event>
 5   0  0.2517725E-06  0.3024097E+04  0.7818609E-02  0.8236883E-01
        1   -1    0    0  501    0  0.00000000000E+00  0.00000000000E+00  0.17760969938E+04  0.17760969939E+04  0.50400001928E-02 0.  1.
       -1   -1    0    0    0  501  0.00000000000E+00  0.00000000000E+00 -0.12872552492E+04  0.12872552492E+04  0.50400001928E-02 0. -1.
    10030    2    1    2    0    0  0.00000000000E+00  0.00000000000E+00  0.48884174461E+03  0.30633522431E+04  0.30240966774E+04 0.  0.
        3    1    3    3  502    0 -0.30098105978E+03 -0.43093015292E+03  0.16805691136E+04  0.17608529044E+04  0.10100000352E+00 0.  1.
       -3    1    3    3    0  502  0.30098105978E+03  0.43093015292E+03 -0.11917273690E+04  0.13024993387E+04  0.10100000352E+00 0. -1.
</event>
<event>
 5   0  0.2612331E-06  0.3145765E+04  0.7818609E-02  0.8203289E-01
       -1   -1    0    0    0  501  0.00000000000E+00  0.00000000000E+00  0.26382542016E+04  0.26382542017E+04  0.50400001928E-02 0. -1.
        1   -1    0    0  501    0  0.00000000000E+00  0.00000000000E+00 -0.93772614963E+03  0.93772614964E+03  0.50400001928E-02 0.  1.
    10030    2    1    2    0    0  0.00000000000E+00  0.00000000000E+00  0.17005280520E+04  0.35759803513E+04  0.31457653786E+04 0.  0.
        4    1    3    3  502    0 -0.12382995080E+04  0.56085357489E+03 -0.49153799107E+02  0.13602794245E+04  0.12699999809E+01 0.  1.
       -4    1    3    3    0  502  0.12382995080E+04 -0.56085357489E+03  0.17496818511E+04  0.22157009268E+04  0.12699999809E+01 0. -1.
</event>
<event>
 5   0  0.7071012E-06  0.3133289E+04  0.7818609E-02  0.8206661E-01
        2   -1    0    0  501    0  0.00000000000E+00  0.00000000000E+00  0.23199155456E+04  0.23199155456E+04  0.25500000920E-02 0.  1.
       -2   -1    0    0    0  501  0.00000000000E+00  0.00000000000E+00 -0.10579589048E+04  0.10579589048E+04  0.25500000920E-02 0. -1.
    10030    2    1    2    0    0  0.00000000000E+00  0.00000000000E+00  0.12619566408E+04  0.33778744504E+04  0.31332892045E+04 0.  0.
        1    1    3    3  502    0  0.76014927004E+02  0.15194927184E+04  0.22798141466E+03  0.15383796397E+04  0.50400001928E-02 0.  1.
       -1    1    3    3    0  502 -0.76014927004E+02 -0.15194927184E+04  0.10339752261E+04  0.18394948107E+04  0.50400001928E-02 0. -1.
</event>
<event>
 5   0  0.2598987E-06  0.3112939E+04  0.7818609E-02  0.8212196E-01
        1   -1    0    0  501    0  0.00000000000E+00  0.00000000000E+00  0.22101771797E+04  0.22101771797E+04  0.50400001928E-02 0.  1.
       -1   -1    0    0    0  501  0.00000000000E+00  0.00000000000E+00 -0.10961102164E+04  0.10961102164E+04  0.50400001928E-02 0. -1.
    10030    2    1    2    0    0  0.00000000000E+00  0.00000000000E+00  0.11140669632E+04  0.33062873961E+04  0.31129393099E+04 0.  0.
        2    1    3    3  502    0 -0.72463707589E+03 -0.42396919044E+03  0.19490673524E+04  0.21221951631E+04  0.25500000920E-02 0.  1.
       -2    1    3    3    0  502  0.72463707589E+03  0.42396919044E+03 -0.83500038918E+03  0.11840922329E+04  0.25500000920E-02 0. -1.
</event>
<event>
 5   0  0.2517725E-06  0.3033374E+04  0.7818609E-02  0.8234264E-01
       -1   -1    0    0    0  501  0.00000000000E+00  0.00000000000E+00  0.11598566912E+04  0.11598566912E+04  0.50400001928E-02 0. -1.
        1   -1    0    0  501    0  0.00000000000E+00  0.00000000000E+00 -0.19832960661E+04  0.19832960661E+04  0.50400001928E-02 0.  1.
    10030    2    1    2    0    0  0.00000000000E+00  0.00000000000E+00 -0.82343937494E+03  0.31431527573E+04  0.30333738397E+04 0.  0.
        3    1    3    3  502    0 -0.53501803938E+03  0.10456329818E+04 -0.14060017522E+04  0.18320571968E+04  0.10100000352E+00 0.  1.
       -3    1    3    3    0  502  0.53501803938E+03 -0.10456329818E+04  0.58256237727E+03  0.13110955604E+04  0.10100000352E+00 0. -1.
</event>
<event>
 5   0  0.2674441E-06  0.3032353E+04  0.7818609E-02  0.8234552E-01
        1   -1    0    0  501    0  0.00000000000E+00  0.00000000000E+00  0.10150390196E+04  0.10150390196E+04  0.50400001928E-02 0.  1.
       -1   -1    0    0    0  501  0.00000000000E+00  0.00000000000E+00 -0.22647316791E+04  0.22647316791E+04  0.50400001928E-02 0. -1.
    10030    2    1    2    0    0  0.00000000000E+00  0.00000000000E+00 -0.12496926595E+04  0.32797706987E+04  0.30323528971E+04 0.  0.
        5    1    3    3  502    0  0.72429805106E+03  0.48167337982E+03  0.71831238242E+03  0.11281009176E+04  0.46999998093E+01 0.  1.
       -5    1    3    3    0  502 -0.72429805106E+03 -0.48167337982E+03 -0.19680050420E+04  0.21516697811E+04  0.46999998093E+01 0. -1.
</event>
<event>
 5   0  0.7071012E-06  0.3097942E+04  0.7818609E-02  0.8216303E-01
        2   -1    0    0  501    0  0.00000000000E+00  0.00000000000E+00  0.12909069039E+04  0.12909069039E+04  0.25500000920E-02 0.  1.
       -2   -1    0    0    0  501  0.00000000000E+00  0.00000000000E+00 -0.18586244045E+04  0.18586244045E+04  0.25500000920E-02 0. -1.
    10030    2    1    2    0    0  0.00000000000E+00  0.00000000000E+00 -0.56771750054E+03  0.31495313084E+04  0.30979419462E+04 0.  0.
        1    1    3    3  502    0  0.11210787036E+04 -0.65121381340E+03  0.57784920885E+03  0.14194388323E+04  0.50400001928E-02 0.  1.
       -1    1    3    3    0  502 -0.11210787036E+04  0.65121381340E+03 -0.11455667094E+04  0.17300924762E+04  0.50400001928E-02 0. -1.
</event>
<event>
 5   0  0.2393250E-06  0.3040771E+04  0.7818609E-02  0.8232183E-01
       -3   -1    0    0    0  501  0.00000000000E+00  0.00000000000E+00  0.17216645675E+04  0.17216645705E+04  0.10100000352E+00 0.  1.
        3   -1    0    0  501    0  0.00000000000E+00  0.00000000000E+00 -0.13426379193E+04  0.13426379231E+04  0.10100000352E+00 0. -1.
    10030    2    1    2    0    0  0.00000000000E+00  0.00000000000E+00  0.37902664823E+03  0.30643024935E+04  0.30407710489E+04 0.  0.
        5    1    3    3  502    0 -0.13371000784E+04  0.25062864647E+03 -0.49463562079E+03  0.14475281777E+04  0.46999998093E+01 0.  1.
       -5    1    3    3    0  502  0.13371000784E+04 -0.25062864647E+03  0.87366226902E+03  0.16167743158E+04  0.46999998093E+01 0. -1.
</event>
<event>
 5   0  0.2674441E-06  0.3076749E+04  0.7818609E-02  0.8222148E-01
       -1   -1    0    0    0  501  0.00000000000E+00  0.00000000000E+00  0.13981631109E+04  0.13981631109E+04  0.50400001928E-02 0. -1.
        1   -1    0    0  501    0  0.00000000000E+00  0.00000000000E+00 -0.16926466953E+04  0.16926466953E+04  0.50400001928E-02 0.  1.
    10030    2    1    2    0    0  0.00000000000E+00  0.00000000000E+00 -0.29448358444E+03  0.30908098062E+04  0.30767490435E+04 0.  0.
        5    1    3    3  502    0 -0.76609190205E+03  0.25187394468E+03 -0.14632809491E+04  0.16707933781E+04  0.46999998093E+01 0.  1.
       -5    1    3    3    0  502  0.76609190205E+03 -0.25187394468E+03  0.11687973647E+04  0.14200164281E+04  0.46999998093E+01 0. -1.
</event>
<event>
 5   0  0.7414808E-06  0.2572779E+04  0.7818609E-02  0.8377507E-01
       -2   -1    0    0    0  501  0.00000000000E+00  0.00000000000E+00  0.12624393947E+04  0.12624393947E+04  0.25500000920E-02 0. -1.
        2   -1    0    0  501    0  0.00000000000E+00  0.00000000000E+00 -0.13107936371E+04  0.13107936371E+04  0.25500000920E-02 0.  1.
    10030    2    1    2    0    0  0.00000000000E+00  0.00000000000E+00 -0.48354242394E+02  0.25732330318E+04  0.25727786736E+04 0.  0.
        2    1    3    3  502    0 -0.23373836723E+03  0.41963068462E+03  0.11693793389E+04  0.12641881087E+04  0.25500000920E-02 0. -1.
       -2    1    3    3    0  502  0.23373836723E+03 -0.41963068462E+03 -0.12177335813E+04  0.13090449232E+04  0.25500000920E-02 0.  1.
</event>
<event>
 5   0  0.2598987E-06  0.3103233E+04  0.7818609E-02  0.8214851E-01
       -1   -1    0    0    0  501  0.00000000000E+00  0.00000000000E+00  0.10938454845E+04  0.10938454845E+04  0.50400001928E-02 0.  1.
        1   -1    0    0  501    0  0.00000000000E+00  0.00000000000E+00 -0.22009636972E+04  0.22009636972E+04  0.50400001928E-02 0. -1.
    10030    2    1    2    0    0  0.00000000000E+00  0.00000000000E+00 -0.11071182127E+04  0.32948091816E+04  0.31032332826E+04 0.  0.
        2    1    3    3  502    0  0.14786964283E+03 -0.40603656354E+03 -0.21357865497E+04  0.21790629427E+04  0.25500000920E-02 0. -1.
       -2    1    3    3    0  502 -0.14786964283E+03  0.40603656354E+03  0.10286683370E+04  0.11157462390E+04  0.25500000920E-02 0.  1.
</event>
<event>
 5   0  0.7079223E-06  0.2975447E+04  0.7818609E-02  0.8250777E-01
        2   -1    0    0  501    0  0.00000000000E+00  0.00000000000E+00  0.17865529561E+04  0.17865529561E+04  0.25500000920E-02 0. -1.
       -2   -1    0    0    0  501  0.00000000000E+00  0.00000000000E+00 -0.12388780748E+04  0.12388780748E+04  0.25500000920E-02 0.  1.
    10030    2    1    2    0    0  0.00000000000E+00  0.00000000000E+00  0.54767488127E+03  0.30254310309E+04  0.29754470500E+04 0.  0.
        5    1    3    3  502    0 -0.10314510869E+04  0.24999123309E+03 -0.78622700774E+03  0.13208186700E+04  0.46999998093E+01 0.  1.
       -5    1    3    3    0  502  0.10314510869E+04 -0.24999123309E+03  0.13339018890E+04  0.17046123609E+04  0.46999998093E+01 0. -1.
</event>
<event>
 5   0  0.7363513E-06  0.3085655E+04  0.7818609E-02  0.8219686E-01
        2   -1    0    0  501    0  0.00000000000E+00  0.00000000000E+00  0.21606772413E+04  0.21606772413E+04  0.25500000920E-02 0.  1.
       -2   -1    0    0    0  501  0.00000000000E+00  0.00000000000E+00 -0.11016530098E+04  0.11016530098E+04  0.25500000920E-02 0. -1.
    10030    2    1    2    0    0  0.00000000000E+00  0.00000000000E+00  0.10590242315E+04  0.32623302512E+04  0.30856549296E+04 0.  0.
        4    1    3    3  502    0 -0.32263534368E+03 -0.14595446410E+04  0.12560279112E+03  0.15000472653E+04  0.12699999809E+01 0. -1.
       -4    1    3    3    0  502  0.32263534368E+03  0.14595446410E+04  0.93342144034E+03  0.17622829859E+04  0.12699999809E+01 0.  1.
</event>
<event>
 5   0  0.7363513E-06  0.2953805E+04  0.7818609E-02  0.8257047E-01
        2   -1    0    0  501    0  0.00000000000E+00  0.00000000000E+00  0.13645146320E+04  0.13645146320E+04  0.25500000920E-02 0.  1.
       -2   -1    0    0    0  501  0.00000000000E+00  0.00000000000E+00 -0.15985467581E+04  0.15985467581E+04  0.25500000920E-02 0. -1.
    10030    2    1    2    0    0  0.00000000000E+00  0.00000000000E+00 -0.23403212613E+03  0.29630613901E+04  0.29538046255E+04 0.  0.
        4    1    3    3  502    0  0.12984622672E+04  0.60988080326E+03  0.23519675070E+03  0.14537117933E+04  0.12699999809E+01 0.  1.
       -4    1    3    3    0  502 -0.12984622672E+04 -0.60988080326E+03 -0.46922887683E+03  0.15093495968E+04  0.12699999809E+01 0. -1.
</event>
<event>
 5   0  0.2674441E-06  0.2875592E+04  0.7818609E-02  0.8280177E-01
       -1   -1    0    0    0  501  0.00000000000E+00  0.00000000000E+00  0.13908689732E+04  0.13908689732E+04  0.50400001928E-02 0. -1.
        1   -1    0    0  501    0  0.00000000000E+00  0.00000000000E+00 -0.14863058973E+04  0.14863058973E+04  0.50400001928E-02 0.  1.
    10030    2    1    2    0    0  0.00000000000E+00  0.00000000000E+00 -0.95436924057E+02  0.28771748705E+04  0.28755915964E+04 0.  0.
        5    1    3    3  502    0 -0.13689372637E+04 -0.84362989554E+02  0.38394499334E+03  0.14242690034E+04  0.46999998093E+01 0. -1.
       -5    1    3    3    0  502  0.13689372637E+04  0.84362989554E+02 -0.47938191740E+03  0.14529058672E+04  0.46999998093E+01 0.  1.
</event>
<event>
 5   0  0.2674441E-06  0.3251259E+04  0.7818609E-02  0.8175409E-01
        1   -1    0    0  501    0  0.00000000000E+00  0.00000000000E+00  0.21640041079E+04  0.21640041079E+04  0.50400001928E-02 0. -1.
       -1   -1    0    0    0  501  0.00000000000E+00  0.00000000000E+00 -0.12211953295E+04  0.12211953295E+04  0.50400001928E-02 0.  1.
    10030    2    1    2    0    0  0.00000000000E+00  0.00000000000E+00  0.94280877839E+03  0.33851994373E+04  0.32512592696E+04 0.  0.
        5    1    3    3  502    0 -0.81796002704E+03  0.47008679703E+03 -0.90699549208E+03  0.13087028369E+04  0.46999998093E+01 0. -1.
       -5    1    3    3    0  502  0.81796002704E+03 -0.47008679703E+03  0.18498042705E+04  0.20764966004E+04  0.46999998093E+01 0.  1.
</event>
<event>
 5   0  0.2674441E-06  0.3094452E+04  0.7818609E-02  0.8217262E-01
       -1   -1    0    0    0  501  0.00000000000E+00  0.00000000000E+00  0.16267433657E+04  0.16267433657E+04  0.50400001928E-02 0.  1.
        1   -1    0    0  501    0  0.00000000000E+00  0.00000000000E+00 -0.14715952410E+04  0.14715952410E+04  0.50400001928E-02 0. -1.
    10030    2    1    2    0    0  0.00000000000E+00  0.00000000000E+00  0.15514812465E+03  0.30983386067E+04  0.30944516770E+04 0.  0.
        5    1    3    3  502    0 -0.44462585674E+03 -0.14805078703E+04  0.11993706404E+02  0.15458853921E+04  0.46999998093E+01 0.  1.
       -5    1    3    3    0  502  0.44462585674E+03  0.14805078703E+04  0.14315441825E+03  0.15524532147E+04  0.46999998093E+01 0. -1.
</event>
<event>
 5   0  0.7071012E-06  0.2948912E+04  0.7818609E-02  0.8258472E-01
       -2   -1    0    0    0  501  0.00000000000E+00  0.00000000000E+00  0.12806168588E+04  0.12806168588E+04  0.25500000920E-02 0.  1.
        2   -1    0    0  501    0  0.00000000000E+00  0.00000000000E+00 -0.16976358137E+04  0.16976358137E+04  0.25500000920E-02 0. -1.
    10030    2    1    2    0    0  0.00000000000E+00  0.00000000000E+00 -0.41701895492E+03  0.29782526725E+04  0.29489123711E+04 0.  0.
        1    1    3    3  502    0 -0.91702098480E+03 -0.94371318302E+03  0.46331498305E+03  0.13950565694E+04  0.50400001928E-02 0. -1.
       -1    1    3    3    0  502  0.91702098480E+03  0.94371318302E+03 -0.88033393797E+03  0.15831961031E+04  0.50400001928E-02 0.  1.
</event>
<event>
 5   0  0.7079223E-06  0.2551282E+04  0.7818609E-02  0.8384940E-01
       -2   -1    0    0    0  501  0.00000000000E+00  0.00000000000E+00  0.64882916456E+03  0.64882916457E+03  0.25500000920E-02 0. -1.
        2   -1    0    0  501    0  0.00000000000E+00  0.00000000000E+00 -0.25079945164E+04  0.25079945164E+04  0.25500000920E-02 0.  1.
    10030    2    1    2    0    0  0.00000000000E+00  0.00000000000E+00 -0.18591653518E+04  0.31568236810E+04  0.25512820203E+04 0.  0.
        5    1    3    3  502    0  0.88428828541E+03 -0.54739347735E+03 -0.15591558474E+02  0.10401300772E+04  0.46999998093E+01 0. -1.
       -5    1    3    3    0  502 -0.88428828541E+03  0.54739347735E+03 -0.18435737933E+04  0.21166936038E+04  0.46999998093E+01 0.  1.
</event>
<event>
 5   0  0.2517725E-06  0.3042047E+04  0.7818609E-02  0.8231825E-01
       -1   -1    0    0    0  501  0.00000000000E+00  0.00000000000E+00  0.18602513270E+04  0.18602513270E+04  0.50400001928E-02 0. -1.
        1   -1    0    0  501    0  0.00000000000E+00  0.00000000000E+00 -0.12436562130E+04  0.12436562130E+04  0.50400001928E-02 0.  1.
    10030    2    1    2    0    0  0.00000000000E+00  0.00000000000E+00  0.61659511400E+03  0.31039075401E+04  0.30420474162E+04 0.  0.
        3    1    3    3  502    0  0.86460307375E+03 -0.86783448363E+03 -0.61161125960E+03  0.13692127334E+04  0.10100000352E+00 0.  1.
       -3    1    3    3    0  502 -0.86460307375E+03  0.86783448363E+03  0.12282063736E+04  0.17346948067E+04  0.10100000352E+00 0. -1.
</event>
<event>
 5   0  0.7363513E-06  0.3129378E+04  0.7818609E-02  0.8207721E-01
        2   -1    0    0  501    0  0.00000000000E+00  0.00000000000E+00  0.21530166561E+04  0.21530166561E+04  0.25500000920E-02 0.  1.
       -2   -1    0    0    0  501  0.00000000000E+00  0.00000000000E+00 -0.11371262196E+04  0.11371262196E+04  0.25500000920E-02 0. -1.
    10030    2    1    2    0    0  0.00000000000E+00  0.00000000000E+00  0.10158904365E+04  0.32901428758E+04  0.31293780155E+04 0.  0.
        4    1    3    3  502    0 -0.15820930897E+03  0.15519287015E+04  0.63557857431E+03  0.16844805185E+04  0.12699999809E+01 0.  1.
       -4    1    3    3    0  502  0.15820930897E+03 -0.15519287015E+04  0.38031186220E+03  0.16056623573E+04  0.12699999809E+01 0. -1.
</event>
<event>
 5   0  0.7071012E-06  0.3061540E+04  0.7818609E-02  0.8226373E-01
       -2   -1    0    0    0  501  0.00000000000E+00  0.00000000000E+00  0.13645929087E+04  0.13645929087E+04  0.25500000920E-02 0.  1.
        2   -1    0    0  501    0  0.00000000000E+00  0.00000000000E+00 -0.17171843026E+04  0.17171843026E+04  0.25500000920E-02 0. -1.
    10030    2    1    2    0    0  0.00000000000E+00  0.00000000000E+00 -0.35259139383E+03  0.30817772113E+04  0.30615404764E+04 0.  0.
        1    1    3    3  502    0 -0.50621551547E+03 -0.11591199740E+04 -0.10442271761E+04  0.16401901284E+04  0.50400001928E-02 0. -1.
       -1    1    3    3    0  502  0.50621551547E+03  0.11591199740E+04  0.69163578223E+03  0.14415870828E+04  0.50400001928E-02 0.  1.
</event>
<event>
 5   0  0.2624011E-06  0.3108004E+04  0.7818609E-02  0.8213545E-01
       -1   -1    0    0    0  501  0.00000000000E+00  0.00000000000E+00  0.14978727085E+04  0.14978727085E+04  0.50400001928E-02 0. -1.
        1   -1    0    0  501    0  0.00000000000E+00  0.00000000000E+00 -0.16122348089E+04  0.16122348089E+04  0.50400001928E-02 0.  1.
    10030    2    1    2    0    0  0.00000000000E+00  0.00000000000E+00 -0.11436210041E+03  0.31101075174E+04  0.31080041956E+04 0.  0.
        1    1    3    3  502    0 -0.25830039317E+03 -0.19726413419E+03 -0.15778443727E+04  0.16109702345E+04  0.50400001928E-02 0.  1.
       -1    1    3    3    0  502  0.25830039317E+03  0.19726413419E+03  0.14634822723E+04  0.14991372830E+04  0.50400001928E-02 0. -1.
</event>
<event>
 5   0  0.7094341E-06  0.3130603E+04  0.7818609E-02  0.8207389E-01
       -2   -1    0    0    0  501  0.00000000000E+00  0.00000000000E+00  0.90896127027E+03  0.90896127028E+03  0.25500000920E-02 0.  1.
        2   -1    0    0  501    0  0.00000000000E+00  0.00000000000E+00 -0.26955698463E+04  0.26955698463E+04  0.25500000920E-02 0. -1.
    10030    2    1    2    0    0  0.00000000000E+00  0.00000000000E+00 -0.17866085760E+04  0.36045311166E+04  0.31306028759E+04 0.  0.
        3    1    3    3  502    0 -0.92290028588E+03 -0.63124709323E+03 -0.21545581529E+04  0.24274139892E+04  0.10100000352E+00 0. -1.
       -3    1    3    3    0  502  0.92290028588E+03  0.63124709323E+03  0.36794957686E+03  0.11771171274E+04  0.10100000352E+00 0.  1.
</event>
<event>
 5   0  0.2517725E-06  0.3032556E+04  0.7818609E-02  0.8234495E-01
        1   -1    0    0  501    0  0.00000000000E+00  0.00000000000E+00  0.17695388848E+04  0.17695388848E+04  0.50400001928E-02 0. -1.
       -1   -1    0    0    0  501  0.00000000000E+00  0.00000000000E+00 -0.12992648495E+04  0.12992648495E+04  0.50400001928E-02 0.  1.
    10030    2    1    2    0    0  0.00000000000E+00  0.00000000000E+00  0.47027403528E+03  0.30688037343E+04  0.30325564614E+04 0.  0.
        3    1    3    3  502    0  0.12772139958E+04 -0.57680397753E+02 -0.58977331775E+03  0.14079897712E+04  0.10100000352E+00 0.  1.
       -3    1    3    3    0  502 -0.12772139958E+04  0.57680397753E+02  0.10600473530E+04  0.16608139631E+04  0.10100000352E+00 0. -1.
</event>
<event>
 5   0  0.2674441E-06  0.2932800E+04  0.7818609E-02  0.8263185E-01
       -1   -1    0    0    0  501  0.00000000000E+00  0.00000000000E+00  0.65964252358E+03  0.65964252360E+03  0.50400001928E-02 0. -1.
        1   -1    0    0  501    0  0.00000000000E+00  0.00000000000E+00 -0.32598407328E+04  0.32598407328E+04  0.50400001928E-02 0.  1.
    10030    2    1    2    0    0  0.00000000000E+00  0.00000000000E+00 -0.26001982093E+04  0.39194832564E+04  0.29328004143E+04 0.  0.
        5    1    3    3  502    0  0.38987701825E+01  0.54682332288E+03  0.51826961682E+03  0.75342977945E+03  0.46999998093E+01 0. -1.
       -5    1    3    3    0  502 -0.38987701825E+01 -0.54682332288E+03 -0.31184678261E+04  0.31660534770E+04  0.46999998093E+01 0.  1.
</event>
<event>
 5   0  0.2624011E-06  0.3098155E+04  0.7818609E-02  0.8216244E-01
        1   -1    0    0  501    0  0.00000000000E+00  0.00000000000E+00  0.19764645315E+04  0.19764645315E+04  0.50400001928E-02 0. -1.
       -1   -1    0    0    0  501  0.00000000000E+00  0.00000000000E+00 -0.12141081815E+04  0.12141081816E+04  0.50400001928E-02 0.  1.
    10030    2    1    2    0    0  0.00000000000E+00  0.00000000000E+00  0.76235634997E+03  0.31905727131E+04  0.30981554243E+04 0.  0.
        1    1    3    3  502    0  0.43085415921E+02  0.85022539779E+03  0.17139633988E+04  0.19137424364E+04  0.50400001928E-02 0. -1.
       -1    1    3    3    0  502 -0.43085415921E+02 -0.85022539779E+03 -0.95160704887E+03  0.12768302767E+04  0.50400001928E-02 0.  1.
</event>
<event>
 5   0  0.2624011E-06  0.3101793E+04  0.7818609E-02  0.8215246E-01
       -1   -1    0    0    0  501  0.00000000000E+00  0.00000000000E+00  0.13295074667E+04  0.13295074667E+04  0.50400001928E-02 0. -1.
        1   -1    0    0  501    0  0.00000000000E+00  0.00000000000E+00 -0.18091513581E+04  0.18091513581E+04  0.50400001928E-02 0.  1.
    10030    2    1    2    0    0  0.00000000000E+00  0.00000000000E+00 -0.47964389144E+03  0.31386588248E+04  0.31017931839E+04 0.  0.
        1    1    3    3  502    0 -0.10247264719E+04 -0.62646002485E+03 -0.12326890779E+04  0.17210574853E+04  0.50400001928E-02 0. -1.
       -1    1    3    3    0  502  0.10247264719E+04  0.62646002485E+03  0.75304518643E+03  0.14176013395E+04  0.50400001928E-02 0.  1.
</event>
<event>
 5   0  0.7094341E-06  0.3079672E+04  0.7818609E-02  0.8221339E-01
       -2   -1    0    0    0  501  0.00000000000E+00  0.00000000000E+00  0.16232224618E+04  0.16232224618E+04  0.25500000920E-02 0. -1.
        2   -1    0    0  501    0  0.00000000000E+00  0.00000000000E+00 -0.14607333664E+04  0.14607333664E+04  0.25500000920E-02 0.  1.
    10030    2    1    2    0    0  0.00000000000E+00  0.00000000000E+00  0.16248909540E+03  0.30839558282E+04  0.30796721975E+04 0.  0.
        3    1    3    3  502    0 -0.10172813463E+04  0.11503237993E+04 -0.32883358356E+02  0.15359646826E+04  0.10100000352E+00 0.  1.
       -3    1    3    3    0  502  0.10172813463E+04 -0.11503237993E+04  0.19537245375E+03  0.15479911456E+04  0.10100000352E+00 0. -1.
</event>
<event>
 5   0  0.2624011E-06  0.1998377E+04  0.7818609E-02  0.8607380E-01
       -1   -1    0    0    0  501  0.00000000000E+00  0.00000000000E+00  0.11039894469E+04  0.11039894469E+04  0.50400001928E-02 0. -1.
        1   -1    0    0  501    0  0.00000000000E+00  0.00000000000E+00 -0.90433601444E+03  0.90433601445E+03  0.50400001928E-02 0.  1.
    10030    2    1    2    0    0  0.00000000000E+00  0.00000000000E+00  0.19965343241E+03  0.20083254613E+04  0.19983767576E+04 0.  0.
        1    1    3    3  502    0 -0.15541037532E+03  0.29602592892E+03  0.10461053629E+04  0.10982350230E+04  0.50400001928E-02 0. -1.
       -1    1    3    3    0  502  0.15541037532E+03 -0.29602592892E+03 -0.84645193048E+03  0.91009043836E+03  0.50400001928E-02 0.  1.
</event>
<event>
 5   0  0.2598987E-06  0.3038525E+04  0.7818609E-02  0.8232815E-01
       -1   -1    0    0    0  501  0.00000000000E+00  0.00000000000E+00  0.11824548035E+04  0.11824548036E+04  0.50400001928E-02 0. -1.
        1   -1    0    0  501    0  0.00000000000E+00  0.00000000000E+00 -0.19520051636E+04  0.19520051636E+04  0.50400001928E-02 0.  1.
    10030    2    1    2    0    0  0.00000000000E+00  0.00000000000E+00 -0.76955036001E+03  0.31344599671E+04  0.30385245645E+04 0.  0.
        2    1    3    3  502    0 -0.14679679079E+04  0.22288382389E+03 -0.71672842940E+03  0.16487287889E+04  0.25500000920E-02 0.  1.
       -2    1    3    3    0  502  0.14679679079E+04 -0.22288382389E+03 -0.52821930614E+02  0.14857311783E+04  0.25500000920E-02 0. -1.
</event>
<event>
 5   0  0.2674441E-06  0.3132990E+04  0.7818609E-02  0.8206742E-01
        1   -1    0    0  501    0  0.00000000000E+00  0.00000000000E+00  0.19124541792E+04  0.19124541792E+04  0.50400001928E-02 0. -1.
       -1   -1    0    0    0  501  0.00000000000E+00  0.00000000000E+00 -0.12831190457E+04  0.12831190457E+04  0.50400001928E-02 0.  1.
    10030    2    1    2    0    0  0.00000000000E+00  0.00000000000E+00  0.62933513348E+03  0.31955732249E+04  0.31329898700E+04 0.  0.
        5    1    3    3  502    0  0.14106404665E+04 -0.75164016997E+02 -0.37585526423E+03  0.14617952746E+04  0.46999998093E+01 0. -1.
       -5    1    3    3    0  502 -0.14106404665E+04  0.75164016997E+02  0.10051903977E+04  0.17337779503E+04  0.46999998093E+01 0.  1.
</event>
<event>
 5   0  0.7071012E-06  0.3102994E+04  0.7818609E-02  0.8214917E-01
        2   -1    0    0  501    0  0.00000000000E+00  0.00000000000E+00  0.20490426851E+04  0.20490426851E+04  0.25500000920E-02 0.  1.
       -2   -1    0    0    0  501  0.00000000000E+00  0.00000000000E+00 -0.11747645332E+04  0.11747645332E+04  0.25500000920E-02 0. -1.
    10030    2    1    2    0    0  0.00000000000E+00  0.00000000000E+00  0.87427815195E+03  0.32238072183E+04  0.31029938276E+04 0.  0.
        1    1    3    3  502    0 -0.14797472572E+04 -0.44698145817E+03  0.57535369469E+03  0.16493866264E+04  0.50400001928E-02 0. -1.
       -1    1    3    3    0  502  0.14797472572E+04  0.44698145817E+03  0.29892445727E+03  0.15744205920E+04  0.50400001928E-02 0.  1.
</event>
<event>
 5   0  0.7094341E-06  0.3072679E+04  0.7818609E-02  0.8223276E-01
       -2   -1    0    0    0  501  0.00000000000E+00  0.00000000000E+00  0.13860428996E+04  0.13860428996E+04  0.25500000920E-02 0. -1.
        2   -1    0    0  501    0  0.00000000000E+00  0.00000000000E+00 -0.17029339878E+04  0.17029339878E+04  0.25500000920E-02 0.  1.
    10030    2    1    2    0    0  0.00000000000E+00  0.00000000000E+00 -0.31689108826E+03  0.30889768874E+04  0.30726793274E+04 0.  0.
        3    1    3    3  502    0  0.32369106516E+03  0.11812511202E+04 -0.10908396548E+04  0.16401406273E+04  0.10100000352E+00 0.  1.
       -3    1    3    3    0  502 -0.32369106516E+03 -0.11812511202E+04  0.77394856651E+03  0.14488362601E+04  0.10100000352E+00 0. -1.
</event>
<event>
 5   0  0.2612331E-06  0.3069609E+04  0.7818609E-02  0.8224128E-01
        1   -1    0    0  501    0  0.00000000000E+00  0.00000000000E+00  0.18286965503E+04  0.18286965503E+04  0.50400001928E-02 0. -1.
       -1   -1    0    0    0  501  0.00000000000E+00  0.00000000000E+00 -0.12881441568E+04  0.12881441568E+04  0.50400001928E-02 0.  1.
    10030    2    1    2    0    0  0.00000000000E+00  0.00000000000E+00  0.54055239350E+03  0.31168407071E+04  0.30696089495E+04 0.  0.
        4    1    3    3  502    0  0.93596415574E+03  0.91631761311E+03 -0.54200558398E+03  0.14175466606E+04  0.12699999809E+01 0.  1.
       -4    1    3    3    0  502 -0.93596415574E+03 -0.91631761311E+03  0.10825579775E+04  0.16992940465E+04  0.12699999809E+01 0. -1.
</event>
<event>
 5   0  0.2598987E-06  0.3102414E+04  0.7818609E-02  0.8215076E-01
       -1   -1    0    0    0  501  0.00000000000E+00  0.00000000000E+00  0.10809320427E+04  0.10809320428E+04  0.50400001928E-02 0. -1.
        1   -1    0    0  501    0  0.00000000000E+00  0.00000000000E+00 -0.22260821771E+04  0.22260821771E+04  0.50400001928E-02 0.  1.
    10030    2    1    2    0    0  0.00000000000E+00  0.00000000000E+00 -0.11451501344E+04  0.33070142199E+04  0.31024142567E+04 0.  0.
        2    1    3    3  502    0 -0.86375702104E+03  0.61867881309E+03  0.63218452286E+03  0.12363239608E+04  0.25500000920E-02 0. -1.
       -2    1    3    3    0  502  0.86375702104E+03 -0.61867881309E+03 -0.17773346572E+04  0.20706902590E+04  0.25500000920E-02 0.  1.
</event>
<event>
 5   0  0.2612331E-06  0.3119778E+04  0.7818609E-02  0.8210331E-01
       -1   -1    0    0    0  501  0.00000000000E+00  0.00000000000E+00  0.14620918944E+04  0.14620918945E+04  0.50400001928E-02 0.  1.
        1   -1    0    0  501    0  0.00000000000E+00  0.00000000000E+00 -0.16642274456E+04  0.16642274456E+04  0.50400001928E-02 0. -1.
    10030    2    1    2    0    0  0.00000000000E+00  0.00000000000E+00 -0.20213555118E+03  0.31263193401E+04  0.31197778503E+04 0.  0.
        4    1    3    3  502    0  0.13387531991E+04  0.57788333247E+03 -0.65634385420E+03  0.15990616442E+04  0.12699999809E+01 0. -1.
       -4    1    3    3    0  502 -0.13387531991E+04 -0.57788333247E+03  0.45420830301E+03  0.15272576959E+04  0.12699999809E+01 0.  1.
</event>
<event>
 5   0  0.2624011E-06  0.3026428E+04  0.7818609E-02  0.8236224E-01
       -1   -1    0    0    0  501  0.00000000000E+00  0.00000000000E+00  0.17760001863E+04  0.17760001863E+04  0.50400001928E-02 0.  1.
        1   -1    0    0  501    0  0.00000000000E+00  0.00000000000E+00 -0.12893111804E+04  0.12893111805E+04  0.50400001928E-02 0. -1.
    10030    2    1    2    0    0  0.00000000000E+00  0.00000000000E+00  0.48668900584E+03  0.30653113667E+04  0.30264281896E+04 0.  0.
        1    1    3    3  502    0  0.13283444080E+04 -0.42578517681E+03 -0.35072770073E+03  0.14383329945E+04  0.50400001928E-02 0.  1.
       -1    1    3    3    0  502 -0.13283444080E+04  0.42578517681E+03  0.83741670657E+03  0.16269783722E+04  0.50400001928E-02 0. -1.
</event>
<event>
 5   0  0.2393250E-06  0.2951758E+04  0.7818609E-02  0.8257642E-01
        3   -1    0    0  501    0  0.00000000000E+00  0.00000000000E+00  0.15441542982E+04  0.15441543015E+04  0.10100000352E+00 0.  1.
       -3   -1    0    0    0  501  0.00000000000E+00  0.00000000000E+00 -0.14106229011E+04  0.14106229047E+04  0.10100000352E+00 0. -1.
    10030    2    1    2    0    0  0.00000000000E+00  0.00000000000E+00  0.13353139716E+03  0.29547772062E+04  0.29517584089E+04 0.  0.
        4    1    3    3  502    0  0.47281723868E+03  0.45138817046E+03  0.13913386771E+04  0.15372483042E+04  0.12699999809E+01 0.  1.
       -4    1    3    3    0  502 -0.47281723868E+03 -0.45138817046E+03 -0.12578072799E+04  0.14175289020E+04  0.12699999809E+01 0. -1.
</event>
<event>
 5   0  0.2612331E-06  0.2947187E+04  0.7818609E-02  0.8258975E-01
       -1   -1    0    0    0  501  0.00000000000E+00  0.00000000000E+00  0.12308214133E+04  0.12308214133E+04  0.50400001928E-02 0.  1.
        1   -1    0    0  501    0  0.00000000000E+00  0.00000000000E+00 -0.17642503321E+04  0.17642503321E+04  0.50400001928E-02 0. -1.
    10030    2    1    2    0    0  0.00000000000E+00  0.00000000000E+00 -0.53342891885E+03  0.29950717454E+04  0.29471865140E+04 0.  0.
        4    1    3    3  502    0 -0.12264352607E+04 -0.71365581400E+02 -0.10937172571E+04  0.16448269047E+04  0.12699999809E+01 0. -1.
       -4    1    3    3    0  502  0.12264352607E+04  0.71365581400E+02  0.56028833826E+03  0.13502448407E+04  0.12699999809E+01 0.  1.
</event>
<event>
 5   0  0.7363513E-06  0.3166064E+04  0.7818609E-02  0.8197837E-01
       -2   -1    0    0    0  501  0.00000000000E+00  0.00000000000E+00  0.14897053802E+04  0.14897053802E+04  0.25500000920E-02 0.  1.
        2   -1    0    0  501    0  0.00000000000E+00  0.00000000000E+00 -0.16822054384E+04  0.16822054384E+04  0.25500000920E-02 0. -1.
    10030    2    1    2    0    0  0.00000000000E+00  0.00000000000E+00 -0.19250005824E+03  0.31719108186E+04  0.31660641132E+04 0.  0.
        4    1    3    3  502    0 -0.56841200030E+02  0.13535531859E+04  0.72419556604E+03  0.15361633962E+04  0.12699999809E+01 0.  1.
       -4    1    3    3    0  502  0.56841200030E+02 -0.13535531859E+04 -0.91669562429E+03  0.16357474223E+04  0.12699999809E+01 0. -1.
</event>
<event>
 5   0  0.7363513E-06  0.3122681E+04  0.7818609E-02  0.8209541E-01
       -2   -1    0    0    0  501  0.00000000000E+00  0.00000000000E+00  0.14707364718E+04  0.14707364718E+04  0.25500000920E-02 0. -1.
        2   -1    0    0  501    0  0.00000000000E+00  0.00000000000E+00 -0.16575261366E+04  0.16575261366E+04  0.25500000920E-02 0.  1.
    10030    2    1    2    0    0  0.00000000000E+00  0.00000000000E+00 -0.18678966479E+03  0.31282626085E+04  0.31226809905E+04 0.  0.
        4    1    3    3  502    0 -0.61420035024E+03 -0.14291171153E+04 -0.22841232980E+03  0.15721932467E+04  0.12699999809E+01 0. -1.
       -4    1    3    3    0  502  0.61420035024E+03  0.14291171153E+04  0.41622665005E+02  0.15560693618E+04  0.12699999809E+01 0.  1.
</event>
<event>
 5   0  0.2624011E-06  0.3073800E+04  0.7818609E-02  0.8222965E-01
        1   -1    0    0  501    0  0.00000000000E+00  0.00000000000E+00  0.19918338445E+04  0.19918338446E+04  0.50400001928E-02 0. -1.
       -1   -1    0    0    0  501  0.00000000000E+00  0.00000000000E+00 -0.11858725386E+04  0.11858725387E+04  0.50400001928E-02 0.  1.
    10030    2    1    2    0    0  0.00000000000E+00  0.00000000000E+00  0.80596130590E+03  0.31777063832E+04  0.30737996407E+04 0.  0.
        1    1    3    3  502    0 -0.67858074696E+03 -0.79053808594E+03 -0.76509836873E+03  0.12925934432E+04  0.50400001928E-02 0.  1.
       -1    1    3    3    0  502  0.67858074696E+03  0.79053808594E+03  0.15710596746E+04  0.18851129400E+04  0.50400001928E-02 0. -1.
</event>
<event>
 5   0  0.2612331E-06  0.2921328E+04  0.7818609E-02  0.8266560E-01
       -1   -1    0    0    0  501  0.00000000000E+00  0.00000000000E+00  0.20259882422E+04  0.20259882422E+04  0.50400001928E-02 0.  1.
        1   -1    0    0  501    0  0.00000000000E+00  0.00000000000E+00 -0.10530854543E+04  0.10530854543E+04  0.50400001928E-02 0. -1.
    10030    2    1    2    0    0  0.00000000000E+00  0.00000000000E+00  0.97290278792E+03  0.30790736965E+04  0.29213276081E+04 0.  0.
        4    1    3    3  502    0  0.14061941242E+04  0.34064204296E+03  0.27534050015E+03  0.14728315994E+04  0.12699999809E+01 0.  1.
       -4    1    3    3    0  502 -0.14061941242E+04 -0.34064204296E+03  0.69756228777E+03  0.16062420971E+04  0.12699999809E+01 0. -1.
</event>
<event>
 5   0  0.7363513E-06  0.3003420E+04  0.7818609E-02  0.8242755E-01
       -2   -1    0    0    0  501  0.00000000000E+00  0.00000000000E+00  0.14242031668E+04  0.14242031668E+04  0.25500000920E-02 0.  1.
        2   -1    0    0  501    0  0.00000000000E+00  0.00000000000E+00 -0.15834347497E+04  0.15834347497E+04  0.25500000920E-02 0. -1.
    10030    2    1    2    0    0  0.00000000000E+00  0.00000000000E+00 -0.15923158287E+03  0.30076379165E+04  0.30034199074E+04 0.  0.
        4    1    3    3  502    0 -0.96358922026E+03  0.93232668888E+03  0.59764306897E+03  0.14679632458E+04  0.12699999809E+01 0.  1.
       -4    1    3    3    0  502  0.96358922026E+03 -0.93232668888E+03 -0.75687465184E+03  0.15396746707E+04  0.12699999809E+01 0. -1.
</event>
<event>
 5   0  0.7363513E-06  0.3109256E+04  0.7818609E-02  0.8213202E-01
       -2   -1    0    0    0  501  0.00000000000E+00  0.00000000000E+00  0.18628787750E+04  0.18628787750E+04  0.25500000920E-02 0. -1.
        2   -1    0    0  501    0  0.00000000000E+00  0.00000000000E+00 -0.12973831779E+04  0.12973831779E+04  0.25500000920E-02 0.  1.
    10030    2    1    2    0    0  0.00000000000E+00  0.00000000000E+00  0.56549559707E+03  0.31602619530E+04  0.31092555927E+04 0.  0.
        4    1    3    3  502    0 -0.14877644491E+04 -0.25011679151E+03  0.66422399876E+03  0.16483921253E+04  0.12699999809E+01 0.  1.
       -4    1    3    3    0  502  0.14877644491E+04  0.25011679151E+03 -0.98728401687E+02  0.15118698276E+04  0.12699999809E+01 0. -1.
</event>
<event>
 5   0  0.7079223E-06  0.2937619E+04  0.7818609E-02  0.8261772E-01
       -2   -1    0    0    0  501  0.00000000000E+00  0.00000000000E+00  0.82164455237E+03  0.82164455237E+03  0.25500000920E-02 0.  1.
        2   -1    0    0  501    0  0.00000000000E+00  0.00000000000E+00 -0.26257103831E+04  0.26257103831E+04  0.25500000920E-02 0. -1.
    10030    2    1    2    0    0  0.00000000000E+00  0.00000000000E+00 -0.18040658307E+04  0.34473549354E+04  0.29376185133E+04 0.  0.
        5    1    3    3  502    0 -0.12996214696E+04 -0.51795572912E+03 -0.14269579220E+04  0.19983806201E+04  0.46999998093E+01 0. -1.
       -5    1    3    3    0  502  0.12996214696E+04  0.51795572912E+03 -0.37710790871E+03  0.14489743153E+04  0.46999998093E+01 0.  1.
</event>
<event>
 5   0  0.7071012E-06  0.3159994E+04  0.7818609E-02  0.8199463E-01
       -2   -1    0    0    0  501  0.00000000000E+00  0.00000000000E+00  0.14099975513E+04  0.14099975513E+04  0.25500000920E-02 0. -1.
        2   -1    0    0  501    0  0.00000000000E+00  0.00000000000E+00 -0.17704927945E+04  0.17704927945E+04  0.25500000920E-02 0.  1.
    10030    2    1    2    0    0  0.00000000000E+00  0.00000000000E+00 -0.36049524317E+03  0.31804903458E+04  0.31599939904E+04 0.  0.
        1    1    3    3  502    0  0.64607978847E+02  0.59793105034E+03  0.12902885728E+04  0.14235660620E+04  0.50400001928E-02 0. -1.
       -1    1    3    3    0  502 -0.64607978847E+02 -0.59793105034E+03 -0.16507838159E+04  0.17569242838E+04  0.50400001928E-02 0.  1.
</event>
<event>
 5   0  0.2674441E-06  0.2147897E+04  0.7818609E-02  0.8540433E-01
       -1   -1    0    0    0  501  0.00000000000E+00  0.00000000000E+00  0.30252306111E+04  0.30252306111E+04  0.50400001928E-02 0. -1.
        1   -1    0    0  501    0  0.00000000000E+00  0.00000000000E+00 -0.38124891424E+03  0.38124891427E+03  0.50400001928E-02 0.  1.
    10030    2    1    2    0    0  0.00000000000E+00  0.00000000000E+00  0.26439816969E+04  0.34064795254E+04  0.21478974704E+04 0.  0.
        5    1    3    3  502    0  0.17518227646E+03  0.16292835609E+03  0.29824154942E+04  0.29919991225E+04  0.46999998093E+01 0. -1.
       -5    1    3    3    0  502 -0.17518227646E+03 -0.16292835609E+03 -0.33843379731E+03  0.41448040287E+03  0.46999998093E+01 0.  1.
</event>
<event>
 5   0  0.7079223E-06  0.3138060E+04  0.7818609E-02  0.8205370E-01
        2   -1    0    0  501    0  0.00000000000E+00  0.00000000000E+00  0.14777166206E+04  0.14777166206E+04  0.25500000920E-02 0. -1.
       -2   -1    0    0    0  501  0.00000000000E+00  0.00000000000E+00 -0.16659855084E+04  0.16659855084E+04  0.25500000920E-02 0.  1.
    10030    2    1    2    0    0  0.00000000000E+00  0.00000000000E+00 -0.18826888778E+03  0.31437021289E+04  0.31380595758E+04 0.  0.
        5    1    3    3  502    0  0.46100829805E+03  0.13970607734E+04 -0.64057369258E+03  0.16045760191E+04  0.46999998093E+01 0.  1.
       -5    1    3    3    0  502 -0.46100829805E+03 -0.13970607734E+04  0.45230480480E+03  0.15391261098E+04  0.46999998093E+01 0. -1.
</event>
<event>
 5   0  0.2598987E-06  0.3114990E+04  0.7818609E-02  0.8211636E-01
       -1   -1    0    0    0  501  0.00000000000E+00  0.00000000000E+00  0.12693906765E+04  0.12693906766E+04  0.50400001928E-02 0.  1.
        1   -1    0    0  501    0  0.00000000000E+00  0.00000000000E+00 -0.19109878158E+04  0.19109878158E+04  0.50400001928E-02 0. -1.
    10030    2    1    2    0    0  0.00000000000E+00  0.00000000000E+00 -0.64159713926E+03  0.31803784924E+04  0.31149896413E+04 0.  0.
        2    1    3    3  502    0  0.11998641198E+04  0.70558748522E+03  0.39262736232E+03  0.14462654842E+04  0.25500000920E-02 0.  1.
       -2    1    3    3    0  502 -0.11998641198E+04 -0.70558748522E+03 -0.10342245016E+04  0.17341130081E+04  0.25500000920E-02 0. -1.
</event>
<event>
 5   0  0.7079223E-06  0.3044921E+04  0.7818609E-02  0.8231018E-01
       -2   -1    0    0    0  501  0.00000000000E+00  0.00000000000E+00  0.21251950821E+04  0.21251950821E+04  0.25500000920E-02 0.  1.
        2   -1    0    0  501    0  0.00000000000E+00  0.00000000000E+00 -0.10906699001E+04  0.10906699001E+04  0.25500000920E-02 0. -1.
    10030    2    1    2    0    0  0.00000000000E+00  0.00000000000E+00  0.10345251820E+04  0.32158649823E+04  0.30449212193E+04 0.  0.
        5    1    3    3  502    0  0.10556085281E+03 -0.12739135013E+04 -0.35612516303E+03  0.13269686975E+04  0.46999998093E+01 0. -1.
       -5    1    3    3    0  502 -0.10556085281E+03  0.12739135013E+04  0.13906503450E+04  0.18888962848E+04  0.46999998093E+01 0.  1.
</event>
<event>
 5   0  0.2517725E-06  0.3082388E+04  0.7818609E-02  0.8220588E-01
       -1   -1    0    0    0  501  0.00000000000E+00  0.00000000000E+00  0.98106771061E+03  0.98106771063E+03  0.50400001928E-02 0. -1.
        1   -1    0    0  501    0  0.00000000000E+00  0.00000000000E+00 -0.24211157416E+04  0.24211157416E+04  0.50400001928E-02 0.  1.
    10030    2    1    2    0    0  0.00000000000E+00  0.00000000000E+00 -0.14400480310E+04  0.34021834523E+04  0.30823876965E+04 0.  0.
        3    1    3    3  502    0  0.65475107739E+03 -0.13909714324E+04 -0.60023812611E+03  0.16503897471E+04  0.10100000352E+00 0.  1.
       -3    1    3    3    0  502 -0.65475107739E+03  0.13909714324E+04 -0.83980990492E+03  0.17517937052E+04  0.10100000352E+00 0. -1.
</event>
<event>
 5   0  0.2612331E-06  0.3135903E+04  0.7818609E-02  0.8205953E-01
       -1   -1    0    0    0  501  0.00000000000E+00  0.00000000000E+00  0.83844972064E+03  0.83844972066E+03  0.50400001928E-02 0.  1.
        1   -1    0    0  501    0  0.00000000000E+00  0.00000000000E+00 -0.29321633317E+04  0.29321633317E+04  0.50400001928E-02 0. -1.
    10030    2    1    2    0    0  0.00000000000E+00  0.00000000000E+00 -0.20937136110E+04  0.37706130523E+04  0.31359027577E+04 0.  0.
        4    1    3    3  502    0  0.10962300929E+04 -0.11081565513E+04 -0.84302035859E+03  0.17721219757E+04  0.12699999809E+01 0.  1.
       -4    1    3    3    0  502 -0.10962300929E+04  0.11081565513E+04 -0.12506932524E+04  0.19984910767E+04  0.12699999809E+01 0. -1.
</event>
<event>
 5   0  0.2517725E-06  0.2544181E+04  0.7818609E-02  0.8387413E-01
        1   -1    0    0  501    0  0.00000000000E+00  0.00000000000E+00  0.19462725778E+04  0.19462725779E+04  0.50400001928E-02 0.  1.
       -1   -1    0    0    0  501  0.00000000000E+00  0.00000000000E+00 -0.83144306509E+03  0.83144306510E+03  0.50400001928E-02 0. -1.
    10030    2    1    2    0    0  0.00000000000E+00  0.00000000000E+00  0.11148295128E+04  0.27777156430E+04  0.25441814697E+04 0.  0.
        3    1    3    3  502    0  0.26188124296E+03 -0.66579995606E+03  0.17057922859E+04  0.18497563893E+04  0.10100000352E+00 0.  1.
       -3    1    3    3    0  502 -0.26188124296E+03  0.66579995606E+03 -0.59096277318E+03  0.92795925363E+03  0.10100000352E+00 0. -1.
</event>
<event>
 5   0  0.2517725E-06  0.3043421E+04  0.7818609E-02  0.8231439E-01
       -1   -1    0    0    0  501  0.00000000000E+00  0.00000000000E+00  0.10656901116E+04  0.10656901116E+04  0.50400001928E-02 0.  1.
        1   -1    0    0  501    0  0.00000000000E+00  0.00000000000E+00 -0.21728671084E+04  0.21728671085E+04  0.50400001928E-02 0. -1.
    10030    2    1    2    0    0  0.00000000000E+00  0.00000000000E+00 -0.11071769969E+04  0.32385572200E+04  0.30434210956E+04 0.  0.
        3    1    3    3  502    0  0.11874983672E+04 -0.70600523436E+03 -0.12324646989E+04  0.18513684148E+04  0.10100000352E+00 0. -1.
       -3    1    3    3    0  502 -0.11874983672E+04  0.70600523436E+03  0.12528770201E+03  0.13871888053E+04  0.10100000352E+00 0.  1.
</event>
<event>
 5   0  0.7414808E-06  0.3102093E+04  0.7818609E-02  0.8215164E-01
        2   -1    0    0  501    0  0.00000000000E+00  0.00000000000E+00  0.16787460270E+04  0.16787460270E+04  0.25500000920E-02 0. -1.
       -2   -1    0    0    0  501  0.00000000000E+00  0.00000000000E+00 -0.14330612171E+04  0.14330612171E+04  0.25500000920E-02 0.  1.
    10030    2    1    2    0    0  0.00000000000E+00  0.00000000000E+00  0.24568480987E+03  0.31118072441E+04  0.31020933737E+04 0.  0.
        2    1    3    3  502    0 -0.72864488091E+03  0.11369899154E+04 -0.64248596957E+03  0.14954790709E+04  0.25500000920E-02 0.  1.
       -2    1    3    3    0  502  0.72864488091E+03 -0.11369899154E+04  0.88817077944E+03  0.16163281733E+04  0.25500000920E-02 0. -1.
</event>
<event>
 5   0  0.2674441E-06  0.2220127E+04  0.7818609E-02  0.8510097E-01
       -1   -1    0    0    0  501  0.00000000000E+00  0.00000000000E+00  0.10705042405E+04  0.10705042405E+04  0.50400001928E-02 0. -1.
        1   -1    0    0  501    0  0.00000000000E+00  0.00000000000E+00 -0.11510848982E+04  0.11510848982E+04  0.50400001928E-02 0.  1.
    10030    2    1    2    0    0  0.00000000000E+00  0.00000000000E+00 -0.80580657630E+02  0.22215891387E+04  0.22201272619E+04 0.  0.
        5    1    3    3  502    0 -0.40162844873E+03  0.91954247484E+03 -0.51531903954E+03  0.11280246347E+04  0.46999998093E+01 0.  1.
       -5    1    3    3    0  502  0.40162844873E+03 -0.91954247484E+03  0.43473838191E+03  0.10935645041E+04  0.46999998093E+01 0. -1.
</event>
<event>
 5   0  0.2598987E-06  0.3023278E+04  0.7818609E-02  0.8237115E-01
       -1   -1    0    0    0  501  0.00000000000E+00  0.00000000000E+00  0.10742885239E+04  0.10742885240E+04  0.50400001928E-02 0.  1.
        1   -1    0    0  501    0  0.00000000000E+00  0.00000000000E+00 -0.21270379358E+04  0.21270379358E+04  0.50400001928E-02 0. -1.
    10030    2    1    2    0    0  0.00000000000E+00  0.00000000000E+00 -0.10527494118E+04  0.32013264597E+04  0.30232779855E+04 0.  0.
        2    1    3    3  502    0  0.33401793532E+03  0.11410064852E+04 -0.15149452572E+04  0.19257525575E+04  0.25500000920E-02 0. -1.
       -2    1    3    3    0  502 -0.33401793532E+03 -0.11410064852E+04  0.46219584539E+03  0.12755739022E+04  0.25500000920E-02 0.  1.
</event>
<event>
 5   0  0.2517725E-06  0.2713432E+04  0.7818609E-02  0.8330660E-01
       -1   -1    0    0    0  501  0.00000000000E+00  0.00000000000E+00  0.11803363688E+04  0.11803363688E+04  0.50400001928E-02 0. -1.
        1   -1    0    0  501    0  0.00000000000E+00  0.00000000000E+00 -0.15594523408E+04  0.15594523408E+04  0.50400001928E-02 0.  1.
    10030    2    1    2    0    0  0.00000000000E+00  0.00000000000E+00 -0.37911597201E+03  0.27397887097E+04  0.27134320064E+04 0.  0.
        3    1    3    3  502    0 -0.10121015762E+03 -0.23752205154E+03  0.11553022392E+04  0.11838004456E+04  0.10100000352E+00 0. -1.
       -3    1    3    3    0  502  0.10121015762E+03  0.23752205154E+03 -0.15344182112E+04  0.15559882641E+04  0.10100000352E+00 0.  1.
</event>
<event>
 5   0  0.7071012E-06  0.3113680E+04  0.7818609E-02  0.8211993E-01
        2   -1    0    0  501    0  0.00000000000E+00  0.00000000000E+00  0.13485380893E+04  0.13485380893E+04  0.25500000920E-02 0.  1.
       -2   -1    0    0    0  501  0.00000000000E+00  0.00000000000E+00 -0.17973175626E+04  0.17973175626E+04  0.25500000920E-02 0. -1.
    10030    2    1    2    0    0  0.00000000000E+00  0.00000000000E+00 -0.44877947330E+03  0.31458556519E+04  0.31136802609E+04 0.  0.
        1    1    3    3  502    0 -0.13843600945E+04 -0.35761327174E+03 -0.84671835912E+03  0.16617075865E+04  0.50400001928E-02 0.  1.
       -1    1    3    3    0  502  0.13843600945E+04  0.35761327174E+03  0.39793888582E+03  0.14841480654E+04  0.50400001928E-02 0. -1.
</event>
<event>
 5   0  0.7414808E-06  0.2462340E+04  0.7818609E-02  0.8416526E-01
       -2   -1    0    0    0  501  0.00000000000E+00  0.00000000000E+00  0.77731810363E+03  0.77731810363E+03  0.25500000920E-02 0. -1.
        2   -1    0    0  501    0  0.00000000000E+00  0.00000000000E+00 -0.19500115219E+04  0.19500115219E+04  0.25500000920E-02 0.  1.
    10030    2    1    2    0    0  0.00000000000E+00  0.00000000000E+00 -0.11726934183E+04  0.27273296255E+04  0.24623397477E+04 0.  0.
        2    1    3    3  502    0 -0.60674608213E+03 -0.36260337753E+03 -0.17028759786E+04  0.18437485230E+04  0.25500000920E-02 0.  1.
       -2    1    3    3    0  502  0.60674608213E+03  0.36260337753E+03  0.53018256029E+03  0.88358110257E+03  0.25500000920E-02 0. -1.
</event>
<event>
 5   0  0.2517725E-06  0.3023571E+04  0.7818609E-02  0.8237032E-01
        1   -1    0    0  501    0  0.00000000000E+00  0.00000000000E+00  0.74148119409E+03  0.74148119411E+03  0.50400001928E-02 0. -1.
       -1   -1    0    0    0  501  0.00000000000E+00  0.00000000000E+00 -0.30823381686E+04  0.30823381686E+04  0.50400001928E-02 0.  1.
    10030    2    1    2    0    0  0.00000000000E+00  0.00000000000E+00 -0.23408569745E+04  0.38238193628E+04  0.30235712566E+04 0.  0.
        3    1    3    3  502    0 -0.16495855166E+03  0.12139361525E+04 -0.50182641146E+02  0.12261201465E+04  0.10100000352E+00 0.  1.
       -3    1    3    3    0  502  0.16495855166E+03 -0.12139361525E+04 -0.22906743334E+04  0.25976992162E+04  0.10100000352E+00 0. -1.
</event>
<event>
 5   0  0.7071012E-06  0.3109346E+04  0.7818609E-02  0.8213178E-01
        2   -1    0    0  501    0  0.00000000000E+00  0.00000000000E+00  0.25210774508E+04  0.25210774508E+04  0.25500000920E-02 0. -1.
       -2   -1    0    0    0  501  0.00000000000E+00  0.00000000000E+00 -0.95872040312E+03  0.95872040313E+03  0.25500000920E-02 0.  1.
    10030    2    1    2    0    0  0.00000000000E+00  0.00000000000E+00  0.15623570476E+04  0.34797978539E+04  0.31093461627E+04 0.  0.
        1    1    3    3  502    0  0.99069579310E+03 -0.10887903641E+04  0.22153423958E+03  0.14886302532E+04  0.50400001928E-02 0.  1.
       -1    1    3    3    0  502 -0.99069579310E+03  0.10887903641E+04  0.13408228081E+04  0.19911676007E+04  0.50400001928E-02 0. -1.
</event>
<event>
 5   0  0.2624011E-06  0.2221601E+04  0.7818609E-02  0.8509491E-01
        1   -1    0    0  501    0  0.00000000000E+00  0.00000000000E+00  0.10486200577E+04  0.10486200577E+04  0.50400001928E-02 0. -1.
       -1   -1    0    0    0  501  0.00000000000E+00  0.00000000000E+00 -0.11766679330E+04  0.11766679330E+04  0.50400001928E-02 0.  1.
    10030    2    1    2    0    0  0.00000000000E+00  0.00000000000E+00 -0.12804787527E+03  0.22252879907E+04  0.22216008605E+04 0.  0.
        1    1    3    3  502    0 -0.67073947136E+03 -0.30451496715E+03  0.76877448708E+03  0.10647229760E+04  0.50400001928E-02 0. -1.
       -1    1    3    3    0  502  0.67073947136E+03  0.30451496715E+03 -0.89682236235E+03  0.11605650147E+04  0.50400001928E-02 0.  1.
</event>
<event>
 5   0  0.2517725E-06  0.2768917E+04  0.7818609E-02  0.8312984E-01
        1   -1    0    0  501    0  0.00000000000E+00  0.00000000000E+00  0.16857988657E+04  0.16857988657E+04  0.50400001928E-02 0.  1.
       -1   -1    0    0    0  501  0.00000000000E+00  0.00000000000E+00 -0.11369831180E+04  0.11369831180E+04  0.50400001928E-02 0. -1.
    10030    2    1    2    0    0  0.00000000000E+00  0.00000000000E+00  0.54881574770E+03  0.28227819837E+04  0.27689166478E+04 0.  0.
        3    1    3    3  502    0  0.35883778047E+03 -0.11790924747E+04 -0.36849581575E+03  0.12863952709E+04  0.10100000352E+00 0. -1.
       -3    1    3    3    0  502 -0.35883778047E+03  0.11790924747E+04  0.91731156345E+03  0.15363867128E+04  0.10100000352E+00 0.  1.
</event>
<event>
 5   0  0.7363513E-06  0.3048043E+04  0.7818609E-02  0.8230143E-01
        2   -1    0    0  501    0  0.00000000000E+00  0.00000000000E+00  0.26235139623E+04  0.26235139623E+04  0.25500000920E-02 0.  1.
       -2   -1    0    0    0  501  0.00000000000E+00  0.00000000000E+00 -0.88531723111E+03  0.88531723112E+03  0.25500000920E-02 0. -1.
    10030    2    1    2    0    0  0.00000000000E+00  0.00000000000E+00  0.17381967312E+04  0.35088311934E+04  0.30480433835E+04 0.  0.
        4    1    3    3  502    0  0.84215993371E+02  0.69620529703E+03  0.24267390459E+04  0.25260360565E+04  0.12699999809E+01 0.  1.
       -4    1    3    3    0  502 -0.84215993371E+02 -0.69620529703E+03 -0.68854231467E+03  0.98279513691E+03  0.12699999809E+01 0. -1.
</event>
<event>
 5   0  0.7079223E-06  0.2091979E+04  0.7818609E-02  0.8564785E-01
        2   -1    0    0  501    0  0.00000000000E+00  0.00000000000E+00  0.67199696962E+03  0.67199696963E+03  0.25500000920E-02 0.  1.
       -2   -1    0    0    0  501  0.00000000000E+00  0.00000000000E+00 -0.16281229229E+04  0.16281229229E+04  0.25500000920E-02 0. -1.
    10030    2    1    2    0    0  0.00000000000E+00  0.00000000000E+00 -0.95612595331E+03  0.23001198926E+04  0.20919786523E+04 0.  0.
        5    1    3    3  502    0  0.42212428432E+03  0.49487867376E+03 -0.13786948045E+04  0.15244393287E+04  0.46999998093E+01 0. -1.
       -5    1    3    3    0  502 -0.42212428432E+03 -0.49487867376E+03  0.42256885114E+03  0.77568056384E+03  0.46999998093E+01 0.  1.
</event>
<event>
 5   0  0.2393250E-06  0.3059121E+04  0.7818609E-02  0.8227047E-01
        3   -1    0    0  501    0  0.00000000000E+00  0.00000000000E+00  0.20397641684E+04  0.20397641709E+04  0.10100000352E+00 0. -1.
       -3   -1    0    0    0  501  0.00000000000E+00  0.00000000000E+00 -0.11469732261E+04  0.11469732306E+04  0.10100000352E+00 0.  1.
    10030    2    1    2    0    0  0.00000000000E+00  0.00000000000E+00  0.89279094223E+03  0.31867374015E+04  0.30591207233E+04 0.  0.
        5    1    3    3  502    0 -0.41184607674E+03  0.12410974610E+04  0.12729652210E+04  0.18249390791E+04  0.46999998093E+01 0. -1.
       -5    1    3    3    0  502  0.41184607674E+03 -0.12410974610E+04 -0.38017427877E+03  0.13617983224E+04  0.46999998093E+01 0.  1.
</event>
<event>
 5   0  0.7071012E-06  0.3134662E+04  0.7818609E-02  0.8206289E-01
        2   -1    0    0  501    0  0.00000000000E+00  0.00000000000E+00  0.21245519655E+04  0.21245519655E+04  0.25500000920E-02 0. -1.
       -2   -1    0    0    0  501  0.00000000000E+00  0.00000000000E+00 -0.11562559680E+04  0.11562559680E+04  0.25500000920E-02 0.  1.
    10030    2    1    2    0    0  0.00000000000E+00  0.00000000000E+00  0.96829599749E+03  0.32808079334E+04  0.31346616336E+04 0.  0.
        1    1    3    3  502    0  0.20465147148E+03 -0.56289564154E+03 -0.10317548433E+04  0.11930011671E+04  0.50400001928E-02 0.  1.
       -1    1    3    3    0  502 -0.20465147148E+03  0.56289564154E+03  0.20000508408E+04  0.20878067664E+04  0.50400001928E-02 0. -1.
</event>
<event>
 5   0  0.7079223E-06  0.3087395E+04  0.7818609E-02  0.8219206E-01
        2   -1    0    0  501    0  0.00000000000E+00  0.00000000000E+00  0.20323381968E+04  0.20323381968E+04  0.25500000920E-02 0.  1.
       -2   -1    0    0    0  501  0.00000000000E+00  0.00000000000E+00 -0.11725419812E+04  0.11725419812E+04  0.25500000920E-02 0. -1.
    10030    2    1    2    0    0  0.00000000000E+00  0.00000000000E+00  0.85979621558E+03  0.32048801780E+04  0.30873949250E+04 0.  0.
        5    1    3    3  502    0  0.51118875308E+03 -0.97140526380E+03 -0.69677828387E+03  0.13001785242E+04  0.46999998093E+01 0. -1.
       -5    1    3    3    0  502 -0.51118875308E+03  0.97140526380E+03  0.15565744995E+04  0.19047016538E+04  0.46999998093E+01 0.  1.
</event>
<event>
 5   0  0.7363513E-06  0.3121432E+04  0.7818609E-02  0.8209881E-01
       -2   -1    0    0    0  501  0.00000000000E+00  0.00000000000E+00  0.12515020417E+04  0.12515020417E+04  0.25500000920E-02 0.  1.
        2   -1    0    0  501    0  0.00000000000E+00  0.00000000000E+00 -0.19463282012E+04  0.19463282012E+04  0.25500000920E-02 0. -1.
    10030    2    1    2    0    0  0.00000000000E+00  0.00000000000E+00 -0.69482615945E+03  0.31978302429E+04  0.31214315419E+04 0.  0.
        4    1    3    3  502    0 -0.11592658573E+04 -0.44591269622E+03 -0.13155812925E+04  0.18092791964E+04  0.12699999809E+01 0. -1.
       -4    1    3    3    0  502  0.11592658573E+04  0.44591269622E+03  0.62075513301E+03  0.13885510465E+04  0.12699999809E+01 0.  1.
</event>
<event>
 5   0  0.2517725E-06  0.2570814E+04  0.7818609E-02  0.8378183E-01
        1   -1    0    0  501    0  0.00000000000E+00  0.00000000000E+00  0.12429373749E+04  0.12429373749E+04  0.50400001928E-02 0. -1.
       -1   -1    0    0    0  501  0.00000000000E+00  0.00000000000E+00 -0.13293276173E+04  0.13293276174E+04  0.50400001928E-02 0.  1.
    10030    2    1    2    0    0  0.00000000000E+00  0.00000000000E+00 -0.86390242453E+02  0.25722649923E+04  0.25708138627E+04 0.  0.
        3    1    3    3  502    0 -0.10572140575E+04  0.35417006286E+03  0.59680095951E+03  0.12646380480E+04  0.10100000352E+00 0. -1.
       -3    1    3    3    0  502  0.10572140575E+04 -0.35417006286E+03 -0.68319120197E+03  0.13076269443E+04  0.10100000352E+00 0.  1.
</event>
<event>
 5   0  0.2517725E-06  0.3088797E+04  0.7818609E-02  0.8218819E-01
       -1   -1    0    0    0  501  0.00000000000E+00  0.00000000000E+00  0.76096324829E+03  0.76096324830E+03  0.50400001928E-02 0.  1.
        1   -1    0    0  501    0  0.00000000000E+00  0.00000000000E+00 -0.31344048863E+04  0.31344048863E+04  0.50400001928E-02 0. -1.
    10030    2    1    2    0    0  0.00000000000E+00  0.00000000000E+00 -0.23734416380E+04  0.38953681346E+04  0.30887971275E+04 0.  0.
        3    1    3    3  502    0  0.20547955204E+03  0.25774403569E+03 -0.30895254399E+04  0.31070599107E+04  0.10100000352E+00 0. -1.
       -3    1    3    3    0  502 -0.20547955204E+03 -0.25774403569E+03  0.71608380196E+03  0.78830822390E+03  0.10100000352E+00 0.  1.
</event>
<event>
 5   0  0.7094341E-06  0.3118589E+04  0.7818609E-02  0.8210655E-01
        2   -1    0    0  501    0  0.00000000000E+00  0.00000000000E+00  0.19882425589E+04  0.19882425589E+04  0.25500000920E-02 0.  1.
       -2   -1    0    0    0  501  0.00000000000E+00  0.00000000000E+00 -0.12228887698E+04  0.12228887698E+04  0.25500000920E-02 0. -1.
    10030    2    1    2    0    0  0.00000000000E+00  0.00000000000E+00  0.76535378913E+03  0.32111313287E+04  0.31185891021E+04 0.  0.
        3    1    3    3  502    0 -0.14173524220E+04  0.31633402151E+03  0.96736912160E+03  0.17449235310E+04  0.10100000352E+00 0.  1.
       -3    1    3    3    0  502  0.14173524220E+04 -0.31633402151E+03 -0.20201533247E+03  0.14662077977E+04  0.10100000352E+00 0. -1.
</event>
<event>
 5   0  0.7363513E-06  0.3083245E+04  0.7818609E-02  0.8220351E-01
       -2   -1    0    0    0  501  0.00000000000E+00  0.00000000000E+00  0.17542744914E+04  0.17542744914E+04  0.25500000920E-02 0.  1.
        2   -1    0    0  501    0  0.00000000000E+00  0.00000000000E+00 -0.13547480468E+04  0.13547480468E+04  0.25500000920E-02 0. -1.
    10030    2    1    2    0    0  0.00000000000E+00  0.00000000000E+00  0.39952644466E+03  0.31090225382E+04  0.30832450054E+04 0.  0.
        4    1    3    3  502    0 -0.31432165444E+03  0.15042419409E+04  0.76032789322E+02  0.15386112300E+04  0.12699999809E+01 0. -1.
       -4    1    3    3    0  502  0.31432165444E+03 -0.15042419409E+04  0.32349365534E+03  0.15704113082E+04  0.12699999809E+01 0.  1.
</event>
<event>
 5   0  0.2598987E-06  0.3098991E+04  0.7818609E-02  0.8216015E-01
        1   -1    0    0  501    0  0.00000000000E+00  0.00000000000E+00  0.24137034503E+04  0.24137034503E+04  0.50400001928E-02 0.  1.
       -1   -1    0    0    0  501  0.00000000000E+00  0.00000000000E+00 -0.99471041120E+03  0.99471041121E+03  0.50400001928E-02 0. -1.
    10030    2    1    2    0    0  0.00000000000E+00  0.00000000000E+00  0.14189930391E+04  0.34084138616E+04  0.30989907723E+04 0.  0.
        2    1    3    3  502    0  0.14278342694E+04  0.50855180435E+02  0.13690734108E+04  0.19788024041E+04  0.25500000920E-02 0.  1.
       -2    1    3    3    0  502 -0.14278342694E+04 -0.50855180435E+02  0.49919628329E+02  0.14296114575E+04  0.25500000920E-02 0. -1.
</event>
<event>
 5   0  0.2624011E-06  0.2723440E+04  0.7818609E-02  0.8327439E-01
       -1   -1    0    0    0  501  0.00000000000E+00  0.00000000000E+00  0.95663465777E+03  0.95663465778E+03  0.50400001928E-02 0.  1.
        1   -1    0    0  501    0  0.00000000000E+00  0.00000000000E+00 -0.19383375717E+04  0.19383375717E+04  0.50400001928E-02 0. -1.
    10030    2    1    2    0    0  0.00000000000E+00  0.00000000000E+00 -0.98170291392E+03  0.28949722295E+04  0.27234396630E+04 0.  0.
        1    1    3    3  502    0 -0.95175808155E+03  0.22741585691E+03  0.51574395500E+03  0.11061434106E+04  0.50400001928E-02 0.  1.
       -1    1    3    3    0  502  0.95175808155E+03 -0.22741585691E+03 -0.14974468689E+04  0.17888288188E+04  0.50400001928E-02 0. -1.
</event>
<event>
 5   0  0.2598987E-06  0.2605877E+04  0.7818609E-02  0.8366208E-01
       -1   -1    0    0    0  501  0.00000000000E+00  0.00000000000E+00  0.14437219357E+04  0.14437219357E+04  0.50400001928E-02 0. -1.
        1   -1    0    0  501    0  0.00000000000E+00  0.00000000000E+00 -0.11758837412E+04  0.11758837412E+04  0.50400001928E-02 0.  1.
    10030    2    1    2    0    0  0.00000000000E+00  0.00000000000E+00  0.26783819450E+03  0.26196056769E+04  0.26058773194E+04 0.  0.
        2    1    3    3  502    0  0.71656484149E+03  0.10561605194E+04 -0.12958572587E+03  0.12828611286E+04  0.25500000920E-02 0.  1.
       -2    1    3    3    0  502 -0.71656484149E+03 -0.10561605194E+04  0.39742392037E+03  0.13367445483E+04  0.25500000920E-02 0. -1.
</event>
<event>
 5   0  0.7363513E-06  0.3203242E+04  0.7818609E-02  0.8187962E-01
       -2   -1    0    0    0  501  0.00000000000E+00  0.00000000000E+00  0.11773484907E+04  0.11773484908E+04  0.25500000920E-02 0. -1.
        2   -1    0    0  501    0  0.00000000000E+00  0.00000000000E+00 -0.21787850087E+04  0.21787850087E+04  0.25500000920E-02 0.  1.
    10030    2    1    2    0    0  0.00000000000E+00  0.00000000000E+00 -0.10014365179E+04  0.33561334994E+04  0.32032416341E+04 0.  0.
        4    1    3    3  502    0 -0.27496594967E+03  0.84773202858E+03 -0.18949996816E+04  0.20941063182E+04  0.12699999809E+01 0.  1.
       -4    1    3    3    0  502  0.27496594967E+03 -0.84773202858E+03  0.89356316368E+03  0.12620271812E+04  0.12699999809E+01 0. -1.
</event>
<event>
 5   0  0.7363513E-06  0.3051920E+04  0.7818609E-02  0.8229058E-01
        2   -1    0    0  501    0  0.00000000000E+00  0.00000000000E+00  0.17921505266E+04  0.17921505266E+04  0.25500000920E-02 0. -1.
       -2   -1    0    0    0  501  0.00000000000E+00  0.00000000000E+00 -0.12993073970E+04  0.12993073970E+04  0.25500000920E-02 0.  1.
    10030    2    1    2    0    0  0.00000000000E+00  0.00000000000E+00  0.49284312954E+03  0.30914579236E+04  0.30519203369E+04 0.  0.
        4    1    3    3  502    0  0.15065168846E+04 -0.77017243979E+02  0.13160127135E+02  0.15085422040E+04  0.12699999809E+01 0.  1.
       -4    1    3    3    0  502 -0.15065168846E+04  0.77017243979E+02  0.47968300240E+03  0.15829157195E+04  0.12699999809E+01 0. -1.
</event>
<event>
 5   0  0.7079223E-06  0.2941151E+04  0.7818609E-02  0.8260738E-01
       -2   -1    0    0    0  501  0.00000000000E+00  0.00000000000E+00  0.93192596278E+03  0.93192596278E+03  0.25500000920E-02 0.  1.
        2   -1    0    0  501    0  0.00000000000E+00  0.00000000000E+00 -0.23205616032E+04  0.23205616032E+04  0.25500000920E-02 0. -1.
    10030    2    1    2    0    0  0.00000000000E+00  0.00000000000E+00 -0.13886356404E+04  0.32524875660E+04  0.29411505274E+04 0.  0.
        5    1    3    3  502    0 -0.12355865812E+03  0.85051384461E+01  0.92613995926E+03  0.93439627221E+03  0.46999998093E+01 0.  1.
       -5    1    3    3    0  502  0.12355865812E+03 -0.85051384461E+01 -0.23147755997E+04  0.23180912938E+04  0.46999998093E+01 0. -1.
</event>
<event>
 5   0  0.2517725E-06  0.3116243E+04  0.7818609E-02  0.8211294E-01
       -1   -1    0    0    0  501  0.00000000000E+00  0.00000000000E+00  0.17535677895E+04  0.17535677896E+04  0.50400001928E-02 0.  1.
        1   -1    0    0  501    0  0.00000000000E+00  0.00000000000E+00 -0.13844586922E+04  0.13844586922E+04  0.50400001928E-02 0. -1.
    10030    2    1    2    0    0  0.00000000000E+00  0.00000000000E+00  0.36910909737E+03  0.31380264817E+04  0.31162427175E+04 0.  0.
        3    1    3    3  502    0  0.93429469180E+03 -0.11332198846E+04  0.70842989842E+03  0.16306338673E+04  0.10100000352E+00 0.  1.
       -3    1    3    3    0  502 -0.93429469180E+03  0.11332198846E+04 -0.33932080105E+03  0.15073926145E+04  0.10100000352E+00 0. -1.
</event>
<event>
 5   0  0.2598987E-06  0.3083430E+04  0.7818609E-02  0.8220300E-01
       -1   -1    0    0    0  501  0.00000000000E+00  0.00000000000E+00  0.14405512999E+04  0.14405513000E+04  0.50400001928E-02 0.  1.
        1   -1    0    0  501    0  0.00000000000E+00  0.00000000000E+00 -0.16499825621E+04  0.16499825621E+04  0.50400001928E-02 0. -1.
    10030    2    1    2    0    0  0.00000000000E+00  0.00000000000E+00 -0.20943126217E+03  0.30905338621E+04  0.30834296002E+04 0.  0.
        2    1    3    3  502    0 -0.14594954038E+04  0.32731628006E+03 -0.47923647930E+03  0.15706464860E+04  0.25500000920E-02 0. -1.
       -2    1    3    3    0  502  0.14594954038E+04 -0.32731628006E+03  0.26980521712E+03  0.15198873761E+04  0.25500000920E-02 0.  1.
</event>
<event>
 5   0  0.7071012E-06  0.3112532E+04  0.7818609E-02  0.8212307E-01
       -2   -1    0    0    0  501  0.00000000000E+00  0.00000000000E+00  0.19294961750E+04  0.19294961750E+04  0.25500000920E-02 0. -1.
        2   -1    0    0  501    0  0.00000000000E+00  0.00000000000E+00 -0.12552310918E+04  0.12552310918E+04  0.25500000920E-02 0.  1.
    10030    2    1    2    0    0  0.00000000000E+00  0.00000000000E+00  0.67426508327E+03  0.31847272668E+04  0.31125318249E+04 0.  0.
        1    1    3    3  502    0 -0.17080033548E+03  0.87074022980E+03  0.16453034797E+04  0.18693273771E+04  0.50400001928E-02 0. -1.
       -1    1    3    3    0  502  0.17080033548E+03 -0.87074022980E+03 -0.97103839644E+03  0.13153998897E+04  0.50400001928E-02 0.  1.
</event>
<event>
 5   0  0.2612331E-06  0.3100006E+04  0.7818609E-02  0.8215736E-01
        1   -1    0    0  501    0  0.00000000000E+00  0.00000000000E+00  0.17792851309E+04  0.17792851309E+04  0.50400001928E-02 0. -1.
       -1   -1    0    0    0  501  0.00000000000E+00  0.00000000000E+00 -0.13502669971E+04  0.13502669971E+04  0.50400001928E-02 0.  1.
    10030    2    1    2    0    0  0.00000000000E+00  0.00000000000E+00  0.42901813378E+03  0.31295521280E+04  0.31000064456E+04 0.  0.
        4    1    3    3  502    0  0.30351165916E+02 -0.15404783844E+04  0.44040189897E+02  0.15414071484E+04  0.12699999809E+01 0.  1.
       -4    1    3    3    0  502 -0.30351165916E+02  0.15404783844E+04  0.38497794388E+03  0.15881449796E+04  0.12699999809E+01 0. -1.
</event>
<event>
 5   0  0.7071012E-06  0.3093120E+04  0.7818609E-02  0.8217629E-01
        2   -1    0    0  501    0  0.00000000000E+00  0.00000000000E+00  0.11519883456E+04  0.11519883456E+04  0.25500000920E-02 0. -1.
       -2   -1    0    0    0  501  0.00000000000E+00  0.00000000000E+00 -0.20762776569E+04  0.20762776569E+04  0.25500000920E-02 0.  1.
    10030    2    1    2    0    0  0.00000000000E+00  0.00000000000E+00 -0.92428931127E+03  0.32282660025E+04  0.30931198897E+04 0.  0.
        1    1    3    3  502    0 -0.67682038239E+03 -0.13773276114E+04 -0.66217039428E+03  0.16714026476E+04  0.50400001928E-02 0.  1.
       -1    1    3    3    0  502  0.67682038239E+03  0.13773276114E+04 -0.26211891699E+03  0.15568633549E+04  0.50400001928E-02 0. -1.
</event>
<event>
 5   0  0.2393250E-06  0.3031552E+04  0.7818609E-02  0.8234778E-01
        3   -1    0    0  501    0  0.00000000000E+00  0.00000000000E+00  0.15300333913E+04  0.15300333946E+04  0.10100000352E+00 0. -1.
       -3   -1    0    0    0  501  0.00000000000E+00  0.00000000000E+00 -0.15016511660E+04  0.15016511694E+04  0.10100000352E+00 0.  1.
    10030    2    1    2    0    0  0.00000000000E+00  0.00000000000E+00  0.28382225251E+02  0.30316845640E+04  0.30315517058E+04 0.  0.
        1    1    3    3  502    0 -0.45168576857E+03  0.14397828414E+04  0.15766088801E+03  0.15171854268E+04  0.50400001928E-02 0. -1.
       -1    1    3    3    0  502  0.45168576857E+03 -0.14397828414E+04 -0.12927866275E+03  0.15144991372E+04  0.50400001928E-02 0.  1.
</event>
<event>
 5   0  0.7414808E-06  0.3106266E+04  0.7818609E-02  0.8214020E-01
        2   -1    0    0  501    0  0.00000000000E+00  0.00000000000E+00  0.19886895767E+04  0.19886895767E+04  0.25500000920E-02 0.  1.
       -2   -1    0    0    0  501  0.00000000000E+00  0.00000000000E+00 -0.12129703124E+04  0.12129703124E+04  0.25500000920E-02 0. -1.
    10030    2    1    2    0    0  0.00000000000E+00  0.00000000000E+00  0.77571926426E+03  0.32016598891E+04  0.31062655502E+04 0.  0.
        2    1    3    3  502    0 -0.11329571856E+04  0.22245484325E+03  0.14585802593E+04  0.18602511966E+04  0.25500000920E-02 0.  1.
       -2    1    3    3    0  502  0.11329571856E+04 -0.22245484325E+03 -0.68286099503E+03  0.13414086925E+04  0.25500000920E-02 0. -1.
</event>
<event>
 5   0  0.2612331E-06  0.2256571E+04  0.7818609E-02  0.8495244E-01
       -1   -1    0    0    0  501  0.00000000000E+00  0.00000000000E+00  0.59865692569E+03  0.59865692571E+03  0.50400001928E-02 0. -1.
        1   -1    0    0  501    0  0.00000000000E+00  0.00000000000E+00 -0.21264736309E+04  0.21264736309E+04  0.50400001928E-02 0.  1.
    10030    2    1    2    0    0  0.00000000000E+00  0.00000000000E+00 -0.15278167052E+04  0.27251305566E+04  0.22565709973E+04 0.  0.
        4    1    3    3  502    0 -0.92756402789E+03 -0.17724939205E+02 -0.15393777279E+04  0.17973242894E+04  0.12699999809E+01 0.  1.
       -4    1    3    3    0  502  0.92756402789E+03  0.17724939205E+02  0.11561022675E+02  0.92780626720E+03  0.12699999809E+01 0. -1.
</event>
<event>
 5   0  0.7363513E-06  0.3175394E+04  0.7818609E-02  0.8195346E-01
       -2   -1    0    0    0  501  0.00000000000E+00  0.00000000000E+00  0.10379312941E+04  0.10379312941E+04  0.25500000920E-02 0.  1.
        2   -1    0    0  501    0  0.00000000000E+00  0.00000000000E+00 -0.24286594068E+04  0.24286594068E+04  0.25500000920E-02 0. -1.
    10030    2    1    2    0    0  0.00000000000E+00  0.00000000000E+00 -0.13907281127E+04  0.34665907008E+04  0.31753938974E+04 0.  0.
        4    1    3    3  502    0  0.58598190494E+03 -0.22235597404E+03  0.89716366060E+03  0.10944045042E+04  0.12699999809E+01 0.  1.
       -4    1    3    3    0  502 -0.58598190494E+03  0.22235597404E+03 -0.22878917733E+04  0.23721861966E+04  0.12699999809E+01 0. -1.
</event>
<event>
 5   0  0.2517725E-06  0.3071339E+04  0.7818609E-02  0.8223648E-01
        1   -1    0    0  501    0  0.00000000000E+00  0.00000000000E+00  0.18972958708E+04  0.18972958708E+04  0.50400001928E-02 0. -1.
       -1   -1    0    0    0  501  0.00000000000E+00  0.00000000000E+00 -0.12429693481E+04  0.12429693481E+04  0.50400001928E-02 0.  1.
    10030    2    1    2    0    0  0.00000000000E+00  0.00000000000E+00  0.65432652276E+03  0.31402652189E+04  0.30713388687E+04 0.  0.
        3    1    3    3  502    0  0.58713016320E+02 -0.13688470703E+04 -0.38200982603E+03  0.14223645937E+04  0.10100000352E+00 0.  1.
       -3    1    3    3    0  502 -0.58713016320E+02  0.13688470703E+04  0.10363363488E+04  0.17179006252E+04  0.10100000352E+00 0. -1.
</event>
<event>
 5   0  0.7079223E-06  0.3035393E+04  0.7818609E-02  0.8233696E-01
       -2   -1    0    0    0  501  0.00000000000E+00  0.00000000000E+00  0.13575734239E+04  0.13575734239E+04  0.25500000920E-02 0. -1.
        2   -1    0    0  501    0  0.00000000000E+00  0.00000000000E+00 -0.16967062480E+04  0.16967062480E+04  0.25500000920E-02 0.  1.
    10030    2    1    2    0    0  0.00000000000E+00  0.00000000000E+00 -0.33913282411E+03  0.30542796720E+04  0.30353934246E+04 0.  0.
        5    1    3    3  502    0  0.33468331812E+03 -0.58923478835E+03  0.11968855450E+04  0.13754154489E+04  0.46999998093E+01 0. -1.
       -5    1    3    3    0  502 -0.33468331812E+03  0.58923478835E+03 -0.15360183691E+04  0.16788642231E+04  0.46999998093E+01 0.  1.
</event>
<event>
 5   0  0.7079223E-06  0.3083638E+04  0.7818609E-02  0.8220243E-01
       -2   -1    0    0    0  501  0.00000000000E+00  0.00000000000E+00  0.10570348744E+04  0.10570348744E+04  0.25500000920E-02 0. -1.
        2   -1    0    0  501    0  0.00000000000E+00  0.00000000000E+00 -0.22489382017E+04  0.22489382017E+04  0.25500000920E-02 0.  1.
    10030    2    1    2    0    0  0.00000000000E+00  0.00000000000E+00 -0.11919033273E+04  0.33059730761E+04  0.30836381821E+04 0.  0.
        5    1    3    3  502    0 -0.47179973653E+03  0.14460407430E+04 -0.32567320421E+03  0.15555429752E+04  0.46999998093E+01 0. -1.
       -5    1    3    3    0  502  0.47179973653E+03 -0.14460407430E+04 -0.86623012309E+03  0.17504301009E+04  0.46999998093E+01 0.  1.
</event>
<event>
 5   0  0.7071012E-06  0.2967476E+04  0.7818609E-02  0.8253080E-01
       -2   -1    0    0    0  501  0.00000000000E+00  0.00000000000E+00  0.11033340866E+04  0.11033340866E+04  0.25500000920E-02 0.  1.
        2   -1    0    0  501    0  0.00000000000E+00  0.00000000000E+00 -0.19952965066E+04  0.19952965066E+04  0.25500000920E-02 0. -1.
    10030    2    1    2    0    0  0.00000000000E+00  0.00000000000E+00 -0.89196242002E+03  0.30986305932E+04  0.29674761320E+04 0.  0.
        1    1    3    3  502    0  0.12603388966E+04  0.51363386452E+03 -0.10630344713E+04  0.17269383800E+04  0.50400001928E-02 0. -1.
       -1    1    3    3    0  502 -0.12603388966E+04 -0.51363386452E+03  0.17107205125E+03  0.13716922132E+04  0.50400001928E-02 0.  1.
</event>
<event>
 5   0  0.2598987E-06  0.2899222E+04  0.7818609E-02  0.8273109E-01
        1   -1    0    0  501    0  0.00000000000E+00  0.00000000000E+00  0.18000161905E+04  0.18000161905E+04  0.50400001928E-02 0. -1.
       -1   -1    0    0    0  501  0.00000000000E+00  0.00000000000E+00 -0.11674183631E+04  0.11674183631E+04  0.50400001928E-02 0.  1.
    10030    2    1    2    0    0  0.00000000000E+00  0.00000000000E+00  0.63259782739E+03  0.29674345536E+04  0.28992219334E+04 0.  0.
        2    1    3    3  502    0 -0.39178066520E+02  0.18965924093E+03  0.17867157911E+04  0.17971808108E+04  0.25500000920E-02 0. -1.
       -2    1    3    3    0  502  0.39178066520E+02 -0.18965924093E+03 -0.11541179637E+04  0.11702537429E+04  0.25500000920E-02 0.  1.
</event>
<event>
 5   0  0.2517725E-06  0.3061123E+04  0.7818609E-02  0.8226489E-01
       -1   -1    0    0    0  501  0.00000000000E+00  0.00000000000E+00  0.10914786486E+04  0.10914786486E+04  0.50400001928E-02 0.  1.
        1   -1    0    0  501    0  0.00000000000E+00  0.00000000000E+00 -0.21462794714E+04  0.21462794714E+04  0.50400001928E-02 0. -1.
    10030    2    1    2    0    0  0.00000000000E+00  0.00000000000E+00 -0.10548008228E+04  0.32377581200E+04  0.30611228117E+04 0.  0.
        3    1    3    3  502    0  0.14607304189E+04  0.44813689847E+02 -0.10084826408E+04  0.17756066205E+04  0.10100000352E+00 0. -1.
       -3    1    3    3    0  502 -0.14607304189E+04 -0.44813689847E+02 -0.46318182003E+02  0.14621514996E+04  0.10100000352E+00 0.  1.
</event>
<event>
 5   0  0.2624011E-06  0.3153675E+04  0.7818609E-02  0.8201160E-01
       -1   -1    0    0    0  501  0.00000000000E+00  0.00000000000E+00  0.17594849046E+04  0.17594849046E+04  0.50400001928E-02 0.  1.
        1   -1    0    0  501    0  0.00000000000E+00  0.00000000000E+00 -0.14131505279E+04  0.14131505279E+04  0.50400001928E-02 0. -1.
    10030    2    1    2    0    0  0.00000000000E+00  0.00000000000E+00  0.34633437663E+03  0.31726354325E+04  0.31536753300E+04 0.  0.
        1    1    3    3  502    0 -0.14350623135E+04 -0.64018410991E+03  0.30501804640E+03  0.16007109504E+04  0.50400001928E-02 0. -1.
       -1    1    3    3    0  502  0.14350623135E+04  0.64018410991E+03  0.41316330237E+02  0.15719244821E+04  0.50400001928E-02 0.  1.
</event>
<event>
 5   0  0.7363513E-06  0.3089963E+04  0.7818609E-02  0.8218498E-01
       -2   -1    0    0    0  501  0.00000000000E+00  0.00000000000E+00  0.15365947267E+04  0.15365947267E+04  0.25500000920E-02 0.  1.
        2   -1    0    0  501    0  0.00000000000E+00  0.00000000000E+00 -0.15534140883E+04  0.15534140883E+04  0.25500000920E-02 0. -1.
    10030    2    1    2    0    0  0.00000000000E+00  0.00000000000E+00 -0.16819361585E+02  0.30900088150E+04  0.30899630396E+04 0.  0.
        4    1    3    3  502    0  0.23680115484E+03 -0.80100054707E+03 -0.13081556835E+04  0.15520791116E+04  0.12699999809E+01 0. -1.
       -4    1    3    3    0  502 -0.23680115484E+03  0.80100054707E+03  0.12913363220E+04  0.15379297034E+04  0.12699999809E+01 0.  1.
</event>
<event>
 5   0  0.2674441E-06  0.3037917E+04  0.7818609E-02  0.8232986E-01
       -1   -1    0    0    0  501  0.00000000000E+00  0.00000000000E+00  0.20949722417E+04  0.20949722417E+04  0.50400001928E-02 0. -1.
        1   -1    0    0  501    0  0.00000000000E+00  0.00000000000E+00 -0.11013199427E+04  0.11013199427E+04  0.50400001928E-02 0.  1.
    10030    2    1    2    0    0  0.00000000000E+00  0.00000000000E+00  0.99365229903E+03  0.31962921844E+04  0.30379168580E+04 0.  0.
        5    1    3    3  502    0 -0.92966402441E+03 -0.10915310615E+04  0.10244656573E+04  0.17621768440E+04  0.46999998093E+01 0. -1.
       -5    1    3    3    0  502  0.92966402441E+03  0.10915310615E+04 -0.30813358287E+02  0.14341153404E+04  0.46999998093E+01 0.  1.
</event>
<event>
 5   0  0.2612331E-06  0.2986753E+04  0.7818609E-02  0.8247524E-01
       -1   -1    0    0    0  501  0.00000000000E+00  0.00000000000E+00  0.12903798939E+04  0.12903798939E+04  0.50400001928E-02 0. -1.
        1   -1    0    0  501    0  0.00000000000E+00  0.00000000000E+00 -0.17283073210E+04  0.17283073210E+04  0.50400001928E-02 0.  1.
    10030    2    1    2    0    0  0.00000000000E+00  0.00000000000E+00 -0.43792742711E+03  0.30186872149E+04  0.29867527635E+04 0.  0.
        4    1    3    3  502    0 -0.13913938659E+04 -0.49599469071E+03  0.28913173428E+01  0.14771586224E+04  0.12699999809E+01 0. -1.
       -4    1    3    3    0  502  0.13913938659E+04  0.49599469071E+03 -0.44081874445E+03  0.15415285925E+04  0.12699999809E+01 0.  1.
</event>
<event>
 5   0  0.2598987E-06  0.3061094E+04  0.7818609E-02  0.8226497E-01
        1   -1    0    0  501    0  0.00000000000E+00  0.00000000000E+00  0.19934295864E+04  0.19934295864E+04  0.50400001928E-02 0. -1.
       -1   -1    0    0    0  501  0.00000000000E+00  0.00000000000E+00 -0.11751480196E+04  0.11751480196E+04  0.50400001928E-02 0.  1.
    10030    2    1    2    0    0  0.00000000000E+00  0.00000000000E+00  0.81828156681E+03  0.31685776059E+04  0.30610944648E+04 0.  0.
        2    1    3    3  502    0  0.13777446849E+04  0.65510409309E+03  0.28138489637E+03  0.15512959903E+04  0.25500000920E-02 0.  1.
       -2    1    3    3    0  502 -0.13777446849E+04 -0.65510409309E+03  0.53689667044E+03  0.16172816156E+04  0.25500000920E-02 0. -1.
</event>
<event>
 5   0  0.7094341E-06  0.3154805E+04  0.7818609E-02  0.8200856E-01
        2   -1    0    0  501    0  0.00000000000E+00  0.00000000000E+00  0.15852379593E+04  0.15852379594E+04  0.25500000920E-02 0.  1.
       -2   -1    0    0    0  501  0.00000000000E+00  0.00000000000E+00 -0.15696056986E+04  0.15696056986E+04  0.25500000920E-02 0. -1.
    10030    2    1    2    0    0  0.00000000000E+00  0.00000000000E+00  0.15632260728E+02  0.31548436580E+04  0.31548049288E+04 0.  0.
        3    1    3    3  502    0  0.55543187487E+03 -0.27053734203E+03 -0.14435815490E+04  0.15702301487E+04  0.10100000352E+00 0. -1.
       -3    1    3    3    0  502 -0.55543187487E+03  0.27053734203E+03  0.14592138097E+04  0.15846135093E+04  0.10100000352E+00 0.  1.
</event>
<event>
 5   0  0.7363513E-06  0.3086262E+04  0.7818609E-02  0.8219518E-01
       -2   -1    0    0    0  501  0.00000000000E+00  0.00000000000E+00  0.13724160098E+04  0.13724160098E+04  0.25500000920E-02 0.  1.
        2   -1    0    0  501    0  0.00000000000E+00  0.00000000000E+00 -0.17350810105E+04  0.17350810105E+04  0.25500000920E-02 0. -1.
    10030    2    1    2    0    0  0.00000000000E+00  0.00000000000E+00 -0.36266500066E+03  0.31074970203E+04  0.30862617887E+04 0.  0.
        4    1    3    3  502    0 -0.27171973880E+03  0.12948589688E+04 -0.98100106477E+03  0.16470750036E+04  0.12699999809E+01 0. -1.
       -4    1    3    3    0  502  0.27171973880E+03 -0.12948589688E+04  0.61833606411E+03  0.14604220166E+04  0.12699999809E+01 0.  1.
</event>
<event>
 5   0  0.7071012E-06  0.3074343E+04  0.7818609E-02  0.8222815E-01
        2   -1    0    0  501    0  0.00000000000E+00  0.00000000000E+00  0.21985414980E+04  0.21985414980E+04  0.25500000920E-02 0.  1.
       -2   -1    0    0    0  501  0.00000000000E+00  0.00000000000E+00 -0.10747563681E+04  0.10747563681E+04  0.25500000920E-02 0. -1.
    10030    2    1    2    0    0  0.00000000000E+00  0.00000000000E+00  0.11237851299E+04  0.32732978660E+04  0.30743431659E+04 0.  0.
        1    1    3    3  502    0  0.23784659564E+03  0.10102363859E+04  0.17691811632E+04  0.20511339661E+04  0.50400001928E-02 0.  1.
       -1    1    3    3    0  502 -0.23784659564E+03 -0.10102363859E+04 -0.64539603333E+03  0.12221639000E+04  0.50400001928E-02 0. -1.
</event>
<event>
 5   0  0.7094341E-06  0.3107567E+04  0.7818609E-02  0.8213664E-01
       -2   -1    0    0    0  501  0.00000000000E+00  0.00000000000E+00  0.25341744140E+04  0.25341744140E+04  0.25500000920E-02 0. -1.
        2   -1    0    0  501    0  0.00000000000E+00  0.00000000000E+00 -0.95267458465E+03  0.95267458465E+03  0.25500000920E-02 0.  1.
    10030    2    1    2    0    0  0.00000000000E+00  0.00000000000E+00  0.15814998293E+04  0.34868489986E+04  0.31075672525E+04 0.  0.
        3    1    3    3  502    0 -0.12831705892E+03  0.79602789297E+03 -0.69955935938E+03  0.10674778600E+04  0.10100000352E+00 0.  1.
       -3    1    3    3    0  502  0.12831705892E+03 -0.79602789297E+03  0.22810591887E+04  0.24193711387E+04  0.10100000352E+00 0. -1.
</event>
<event>
 5   0  0.2674441E-06  0.3104408E+04  0.7818609E-02  0.8214529E-01
        1   -1    0    0  501    0  0.00000000000E+00  0.00000000000E+00  0.18259921750E+04  0.18259921750E+04  0.50400001928E-02 0.  1.
       -1   -1    0    0    0  501  0.00000000000E+00  0.00000000000E+00 -0.13194677471E+04  0.13194677471E+04  0.50400001928E-02 0. -1.
    10030    2    1    2    0    0  0.00000000000E+00  0.00000000000E+00  0.50652442786E+03  0.31454599221E+04  0.31044083374E+04 0.  0.
        5    1    3    3  502    0 -0.11466612199E+04  0.99685848059E+03  0.57488197883E+03  0.16245215182E+04  0.46999998093E+01 0. -1.
       -5    1    3    3    0  502  0.11466612199E+04 -0.99685848059E+03 -0.68357550964E+02  0.15209384039E+04  0.46999998093E+01 0.  1.
</event>
<event>
 5   0  0.2612331E-06  0.3059341E+04  0.7818609E-02  0.8226986E-01
       -1   -1    0    0    0  501  0.00000000000E+00  0.00000000000E+00  0.99422847255E+03  0.99422847256E+03  0.50400001928E-02 0. -1.
        1   -1    0    0  501    0  0.00000000000E+00  0.00000000000E+00 -0.23534752438E+04  0.23534752438E+04  0.50400001928E-02 0.  1.
    10030    2    1    2    0    0  0.00000000000E+00  0.00000000000E+00 -0.13592467712E+04  0.33477037163E+04  0.30593411688E+04 0.  0.
        4    1    3    3  502    0 -0.67063298702E+03 -0.71523092680E+03 -0.19644251673E+04  0.21955117246E+04  0.12699999809E+01 0.  1.
       -4    1    3    3    0  502  0.67063298702E+03  0.71523092680E+03  0.60517839607E+03  0.11521919918E+04  0.12699999809E+01 0. -1.
</event>
<event>
 5   0  0.2674441E-06  0.2747626E+04  0.7818609E-02  0.8319715E-01
        1   -1    0    0  501    0  0.00000000000E+00  0.00000000000E+00  0.14241746721E+04  0.14241746721E+04  0.50400001928E-02 0.  1.
       -1   -1    0    0    0  501  0.00000000000E+00  0.00000000000E+00 -0.13252326552E+04  0.13252326552E+04  0.50400001928E-02 0. -1.
    10030    2    1    2    0    0  0.00000000000E+00  0.00000000000E+00  0.98942016905E+02  0.27494073274E+04  0.27476264537E+04 0.  0.
        5    1    3    3  502    0 -0.45370864315E+03 -0.55441374575E+03  0.12224571122E+04  0.14169155287E+04  0.46999998093E+01 0.  1.
       -5    1    3    3    0  502  0.45370864315E+03  0.55441374575E+03 -0.11235150953E+04  0.13324917987E+04  0.46999998093E+01 0. -1.
</event>
<event>
 5   0  0.2624011E-06  0.3106412E+04  0.7818609E-02  0.8213980E-01
        1   -1    0    0  501    0  0.00000000000E+00  0.00000000000E+00  0.76835227093E+03  0.76835227095E+03  0.50400001928E-02 0. -1.
       -1   -1    0    0    0  501  0.00000000000E+00  0.00000000000E+00 -0.31397692780E+04  0.31397692780E+04  0.50400001928E-02 0.  1.
    10030    2    1    2    0    0  0.00000000000E+00  0.00000000000E+00 -0.23714170071E+04  0.39081215490E+04  0.31064119849E+04 0.  0.
        1    1    3    3  502    0  0.31268502033E+03  0.11333715007E+04  0.91195928247E+02  0.11792453426E+04  0.50400001928E-02 0. -1.
       -1    1    3    3    0  502 -0.31268502033E+03 -0.11333715007E+04 -0.24626129353E+04  0.27288762064E+04  0.50400001928E-02 0.  1.
</event>
<event>
 5   0  0.7363513E-06  0.2577090E+04  0.7818609E-02  0.8376025E-01
       -2   -1    0    0    0  501  0.00000000000E+00  0.00000000000E+00  0.72882959088E+03  0.72882959088E+03  0.25500000920E-02 0. -1.
        2   -1    0    0  501    0  0.00000000000E+00  0.00000000000E+00 -0.22781025405E+04  0.22781025405E+04  0.25500000920E-02 0.  1.
    10030    2    1    2    0    0  0.00000000000E+00  0.00000000000E+00 -0.15492729496E+04  0.30069321314E+04  0.25770902527E+04 0.  0.
        4    1    3    3  502    0 -0.34736901880E+03  0.92564723753E+03 -0.17388194976E+04  0.20002457103E+04  0.12699999809E+01 0.  1.
       -4    1    3    3    0  502  0.34736901880E+03 -0.92564723753E+03  0.18954654799E+03  0.10066864210E+04  0.12699999809E+01 0. -1.
</event>
<event>
 5   0  0.7071012E-06  0.2839994E+04  0.7818609E-02  0.8290958E-01
       -2   -1    0    0    0  501  0.00000000000E+00  0.00000000000E+00  0.82038892530E+03  0.82038892530E+03  0.25500000920E-02 0. -1.
        2   -1    0    0  501    0  0.00000000000E+00  0.00000000000E+00 -0.24578479160E+04  0.24578479160E+04  0.25500000920E-02 0.  1.
    10030    2    1    2    0    0  0.00000000000E+00  0.00000000000E+00 -0.16374589907E+04  0.32782368413E+04  0.28399938101E+04 0.  0.
        1    1    3    3  502    0 -0.77914180252E+03  0.87310546741E+03  0.10976744832E+03  0.11753399501E+04  0.50400001928E-02 0. -1.
       -1    1    3    3    0  502  0.77914180252E+03 -0.87310546741E+03 -0.17472264390E+04  0.21028968912E+04  0.50400001928E-02 0.  1.
</event>
<event>
 5   0  0.7414808E-06  0.2450586E+04  0.7818609E-02  0.8420804E-01
        2   -1    0    0  501    0  0.00000000000E+00  0.00000000000E+00  0.15955923978E+04  0.15955923978E+04  0.25500000920E-02 0.  1.
       -2   -1    0    0    0  501  0.00000000000E+00  0.00000000000E+00 -0.94093166698E+03  0.94093166698E+03  0.25500000920E-02 0. -1.
    10030    2    1    2    0    0  0.00000000000E+00  0.00000000000E+00  0.65466073078E+03  0.25365240647E+04  0.24505863908E+04 0.  0.
        2    1    3    3  502    0  0.12139322576E+04 -0.16278236360E+03  0.29126910800E+03  0.12589548512E+04  0.25500000920E-02 0. -1.
       -2    1    3    3    0  502 -0.12139322576E+04  0.16278236360E+03  0.36339162278E+03  0.12775692136E+04  0.25500000920E-02 0.  1.
</event>
<event>
 5   0  0.2517725E-06  0.2073773E+04  0.7818609E-02  0.8572885E-01
        1   -1    0    0  501    0  0.00000000000E+00  0.00000000000E+00  0.10151566629E+04  0.10151566629E+04  0.50400001928E-02 0.  1.
       -1   -1    0    0    0  501  0.00000000000E+00  0.00000000000E+00 -0.10590817257E+04  0.10590817257E+04  0.50400001928E-02 0. -1.
    10030    2    1    2    0    0  0.00000000000E+00  0.00000000000E+00 -0.43925062837E+02  0.20742383886E+04  0.20737732474E+04 0.  0.
        3    1    3    3  502    0 -0.21075920499E+03  0.24088954674E+03 -0.10084325180E+04  0.10580091539E+04  0.10100000352E+00 0. -1.
       -3    1    3    3    0  502  0.21075920499E+03 -0.24088954674E+03  0.96450745515E+03  0.10162292347E+04  0.10100000352E+00 0.  1.
</event>
<event>
 5   0  0.7094341E-06  0.3156607E+04  0.7818609E-02  0.8200372E-01
        2   -1    0    0  501    0  0.00000000000E+00  0.00000000000E+00  0.23883257984E+04  0.23883257984E+04  0.25500000920E-02 0.  1.
       -2   -1    0    0    0  501  0.00000000000E+00  0.00000000000E+00 -0.10430074192E+04  0.10430074192E+04  0.25500000920E-02 0. -1.
    10030    2    1    2    0    0  0.00000000000E+00  0.00000000000E+00  0.13453183792E+04  0.34313332175E+04  0.31566067396E+04 0.  0.
        3    1    3    3  502    0  0.63088126708E+03 -0.14080633900E+04  0.31149638250E+03  0.15740659738E+04  0.10100000352E+00 0. -1.
       -3    1    3    3    0  502 -0.63088126708E+03  0.14080633900E+04  0.10338219967E+04  0.18572672437E+04  0.10100000352E+00 0.  1.
</event>
<event>
 5   0  0.7079223E-06  0.3070884E+04  0.7818609E-02  0.8223774E-01
       -2   -1    0    0    0  501  0.00000000000E+00  0.00000000000E+00  0.22694384981E+04  0.22694384981E+04  0.25500000920E-02 0. -1.
        2   -1    0    0  501    0  0.00000000000E+00  0.00000000000E+00 -0.10388394406E+04  0.10388394406E+04  0.25500000920E-02 0.  1.
    10030    2    1    2    0    0  0.00000000000E+00  0.00000000000E+00  0.12305990575E+04  0.33082779388E+04  0.30708840551E+04 0.  0.
        5    1    3    3  502    0 -0.42969856357E+03 -0.97641989194E+03  0.18049890892E+04  0.20966745963E+04  0.46999998093E+01 0.  1.
       -5    1    3    3    0  502  0.42969856357E+03  0.97641989194E+03 -0.57439003166E+03  0.12116033424E+04  0.46999998093E+01 0. -1.
</event>
<event>
 5   0  0.7071012E-06  0.3000579E+04  0.7818609E-02  0.8243566E-01
       -2   -1    0    0    0  501  0.00000000000E+00  0.00000000000E+00  0.13962984677E+04  0.13962984677E+04  0.25500000920E-02 0. -1.
        2   -1    0    0  501    0  0.00000000000E+00  0.00000000000E+00 -0.16120253243E+04  0.16120253243E+04  0.25500000920E-02 0.  1.
    10030    2    1    2    0    0  0.00000000000E+00  0.00000000000E+00 -0.21572685657E+03  0.30083237920E+04  0.30005789376E+04 0.  0.
        1    1    3    3  502    0  0.89654259904E+03 -0.92961845358E+03 -0.87330597174E+03  0.15590517700E+04  0.50400001928E-02 0.  1.
       -1    1    3    3    0  502 -0.89654259904E+03  0.92961845358E+03  0.65757911517E+03  0.14492720220E+04  0.50400001928E-02 0. -1.
</event>
<event>
 5   0  0.2517725E-06  0.3125225E+04  0.7818609E-02  0.8208849E-01
        1   -1    0    0  501    0  0.00000000000E+00  0.00000000000E+00  0.15851487255E+04  0.15851487255E+04  0.50400001928E-02 0.  1.
       -1   -1    0    0    0  501  0.00000000000E+00  0.00000000000E+00 -0.15403971582E+04  0.15403971582E+04  0.50400001928E-02 0. -1.
    10030    2    1    2    0    0  0.00000000000E+00  0.00000000000E+00  0.44751567284E+02  0.31255458837E+04  0.31252254908E+04 0.  0.
        3    1    3    3  502    0 -0.10294101115E+04 -0.55887962283E+03 -0.10120063101E+04  0.15479626586E+04  0.10100000352E+00 0. -1.
       -3    1    3    3    0  502  0.10294101115E+04  0.55887962283E+03  0.10567578774E+04  0.15775832251E+04  0.10100000352E+00 0.  1.
</event>
<event>
 5   0  0.2612331E-06  0.3135300E+04  0.7818609E-02  0.8206116E-01
       -1   -1    0    0    0  501  0.00000000000E+00  0.00000000000E+00  0.16466679932E+04  0.16466679932E+04  0.50400001928E-02 0.  1.
        1   -1    0    0  501    0  0.00000000000E+00  0.00000000000E+00 -0.14924239017E+04  0.14924239017E+04  0.50400001928E-02 0. -1.
    10030    2    1    2    0    0  0.00000000000E+00  0.00000000000E+00  0.15424409146E+03  0.31390918949E+04  0.31353000949E+04 0.  0.
        4    1    3    3  502    0 -0.93894858216E+03  0.11016998381E+04  0.67964556856E+03  0.15991518642E+04  0.12699999809E+01 0.  1.
       -4    1    3    3    0  502  0.93894858216E+03 -0.11016998381E+04 -0.52540147710E+03  0.15399400307E+04  0.12699999809E+01 0. -1.
</event>
<event>
 5   0  0.2517725E-06  0.3472895E+04  0.7818609E-02  0.8120244E-01
       -1   -1    0    0    0  501  0.00000000000E+00  0.00000000000E+00  0.17138410144E+04  0.17138410144E+04  0.50400001928E-02 0. -1.
        1   -1    0    0  501    0  0.00000000000E+00  0.00000000000E+00 -0.17593525061E+04  0.17593525061E+04  0.50400001928E-02 0.  1.
    10030    2    1    2    0    0  0.00000000000E+00  0.00000000000E+00 -0.45511491702E+02  0.34731935205E+04  0.34728953245E+04 0.  0.
        3    1    3    3  502    0 -0.17153911550E+04 -0.26243295807E+03  0.38995822206E+02  0.17357875897E+04  0.10100000352E+00 0. -1.
       -3    1    3    3    0  502  0.17153911550E+04  0.26243295807E+03 -0.84507313908E+02  0.17374059308E+04  0.10100000352E+00 0.  1.
</event>
<event>
 5   0  0.7363513E-06  0.3045363E+04  0.7818609E-02  0.8230894E-01
       -2   -1    0    0    0  501  0.00000000000E+00  0.00000000000E+00  0.11416608448E+04  0.11416608448E+04  0.25500000920E-02 0. -1.
        2   -1    0    0  501    0  0.00000000000E+00  0.00000000000E+00 -0.20308655735E+04  0.20308655735E+04  0.25500000920E-02 0.  1.
    10030    2    1    2    0    0  0.00000000000E+00  0.00000000000E+00 -0.88920472869E+03  0.31725264184E+04  0.30453634965E+04 0.  0.
        4    1    3    3  502    0  0.13928986925E+04 -0.61002103945E+03 -0.52706352265E+03  0.16093756572E+04  0.12699999809E+01 0.  1.
       -4    1    3    3    0  502 -0.13928986925E+04  0.61002103945E+03 -0.36214120605E+03  0.15631507612E+04  0.12699999809E+01 0. -1.
</event>
<event>
 5   0  0.7079223E-06  0.3405076E+04  0.7818609E-02  0.8136662E-01
        2   -1    0    0  501    0  0.00000000000E+00  0.00000000000E+00  0.95555961710E+03  0.95555961710E+03  0.25500000920E-02 0.  1.
       -2   -1    0    0    0  501  0.00000000000E+00  0.00000000000E+00 -0.30334434550E+04  0.30334434550E+04  0.25500000920E-02 0. -1.
    10030    2    1    2    0    0  0.00000000000E+00  0.00000000000E+00 -0.20778838379E+04  0.39890030721E+04  0.34050762496E+04 0.  0.
        5    1    3    3  502    0  0.49594338954E+02  0.13647272736E+04  0.15210616109E+03  0.13740809671E+04  0.46999998093E+01 0.  1.
       -5    1    3    3    0  502 -0.49594338954E+02 -0.13647272736E+04 -0.22299899990E+04  0.26149221051E+04  0.46999998093E+01 0. -1.
</event>
<event>
 5   0  0.7414808E-06  0.2707357E+04  0.7818609E-02  0.8332622E-01
        2   -1    0    0  501    0  0.00000000000E+00  0.00000000000E+00  0.16763472129E+04  0.16763472129E+04  0.25500000920E-02 0.  1.
       -2   -1    0    0    0  501  0.00000000000E+00  0.00000000000E+00 -0.10931181439E+04  0.10931181439E+04  0.25500000920E-02 0. -1.
    10030    2    1    2    0    0  0.00000000000E+00  0.00000000000E+00  0.58322906900E+03  0.27694653569E+04  0.27073570537E+04 0.  0.
        2    1    3    3  502    0 -0.11007066726E+04  0.64271491834E+03  0.75793173729E+03  0.14829356574E+04  0.25500000920E-02 0.  1.
       -2    1    3    3    0  502  0.11007066726E+04 -0.64271491834E+03 -0.17470266830E+03  0.12865296995E+04  0.25500000920E-02 0. -1.
</event>
<event>
 5   0  0.7094341E-06  0.3042366E+04  0.7818609E-02  0.8231735E-01
        2   -1    0    0  501    0  0.00000000000E+00  0.00000000000E+00  0.20206449855E+04  0.20206449855E+04  0.25500000920E-02 0. -1.
       -2   -1    0    0    0  501  0.00000000000E+00  0.00000000000E+00 -0.11451778720E+04  0.11451778720E+04  0.25500000920E-02 0.  1.
    10030    2    1    2    0    0  0.00000000000E+00  0.00000000000E+00  0.87546711343E+03  0.31658228575E+04  0.30423661348E+04 0.  0.
        3    1    3    3  502    0 -0.62246419040E+03  0.45932416537E+03  0.18006768246E+04  0.19598156531E+04  0.10100000352E+00 0. -1.
       -3    1    3    3    0  502  0.62246419040E+03 -0.45932416537E+03 -0.92520971118E+03  0.12060072044E+04  0.10100000352E+00 0.  1.
</event>
<event>
 5   0  0.7414808E-06  0.3102487E+04  0.7818609E-02  0.8215056E-01
       -2   -1    0    0    0  501  0.00000000000E+00  0.00000000000E+00  0.18585156171E+04  0.18585156171E+04  0.25500000920E-02 0. -1.
        2   -1    0    0  501    0  0.00000000000E+00  0.00000000000E+00 -0.12947729823E+04  0.12947729823E+04  0.25500000920E-02 0.  1.
    10030    2    1    2    0    0  0.00000000000E+00  0.00000000000E+00  0.56374263478E+03  0.31532885995E+04  0.31024866210E+04 0.  0.
        2    1    3    3  502    0 -0.10760541649E+04  0.50926375506E+03 -0.72895584934E+03  0.13959293565E+04  0.25500000920E-02 0.  1.
       -2    1    3    3    0  502  0.10760541649E+04 -0.50926375506E+03  0.12926984841E+04  0.17573592430E+04  0.25500000920E-02 0. -1.
</event>
<event>
 5   0  0.7094341E-06  0.3096929E+04  0.7818609E-02  0.8216581E-01
       -2   -1    0    0    0  501  0.00000000000E+00  0.00000000000E+00  0.13102909171E+04  0.13102909171E+04  0.25500000920E-02 0.  1.
        2   -1    0    0  501    0  0.00000000000E+00  0.00000000000E+00 -0.18299314429E+04  0.18299314429E+04  0.25500000920E-02 0. -1.
    10030    2    1    2    0    0  0.00000000000E+00  0.00000000000E+00 -0.51964052584E+03  0.31402223600E+04  0.30969291555E+04 0.  0.
        3    1    3    3  502    0 -0.14315552995E+03 -0.14666274482E+04  0.22248973732E+03  0.14902990542E+04  0.10100000352E+00 0.  1.
       -3    1    3    3    0  502  0.14315552995E+03  0.14666274482E+04 -0.74213026316E+03  0.16499233058E+04  0.10100000352E+00 0. -1.
</event>
<event>
 5   0  0.7094341E-06  0.2957048E+04  0.7818609E-02  0.8256103E-01
       -2   -1    0    0    0  501  0.00000000000E+00  0.00000000000E+00  0.15787929754E+04  0.15787929754E+04  0.25500000920E-02 0.  1.
        2   -1    0    0  501    0  0.00000000000E+00  0.00000000000E+00 -0.13846231935E+04  0.13846231935E+04  0.25500000920E-02 0. -1.
    10030    2    1    2    0    0  0.00000000000E+00  0.00000000000E+00  0.19416978183E+03  0.29634161689E+04  0.29570481034E+04 0.  0.
        3    1    3    3  502    0  0.10887463611E+04 -0.22388599217E+03 -0.87997099702E+03  0.14176891557E+04  0.10100000352E+00 0. -1.
       -3    1    3    3    0  502 -0.10887463611E+04  0.22388599217E+03  0.10741407789E+04  0.15457270132E+04  0.10100000352E+00 0.  1.
</event>
<event>
 5   0  0.7363513E-06  0.3212655E+04  0.7818609E-02  0.8185483E-01
       -2   -1    0    0    0  501  0.00000000000E+00  0.00000000000E+00  0.17861190089E+04  0.17861190089E+04  0.25500000920E-02 0.  1.
        2   -1    0    0  501    0  0.00000000000E+00  0.00000000000E+00 -0.14446336859E+04  0.14446336859E+04  0.25500000920E-02 0. -1.
    10030    2    1    2    0    0  0.00000000000E+00  0.00000000000E+00  0.34148532305E+03  0.32307526948E+04  0.32126547821E+04 0.  0.
        4    1    3    3  502    0 -0.12120887254E+04 -0.10538513301E+04  0.19377078797E+03  0.16178103830E+04  0.12699999809E+01 0. -1.
       -4    1    3    3    0  502  0.12120887254E+04  0.10538513301E+04  0.14771453508E+03  0.16129423118E+04  0.12699999809E+01 0.  1.
</event>
<event>
 5   0  0.2517725E-06  0.3071691E+04  0.7818609E-02  0.8223550E-01
        1   -1    0    0  501    0  0.00000000000E+00  0.00000000000E+00  0.13201768812E+04  0.13201768812E+04  0.50400001928E-02 0. -1.
       -1   -1    0    0    0  501  0.00000000000E+00  0.00000000000E+00 -0.17867468598E+04  0.17867468598E+04  0.50400001928E-02 0.  1.
    10030    2    1    2    0    0  0.00000000000E+00  0.00000000000E+00 -0.46656997854E+03  0.31069237410E+04  0.30716913236E+04 0.  0.
        3    1    3    3  502    0 -0.29268497489E+03 -0.49356129062E+03 -0.16742498729E+04  0.17698530699E+04  0.10100000352E+00 0.  1.
       -3    1    3    3    0  502  0.29268497489E+03  0.49356129062E+03  0.12076798943E+04  0.13370706711E+04  0.10100000352E+00 0. -1.
</event>
<event>
 5   0  0.2598987E-06  0.2828218E+04  0.7818609E-02  0.8294561E-01
        1   -1    0    0  501    0  0.00000000000E+00  0.00000000000E+00  0.12941606466E+04  0.12941606466E+04  0.50400001928E-02 0.  1.
       -1   -1    0    0    0  501  0.00000000000E+00  0.00000000000E+00 -0.15451748693E+04  0.15451748693E+04  0.50400001928E-02 0. -1.
    10030    2    1    2    0    0  0.00000000000E+00  0.00000000000E+00 -0.25101422268E+03  0.28393355159E+04  0.28282181727E+04 0.  0.
        2    1    3    3  502    0 -0.10648161314E+04 -0.48788309071E+03  0.66997187845E+03  0.13493426628E+04  0.25500000920E-02 0.  1.
       -2    1    3    3    0  502  0.10648161314E+04  0.48788309071E+03 -0.92098610113E+03  0.14899928531E+04  0.25500000920E-02 0. -1.
</event>
<event>
 5   0  0.2598987E-06  0.3378699E+04  0.7818609E-02  0.8143154E-01
        1   -1    0    0  501    0  0.00000000000E+00  0.00000000000E+00  0.24935609139E+04  0.24935609139E+04  0.50400001928E-02 0. -1.
       -1   -1    0    0    0  501  0.00000000000E+00  0.00000000000E+00 -0.11445082830E+04  0.11445082830E+04  0.50400001928E-02 0.  1.
    10030    2    1    2    0    0  0.00000000000E+00  0.00000000000E+00  0.13490526309E+04  0.36380691969E+04  0.33786986372E+04 0.  0.
        2    1    3    3  502    0 -0.73078596166E+03 -0.77667918027E+03  0.20853050102E+04  0.23421732764E+04  0.25500000920E-02 0. -1.
       -2    1    3    3    0  502  0.73078596166E+03  0.77667918027E+03 -0.73625237935E+03  0.12958959206E+04  0.25500000920E-02 0.  1.
</event>
<event>
 5   0  0.2517725E-06  0.2189968E+04  0.7818609E-02  0.8522615E-01
       -1   -1    0    0    0  501  0.00000000000E+00  0.00000000000E+00  0.13214624892E+04  0.13214624892E+04  0.50400001928E-02 0.  1.
        1   -1    0    0  501    0  0.00000000000E+00  0.00000000000E+00 -0.90732055239E+03  0.90732055240E+03  0.50400001928E-02 0. -1.
    10030    2    1    2    0    0  0.00000000000E+00  0.00000000000E+00  0.41414193676E+03  0.22287830416E+04  0.21899681054E+04 0.  0.
        3    1    3    3  502    0 -0.34529348357E+03  0.31824256337E+02  0.12641083525E+04  0.13108052144E+04  0.10100000352E+00 0.  1.
       -3    1    3    3    0  502  0.34529348357E+03 -0.31824256337E+02 -0.84996641572E+03  0.91797782715E+03  0.10100000352E+00 0. -1.
</event>
<event>
 5   0  0.7071012E-06  0.3105853E+04  0.7818609E-02  0.8214133E-01
        2   -1    0    0  501    0  0.00000000000E+00  0.00000000000E+00  0.15861720881E+04  0.15861720881E+04  0.25500000920E-02 0. -1.
       -2   -1    0    0    0  501  0.00000000000E+00  0.00000000000E+00 -0.15203778336E+04  0.15203778336E+04  0.25500000920E-02 0.  1.
    10030    2    1    2    0    0  0.00000000000E+00  0.00000000000E+00  0.65794254520E+02  0.31065499217E+04  0.31058531085E+04 0.  0.
        1    1    3    3  502    0 -0.13680692851E+04 -0.37839647770E+03 -0.59715166481E+03  0.15399310289E+04  0.50400001928E-02 0.  1.
       -1    1    3    3    0  502  0.13680692851E+04  0.37839647770E+03  0.66294591933E+03  0.15666188927E+04  0.50400001928E-02 0. -1.
</event>
<event>
 5   0  0.2517725E-06  0.2987034E+04  0.7818609E-02  0.8247443E-01
       -1   -1    0    0    0  501  0.00000000000E+00  0.00000000000E+00  0.21571538500E+04  0.21571538500E+04  0.50400001928E-02 0.  1.
        1   -1    0    0  501    0  0.00000000000E+00  0.00000000000E+00 -0.10340448046E+04  0.10340448046E+04  0.50400001928E-02 0. -1.
    10030    2    1    2    0    0  0.00000000000E+00  0.00000000000E+00  0.11231090453E+04  0.31911986546E+04  0.29870344701E+04 0.  0.
        3    1    3    3  502    0  0.58930468073E+03 -0.49064126548E+03  0.19307880160E+04  0.20774867583E+04  0.10100000352E+00 0.  1.
       -3    1    3    3    0  502 -0.58930468073E+03  0.49064126548E+03 -0.80767897063E+03  0.11137118963E+04  0.10100000352E+00 0. -1.
</event>
<event>
 5   0  0.7094341E-06  0.3097836E+04  0.7818609E-02  0.8216332E-01
        2   -1    0    0  501    0  0.00000000000E+00  0.00000000000E+00  0.13791702663E+04  0.13791702663E+04  0.25500000920E-02 0. -1.
       -2   -1    0    0    0  501  0.00000000000E+00  0.00000000000E+00 -0.17395580077E+04  0.17395580077E+04  0.25500000920E-02 0.  1.
    10030    2    1    2    0    0  0.00000000000E+00  0.00000000000E+00 -0.36038774142E+03  0.31187282740E+04  0.30978358128E+04 0.  0.
        3    1    3    3  502    0 -0.88595302009E+03  0.94059331146E+03  0.67968482467E+03  0.14600000008E+04  0.10100000352E+00 0.  1.
       -3    1    3    3    0  502  0.88595302009E+03 -0.94059331146E+03 -0.10400725661E+04  0.16587282732E+04  0.10100000352E+00 0. -1.
</event>
<event>
 5   0  0.2624011E-06  0.3066240E+04  0.7818609E-02  0.8225065E-01
       -1   -1    0    0    0  501  0.00000000000E+00  0.00000000000E+00  0.15618766705E+04  0.15618766705E+04  0.50400001928E-02 0.  1.
        1   -1    0    0  501    0  0.00000000000E+00  0.00000000000E+00 -0.15048927061E+04  0.15048927062E+04  0.50400001928E-02 0. -1.
    10030    2    1    2    0    0  0.00000000000E+00  0.00000000000E+00  0.56983964323E+02  0.30667693766E+04  0.30662399184E+04 0.  0.
        1    1    3    3  502    0  0.55803341919E+03 -0.27396476107E+03  0.14301613945E+04  0.15594292551E+04  0.50400001928E-02 0.  1.
       -1    1    3    3    0  502 -0.55803341919E+03  0.27396476107E+03 -0.13731774302E+04  0.15073401216E+04  0.50400001928E-02 0. -1.
</event>
<event>
 5   0  0.7363513E-06  0.3054203E+04  0.7818609E-02  0.8228420E-01
        2   -1    0    0  501    0  0.00000000000E+00  0.00000000000E+00  0.27897781436E+04  0.27897781436E+04  0.25500000920E-02 0. -1.
       -2   -1    0    0    0  501  0.00000000000E+00  0.00000000000E+00 -0.83592270424E+03  0.83592270425E+03  0.25500000920E-02 0.  1.
    10030    2    1    2    0    0  0.00000000000E+00  0.00000000000E+00  0.19538554394E+04  0.36257008479E+04  0.30542029337E+04 0.  0.
        4    1    3    3  502    0  0.34144882411E+03 -0.31136916439E+03  0.27047864532E+04  0.27439769362E+04  0.12699999809E+01 0. -1.
       -4    1    3    3    0  502 -0.34144882411E+03  0.31136916439E+03 -0.75093101382E+03  0.88172391168E+03  0.12699999809E+01 0.  1.
</event>
<event>
 5   0  0.7363513E-06  0.3131448E+04  0.7818609E-02  0.8207160E-01
       -2   -1    0    0    0  501  0.00000000000E+00  0.00000000000E+00  0.16228254083E+04  0.16228254083E+04  0.25500000920E-02 0.  1.
        2   -1    0    0  501    0  0.00000000000E+00  0.00000000000E+00 -0.15106319396E+04  0.15106319396E+04  0.25500000920E-02 0. -1.
    10030    2    1    2    0    0  0.00000000000E+00  0.00000000000E+00  0.11219346871E+03  0.31334573480E+04  0.31314481598E+04 0.  0.
        4    1    3    3  502    0  0.32781929914E+03 -0.79227039114E+03  0.13670260140E+04  0.16136665087E+04  0.12699999809E+01 0.  1.
       -4    1    3    3    0  502 -0.32781929914E+03  0.79227039114E+03 -0.12548325453E+04  0.15197908393E+04  0.12699999809E+01 0. -1.
</event>
<event>
 5   0  0.2674441E-06  0.3072777E+04  0.7818609E-02  0.8223249E-01
        1   -1    0    0  501    0  0.00000000000E+00  0.00000000000E+00  0.16449957256E+04  0.16449957256E+04  0.50400001928E-02 0.  1.
       -1   -1    0    0    0  501  0.00000000000E+00  0.00000000000E+00 -0.14349516153E+04  0.14349516153E+04  0.50400001928E-02 0. -1.
    10030    2    1    2    0    0  0.00000000000E+00  0.00000000000E+00  0.21004411029E+03  0.30799473409E+04  0.30727767727E+04 0.  0.
        5    1    3    3  502    0 -0.17092360972E+03 -0.80775251367E+03 -0.11936821039E+04  0.14514055460E+04  0.46999998093E+01 0. -1.
       -5    1    3    3    0  502  0.17092360972E+03  0.80775251367E+03  0.14037262142E+04  0.16285417950E+04  0.46999998093E+01 0.  1.
</event>
<event>
 5   0  0.2517725E-06  0.3182194E+04  0.7818609E-02  0.8193536E-01
        1   -1    0    0  501    0  0.00000000000E+00  0.00000000000E+00  0.12724410971E+04  0.12724410971E+04  0.50400001928E-02 0.  1.
       -1   -1    0    0    0  501  0.00000000000E+00  0.00000000000E+00 -0.19895530748E+04  0.19895530748E+04  0.50400001928E-02 0. -1.
    10030    2    1    2    0    0  0.00000000000E+00  0.00000000000E+00 -0.71711197770E+03  0.32619941718E+04  0.31821936441E+04 0.  0.
        3    1    3    3  502    0 -0.83546175068E+03  0.69306628881E+03 -0.15510216854E+04  0.18931469823E+04  0.10100000352E+00 0. -1.
       -3    1    3    3    0  502  0.83546175068E+03 -0.69306628881E+03  0.83390970773E+03  0.13688471896E+04  0.10100000352E+00 0.  1.
</event>
<event>
 5   0  0.2598987E-06  0.3088517E+04  0.7818609E-02  0.8218896E-01
        1   -1    0    0  501    0  0.00000000000E+00  0.00000000000E+00  0.15431187291E+04  0.15431187291E+04  0.50400001928E-02 0.  1.
       -1   -1    0    0    0  501  0.00000000000E+00  0.00000000000E+00 -0.15453988997E+04  0.15453988997E+04  0.50400001928E-02 0. -1.
    10030    2    1    2    0    0  0.00000000000E+00  0.00000000000E+00 -0.22801706646E+01  0.30885176288E+04  0.30885167871E+04 0.  0.
        2    1    3    3  502    0  0.64405242916E+03 -0.69121472477E+03  0.12203972543E+04  0.15433569858E+04  0.25500000920E-02 0.  1.
       -2    1    3    3    0  502 -0.64405242916E+03  0.69121472477E+03 -0.12226774250E+04  0.15451606430E+04  0.25500000920E-02 0. -1.
</event>
<event>
 5   0  0.7363513E-06  0.3059647E+04  0.7818609E-02  0.8226901E-01
        2   -1    0    0  501    0  0.00000000000E+00  0.00000000000E+00  0.23632210426E+04  0.23632210426E+04  0.25500000920E-02 0. -1.
       -2   -1    0    0    0  501  0.00000000000E+00  0.00000000000E+00 -0.99032620057E+03  0.99032620057E+03  0.25500000920E-02 0.  1.
    10030    2    1    2    0    0  0.00000000000E+00  0.00000000000E+00  0.13728948421E+04  0.33535472432E+04  0.30596468530E+04 0.  0.
        4    1    3    3  502    0 -0.61560277873E+03 -0.43464798343E+03  0.21456744763E+04  0.22741605532E+04  0.12699999809E+01 0. -1.
       -4    1    3    3    0  502  0.61560277873E+03  0.43464798343E+03 -0.77277963419E+03  0.10793866900E+04  0.12699999809E+01 0.  1.
</event>
<event>
 5   0  0.2517725E-06  0.3132825E+04  0.7818609E-02  0.8206787E-01
       -1   -1    0    0    0  501  0.00000000000E+00  0.00000000000E+00  0.13977899744E+04  0.13977899744E+04  0.50400001928E-02 0.  1.
        1   -1    0    0  501    0  0.00000000000E+00  0.00000000000E+00 -0.17553771133E+04  0.17553771133E+04  0.50400001928E-02 0. -1.
    10030    2    1    2    0    0  0.00000000000E+00  0.00000000000E+00 -0.35758713888E+03  0.31531670878E+04  0.31328252619E+04 0.  0.
        3    1    3    3  502    0  0.32808005246E+03  0.71698356406E+03 -0.15410761834E+04  0.17310741651E+04  0.10100000352E+00 0. -1.
       -3    1    3    3    0  502 -0.32808005246E+03 -0.71698356406E+03  0.11834890445E+04  0.14220929226E+04  0.10100000352E+00 0.  1.
</event>
<event>
 5   0  0.7414808E-06  0.1919183E+04  0.7818609E-02  0.8645366E-01
       -2   -1    0    0    0  501  0.00000000000E+00  0.00000000000E+00  0.64938330603E+03  0.64938330604E+03  0.25500000920E-02 0.  1.
        2   -1    0    0  501    0  0.00000000000E+00  0.00000000000E+00 -0.14179845252E+04  0.14179845252E+04  0.25500000920E-02 0. -1.
    10030    2    1    2    0    0  0.00000000000E+00  0.00000000000E+00 -0.76860121917E+03  0.20673678312E+04  0.19191826165E+04 0.  0.
        2    1    3    3  502    0  0.65284958427E+03  0.69304426609E+03 -0.25551829434E+03  0.98580552503E+03  0.25500000920E-02 0.  1.
       -2    1    3    3    0  502 -0.65284958427E+03 -0.69304426609E+03 -0.51308292483E+03  0.10815623062E+04  0.25500000920E-02 0. -1.
</event>
<event>
 5   0  0.7363513E-06  0.3123378E+04  0.7818609E-02  0.8209351E-01
        2   -1    0    0  501    0  0.00000000000E+00  0.00000000000E+00  0.23131705956E+04  0.23131705956E+04  0.25500000920E-02 0. -1.
       -2   -1    0    0    0  501  0.00000000000E+00  0.00000000000E+00 -0.10543415862E+04  0.10543415862E+04  0.25500000920E-02 0.  1.
    10030    2    1    2    0    0  0.00000000000E+00  0.00000000000E+00  0.12588290095E+04  0.33675121818E+04  0.31233776300E+04 0.  0.
        4    1    3    3  502    0 -0.85740508091E+03 -0.93456416899E+03 -0.35302668417E+03  0.13165041251E+04  0.12699999809E+01 0.  1.
       -4    1    3    3    0  502  0.85740508091E+03  0.93456416899E+03  0.16118556936E+04  0.20510080567E+04  0.12699999809E+01 0. -1.
</event>
<event>
 5   0  0.2674441E-06  0.3025877E+04  0.7818609E-02  0.8236380E-01
        1   -1    0    0  501    0  0.00000000000E+00  0.00000000000E+00  0.19284433150E+04  0.19284433150E+04  0.50400001928E-02 0.  1.
       -1   -1    0    0    0  501  0.00000000000E+00  0.00000000000E+00 -0.11869585290E+04  0.11869585290E+04  0.50400001928E-02 0. -1.
    10030    2    1    2    0    0  0.00000000000E+00  0.00000000000E+00  0.74148478600E+03  0.31154018441E+04  0.30258765610E+04 0.  0.
        5    1    3    3  502    0 -0.83157388030E+03  0.21267743716E+03  0.16534821965E+04  0.18630008789E+04  0.46999998093E+01 0.  1.
       -5    1    3    3    0  502  0.83157388030E+03 -0.21267743716E+03 -0.91199741053E+03  0.12524009651E+04  0.46999998093E+01 0. -1.
</event>
<event>
 5   0  0.2598987E-06  0.3129680E+04  0.7818609E-02  0.8207639E-01
        1   -1    0    0  501    0  0.00000000000E+00  0.00000000000E+00  0.14693372704E+04  0.14693372704E+04  0.50400001928E-02 0.  1.
       -1   -1    0    0    0  501  0.00000000000E+00  0.00000000000E+00 -0.16665503883E+04  0.16665503883E+04  0.50400001928E-02 0. -1.
    10030    2    1    2    0    0  0.00000000000E+00  0.00000000000E+00 -0.19721311794E+03  0.31358876587E+04  0.31296802383E+04 0.  0.
        2    1    3    3  502    0  0.11196973272E+04 -0.19395675546E+02 -0.11937640154E+04  0.16368172840E+04  0.25500000920E-02 0. -1.
       -2    1    3    3    0  502 -0.11196973272E+04  0.19395675546E+02  0.99655089748E+03  0.14990703746E+04  0.25500000920E-02 0.  1.
</event>
<event>
 5   0  0.7414808E-06  0.2759298E+04  0.7818609E-02  0.8316017E-01
        2   -1    0    0  501    0  0.00000000000E+00  0.00000000000E+00  0.18394998423E+04  0.18394998423E+04  0.25500000920E-02 0. -1.
       -2   -1    0    0    0  501  0.00000000000E+00  0.00000000000E+00 -0.10347545163E+04  0.10347545163E+04  0.25500000920E-02 0.  1.
    10030    2    1    2    0    0  0.00000000000E+00  0.00000000000E+00  0.80474532601E+03  0.28742543587E+04  0.27592975698E+04 0.  0.
        2    1    3    3  502    0 -0.70906790477E+02  0.13747585754E+04  0.49808008815E+03  0.14639237302E+04  0.25500000920E-02 0.  1.
       -2    1    3    3    0  502  0.70906790477E+02 -0.13747585754E+04  0.30666523786E+03  0.14103306285E+04  0.25500000920E-02 0. -1.
</event>
<event>
 5   0  0.7094341E-06  0.2622234E+04  0.7818609E-02  0.8360688E-01
        2   -1    0    0  501    0  0.00000000000E+00  0.00000000000E+00  0.92320091986E+03  0.92320091986E+03  0.25500000920E-02 0. -1.
       -2   -1    0    0    0  501  0.00000000000E+00  0.00000000000E+00 -0.18620305788E+04  0.18620305788E+04  0.25500000920E-02 0.  1.
    10030    2    1    2    0    0  0.00000000000E+00  0.00000000000E+00 -0.93882965892E+03  0.27852314986E+04  0.26222344236E+04 0.  0.
        3    1    3    3  502    0  0.70339243012E+03 -0.47785325197E+03  0.59057772715E+03  0.10353196140E+04  0.10100000352E+00 0. -1.
       -3    1    3    3    0  502 -0.70339243012E+03  0.47785325197E+03 -0.15294073861E+04  0.17499118846E+04  0.10100000352E+00 0.  1.
</event>
<event>
 5   0  0.7079223E-06  0.3091448E+04  0.7818609E-02  0.8218089E-01
       -2   -1    0    0    0  501  0.00000000000E+00  0.00000000000E+00  0.13733459891E+04  0.13733459891E+04  0.25500000920E-02 0. -1.
        2   -1    0    0  501    0  0.00000000000E+00  0.00000000000E+00 -0.17397384572E+04  0.17397384572E+04  0.25500000920E-02 0.  1.
    10030    2    1    2    0    0  0.00000000000E+00  0.00000000000E+00 -0.36639246803E+03  0.31130844463E+04  0.30914480958E+04 0.  0.
        5    1    3    3  502    0  0.13204729515E+04 -0.75666712608E+03 -0.45535949571E+03  0.15885743029E+04  0.46999998093E+01 0.  1.
       -5    1    3    3    0  502 -0.13204729515E+04  0.75666712608E+03  0.88967027681E+02  0.15245101434E+04  0.46999998093E+01 0. -1.
</event>
<event>
 5   0  0.2598987E-06  0.3067926E+04  0.7818609E-02  0.8224596E-01
        1   -1    0    0  501    0  0.00000000000E+00  0.00000000000E+00  0.18147983117E+04  0.18147983117E+04  0.50400001928E-02 0.  1.
       -1   -1    0    0    0  501  0.00000000000E+00  0.00000000000E+00 -0.12965859634E+04  0.12965859634E+04  0.50400001928E-02 0. -1.
    10030    2    1    2    0    0  0.00000000000E+00  0.00000000000E+00  0.51821234827E+03  0.31113842751E+04  0.30679256949E+04 0.  0.
        2    1    3    3  502    0  0.15292668562E+04 -0.11712856689E+03  0.28527476054E+03  0.15600506106E+04  0.25500000920E-02 0. -1.
       -2    1    3    3    0  502 -0.15292668562E+04  0.11712856689E+03  0.23293758773E+03  0.15513336645E+04  0.25500000920E-02 0.  1.
</event>
<event>
 5   0  0.7414808E-06  0.3097507E+04  0.7818609E-02  0.8216422E-01
        2   -1    0    0  501    0  0.00000000000E+00  0.00000000000E+00  0.21388340031E+04  0.21388340031E+04  0.25500000920E-02 0.  1.
       -2   -1    0    0    0  501  0.00000000000E+00  0.00000000000E+00 -0.11214694791E+04  0.11214694791E+04  0.25500000920E-02 0. -1.
    10030    2    1    2    0    0  0.00000000000E+00  0.00000000000E+00  0.10173645239E+04  0.32603034822E+04  0.30975067750E+04 0.  0.
        2    1    3    3  502    0  0.10112272179E+04  0.10866530197E+04  0.97376706243E+03  0.17752795733E+04  0.25500000920E-02 0.  1.
       -2    1    3    3    0  502 -0.10112272179E+04 -0.10866530197E+04  0.43597461507E+02  0.14850239089E+04  0.25500000920E-02 0. -1.
</event>
<event>
 5   0  0.2598987E-06  0.3068413E+04  0.7818609E-02  0.8224461E-01
        1   -1    0    0  501    0  0.00000000000E+00  0.00000000000E+00  0.19672551715E+04  0.19672551715E+04  0.50400001928E-02 0. -1.
       -1   -1    0    0    0  501  0.00000000000E+00  0.00000000000E+00 -0.11964840067E+04  0.11964840067E+04  0.50400001928E-02 0.  1.
    10030    2    1    2    0    0  0.00000000000E+00  0.00000000000E+00  0.77077116484E+03  0.31637391782E+04  0.30684128469E+04 0.  0.
        2    1    3    3  502    0 -0.17666994687E+03  0.15210155729E+04  0.48368205242E+03  0.16058172284E+04  0.25500000920E-02 0.  1.
       -2    1    3    3    0  502  0.17666994687E+03 -0.15210155729E+04  0.28708911242E+03  0.15579219498E+04  0.25500000920E-02 0. -1.
</event>
<event>
 5   0  0.7079223E-06  0.2494629E+04  0.7818609E-02  0.8404901E-01
       -2   -1    0    0    0  501  0.00000000000E+00  0.00000000000E+00  0.63113487054E+03  0.63113487055E+03  0.25500000920E-02 0.  1.
        2   -1    0    0  501    0  0.00000000000E+00  0.00000000000E+00 -0.24650733304E+04  0.24650733304E+04  0.25500000920E-02 0. -1.
    10030    2    1    2    0    0  0.00000000000E+00  0.00000000000E+00 -0.18339384598E+04  0.30962082009E+04  0.24946292207E+04 0.  0.
        5    1    3    3  502    0 -0.49357207083E+03  0.99588119176E+03 -0.16194850542E+04  0.19642165532E+04  0.46999998093E+01 0. -1.
       -5    1    3    3    0  502  0.49357207083E+03 -0.99588119176E+03 -0.21445340560E+03  0.11319916477E+04  0.46999998093E+01 0.  1.
</event>
<event>
 5   0  0.2624011E-06  0.3136654E+04  0.7818609E-02  0.8205750E-01
       -1   -1    0    0    0  501  0.00000000000E+00  0.00000000000E+00  0.14327964207E+04  0.14327964207E+04  0.50400001928E-02 0.  1.
        1   -1    0    0  501    0  0.00000000000E+00  0.00000000000E+00 -0.17166771369E+04  0.17166771369E+04  0.50400001928E-02 0. -1.
    10030    2    1    2    0    0  0.00000000000E+00  0.00000000000E+00 -0.28388071628E+03  0.31494735576E+04  0.31366535398E+04 0.  0.
        1    1    3    3  502    0  0.14100384695E+04 -0.46942457840E+03  0.36118740811E+03  0.15293868916E+04  0.50400001928E-02 0. -1.
       -1    1    3    3    0  502 -0.14100384695E+04  0.46942457840E+03 -0.64506812439E+03  0.16200866660E+04  0.50400001928E-02 0.  1.
</event>
<event>
 5   0  0.2598987E-06  0.2815452E+04  0.7818609E-02  0.8298487E-01
        1   -1    0    0  501    0  0.00000000000E+00  0.00000000000E+00  0.99701621558E+03  0.99701621559E+03  0.50400001928E-02 0. -1.
       -1   -1    0    0    0  501  0.00000000000E+00  0.00000000000E+00 -0.19876231616E+04  0.19876231616E+04  0.50400001928E-02 0.  1.
    10030    2    1    2    0    0  0.00000000000E+00  0.00000000000E+00 -0.99060694605E+03  0.29846393772E+04  0.28154520224E+04 0.  0.
        2    1    3    3  502    0  0.44742725699E+03  0.40836688540E+03  0.85178074276E+03  0.10452201190E+04  0.25500000920E-02 0. -1.
       -2    1    3    3    0  502 -0.44742725699E+03 -0.40836688540E+03 -0.18423876888E+04  0.19394192582E+04  0.25500000920E-02 0.  1.
</event>
<event>
 5   0  0.2624011E-06  0.3075718E+04  0.7818609E-02  0.8222434E-01
        1   -1    0    0  501    0  0.00000000000E+00  0.00000000000E+00  0.15009606712E+04  0.15009606712E+04  0.50400001928E-02 0. -1.
       -1   -1    0    0    0  501  0.00000000000E+00  0.00000000000E+00 -0.15756640109E+04  0.15756640109E+04  0.50400001928E-02 0.  1.
    10030    2    1    2    0    0  0.00000000000E+00  0.00000000000E+00 -0.74703339695E+02  0.30766246821E+04  0.30757176147E+04 0.  0.
        1    1    3    3  502    0 -0.10839414593E+03  0.66404794930E+03 -0.14206191170E+04  0.15718993751E+04  0.50400001928E-02 0.  1.
       -1    1    3    3    0  502  0.10839414593E+03 -0.66404794930E+03  0.13459157773E+04  0.15047253070E+04  0.50400001928E-02 0. -1.
</event>
<event>
 5   0  0.7079223E-06  0.2542450E+04  0.7818609E-02  0.8388017E-01
       -2   -1    0    0    0  501  0.00000000000E+00  0.00000000000E+00  0.11614561354E+04  0.11614561354E+04  0.25500000920E-02 0. -1.
        2   -1    0    0  501    0  0.00000000000E+00  0.00000000000E+00 -0.13913677264E+04  0.13913677264E+04  0.25500000920E-02 0.  1.
    10030    2    1    2    0    0  0.00000000000E+00  0.00000000000E+00 -0.22991159106E+03  0.25528238618E+04  0.25424496710E+04 0.  0.
        5    1    3    3  502    0  0.50082200318E+03  0.31264657276E+03 -0.12453469561E+04  0.13782168514E+04  0.46999998093E+01 0.  1.
       -5    1    3    3    0  502 -0.50082200318E+03 -0.31264657276E+03  0.10154353650E+04  0.11746070104E+04  0.46999998093E+01 0. -1.
</event>
<event>
 5   0  0.2674441E-06  0.3081125E+04  0.7818609E-02  0.8220937E-01
       -1   -1    0    0    0  501  0.00000000000E+00  0.00000000000E+00  0.26500392261E+04  0.26500392261E+04  0.50400001928E-02 0.  1.
        1   -1    0    0  501    0  0.00000000000E+00  0.00000000000E+00 -0.89558422306E+03  0.89558422308E+03  0.50400001928E-02 0. -1.
    10030    2    1    2    0    0  0.00000000000E+00  0.00000000000E+00  0.17544550031E+04  0.35456234492E+04  0.30811253278E+04 0.  0.
        5    1    3    3  502    0  0.85689312052E+03 -0.92886340225E+03  0.18911070085E+04  0.22745023296E+04  0.46999998093E+01 0.  1.
       -5    1    3    3    0  502 -0.85689312052E+03  0.92886340225E+03 -0.13665200542E+03  0.12711211196E+04  0.46999998093E+01 0. -1.
</event>
<event>
 5   0  0.2517725E-06  0.3143472E+04  0.7818609E-02  0.8203908E-01
        1   -1    0    0  501    0  0.00000000000E+00  0.00000000000E+00  0.24752950004E+04  0.24752950004E+04  0.50400001928E-02 0. -1.
       -1   -1    0    0    0  501  0.00000000000E+00  0.00000000000E+00 -0.99800389200E+03  0.99800389201E+03  0.50400001928E-02 0.  1.
    10030    2    1    2    0    0  0.00000000000E+00  0.00000000000E+00  0.14772911084E+04  0.34732988924E+04  0.31434719940E+04 0.  0.
        3    1    3    3  502    0 -0.23920263050E+03  0.22265610899E+03 -0.96005142402E+03  0.10141461375E+04  0.10100000352E+00 0.  1.
       -3    1    3    3    0  502  0.23920263050E+03 -0.22265610899E+03  0.24373425324E+04  0.24591527549E+04  0.10100000352E+00 0. -1.
</event>
<event>
 5   0  0.7071012E-06  0.3125272E+04  0.7818609E-02  0.8208836E-01
       -2   -1    0    0    0  501  0.00000000000E+00  0.00000000000E+00  0.20539760587E+04  0.20539760587E+04  0.25500000920E-02 0.  1.
        2   -1    0    0  501    0  0.00000000000E+00  0.00000000000E+00 -0.11888317871E+04  0.11888317871E+04  0.25500000920E-02 0. -1.
    10030    2    1    2    0    0  0.00000000000E+00  0.00000000000E+00  0.86514427163E+03  0.32428078457E+04  0.31252724863E+04 0.  0.
        1    1    3    3  502    0  0.11283754186E+04 -0.19414661899E+03 -0.67086341238E+03  0.13270198616E+04  0.50400001928E-02 0. -1.
       -1    1    3    3    0  502 -0.11283754186E+04  0.19414661899E+03  0.15360076840E+04  0.19157879842E+04  0.50400001928E-02 0.  1.
</event>
<event>
 5   0  0.2624011E-06  0.3113535E+04  0.7818609E-02  0.8212033E-01
        1   -1    0    0  501    0  0.00000000000E+00  0.00000000000E+00  0.11712607667E+04  0.11712607667E+04  0.50400001928E-02 0.  1.
       -1   -1    0    0    0  501  0.00000000000E+00  0.00000000000E+00 -0.20691592136E+04  0.20691592136E+04  0.50400001928E-02 0. -1.
    10030    2    1    2    0    0  0.00000000000E+00  0.00000000000E+00 -0.89789844690E+03  0.32404199804E+04  0.31135349730E+04 0.  0.
        1    1    3    3  502    0 -0.76000639130E+03 -0.13575809928E+04 -0.39300801253E+03  0.16047090592E+04  0.50400001928E-02 0. -1.
       -1    1    3    3    0  502  0.76000639130E+03  0.13575809928E+04 -0.50489043436E+03  0.16357109211E+04  0.50400001928E-02 0.  1.
</event>
<event>
 5   0  0.7094341E-06  0.3094903E+04  0.7818609E-02  0.8217138E-01
       -2   -1    0    0    0  501  0.00000000000E+00  0.00000000000E+00  0.12280117791E+04  0.12280117791E+04  0.25500000920E-02 0. -1.
        2   -1    0    0  501    0  0.00000000000E+00  0.00000000000E+00 -0.19499857221E+04  0.19499857221E+04  0.25500000920E-02 0.  1.
    10030    2    1    2    0    0  0.00000000000E+00  0.00000000000E+00 -0.72197394297E+03  0.31779975013E+04  0.30949025419E+04 0.  0.
        3    1    3    3  502    0  0.12689845072E+04 -0.27631059177E+03 -0.12249668632E+04  0.17852767429E+04  0.10100000352E+00 0.  1.
       -3    1    3    3    0  502 -0.12689845072E+04  0.27631059177E+03  0.50299292027E+03  0.13927207583E+04  0.10100000352E+00 0. -1.
</event>
<event>
 5   0  0.2624011E-06  0.3085005E+04  0.7818609E-02  0.8219865E-01
        1   -1    0    0  501    0  0.00000000000E+00  0.00000000000E+00  0.21211985267E+04  0.21211985267E+04  0.50400001928E-02 0. -1.
       -1   -1    0    0    0  501  0.00000000000E+00  0.00000000000E+00 -0.11216836657E+04  0.11216836657E+04  0.50400001928E-02 0.  1.
    10030    2    1    2    0    0  0.00000000000E+00  0.00000000000E+00  0.99951486103E+03  0.32428821925E+04  0.30850048552E+04 0.  0.
        1    1    3    3  502    0  0.81553552490E+03  0.13088765012E+04  0.46556833317E+03  0.16109033989E+04  0.50400001928E-02 0. -1.
       -1    1    3    3    0  502 -0.81553552490E+03 -0.13088765012E+04  0.53394652786E+03  0.16319787935E+04  0.50400001928E-02 0.  1.
</event>
<event>
 5   0  0.2612331E-06  0.3104450E+04  0.7818609E-02  0.8214518E-01
        1   -1    0    0  501    0  0.00000000000E+00  0.00000000000E+00  0.17628747043E+04  0.17628747043E+04  0.50400001928E-02 0. -1.
       -1   -1    0    0    0  501  0.00000000000E+00  0.00000000000E+00 -0.13667465999E+04  0.13667465999E+04  0.50400001928E-02 0.  1.
    10030    2    1    2    0    0  0.00000000000E+00  0.00000000000E+00  0.39612810440E+03  0.31296213042E+04  0.31044503592E+04 0.  0.
        4    1    3    3  502    0 -0.95194841545E+03 -0.12055576987E+03 -0.10319359401E+04  0.14091248620E+04  0.12699999809E+01 0.  1.
       -4    1    3    3    0  502  0.95194841545E+03  0.12055576987E+03  0.14280640445E+04  0.17204964422E+04  0.12699999809E+01 0. -1.
</event>
<event>
 5   0  0.7071012E-06  0.2970490E+04  0.7818609E-02  0.8252208E-01
       -2   -1    0    0    0  501  0.00000000000E+00  0.00000000000E+00  0.12377110904E+04  0.12377110904E+04  0.25500000920E-02 0. -1.
        2   -1    0    0  501    0  0.00000000000E+00  0.00000000000E+00 -0.17822843862E+04  0.17822843862E+04  0.25500000920E-02 0.  1.
    10030    2    1    2    0    0  0.00000000000E+00  0.00000000000E+00 -0.54457329582E+03  0.30199954765E+04  0.29704902969E+04 0.  0.
        1    1    3    3  502    0  0.71122661855E+03 -0.12936712355E+04 -0.43786457137E+03  0.15398551722E+04  0.50400001928E-02 0.  1.
       -1    1    3    3    0  502 -0.71122661855E+03  0.12936712355E+04 -0.10670872445E+03  0.14801403043E+04  0.50400001928E-02 0. -1.
</event>
<event>
 5   0  0.2624011E-06  0.3081058E+04  0.7818609E-02  0.8220956E-01
        1   -1    0    0  501    0  0.00000000000E+00  0.00000000000E+00  0.14375156758E+04  0.14375156759E+04  0.50400001928E-02 0.  1.
       -1   -1    0    0    0  501  0.00000000000E+00  0.00000000000E+00 -0.16509247184E+04  0.16509247185E+04  0.50400001928E-02 0. -1.
    10030    2    1    2    0    0  0.00000000000E+00  0.00000000000E+00 -0.21340904260E+03  0.30884403943E+04  0.30810583652E+04 0.  0.
        1    1    3    3  502    0  0.10856352877E+04 -0.51987623767E+02 -0.12010727712E+04  0.16198402677E+04  0.50400001928E-02 0. -1.
       -1    1    3    3    0  502 -0.10856352877E+04  0.51987623767E+02  0.98766372864E+03  0.14686001266E+04  0.50400001928E-02 0.  1.
</event>
<event>
 5   0  0.2624011E-06  0.2073402E+04  0.7818609E-02  0.8573051E-01
       -1   -1    0    0    0  501  0.00000000000E+00  0.00000000000E+00  0.11276840560E+04  0.11276840560E+04  0.50400001928E-02 0.  1.
        1   -1    0    0  501    0  0.00000000000E+00  0.00000000000E+00 -0.95305873750E+03  0.95305873751E+03  0.50400001928E-02 0. -1.
    10030    2    1    2    0    0  0.00000000000E+00  0.00000000000E+00  0.17462531847E+03  0.20807427935E+04  0.20734021729E+04 0.  0.
        1    1    3    3  502    0  0.35704708237E+03  0.88733656965E+03  0.48860376831E+03  0.10740495563E+04  0.50400001928E-02 0.  1.
       -1    1    3    3    0  502 -0.35704708237E+03 -0.88733656965E+03 -0.31397844985E+03  0.10066932372E+04  0.50400001928E-02 0. -1.
</event>
<event>
 5   0  0.7094341E-06  0.3209823E+04  0.7818609E-02  0.8186228E-01
        2   -1    0    0  501    0  0.00000000000E+00  0.00000000000E+00  0.17646383333E+04  0.17646383334E+04  0.25500000920E-02 0.  1.
       -2   -1    0    0    0  501  0.00000000000E+00  0.00000000000E+00 -0.14596426809E+04  0.14596426809E+04  0.25500000920E-02 0. -1.
    10030    2    1    2    0    0  0.00000000000E+00  0.00000000000E+00  0.30499565242E+03  0.32242810143E+04  0.32098233146E+04 0.  0.
        3    1    3    3  502    0  0.14886574572E+04  0.58628922585E+03  0.27918224083E+03  0.16241240146E+04  0.10100000352E+00 0. -1.
       -3    1    3    3    0  502 -0.14886574572E+04 -0.58628922585E+03  0.25813411586E+02  0.16001569996E+04  0.10100000352E+00 0.  1.
</event>
<event>
 5   0  0.7079223E-06  0.2984540E+04  0.7818609E-02  0.8248160E-01
        2   -1    0    0  501    0  0.00000000000E+00  0.00000000000E+00  0.18834581814E+04  0.18834581814E+04  0.25500000920E-02 0. -1.
       -2   -1    0    0    0  501  0.00000000000E+00  0.00000000000E+00 -0.11823300139E+04  0.11823300139E+04  0.25500000920E-02 0.  1.
    10030    2    1    2    0    0  0.00000000000E+00  0.00000000000E+00  0.70112816753E+03  0.30657881954E+04  0.29845395879E+04 0.  0.
        5    1    3    3  502    0 -0.17356733804E+02 -0.14267083507E+04  0.79955470763E+03  0.16355756769E+04  0.46999998093E+01 0. -1.
       -5    1    3    3    0  502  0.17356733804E+02  0.14267083507E+04 -0.98426540105E+02  0.14302125185E+04  0.46999998093E+01 0.  1.
</event>
<event>
 5   0  0.7414808E-06  0.3059066E+04  0.7818609E-02  0.8227063E-01
       -2   -1    0    0    0  501  0.00000000000E+00  0.00000000000E+00  0.14363073598E+04  0.14363073598E+04  0.25500000920E-02 0.  1.
        2   -1    0    0  501    0  0.00000000000E+00  0.00000000000E+00 -0.16288094833E+04  0.16288094833E+04  0.25500000920E-02 0. -1.
    10030    2    1    2    0    0  0.00000000000E+00  0.00000000000E+00 -0.19250212354E+03  0.30651168431E+04  0.30590659023E+04 0.  0.
        2    1    3    3  502    0 -0.13832319290E+04 -0.55356137411E+03 -0.44292718600E+03  0.15543311283E+04  0.25500000920E-02 0. -1.
       -2    1    3    3    0  502  0.13832319290E+04  0.55356137411E+03  0.25042506246E+03  0.15107857148E+04  0.25500000920E-02 0.  1.
</event>
<event>
 5   0  0.7414808E-06  0.3116368E+04  0.7818609E-02  0.8211260E-01
       -2   -1    0    0    0  501  0.00000000000E+00  0.00000000000E+00  0.17796864468E+04  0.17796864468E+04  0.25500000920E-02 0. -1.
        2   -1    0    0  501    0  0.00000000000E+00  0.00000000000E+00 -0.13642498250E+04  0.13642498250E+04  0.25500000920E-02 0.  1.
    10030    2    1    2    0    0  0.00000000000E+00  0.00000000000E+00  0.41543662185E+03  0.31439362718E+04  0.31163677085E+04 0.  0.
        2    1    3    3  502    0  0.13442411272E+04  0.33916007192E+03 -0.50985672186E+03  0.14771484825E+04  0.25500000920E-02 0.  1.
       -2    1    3    3    0  502 -0.13442411272E+04 -0.33916007192E+03  0.92529334371E+03  0.16667877893E+04  0.25500000920E-02 0. -1.
</event>
<event>
 5   0  0.7094341E-06  0.3013341E+04  0.7818609E-02  0.8239931E-01
        2   -1    0    0  501    0  0.00000000000E+00  0.00000000000E+00  0.20623824881E+04  0.20623824881E+04  0.25500000920E-02 0.  1.
       -2   -1    0    0    0  501  0.00000000000E+00  0.00000000000E+00 -0.11006959875E+04  0.11006959875E+04  0.25500000920E-02 0. -1.
    10030    2    1    2    0    0  0.00000000000E+00  0.00000000000E+00  0.96168650059E+03  0.31630784756E+04  0.30133410888E+04 0.  0.
        3    1    3    3  502    0  0.95705311295E+02 -0.24138160840E+03 -0.10770317186E+04  0.11078907530E+04  0.10100000352E+00 0. -1.
       -3    1    3    3    0  502 -0.95705311295E+02  0.24138160840E+03  0.20387182192E+04  0.20551877226E+04  0.10100000352E+00 0.  1.
</event>
<event>
 5   0  0.2598987E-06  0.2125483E+04  0.7818609E-02  0.8550100E-01
        1   -1    0    0  501    0  0.00000000000E+00  0.00000000000E+00  0.19960282781E+04  0.19960282781E+04  0.50400001928E-02 0.  1.
       -1   -1    0    0    0  501  0.00000000000E+00  0.00000000000E+00 -0.56583343603E+03  0.56583343605E+03  0.50400001928E-02 0. -1.
    10030    2    1    2    0    0  0.00000000000E+00  0.00000000000E+00  0.14301948420E+04  0.25618617141E+04  0.21254830407E+04 0.  0.
        2    1    3    3  502    0 -0.98513281616E+03  0.15498972508E+02  0.11952468901E+04  0.15489809592E+04  0.25500000920E-02 0.  1.
       -2    1    3    3    0  502  0.98513281616E+03 -0.15498972508E+02  0.23494795196E+03  0.10128807550E+04  0.25500000920E-02 0. -1.
</event>
<event>
 5   0  0.7071012E-06  0.3120418E+04  0.7818609E-02  0.8210157E-01
        2   -1    0    0  501    0  0.00000000000E+00  0.00000000000E+00  0.12935112059E+04  0.12935112059E+04  0.25500000920E-02 0. -1.
       -2   -1    0    0    0  501  0.00000000000E+00  0.00000000000E+00 -0.18818952953E+04  0.18818952953E+04  0.25500000920E-02 0.  1.
    10030    2    1    2    0    0  0.00000000000E+00  0.00000000000E+00 -0.58838408939E+03  0.31754065012E+04  0.31204183391E+04 0.  0.
        1    1    3    3  502    0 -0.12590008824E+04 -0.46686033235E+03 -0.11026803447E+04  0.17375113624E+04  0.50400001928E-02 0.  1.
       -1    1    3    3    0  502  0.12590008824E+04  0.46686033235E+03  0.51429625534E+03  0.14378951388E+04  0.50400001928E-02 0. -1.
</event>
<event>
 5   0  0.2517725E-06  0.2959051E+04  0.7818609E-02  0.8255522E-01
        1   -1    0    0  501    0  0.00000000000E+00  0.00000000000E+00  0.20183124124E+04  0.20183124124E+04  0.50400001928E-02 0.  1.
       -1   -1    0    0    0  501  0.00000000000E+00  0.00000000000E+00 -0.10845670974E+04  0.10845670974E+04  0.50400001928E-02 0. -1.
    10030    2    1    2    0    0  0.00000000000E+00  0.00000000000E+00  0.93374531497E+03  0.31028795098E+04  0.29590506821E+04 0.  0.
        3    1    3    3  502    0  0.89757329406E+03 -0.13353042473E+03 -0.75848440635E+03  0.11826947186E+04  0.10100000352E+00 0. -1.
       -3    1    3    3    0  502 -0.89757329406E+03  0.13353042473E+03  0.16922297213E+04  0.19201847912E+04  0.10100000352E+00 0.  1.
</event>
<event>
 5   0  0.2517725E-06  0.3092571E+04  0.7818609E-02  0.8217780E-01
        1   -1    0    0  501    0  0.00000000000E+00  0.00000000000E+00  0.19055153978E+04  0.19055153978E+04  0.50400001928E-02 0. -1.
       -1   -1    0    0    0  501  0.00000000000E+00  0.00000000000E+00 -0.12547776378E+04  0.12547776378E+04  0.50400001928E-02 0.  1.
    10030    2    1    2    0    0  0.00000000000E+00  0.00000000000E+00  0.65073776001E+03  0.31602930356E+04  0.30925705228E+04 0.  0.
        3    1    3    3  502    0 -0.19167844481E+03 -0.55461719122E+03  0.17873114101E+04  0.18811759466E+04  0.10100000352E+00 0. -1.
       -3    1    3    3    0  502  0.19167844481E+03  0.55461719122E+03 -0.11365736501E+04  0.12791170890E+04  0.10100000352E+00 0.  1.
</event>
<event>
 5   0  0.2612331E-06  0.3066807E+04  0.7818609E-02  0.8224907E-01
       -1   -1    0    0    0  501  0.00000000000E+00  0.00000000000E+00  0.19582560173E+04  0.19582560173E+04  0.50400001928E-02 0. -1.
        1   -1    0    0  501    0  0.00000000000E+00  0.00000000000E+00 -0.12007248341E+04  0.12007248341E+04  0.50400001928E-02 0.  1.
    10030    2    1    2    0    0  0.00000000000E+00  0.00000000000E+00  0.75753118317E+03  0.31589808514E+04  0.30668072203E+04 0.  0.
        4    1    3    3  502    0  0.11910463906E+03  0.91437546111E+03 -0.88323353222E+03  0.12768600097E+04  0.12699999809E+01 0.  1.
       -4    1    3    3    0  502 -0.11910463906E+03 -0.91437546111E+03  0.16407647154E+04  0.18821208418E+04  0.12699999809E+01 0. -1.
</event>
<event>
 5   0  0.7363513E-06  0.3131144E+04  0.7818609E-02  0.8207242E-01
        2   -1    0    0  501    0  0.00000000000E+00  0.00000000000E+00  0.18261646914E+04  0.18261646914E+04  0.25500000920E-02 0.  1.
       -2   -1    0    0    0  501  0.00000000000E+00  0.00000000000E+00 -0.13421656585E+04  0.13421656585E+04  0.25500000920E-02 0. -1.
    10030    2    1    2    0    0  0.00000000000E+00  0.00000000000E+00  0.48399903289E+03  0.31683303499E+04  0.31311439031E+04 0.  0.
        4    1    3    3  502    0  0.12906469360E+04  0.19506718739E+03  0.11166688211E+04  0.17177810075E+04  0.12699999809E+01 0.  1.
       -4    1    3    3    0  502 -0.12906469360E+04 -0.19506718739E+03 -0.63266978818E+03  0.14505493424E+04  0.12699999809E+01 0. -1.
</event>
<event>
 5   0  0.2517725E-06  0.3147356E+04  0.7818609E-02  0.8202860E-01
       -1   -1    0    0    0  501  0.00000000000E+00  0.00000000000E+00  0.12501654368E+04  0.12501654369E+04  0.50400001928E-02 0.  1.
        1   -1    0    0  501    0  0.00000000000E+00  0.00000000000E+00 -0.19809077058E+04  0.19809077058E+04  0.50400001928E-02 0. -1.
    10030    2    1    2    0    0  0.00000000000E+00  0.00000000000E+00 -0.73074226898E+03  0.32310731427E+04  0.31473559363E+04 0.  0.
        3    1    3    3  502    0 -0.64499270678E+03 -0.59286928733E+03  0.97667040081E+03  0.13120193084E+04  0.10100000352E+00 0.  1.
       -3    1    3    3    0  502  0.64499270678E+03  0.59286928733E+03 -0.17074126698E+04  0.19190538343E+04  0.10100000352E+00 0. -1.
</event>
<event>
 5   0  0.7079223E-06  0.3089482E+04  0.7818609E-02  0.8218630E-01
        2   -1    0    0  501    0  0.00000000000E+00  0.00000000000E+00  0.76054994094E+03  0.76054994095E+03  0.25500000920E-02 0. -1.
       -2   -1    0    0    0  501  0.00000000000E+00  0.00000000000E+00 -0.31374987760E+04  0.31374987760E+04  0.25500000920E-02 0.  1.
    10030    2    1    2    0    0  0.00000000000E+00  0.00000000000E+00 -0.23769488351E+04  0.38980487170E+04  0.30894818393E+04 0.  0.
        5    1    3    3  502    0  0.11426930801E+04 -0.19798727965E+02 -0.24997263791E+04  0.27485984656E+04  0.46999998093E+01 0.  1.
       -5    1    3    3    0  502 -0.11426930801E+04  0.19798727965E+02  0.12277754405E+03  0.11494502513E+04  0.46999998093E+01 0. -1.
</event>
<event>
 5   0  0.2517725E-06  0.3072132E+04  0.7818609E-02  0.8223428E-01
       -1   -1    0    0    0  501  0.00000000000E+00  0.00000000000E+00  0.11066426708E+04  0.11066426708E+04  0.50400001928E-02 0.  1.
        1   -1    0    0  501    0  0.00000000000E+00  0.00000000000E+00 -0.21321231307E+04  0.21321231307E+04  0.50400001928E-02 0. -1.
    10030    2    1    2    0    0  0.00000000000E+00  0.00000000000E+00 -0.10254804599E+04  0.32387658015E+04  0.30721317913E+04 0.  0.
        3    1    3    3  502    0  0.42713776394E+03 -0.82051437999E+03  0.78007328798E+03  0.12100433306E+04  0.10100000352E+00 0.  1.
       -3    1    3    3    0  502 -0.42713776394E+03  0.82051437999E+03 -0.18055537479E+04  0.20287224709E+04  0.10100000352E+00 0. -1.
</event>
<event>
 5   0  0.7071012E-06  0.3116484E+04  0.7818609E-02  0.8211229E-01
        2   -1    0    0  501    0  0.00000000000E+00  0.00000000000E+00  0.22048070262E+04  0.22048070262E+04  0.25500000920E-02 0. -1.
       -2   -1    0    0    0  501  0.00000000000E+00  0.00000000000E+00 -0.11012833975E+04  0.11012833975E+04  0.25500000920E-02 0.  1.
    10030    2    1    2    0    0  0.00000000000E+00  0.00000000000E+00  0.11035236288E+04  0.33060904237E+04  0.31164835136E+04 0.  0.
        1    1    3    3  502    0 -0.56098644894E+02 -0.73372072681E+03  0.20088726756E+04  0.21394070650E+04  0.50400001928E-02 0. -1.
       -1    1    3    3    0  502  0.56098644894E+02  0.73372072681E+03 -0.90534904682E+03  0.11666833587E+04  0.50400001928E-02 0.  1.
</event>
<event>
 5   0  0.2517725E-06  0.3116525E+04  0.7818609E-02  0.8211217E-01
       -1   -1    0    0    0  501  0.00000000000E+00  0.00000000000E+00  0.25987188794E+04  0.25987188794E+04  0.50400001928E-02 0.  1.
        1   -1    0    0  501    0  0.00000000000E+00  0.00000000000E+00 -0.93437639385E+03  0.93437639387E+03  0.50400001928E-02 0. -1.
    10030    2    1    2    0    0  0.00000000000E+00  0.00000000000E+00  0.16643424856E+04  0.35330952733E+04  0.31165247153E+04 0.  0.
        3    1    3    3  502    0 -0.81110122025E+02 -0.12356578599E+04  0.19045203664E+04  0.22717013525E+04  0.10100000352E+00 0.  1.
       -3    1    3    3    0  502  0.81110122025E+02  0.12356578599E+04 -0.24017788085E+03  0.12613939208E+04  0.10100000352E+00 0. -1.
</event>
<event>
 5   0  0.7079223E-06  0.3008992E+04  0.7818609E-02  0.8241168E-01
        2   -1    0    0  501    0  0.00000000000E+00  0.00000000000E+00  0.12144896051E+04  0.12144896051E+04  0.25500000920E-02 0.  1.
       -2   -1    0    0    0  501  0.00000000000E+00  0.00000000000E+00 -0.18637524711E+04  0.18637524711E+04  0.25500000920E-02 0. -1.
    10030    2    1    2    0    0  0.00000000000E+00  0.00000000000E+00 -0.64926286596E+03  0.30782420762E+04  0.30089918595E+04 0.  0.
        5    1    3    3  502    0 -0.12936440758E+04 -0.21698443014E+03  0.42913561615E+03  0.13801364805E+04  0.46999998093E+01 0.  1.
       -5    1    3    3    0  502  0.12936440758E+04  0.21698443014E+03 -0.10783984821E+04  0.16981055957E+04  0.46999998093E+01 0. -1.
</event>
<event>
 5   0  0.7094341E-06  0.3142325E+04  0.7818609E-02  0.8204217E-01
        2   -1    0    0  501    0  0.00000000000E+00  0.00000000000E+00  0.10989511599E+04  0.10989511599E+04  0.25500000920E-02 0. -1.
       -2   -1    0    0    0  501  0.00000000000E+00  0.00000000000E+00 -0.22462797810E+04  0.22462797810E+04  0.25500000920E-02 0.  1.
    10030    2    1    2    0    0  0.00000000000E+00  0.00000000000E+00 -0.11473286211E+04  0.33452309409E+04  0.31423251078E+04 0.  0.
        3    1    3    3  502    0 -0.43033417563E+03 -0.24219924512E+03  0.10141915862E+04  0.11280215250E+04  0.10100000352E+00 0. -1.
       -3    1    3    3    0  502  0.43033417563E+03  0.24219924512E+03 -0.21615202074E+04  0.22172094159E+04  0.10100000352E+00 0.  1.
</event>
<event>
 5   0  0.7094341E-06  0.3089651E+04  0.7818609E-02  0.8218584E-01
       -2   -1    0    0    0  501  0.00000000000E+00  0.00000000000E+00  0.11318993237E+04  0.11318993237E+04  0.25500000920E-02 0. -1.
        2   -1    0    0  501    0  0.00000000000E+00  0.00000000000E+00 -0.21083902494E+04  0.21083902494E+04  0.25500000920E-02 0.  1.
    10030    2    1    2    0    0  0.00000000000E+00  0.00000000000E+00 -0.97649092571E+03  0.32402895731E+04  0.30896507877E+04 0.  0.
        3    1    3    3  502    0  0.12249936471E+04  0.94111731381E+03 -0.50208956992E+03  0.16243168350E+04  0.10100000352E+00 0.  1.
       -3    1    3    3    0  502 -0.12249936471E+04 -0.94111731381E+03 -0.47440135579E+03  0.16159727382E+04  0.10100000352E+00 0. -1.
</event>
<event>
 5   0  0.2624011E-06  0.2704268E+04  0.7818609E-02  0.8333622E-01
        1   -1    0    0  501    0  0.00000000000E+00  0.00000000000E+00  0.13930818462E+04  0.13930818462E+04  0.50400001928E-02 0.  1.
       -1   -1    0    0    0  501  0.00000000000E+00  0.00000000000E+00 -0.13123893682E+04  0.13123893682E+04  0.50400001928E-02 0. -1.
    10030    2    1    2    0    0  0.00000000000E+00  0.00000000000E+00  0.80692477964E+02  0.27054712144E+04  0.27042675932E+04 0.  0.
        1    1    3    3  502    0 -0.61415846992E+03  0.45763853068E+03  0.11551321666E+04  0.13859848388E+04  0.50400001928E-02 0.  1.
       -1    1    3    3    0  502  0.61415846992E+03 -0.45763853068E+03 -0.10744396886E+04  0.13194863756E+04  0.50400001928E-02 0. -1.
</event>
<event>
 5   0  0.2612331E-06  0.2811812E+04  0.7818609E-02  0.8299610E-01
        1   -1    0    0  501    0  0.00000000000E+00  0.00000000000E+00  0.91943902461E+03  0.91943902462E+03  0.50400001928E-02 0. -1.
       -1   -1    0    0    0  501  0.00000000000E+00  0.00000000000E+00 -0.21497588820E+04  0.21497588820E+04  0.50400001928E-02 0.  1.
    10030    2    1    2    0    0  0.00000000000E+00  0.00000000000E+00 -0.12303198574E+04  0.30691979067E+04  0.28118123762E+04 0.  0.
        4    1    3    3  502    0  0.12342714382E+02 -0.10772789295E+04 -0.16011077335E+04  0.19298263709E+04  0.12699999809E+01 0.  1.
       -4    1    3    3    0  502 -0.12342714382E+02  0.10772789295E+04  0.37078787607E+03  0.11393715358E+04  0.12699999809E+01 0. -1.
</event>
<event>
 5   0  0.2624011E-06  0.3057458E+04  0.7818609E-02  0.8227511E-01
        1   -1    0    0  501    0  0.00000000000E+00  0.00000000000E+00  0.20588258471E+04  0.20588258471E+04  0.50400001928E-02 0. -1.
       -1   -1    0    0    0  501  0.00000000000E+00  0.00000000000E+00 -0.11351190425E+04  0.11351190425E+04  0.50400001928E-02 0.  1.
    10030    2    1    2    0    0  0.00000000000E+00  0.00000000000E+00  0.92370680454E+03  0.31939448896E+04  0.30574580450E+04 0.  0.
        1    1    3    3  502    0  0.25028621413E+03 -0.11950799704E+04  0.14227825939E+04  0.18748785652E+04  0.50400001928E-02 0. -1.
       -1    1    3    3    0  502 -0.25028621413E+03  0.11950799704E+04 -0.49907578933E+03  0.13190663244E+04  0.50400001928E-02 0.  1.
</event>
<event>
 5   0  0.2674441E-06  0.3083754E+04  0.7818609E-02  0.8220211E-01
        1   -1    0    0  501    0  0.00000000000E+00  0.00000000000E+00  0.14403418105E+04  0.14403418105E+04  0.50400001928E-02 0. -1.
       -1   -1    0    0    0  501  0.00000000000E+00  0.00000000000E+00 -0.16505695833E+04  0.16505695833E+04  0.50400001928E-02 0.  1.
    10030    2    1    2    0    0  0.00000000000E+00  0.00000000000E+00 -0.21022777282E+03  0.30909113939E+04  0.30837538047E+04 0.  0.
        5    1    3    3  502    0  0.37874348865E+03  0.89205529922E+03 -0.13071275479E+04  0.16272104362E+04  0.46999998093E+01 0.  1.
       -5    1    3    3    0  502 -0.37874348865E+03 -0.89205529922E+03  0.10968997751E+04  0.14637009577E+04  0.46999998093E+01 0. -1.
</event>
<event>
 5   0  0.2517725E-06  0.2563019E+04  0.7818609E-02  0.8380872E-01
       -1   -1    0    0    0  501  0.00000000000E+00  0.00000000000E+00  0.12601300541E+04  0.12601300541E+04  0.50400001928E-02 0. -1.
        1   -1    0    0  501    0  0.00000000000E+00  0.00000000000E+00 -0.13032518599E+04  0.13032518599E+04  0.50400001928E-02 0.  1.
    10030    2    1    2    0    0  0.00000000000E+00  0.00000000000E+00 -0.43121805770E+02  0.25633819140E+04  0.25630191858E+04 0.  0.
        3    1    3    3  502    0 -0.36091358808E+02 -0.12782112566E+04  0.62950900446E+02  0.12802692798E+04  0.10100000352E+00 0.  1.
       -3    1    3    3    0  502  0.36091358808E+02  0.12782112566E+04 -0.10607270622E+03  0.12831126342E+04  0.10100000352E+00 0. -1.
</event>
<event>
 5   0  0.2612331E-06  0.3143641E+04  0.7818609E-02  0.8203862E-01
        1   -1    0    0  501    0  0.00000000000E+00  0.00000000000E+00  0.16806963262E+04  0.16806963263E+04  0.50400001928E-02 0. -1.
       -1   -1    0    0    0  501  0.00000000000E+00  0.00000000000E+00 -0.14699980630E+04  0.14699980630E+04  0.50400001928E-02 0.  1.
    10030    2    1    2    0    0  0.00000000000E+00  0.00000000000E+00  0.21069826322E+03  0.31506943893E+04  0.31436414198E+04 0.  0.
        4    1    3    3  502    0  0.49169201046E+03 -0.47790823457E+03 -0.13122008056E+04  0.14805505331E+04  0.12699999809E+01 0.  1.
       -4    1    3    3    0  502 -0.49169201046E+03  0.47790823457E+03  0.15228990688E+04  0.16701438562E+04  0.12699999809E+01 0. -1.
</event>
<event>
 5   0  0.2598987E-06  0.3115355E+04  0.7818609E-02  0.8211536E-01
        1   -1    0    0  501    0  0.00000000000E+00  0.00000000000E+00  0.11517882201E+04  0.11517882201E+04  0.50400001928E-02 0.  1.
       -1   -1    0    0    0  501  0.00000000000E+00  0.00000000000E+00 -0.21066024469E+04  0.21066024469E+04  0.50400001928E-02 0. -1.
    10030    2    1    2    0    0  0.00000000000E+00  0.00000000000E+00 -0.95481422679E+03  0.32583906670E+04  0.31153554422E+04 0.  0.
        2    1    3    3  502    0 -0.13008967231E+04 -0.16071369257E+03 -0.13575903927E+04  0.18871176035E+04  0.25500000920E-02 0. -1.
       -2    1    3    3    0  502  0.13008967231E+04  0.16071369257E+03  0.40277616587E+03  0.13712730636E+04  0.25500000920E-02 0.  1.
</event>
<event>
 5   0  0.7414808E-06  0.3039814E+04  0.7818609E-02  0.8232452E-01
       -2   -1    0    0    0  501  0.00000000000E+00  0.00000000000E+00  0.11747077257E+04  0.11747077257E+04  0.25500000920E-02 0.  1.
        2   -1    0    0  501    0  0.00000000000E+00  0.00000000000E+00 -0.19665468579E+04  0.19665468579E+04  0.25500000920E-02 0. -1.
    10030    2    1    2    0    0  0.00000000000E+00  0.00000000000E+00 -0.79183913223E+03  0.31412545836E+04  0.30398143278E+04 0.  0.
        2    1    3    3  502    0 -0.13679506398E+04 -0.63858192089E+03 -0.57798633136E+03  0.16165221996E+04  0.25500000920E-02 0. -1.
       -2    1    3    3    0  502  0.13679506398E+04  0.63858192089E+03 -0.21385280088E+03  0.15247323840E+04  0.25500000920E-02 0.  1.
</event>
<event>
 5   0  0.2674441E-06  0.3121927E+04  0.7818609E-02  0.8209746E-01
        1   -1    0    0  501    0  0.00000000000E+00  0.00000000000E+00  0.78787624170E+03  0.78787624171E+03  0.50400001928E-02 0.  1.
       -1   -1    0    0    0  501  0.00000000000E+00  0.00000000000E+00 -0.30926256430E+04  0.30926256430E+04  0.50400001928E-02 0. -1.
    10030    2    1    2    0    0  0.00000000000E+00  0.00000000000E+00 -0.23047494013E+04  0.38805018848E+04  0.31219265005E+04 0.  0.
        5    1    3    3  502    0  0.27631796207E+03 -0.40610208484E+03 -0.29940519120E+04  0.30340796729E+04  0.46999998093E+01 0. -1.
       -5    1    3    3    0  502 -0.27631796207E+03  0.40610208484E+03  0.68930251070E+03  0.84642221186E+03  0.46999998093E+01 0.  1.
</event>
<event>
 5   0  0.2517725E-06  0.3097340E+04  0.7818609E-02  0.8216468E-01
        1   -1    0    0  501    0  0.00000000000E+00  0.00000000000E+00  0.14866469669E+04  0.14866469669E+04  0.50400001928E-02 0.  1.
       -1   -1    0    0    0  501  0.00000000000E+00  0.00000000000E+00 -0.16132810755E+04  0.16132810755E+04  0.50400001928E-02 0. -1.
    10030    2    1    2    0    0  0.00000000000E+00  0.00000000000E+00 -0.12663410866E+03  0.30999280424E+04  0.30973404189E+04 0.  0.
        3    1    3    3  502    0  0.17478259255E+03  0.13561996856E+04  0.66430673340E+03  0.15202401087E+04  0.10100000352E+00 0.  1.
       -3    1    3    3    0  502 -0.17478259255E+03 -0.13561996856E+04 -0.79094084205E+03  0.15796879337E+04  0.10100000352E+00 0. -1.
</event>
<event>
 5   0  0.7414808E-06  0.2989815E+04  0.7818609E-02  0.8246645E-01
        2   -1    0    0  501    0  0.00000000000E+00  0.00000000000E+00  0.15971874432E+04  0.15971874432E+04  0.25500000920E-02 0.  1.
       -2   -1    0    0    0  501  0.00000000000E+00  0.00000000000E+00 -0.13991770685E+04  0.13991770685E+04  0.25500000920E-02 0. -1.
    10030    2    1    2    0    0  0.00000000000E+00  0.00000000000E+00  0.19801037466E+03  0.29963645117E+04  0.29898147399E+04 0.  0.
        2    1    3    3  502    0 -0.25350118529E+03 -0.49630088696E+03 -0.12911783974E+04  0.14063140031E+04  0.25500000920E-02 0. -1.
       -2    1    3    3    0  502  0.25350118529E+03  0.49630088696E+03  0.14891887720E+04  0.15900505087E+04  0.25500000920E-02 0.  1.
</event>
<event>
 5   0  0.2598987E-06  0.3084876E+04  0.7818609E-02  0.8219901E-01
        1   -1    0    0  501    0  0.00000000000E+00  0.00000000000E+00  0.14257812446E+04  0.14257812447E+04  0.50400001928E-02 0.  1.
       -1   -1    0    0    0  501  0.00000000000E+00  0.00000000000E+00 -0.16686398833E+04  0.16686398833E+04  0.50400001928E-02 0. -1.
    10030    2    1    2    0    0  0.00000000000E+00  0.00000000000E+00 -0.24285863866E+03  0.30944211280E+04  0.30848763020E+04 0.  0.
        2    1    3    3  502    0 -0.14371037386E+04  0.56015676439E+03 -0.12998174204E+03  0.15478817815E+04  0.25500000920E-02 0. -1.
       -2    1    3    3    0  502  0.14371037386E+04 -0.56015676439E+03 -0.11287689661E+03  0.15465393464E+04  0.25500000920E-02 0.  1.
</event>
<event>
 5   0  0.2674441E-06  0.3051116E+04  0.7818609E-02  0.8229283E-01
       -1   -1    0    0    0  501  0.00000000000E+00  0.00000000000E+00  0.13595985265E+04  0.13595985265E+04  0.50400001928E-02 0. -1.
        1   -1    0    0  501    0  0.00000000000E+00  0.00000000000E+00 -0.17117750072E+04  0.17117750072E+04  0.50400001928E-02 0.  1.
    10030    2    1    2    0    0  0.00000000000E+00  0.00000000000E+00 -0.35217648071E+03  0.30713735337E+04  0.30511157156E+04 0.  0.
        5    1    3    3  502    0  0.40337238210E+03 -0.37737830690E+03 -0.16075639200E+04  0.16998257299E+04  0.46999998093E+01 0.  1.
       -5    1    3    3    0  502 -0.40337238210E+03  0.37737830690E+03  0.12553874393E+04  0.13715478038E+04  0.46999998093E+01 0. -1.
</event>
<event>
 5   0  0.7071012E-06  0.3160271E+04  0.7818609E-02  0.8199389E-01
        2   -1    0    0  501    0  0.00000000000E+00  0.00000000000E+00  0.17775116218E+04  0.17775116218E+04  0.25500000920E-02 0.  1.
       -2   -1    0    0    0  501  0.00000000000E+00  0.00000000000E+00 -0.14046764141E+04  0.14046764141E+04  0.25500000920E-02 0. -1.
    10030    2    1    2    0    0  0.00000000000E+00  0.00000000000E+00  0.37283520770E+03  0.31821880358E+04  0.31602712863E+04 0.  0.
        1    1    3    3  502    0  0.32513523490E+03 -0.24832656977E+03 -0.13504205601E+04  0.14110332014E+04  0.50400001928E-02 0. -1.
       -1    1    3    3    0  502 -0.32513523490E+03  0.24832656977E+03  0.17232557678E+04  0.17711548344E+04  0.50400001928E-02 0.  1.
</event>
<event>
 5   0  0.7414808E-06  0.3077468E+04  0.7818609E-02  0.8221949E-01
        2   -1    0    0  501    0  0.00000000000E+00  0.00000000000E+00  0.20183754077E+04  0.20183754077E+04  0.25500000920E-02 0. -1.
       -2   -1    0    0    0  501  0.00000000000E+00  0.00000000000E+00 -0.11730730414E+04  0.11730730414E+04  0.25500000920E-02 0.  1.
    10030    2    1    2    0    0  0.00000000000E+00  0.00000000000E+00  0.84530236630E+03  0.31914484490E+04  0.30774676460E+04 0.  0.
        2    1    3    3  502    0 -0.50507358075E+03  0.14363243856E+04  0.65355145935E+03  0.16568815808E+04  0.25500000920E-02 0. -1.
       -2    1    3    3    0  502  0.50507358075E+03 -0.14363243856E+04  0.19175090695E+03  0.15345668682E+04  0.25500000920E-02 0.  1.
</event>
<event>
 5   0  0.7363513E-06  0.3099228E+04  0.7818609E-02  0.8215950E-01
       -2   -1    0    0    0  501  0.00000000000E+00  0.00000000000E+00  0.14717554290E+04  0.14717554290E+04  0.25500000920E-02 0. -1.
        2   -1    0    0  501    0  0.00000000000E+00  0.00000000000E+00 -0.16315909299E+04  0.16315909300E+04  0.25500000920E-02 0.  1.
    10030    2    1    2    0    0  0.00000000000E+00  0.00000000000E+00 -0.15983550093E+03  0.31033463590E+04  0.30992275225E+04 0.  0.
        4    1    3    3  502    0 -0.77102515405E+02 -0.11982512367E+04 -0.10607860031E+04  0.16021920550E+04  0.12699999809E+01 0.  1.
       -4    1    3    3    0  502  0.77102515405E+02  0.11982512367E+04  0.90095050213E+03  0.15011543039E+04  0.12699999809E+01 0. -1.
</event>
<event>
 5   0  0.7079223E-06  0.2872061E+04  0.7818609E-02  0.8281239E-01
        2   -1    0    0  501    0  0.00000000000E+00  0.00000000000E+00  0.21505634052E+04  0.21505634052E+04  0.25500000920E-02 0. -1.
       -2   -1    0    0    0  501  0.00000000000E+00  0.00000000000E+00 -0.95890375641E+03  0.95890375641E+03  0.25500000920E-02 0.  1.
    10030    2    1    2    0    0  0.00000000000E+00  0.00000000000E+00  0.11916596488E+04  0.31094671617E+04  0.28720608125E+04 0.  0.
        5    1    3    3  502    0 -0.18731552029E+03 -0.94585374544E+03  0.17479531033E+04  0.19962686576E+04  0.46999998093E+01 0. -1.
       -5    1    3    3    0  502  0.18731552029E+03  0.94585374544E+03 -0.55629345450E+03  0.11131985040E+04  0.46999998093E+01 0.  1.
</event>
<event>
 5   0  0.7363513E-06  0.2139025E+04  0.7818609E-02  0.8544245E-01
       -2   -1    0    0    0  501  0.00000000000E+00  0.00000000000E+00  0.84193862400E+03  0.84193862400E+03  0.25500000920E-02 0. -1.
        2   -1    0    0  501    0  0.00000000000E+00  0.00000000000E+00 -0.13585995784E+04  0.13585995784E+04  0.25500000920E-02 0.  1.
    10030    2    1    2    0    0  0.00000000000E+00  0.00000000000E+00 -0.51666095442E+03  0.22005382024E+04  0.21390254413E+04 0.  0.
        4    1    3    3  502    0  0.42248273378E+03 -0.41707332049E+03  0.65686704466E+03  0.88539129331E+03  0.12699999809E+01 0. -1.
       -4    1    3    3    0  502 -0.42248273378E+03  0.41707332049E+03 -0.11735279991E+04  0.13151469091E+04  0.12699999809E+01 0.  1.
</event>
<event>
 5   0  0.7071012E-06  0.2985995E+04  0.7818609E-02  0.8247741E-01
       -2   -1    0    0    0  501  0.00000000000E+00  0.00000000000E+00  0.17871202830E+04  0.17871202830E+04  0.25500000920E-02 0.  1.
        2   -1    0    0  501    0  0.00000000000E+00  0.00000000000E+00 -0.12472809948E+04  0.12472809948E+04  0.25500000920E-02 0. -1.
    10030    2    1    2    0    0  0.00000000000E+00  0.00000000000E+00  0.53983928826E+03  0.30344012778E+04  0.29859947518E+04 0.  0.
        1    1    3    3  502    0 -0.60180808359E+03  0.38969514173E+03  0.16007318659E+04  0.17539605981E+04  0.50400001928E-02 0.  1.
       -1    1    3    3    0  502  0.60180808359E+03 -0.38969514173E+03 -0.10608925777E+04  0.12804406797E+04  0.50400001928E-02 0. -1.
</event>
<event>
 5   0  0.2598987E-06  0.3137812E+04  0.7818609E-02  0.8205437E-01
       -1   -1    0    0    0  501  0.00000000000E+00  0.00000000000E+00  0.15260481103E+04  0.15260481103E+04  0.50400001928E-02 0. -1.
        1   -1    0    0  501    0  0.00000000000E+00  0.00000000000E+00 -0.16129679535E+04  0.16129679535E+04  0.50400001928E-02 0.  1.
    10030    2    1    2    0    0  0.00000000000E+00  0.00000000000E+00 -0.86919843215E+02  0.31390160639E+04  0.31378124211E+04 0.  0.
        2    1    3    3  502    0  0.18092897979E+03  0.24194078725E+03 -0.15835945868E+04  0.16121546004E+04  0.25500000920E-02 0.  1.
       -2    1    3    3    0  502 -0.18092897979E+03 -0.24194078725E+03  0.14966747436E+04  0.15268614634E+04  0.25500000920E-02 0. -1.
</event>
<event>
 5   0  0.7414808E-06  0.2897268E+04  0.7818609E-02  0.8273691E-01
        2   -1    0    0  501    0  0.00000000000E+00  0.00000000000E+00  0.22081722634E+04  0.22081722634E+04  0.25500000920E-02 0.  1.
       -2   -1    0    0    0  501  0.00000000000E+00  0.00000000000E+00 -0.95035195016E+03  0.95035195016E+03  0.25500000920E-02 0. -1.
    10030    2    1    2    0    0  0.00000000000E+00  0.00000000000E+00  0.12578203133E+04  0.31585242136E+04  0.28972682422E+04 0.  0.
        2    1    3    3  502    0 -0.12353668095E+04 -0.66027627968E+03  0.10316032249E+04  0.17396267224E+04  0.25500000920E-02 0.  1.
       -2    1    3    3    0  502  0.12353668095E+04  0.66027627968E+03  0.22621708841E+03  0.14188974912E+04  0.25500000920E-02 0. -1.
</event>
<event>
 5   0  0.7094341E-06  0.3104046E+04  0.7818609E-02  0.8214629E-01
       -2   -1    0    0    0  501  0.00000000000E+00  0.00000000000E+00  0.85336673803E+03  0.85336673803E+03  0.25500000920E-02 0.  1.
        2   -1    0    0  501    0  0.00000000000E+00  0.00000000000E+00 -0.28226723893E+04  0.28226723893E+04  0.25500000920E-02 0. -1.
    10030    2    1    2    0    0  0.00000000000E+00  0.00000000000E+00 -0.19693056513E+04  0.36760391273E+04  0.31040455727E+04 0.  0.
        3    1    3    3  502    0  0.52027023760E+03  0.96254606541E+03  0.31890839017E+03  0.11396835612E+04  0.10100000352E+00 0.  1.
       -3    1    3    3    0  502 -0.52027023760E+03 -0.96254606541E+03 -0.22882140414E+04  0.25363555661E+04  0.10100000352E+00 0. -1.
</event>
<event>
 5   0  0.7079223E-06  0.2918182E+04  0.7818609E-02  0.8267488E-01
       -2   -1    0    0    0  501  0.00000000000E+00  0.00000000000E+00  0.96845281944E+03  0.96845281944E+03  0.25500000920E-02 0. -1.
        2   -1    0    0  501    0  0.00000000000E+00  0.00000000000E+00 -0.21982972404E+04  0.21982972404E+04  0.25500000920E-02 0.  1.
    10030    2    1    2    0    0  0.00000000000E+00  0.00000000000E+00 -0.12298444210E+04  0.31667500599E+04  0.29181824210E+04 0.  0.
        5    1    3    3  502    0 -0.35901071371E+02  0.11710604266E+04 -0.15586246886E+04  0.19498729240E+04  0.46999998093E+01 0.  1.
       -5    1    3    3    0  502  0.35901071371E+02 -0.11710604266E+04  0.32878026763E+03  0.12168771359E+04  0.46999998093E+01 0. -1.
</event>
<event>
 5   0  0.7071012E-06  0.3091580E+04  0.7818609E-02  0.8218053E-01
       -2   -1    0    0    0  501  0.00000000000E+00  0.00000000000E+00  0.14474363282E+04  0.14474363282E+04  0.25500000920E-02 0.  1.
        2   -1    0    0  501    0  0.00000000000E+00  0.00000000000E+00 -0.16508263884E+04  0.16508263884E+04  0.25500000920E-02 0. -1.
    10030    2    1    2    0    0  0.00000000000E+00  0.00000000000E+00 -0.20339006022E+03  0.30982627166E+04  0.30915795873E+04 0.  0.
        1    1    3    3  502    0  0.10542992465E+04 -0.11209378709E+04  0.44968434705E+02  0.15395034172E+04  0.50400001928E-02 0. -1.
       -1    1    3    3    0  502 -0.10542992465E+04  0.11209378709E+04 -0.24835849493E+03  0.15587592994E+04  0.50400001928E-02 0.  1.
</event>
<event>
 5   0  0.2624011E-06  0.2400051E+04  0.7818609E-02  0.8439484E-01
        1   -1    0    0  501    0  0.00000000000E+00  0.00000000000E+00  0.19491974802E+04  0.19491974802E+04  0.50400001928E-02 0.  1.
       -1   -1    0    0    0  501  0.00000000000E+00  0.00000000000E+00 -0.73879705518E+03  0.73879705520E+03  0.50400001928E-02 0. -1.
    10030    2    1    2    0    0  0.00000000000E+00  0.00000000000E+00  0.12104004250E+04  0.26879945354E+04  0.24000511314E+04 0.  0.
        1    1    3    3  502    0  0.83332133022E+03 -0.61498035512E+03  0.12840892376E+04  0.16497001081E+04  0.50400001928E-02 0.  1.
       -1    1    3    3    0  502 -0.83332133022E+03  0.61498035512E+03 -0.73688812599E+02  0.10382944273E+04  0.50400001928E-02 0. -1.
</event>
<event>
 5   0  0.7414808E-06  0.3197811E+04  0.7818609E-02  0.8189396E-01
        2   -1    0    0  501    0  0.00000000000E+00  0.00000000000E+00  0.18214649541E+04  0.18214649541E+04  0.25500000920E-02 0. -1.
       -2   -1    0    0    0  501  0.00000000000E+00  0.00000000000E+00 -0.14035397309E+04  0.14035397309E+04  0.25500000920E-02 0.  1.
    10030    2    1    2    0    0  0.00000000000E+00  0.00000000000E+00  0.41792522322E+03  0.32250046850E+04  0.31978107708E+04 0.  0.
        2    1    3    3  502    0 -0.34512410770E+02 -0.15771542711E+04 -0.53813587646E+02  0.15784494302E+04  0.25500000920E-02 0.  1.
       -2    1    3    3    0  502  0.34512410770E+02  0.15771542711E+04  0.47173881087E+03  0.16465552548E+04  0.25500000920E-02 0. -1.
</event>
<event>
 5   0  0.2517725E-06  0.3114743E+04  0.7818609E-02  0.8211703E-01
       -1   -1    0    0    0  501  0.00000000000E+00  0.00000000000E+00  0.83044174794E+03  0.83044174796E+03  0.50400001928E-02 0. -1.
        1   -1    0    0  501    0  0.00000000000E+00  0.00000000000E+00 -0.29206215881E+04  0.29206215881E+04  0.50400001928E-02 0.  1.
    10030    2    1    2    0    0  0.00000000000E+00  0.00000000000E+00 -0.20901798401E+04  0.37510633360E+04  0.31147430692E+04 0.  0.
        3    1    3    3  502    0 -0.90453757066E+03  0.50281859865E+03  0.35644605886E+03  0.10945631836E+04  0.10100000352E+00 0. -1.
       -3    1    3    3    0  502  0.90453757066E+03 -0.50281859865E+03 -0.24466258990E+04  0.26565001524E+04  0.10100000352E+00 0.  1.
</event>
<event>
 5   0  0.7079223E-06  0.3132620E+04  0.7818609E-02  0.8206842E-01
       -2   -1    0    0    0  501  0.00000000000E+00  0.00000000000E+00  0.92439612471E+03  0.92439612472E+03  0.25500000920E-02 0. -1.
        2   -1    0    0  501    0  0.00000000000E+00  0.00000000000E+00 -0.26539779010E+04  0.26539779010E+04  0.25500000920E-02 0.  1.
    10030    2    1    2    0    0  0.00000000000E+00  0.00000000000E+00 -0.17295817763E+04  0.35783740257E+04  0.31326199174E+04 0.  0.
        5    1    3    3  502    0  0.81373697478E+03 -0.56948582673E+03  0.51866991072E+03  0.11205010206E+04  0.46999998093E+01 0. -1.
       -5    1    3    3    0  502 -0.81373697478E+03  0.56948582673E+03 -0.22482516870E+04  0.24578730051E+04  0.46999998093E+01 0.  1.
</event>
<event>
 5   0  0.2612331E-06  0.3057425E+04  0.7818609E-02  0.8227520E-01
       -1   -1    0    0    0  501  0.00000000000E+00  0.00000000000E+00  0.10521039488E+04  0.10521039489E+04  0.50400001928E-02 0.  1.
        1   -1    0    0  501    0  0.00000000000E+00  0.00000000000E+00 -0.22212273547E+04  0.22212273547E+04  0.50400001928E-02 0. -1.
    10030    2    1    2    0    0  0.00000000000E+00  0.00000000000E+00 -0.11691234059E+04  0.32733313036E+04  0.30574251070E+04 0.  0.
        4    1    3    3  502    0 -0.32510388315E+03  0.13399259314E+03  0.10082177432E+04  0.10677786196E+04  0.12699999809E+01 0.  1.
       -4    1    3    3    0  502  0.32510388315E+03 -0.13399259314E+03 -0.21773411490E+04  0.22055526840E+04  0.12699999809E+01 0. -1.
</event>
<event>
 5   0  0.7363513E-06  0.3125101E+04  0.7818609E-02  0.8208883E-01
        2   -1    0    0  501    0  0.00000000000E+00  0.00000000000E+00  0.73020545740E+03  0.73020545741E+03  0.25500000920E-02 0.  1.
       -2   -1    0    0    0  501  0.00000000000E+00  0.00000000000E+00 -0.33436675835E+04  0.33436675835E+04  0.25500000920E-02 0. -1.
    10030    2    1    2    0    0  0.00000000000E+00  0.00000000000E+00 -0.26134621261E+04  0.40738730409E+04  0.31251011614E+04 0.  0.
        4    1    3    3  502    0 -0.15272245795E+04 -0.31982076939E+03 -0.11987410894E+04  0.19676590287E+04  0.12699999809E+01 0.  1.
       -4    1    3    3    0  502  0.15272245795E+04  0.31982076939E+03 -0.14147210366E+04  0.21062140122E+04  0.12699999809E+01 0. -1.
</event>
<event>
 5   0  0.2624011E-06  0.3124840E+04  0.7818609E-02  0.8208954E-01
       -1   -1    0    0    0  501  0.00000000000E+00  0.00000000000E+00  0.11623252333E+04  0.11623252333E+04  0.50400001928E-02 0.  1.
        1   -1    0    0  501    0  0.00000000000E+00  0.00000000000E+00 -0.21002357688E+04  0.21002357688E+04  0.50400001928E-02 0. -1.
    10030    2    1    2    0    0  0.00000000000E+00  0.00000000000E+00 -0.93791053556E+03  0.32625610021E+04  0.31248404951E+04 0.  0.
        1    1    3    3  502    0  0.32493948134E+03 -0.81079047787E+03 -0.18214991750E+04  0.20201054700E+04  0.50400001928E-02 0. -1.
       -1    1    3    3    0  502 -0.32493948134E+03  0.81079047787E+03  0.88358863940E+03  0.12424555321E+04  0.50400001928E-02 0.  1.
</event>
<event>
 5   0  0.7071012E-06  0.2830087E+04  0.7818609E-02  0.8293988E-01
       -2   -1    0    0    0  501  0.00000000000E+00  0.00000000000E+00  0.13369466774E+04  0.13369466774E+04  0.25500000920E-02 0.  1.
        2   -1    0    0  501    0  0.00000000000E+00  0.00000000000E+00 -0.14977024380E+04  0.14977024380E+04  0.25500000920E-02 0. -1.
    10030    2    1    2    0    0  0.00000000000E+00  0.00000000000E+00 -0.16075576067E+03  0.28346491154E+04  0.28300871352E+04 0.  0.
        1    1    3    3  502    0  0.54440535882E+03 -0.17021984209E+03  0.12166985090E+04  0.13437660702E+04  0.50400001928E-02 0.  1.
       -1    1    3    3    0  502 -0.54440535882E+03  0.17021984209E+03 -0.13774542697E+04  0.14908830452E+04  0.50400001928E-02 0. -1.
</event>
<event>
 5   0  0.2612331E-06  0.2900467E+04  0.7818609E-02  0.8272739E-01
        1   -1    0    0  501    0  0.00000000000E+00  0.00000000000E+00  0.10542389784E+04  0.10542389784E+04  0.50400001928E-02 0. -1.
       -1   -1    0    0    0  501  0.00000000000E+00  0.00000000000E+00 -0.19949719376E+04  0.19949719376E+04  0.50400001928E-02 0.  1.
    10030    2    1    2    0    0  0.00000000000E+00  0.00000000000E+00 -0.94073295919E+03  0.30492109161E+04  0.29004669814E+04 0.  0.
        4    1    3    3  502    0  0.46282443507E+03 -0.13109804963E+04 -0.90420279364E+03  0.16584512728E+04  0.12699999809E+01 0.  1.
       -4    1    3    3    0  502 -0.46282443507E+03  0.13109804963E+04 -0.36530165547E+02  0.13907596432E+04  0.12699999809E+01 0. -1.
</event>
<event>
 5   0  0.2393250E-06  0.1898723E+04  0.7818609E-02  0.8655492E-01
        3   -1    0    0  501    0  0.00000000000E+00  0.00000000000E+00  0.18780451099E+04  0.18780451126E+04  0.10100000352E+00 0. -1.
       -3   -1    0    0    0  501  0.00000000000E+00  0.00000000000E+00 -0.47990712568E+03  0.47990713631E+03  0.10100000352E+00 0.  1.
    10030    2    1    2    0    0  0.00000000000E+00  0.00000000000E+00  0.13981379842E+04  0.23579522489E+04  0.18987229880E+04 0.  0.
        5    1    3    3  502    0 -0.79235813657E+03 -0.45599083746E+03  0.38122481782E+03  0.99051174256E+03  0.46999998093E+01 0.  1.
       -5    1    3    3    0  502  0.79235813657E+03  0.45599083746E+03  0.10169131664E+04  0.13674405064E+04  0.46999998093E+01 0. -1.
</event>
<event>
 5   0  0.7094341E-06  0.2953163E+04  0.7818609E-02  0.8257233E-01
       -2   -1    0    0    0  501  0.00000000000E+00  0.00000000000E+00  0.99818707181E+03  0.99818707182E+03  0.25500000920E-02 0.  1.
        2   -1    0    0  501    0  0.00000000000E+00  0.00000000000E+00 -0.21842532007E+04  0.21842532007E+04  0.25500000920E-02 0. -1.
    10030    2    1    2    0    0  0.00000000000E+00  0.00000000000E+00 -0.11860661289E+04  0.31824402725E+04  0.29531632576E+04 0.  0.
        3    1    3    3  502    0  0.70729104627E+03  0.12506597695E+04 -0.22618830469E+03  0.14545004787E+04  0.10100000352E+00 0.  1.
       -3    1    3    3    0  502 -0.70729104627E+03 -0.12506597695E+04 -0.95987782420E+03  0.17279397938E+04  0.10100000352E+00 0. -1.
</event>
<event>
 5   0  0.2517725E-06  0.3143206E+04  0.7818609E-02  0.8203979E-01
       -1   -1    0    0    0  501  0.00000000000E+00  0.00000000000E+00  0.16170246603E+04  0.16170246603E+04  0.50400001928E-02 0.  1.
        1   -1    0    0  501    0  0.00000000000E+00  0.00000000000E+00 -0.15274571488E+04  0.15274571488E+04  0.50400001928E-02 0. -1.
    10030    2    1    2    0    0  0.00000000000E+00  0.00000000000E+00  0.89567511529E+02  0.31444818092E+04  0.31432059285E+04 0.  0.
        3    1    3    3  502    0 -0.67488626406E+03  0.13197834332E+04 -0.47757384900E+03  0.15573620553E+04  0.10100000352E+00 0. -1.
       -3    1    3    3    0  502  0.67488626406E+03 -0.13197834332E+04  0.56714136052E+03  0.15871197538E+04  0.10100000352E+00 0.  1.
</event>
<event>
 5   0  0.7071012E-06  0.3162908E+04  0.7818609E-02  0.8198682E-01
       -2   -1    0    0    0  501  0.00000000000E+00  0.00000000000E+00  0.16819792350E+04  0.16819792350E+04  0.25500000920E-02 0. -1.
        2   -1    0    0  501    0  0.00000000000E+00  0.00000000000E+00 -0.14869368640E+04  0.14869368640E+04  0.25500000920E-02 0.  1.
    10030    2    1    2    0    0  0.00000000000E+00  0.00000000000E+00  0.19504237104E+03  0.31689160991E+04  0.31629081106E+04 0.  0.
        1    1    3    3  502    0 -0.54385476773E+03  0.13132112407E+04  0.79215998872E+03  0.16272121001E+04  0.50400001928E-02 0. -1.
       -1    1    3    3    0  502  0.54385476773E+03 -0.13132112407E+04 -0.59711761769E+03  0.15417039989E+04  0.50400001928E-02 0.  1.
</event>
<event>
 5   0  0.2612331E-06  0.2966074E+04  0.7818609E-02  0.8253485E-01
       -1   -1    0    0    0  501  0.00000000000E+00  0.00000000000E+00  0.13255753589E+04  0.13255753589E+04  0.50400001928E-02 0.  1.
        1   -1    0    0  501    0  0.00000000000E+00  0.00000000000E+00 -0.16592035573E+04  0.16592035573E+04  0.50400001928E-02 0. -1.
    10030    2    1    2    0    0  0.00000000000E+00  0.00000000000E+00 -0.33362819842E+03  0.29847789163E+04  0.29660744097E+04 0.  0.
        4    1    3    3  502    0 -0.60166242769E+03 -0.11408739275E+04 -0.90341833801E+03  0.15747245161E+04  0.12699999809E+01 0.  1.
       -4    1    3    3    0  502  0.60166242769E+03  0.11408739275E+04  0.56979013959E+03  0.14100544001E+04  0.12699999809E+01 0. -1.
</event>
<event>
 5   0  0.7094341E-06  0.3160308E+04  0.7818609E-02  0.8199379E-01
       -2   -1    0    0    0  501  0.00000000000E+00  0.00000000000E+00  0.12236176092E+04  0.12236176092E+04  0.25500000920E-02 0. -1.
        2   -1    0    0  501    0  0.00000000000E+00  0.00000000000E+00 -0.20405780960E+04  0.20405780960E+04  0.25500000920E-02 0.  1.
    10030    2    1    2    0    0  0.00000000000E+00  0.00000000000E+00 -0.81696048687E+03  0.32641957052E+04  0.31603083971E+04 0.  0.
        3    1    3    3  502    0  0.87442963480E+02  0.31545589039E+03  0.11882112578E+04  0.12324790846E+04  0.10100000352E+00 0. -1.
       -3    1    3    3    0  502 -0.87442963480E+02 -0.31545589039E+03 -0.20051717447E+04  0.20317166206E+04  0.10100000352E+00 0.  1.
</event>
<event>
 5   0  0.2612331E-06  0.3184413E+04  0.7818609E-02  0.8192946E-01
       -1   -1    0    0    0  501  0.00000000000E+00  0.00000000000E+00  0.11869406397E+04  0.11869406397E+04  0.50400001928E-02 0.  1.
        1   -1    0    0  501    0  0.00000000000E+00  0.00000000000E+00 -0.21358450527E+04  0.21358450527E+04  0.50400001928E-02 0. -1.
    10030    2    1    2    0    0  0.00000000000E+00  0.00000000000E+00 -0.94890441305E+03  0.33227856924E+04  0.31844128458E+04 0.  0.
        4    1    3    3  502    0 -0.13748166869E+04  0.79932183975E+03 -0.55583723474E+03  0.16846343729E+04  0.12699999809E+01 0.  1.
       -4    1    3    3    0  502  0.13748166869E+04 -0.79932183975E+03 -0.39306717831E+03  0.16381513195E+04  0.12699999809E+01 0. -1.
</event>
<event>
 5   0  0.2674441E-06  0.3144191E+04  0.7818609E-02  0.8203714E-01
        1   -1    0    0  501    0  0.00000000000E+00  0.00000000000E+00  0.24912943647E+04  0.24912943647E+04  0.50400001928E-02 0.  1.
       -1   -1    0    0    0  501  0.00000000000E+00  0.00000000000E+00 -0.99204857681E+03  0.99204857682E+03  0.50400001928E-02 0. -1.
    10030    2    1    2    0    0  0.00000000000E+00  0.00000000000E+00  0.14992457879E+04  0.34833429416E+04  0.31441914884E+04 0.  0.
        5    1    3    3  502    0  0.14036661888E+03 -0.51740736344E+03  0.23868861355E+04  0.24463566137E+04  0.46999998093E+01 0.  1.
       -5    1    3    3    0  502 -0.14036661888E+03  0.51740736344E+03 -0.88764034761E+03  0.10369863278E+04  0.46999998093E+01 0. -1.
</event>
<event>
 5   0  0.2612331E-06  0.2226408E+04  0.7818609E-02  0.8507516E-01
        1   -1    0    0  501    0  0.00000000000E+00  0.00000000000E+00  0.13471967977E+04  0.13471967977E+04  0.50400001928E-02 0. -1.
       -1   -1    0    0    0  501  0.00000000000E+00  0.00000000000E+00 -0.91985340589E+03  0.91985340591E+03  0.50400001928E-02 0.  1.
    10030    2    1    2    0    0  0.00000000000E+00  0.00000000000E+00  0.42734339182E+03  0.22670502036E+04  0.22264083748E+04 0.  0.
        4    1    3    3  502    0 -0.48815154695E+02 -0.86319383355E+03 -0.50036751906E+03  0.99892731500E+03  0.12699999809E+01 0.  1.
       -4    1    3    3    0  502  0.48815154695E+02  0.86319383355E+03  0.92771091088E+03  0.12681228886E+04  0.12699999809E+01 0. -1.
</event>
<event>
 5   0  0.2517725E-06  0.1978717E+04  0.7818609E-02  0.8616636E-01
        1   -1    0    0  501    0  0.00000000000E+00  0.00000000000E+00  0.16014836856E+04  0.16014836856E+04  0.50400001928E-02 0. -1.
       -1   -1    0    0    0  501  0.00000000000E+00  0.00000000000E+00 -0.61120201455E+03  0.61120201457E+03  0.50400001928E-02 0.  1.
    10030    2    1    2    0    0  0.00000000000E+00  0.00000000000E+00  0.99028167106E+03  0.22126857002E+04  0.19787168114E+04 0.  0.
        3    1    3    3  502    0  0.14632161077E+03 -0.47085371362E+01  0.15893045592E+04  0.15960329496E+04  0.10100000352E+00 0. -1.
       -3    1    3    3    0  502 -0.14632161077E+03  0.47085371362E+01 -0.59902288814E+03  0.61665275060E+03  0.10100000352E+00 0.  1.
</event>
<event>
 5   0  0.7414808E-06  0.1933151E+04  0.7818609E-02  0.8638529E-01
        2   -1    0    0  501    0  0.00000000000E+00  0.00000000000E+00  0.14922682445E+04  0.14922682445E+04  0.25500000920E-02 0. -1.
       -2   -1    0    0    0  501  0.00000000000E+00  0.00000000000E+00 -0.62607261113E+03  0.62607261114E+03  0.25500000920E-02 0.  1.
    10030    2    1    2    0    0  0.00000000000E+00  0.00000000000E+00  0.86619563340E+03  0.21183408557E+04  0.19331510819E+04 0.  0.
        2    1    3    3  502    0 -0.15073346897E+03  0.82058031415E+03 -0.10170902516E+03  0.84048638089E+03  0.25500000920E-02 0.  1.
       -2    1    3    3    0  502  0.15073346897E+03 -0.82058031415E+03  0.96790465856E+03  0.12778544748E+04  0.25500000920E-02 0. -1.
</event>
<event>
 5   0  0.7363513E-06  0.3134618E+04  0.7818609E-02  0.8206301E-01
       -2   -1    0    0    0  501  0.00000000000E+00  0.00000000000E+00  0.95859393684E+03  0.95859393684E+03  0.25500000920E-02 0. -1.
        2   -1    0    0  501    0  0.00000000000E+00  0.00000000000E+00 -0.25625626386E+04  0.25625626386E+04  0.25500000920E-02 0.  1.
    10030    2    1    2    0    0  0.00000000000E+00  0.00000000000E+00 -0.16039687018E+04  0.35211565755E+04  0.31346176853E+04 0.  0.
        4    1    3    3  502    0  0.21447309840E+02 -0.97603175159E+03 -0.21792949248E+04  0.23879752824E+04  0.12699999809E+01 0.  1.
       -4    1    3    3    0  502 -0.21447309840E+02  0.97603175159E+03  0.57532622300E+03  0.11331812931E+04  0.12699999809E+01 0. -1.
</event>
<event>
 5   0  0.7079223E-06  0.3076543E+04  0.7818609E-02  0.8222205E-01
       -2   -1    0    0    0  501  0.00000000000E+00  0.00000000000E+00  0.12099833949E+04  0.12099833949E+04  0.25500000920E-02 0. -1.
        2   -1    0    0  501    0  0.00000000000E+00  0.00000000000E+00 -0.19556288994E+04  0.19556288994E+04  0.25500000920E-02 0.  1.
    10030    2    1    2    0    0  0.00000000000E+00  0.00000000000E+00 -0.74564550453E+03  0.31656122943E+04  0.30765425366E+04 0.  0.
        5    1    3    3  502    0 -0.67421510684E+03 -0.13822744711E+04 -0.40548577501E+03  0.15904997728E+04  0.46999998093E+01 0. -1.
       -5    1    3    3    0  502  0.67421510684E+03  0.13822744711E+04 -0.34015972952E+03  0.15751125214E+04  0.46999998093E+01 0.  1.
</event>
<event>
 5   0  0.7079223E-06  0.3208886E+04  0.7818609E-02  0.8186474E-01
       -2   -1    0    0    0  501  0.00000000000E+00  0.00000000000E+00  0.13448834277E+04  0.13448834277E+04  0.25500000920E-02 0.  1.
        2   -1    0    0  501    0  0.00000000000E+00  0.00000000000E+00 -0.19140970952E+04  0.19140970952E+04  0.25500000920E-02 0. -1.
    10030    2    1    2    0    0  0.00000000000E+00  0.00000000000E+00 -0.56921366755E+03  0.32589805229E+04  0.32088860761E+04 0.  0.
        5    1    3    3  502    0  0.97699607606E+03  0.11244309638E+04  0.32081076870E+03  0.15237479990E+04  0.46999998093E+01 0.  1.
       -5    1    3    3    0  502 -0.97699607606E+03 -0.11244309638E+04 -0.89002443625E+03  0.17352325239E+04  0.46999998093E+01 0. -1.
</event>
<event>
 5   0  0.2612331E-06  0.3100816E+04  0.7818609E-02  0.8215514E-01
        1   -1    0    0  501    0  0.00000000000E+00  0.00000000000E+00  0.12748063794E+04  0.12748063794E+04  0.50400001928E-02 0.  1.
       -1   -1    0    0    0  501  0.00000000000E+00  0.00000000000E+00 -0.18855923977E+04  0.18855923977E+04  0.50400001928E-02 0. -1.
    10030    2    1    2    0    0  0.00000000000E+00  0.00000000000E+00 -0.61078601831E+03  0.31603987771E+04  0.31008161620E+04 0.  0.
        4    1    3    3  502    0  0.30209067931E+02  0.14115999696E+04  0.34741133815E+03  0.14540369021E+04  0.12699999809E+01 0.  1.
       -4    1    3    3    0  502 -0.30209067931E+02 -0.14115999696E+04 -0.95819735647E+03  0.17063618751E+04  0.12699999809E+01 0. -1.
</event>
<event>
 5   0  0.2624011E-06  0.3112759E+04  0.7818609E-02  0.8212245E-01
       -1   -1    0    0    0  501  0.00000000000E+00  0.00000000000E+00  0.14041803935E+04  0.14041803935E+04  0.50400001928E-02 0. -1.
        1   -1    0    0  501    0  0.00000000000E+00  0.00000000000E+00 -0.17250753783E+04  0.17250753783E+04  0.50400001928E-02 0.  1.
    10030    2    1    2    0    0  0.00000000000E+00  0.00000000000E+00 -0.32089498473E+03  0.31292557718E+04  0.31127589200E+04 0.  0.
        1    1    3    3  502    0  0.93016694593E+03 -0.58227646206E+03 -0.12699544321E+04  0.16784042080E+04  0.50400001928E-02 0.  1.
       -1    1    3    3    0  502 -0.93016694593E+03  0.58227646206E+03  0.94905944740E+03  0.14508515638E+04  0.50400001928E-02 0. -1.
</event>
<event>
 5   0  0.7094341E-06  0.2417900E+04  0.7818609E-02  0.8432832E-01
       -2   -1    0    0    0  501  0.00000000000E+00  0.00000000000E+00  0.89338459049E+03  0.89338459049E+03  0.25500000920E-02 0. -1.
        2   -1    0    0  501    0  0.00000000000E+00  0.00000000000E+00 -0.16359805755E+04  0.16359805755E+04  0.25500000920E-02 0.  1.
    10030    2    1    2    0    0  0.00000000000E+00  0.00000000000E+00 -0.74259598497E+03  0.25293651660E+04  0.24178997799E+04 0.  0.
        3    1    3    3  502    0  0.44823173197E+03  0.32532085103E+02  0.80275528639E+03  0.91999243591E+03  0.10100000352E+00 0. -1.
       -3    1    3    3    0  502 -0.44823173197E+03 -0.32532085103E+02 -0.15453512714E+04  0.16093727300E+04  0.10100000352E+00 0.  1.
</event>
<event>
 5   0  0.7071012E-06  0.3171423E+04  0.7818609E-02  0.8196405E-01
       -2   -1    0    0    0  501  0.00000000000E+00  0.00000000000E+00  0.10011778858E+04  0.10011778858E+04  0.25500000920E-02 0. -1.
        2   -1    0    0  501    0  0.00000000000E+00  0.00000000000E+00 -0.25115227728E+04  0.25115227728E+04  0.25500000920E-02 0.  1.
    10030    2    1    2    0    0  0.00000000000E+00  0.00000000000E+00 -0.15103448870E+04  0.35127006586E+04  0.31714230622E+04 0.  0.
        1    1    3    3  502    0  0.32516233998E+03 -0.10813383210E+04 -0.19882853987E+04  0.22865480398E+04  0.50400001928E-02 0.  1.
       -1    1    3    3    0  502 -0.32516233998E+03  0.10813383210E+04  0.47794051170E+03  0.12261526188E+04  0.50400001928E-02 0. -1.
</event>
<event>
 5   0  0.2393250E-06  0.3014049E+04  0.7818609E-02  0.8239730E-01
       -3   -1    0    0    0  501  0.00000000000E+00  0.00000000000E+00  0.16171933358E+04  0.16171933389E+04  0.10100000352E+00 0. -1.
        3   -1    0    0  501    0  0.00000000000E+00  0.00000000000E+00 -0.14043609354E+04  0.14043609391E+04  0.10100000352E+00 0.  1.
    10030    2    1    2    0    0  0.00000000000E+00  0.00000000000E+00  0.21283240037E+03  0.30215542780E+04  0.30140492073E+04 0.  0.
        5    1    3    3  502    0 -0.19291160461E+03 -0.14208745714E+04  0.57125346728E+03  0.15435193711E+04  0.46999998093E+01 0. -1.
       -5    1    3    3    0  502  0.19291160461E+03  0.14208745714E+04 -0.35842106691E+03  0.14780349069E+04  0.46999998093E+01 0.  1.
</event>
<event>
 5   0  0.7079223E-06  0.3067011E+04  0.7818609E-02  0.8224850E-01
       -2   -1    0    0    0  501  0.00000000000E+00  0.00000000000E+00  0.14861436657E+04  0.14861436657E+04  0.25500000920E-02 0.  1.
        2   -1    0    0  501    0  0.00000000000E+00  0.00000000000E+00 -0.15823765557E+04  0.15823765557E+04  0.25500000920E-02 0. -1.
    10030    2    1    2    0    0  0.00000000000E+00  0.00000000000E+00 -0.96232889997E+02  0.30685202215E+04  0.30670108543E+04 0.  0.
        5    1    3    3  502    0 -0.10089540538E+04  0.10507675510E+04 -0.52743057500E+03  0.15492920417E+04  0.46999998093E+01 0.  1.
       -5    1    3    3    0  502  0.10089540538E+04 -0.10507675510E+04  0.43119768501E+03  0.15192281798E+04  0.46999998093E+01 0. -1.
</event>
<event>
 5   0  0.2517725E-06  0.3159514E+04  0.7818609E-02  0.8199592E-01
       -1   -1    0    0    0  501  0.00000000000E+00  0.00000000000E+00  0.17479742478E+04  0.17479742478E+04  0.50400001928E-02 0. -1.
        1   -1    0    0  501    0  0.00000000000E+00  0.00000000000E+00 -0.14277285004E+04  0.14277285004E+04  0.50400001928E-02 0.  1.
    10030    2    1    2    0    0  0.00000000000E+00  0.00000000000E+00  0.32024574741E+03  0.31757027482E+04  0.31595142991E+04 0.  0.
        3    1    3    3  502    0  0.41640178401E+03  0.14294880412E+04 -0.37060351638E+03  0.15343316076E+04  0.10100000352E+00 0.  1.
       -3    1    3    3    0  502 -0.41640178401E+03 -0.14294880412E+04  0.69084926379E+03  0.16413711406E+04  0.10100000352E+00 0. -1.
</event>
<event>
 5   0  0.7414808E-06  0.3055615E+04  0.7818609E-02  0.8228026E-01
       -2   -1    0    0    0  501  0.00000000000E+00  0.00000000000E+00  0.16686444571E+04  0.16686444571E+04  0.25500000920E-02 0.  1.
        2   -1    0    0  501    0  0.00000000000E+00  0.00000000000E+00 -0.13988572898E+04  0.13988572898E+04  0.25500000920E-02 0. -1.
    10030    2    1    2    0    0  0.00000000000E+00  0.00000000000E+00  0.26978716737E+03  0.30675017469E+04  0.30556148075E+04 0.  0.
        2    1    3    3  502    0 -0.20998137988E+03  0.11166126372E+04 -0.89049044817E+03  0.14435682179E+04  0.25500000920E-02 0. -1.
       -2    1    3    3    0  502  0.20998137988E+03 -0.11166126372E+04  0.11602776155E+04  0.16239335290E+04  0.25500000920E-02 0.  1.
</event>
<event>
 5   0  0.2624011E-06  0.3053124E+04  0.7818609E-02  0.8228722E-01
        1   -1    0    0  501    0  0.00000000000E+00  0.00000000000E+00  0.20071058416E+04  0.20071058416E+04  0.50400001928E-02 0. -1.
       -1   -1    0    0    0  501  0.00000000000E+00  0.00000000000E+00 -0.11610708151E+04  0.11610708152E+04  0.50400001928E-02 0.  1.
    10030    2    1    2    0    0  0.00000000000E+00  0.00000000000E+00  0.84603502649E+03  0.31681766568E+04  0.30531243117E+04 0.  0.
        1    1    3    3  502    0  0.14524036560E+04 -0.45325992992E+03  0.29394757566E+03  0.15496212832E+04  0.50400001928E-02 0. -1.
       -1    1    3    3    0  502 -0.14524036560E+04  0.45325992992E+03  0.55208745084E+03  0.16185553736E+04  0.50400001928E-02 0.  1.
</event>
<event>
 5   0  0.7094341E-06  0.3049337E+04  0.7818609E-02  0.8229781E-01
        2   -1    0    0  501    0  0.00000000000E+00  0.00000000000E+00  0.11866707785E+04  0.11866707785E+04  0.25500000920E-02 0. -1.
       -2   -1    0    0    0  501  0.00000000000E+00  0.00000000000E+00 -0.19589371345E+04  0.19589371345E+04  0.25500000920E-02 0.  1.
    10030    2    1    2    0    0  0.00000000000E+00  0.00000000000E+00 -0.77226635594E+03  0.31456079130E+04  0.30493366193E+04 0.  0.
        3    1    3    3  502    0 -0.29164275342E+03 -0.23403519716E+03 -0.19109006529E+04  0.19471438787E+04  0.10100000352E+00 0.  1.
       -3    1    3    3    0  502  0.29164275342E+03  0.23403519716E+03  0.11386342969E+04  0.11984640343E+04  0.10100000352E+00 0. -1.
</event>
<event>
 5   0  0.7414808E-06  0.3152561E+04  0.7818609E-02  0.8201459E-01
        2   -1    0    0  501    0  0.00000000000E+00  0.00000000000E+00  0.17107120900E+04  0.17107120900E+04  0.25500000920E-02 0. -1.
       -2   -1    0    0    0  501  0.00000000000E+00  0.00000000000E+00 -0.14524132688E+04  0.14524132688E+04  0.25500000920E-02 0.  1.
    10030    2    1    2    0    0  0.00000000000E+00  0.00000000000E+00  0.25829882116E+03  0.31631253588E+04  0.31525614593E+04 0.  0.
        2    1    3    3  502    0  0.17822437525E+03 -0.11581377140E+03 -0.14379691168E+04  0.14535927692E+04  0.25500000920E-02 0.  1.
       -2    1    3    3    0  502 -0.17822437525E+03  0.11581377140E+03  0.16962679380E+04  0.17095325897E+04  0.25500000920E-02 0. -1.
</event>
<event>
 5   0  0.2624011E-06  0.3071995E+04  0.7818609E-02  0.8223466E-01
        1   -1    0    0  501    0  0.00000000000E+00  0.00000000000E+00  0.28907389286E+04  0.28907389286E+04  0.50400001928E-02 0.  1.
       -1   -1    0    0    0  501  0.00000000000E+00  0.00000000000E+00 -0.81615401306E+03  0.81615401308E+03  0.50400001928E-02 0. -1.
    10030    2    1    2    0    0  0.00000000000E+00  0.00000000000E+00  0.20745849155E+04  0.37068929417E+04  0.30719949071E+04 0.  0.
        1    1    3    3  502    0  0.26091092080E+03  0.11853043797E+04  0.21732756075E+04  0.24892062685E+04  0.50400001928E-02 0.  1.
       -1    1    3    3    0  502 -0.26091092080E+03 -0.11853043797E+04 -0.98690691938E+02  0.12176866731E+04  0.50400001928E-02 0. -1.
</event>
<event>
 5   0  0.7079223E-06  0.3111134E+04  0.7818609E-02  0.8212689E-01
       -2   -1    0    0    0  501  0.00000000000E+00  0.00000000000E+00  0.10975045967E+04  0.10975045967E+04  0.25500000920E-02 0. -1.
        2   -1    0    0  501    0  0.00000000000E+00  0.00000000000E+00 -0.22048095759E+04  0.22048095759E+04  0.25500000920E-02 0.  1.
    10030    2    1    2    0    0  0.00000000000E+00  0.00000000000E+00 -0.11073049792E+04  0.33023141727E+04  0.31111339698E+04 0.  0.
        5    1    3    3  502    0 -0.46942480250E+03 -0.14505734429E+04 -0.22607234680E+03  0.15413155921E+04  0.46999998093E+01 0. -1.
       -5    1    3    3    0  502  0.46942480250E+03  0.14505734429E+04 -0.88123263239E+03  0.17609985806E+04  0.46999998093E+01 0.  1.
</event>
<event>
 5   0  0.7414808E-06  0.3020809E+04  0.7818609E-02  0.8237814E-01
       -2   -1    0    0    0  501  0.00000000000E+00  0.00000000000E+00  0.82592287756E+03  0.82592287756E+03  0.25500000920E-02 0. -1.
        2   -1    0    0  501    0  0.00000000000E+00  0.00000000000E+00 -0.27621486131E+04  0.27621486131E+04  0.25500000920E-02 0.  1.
    10030    2    1    2    0    0  0.00000000000E+00  0.00000000000E+00 -0.19362257355E+04  0.35880714906E+04  0.30208089849E+04 0.  0.
        2    1    3    3  502    0  0.21202292126E+03 -0.78740198224E+03  0.54199403921E+03  0.97913897855E+03  0.25500000920E-02 0. -1.
       -2    1    3    3    0  502 -0.21202292126E+03  0.78740198224E+03 -0.24782197747E+04  0.26089325121E+04  0.25500000920E-02 0.  1.
</event>
<event>
 5   0  0.7079223E-06  0.3121807E+04  0.7818609E-02  0.8209778E-01
       -2   -1    0    0    0  501  0.00000000000E+00  0.00000000000E+00  0.15707159044E+04  0.15707159044E+04  0.25500000920E-02 0.  1.
        2   -1    0    0  501    0  0.00000000000E+00  0.00000000000E+00 -0.15511527258E+04  0.15511527258E+04  0.25500000920E-02 0. -1.
    10030    2    1    2    0    0  0.00000000000E+00  0.00000000000E+00  0.19563178571E+02  0.31218686302E+04  0.31218073333E+04 0.  0.
        5    1    3    3  502    0 -0.14453640263E+04 -0.50834881489E+03 -0.28838945480E+03  0.15590658273E+04  0.46999998093E+01 0.  1.
       -5    1    3    3    0  502  0.14453640263E+04  0.50834881489E+03  0.30795263337E+03  0.15628028029E+04  0.46999998093E+01 0. -1.
</event>
<event>
 5   0  0.2624011E-06  0.3074036E+04  0.7818609E-02  0.8222900E-01
        1   -1    0    0  501    0  0.00000000000E+00  0.00000000000E+00  0.14156233974E+04  0.14156233974E+04  0.50400001928E-02 0. -1.
       -1   -1    0    0    0  501  0.00000000000E+00  0.00000000000E+00 -0.16688221148E+04  0.16688221148E+04  0.50400001928E-02 0.  1.
    10030    2    1    2    0    0  0.00000000000E+00  0.00000000000E+00 -0.25319871738E+03  0.30844455122E+04  0.30740355442E+04 0.  0.
        1    1    3    3  502    0  0.88276014146E+03 -0.11931906079E+04  0.27407023586E+03  0.15093322326E+04  0.50400001928E-02 0. -1.
       -1    1    3    3    0  502 -0.88276014146E+03  0.11931906079E+04 -0.52726895324E+03  0.15751132795E+04  0.50400001928E-02 0.  1.
</event>
<event>
 5   0  0.7363513E-06  0.3136902E+04  0.7818609E-02  0.8205683E-01
        2   -1    0    0  501    0  0.00000000000E+00  0.00000000000E+00  0.18682342787E+04  0.18682342787E+04  0.25500000920E-02 0. -1.
       -2   -1    0    0    0  501  0.00000000000E+00  0.00000000000E+00 -0.13167719187E+04  0.13167719187E+04  0.25500000920E-02 0.  1.
    10030    2    1    2    0    0  0.00000000000E+00  0.00000000000E+00  0.55146235998E+03  0.31850061974E+04  0.31369019339E+04 0.  0.
        4    1    3    3  502    0  0.15251115608E+03  0.32735845207E+03 -0.12739818606E+04  0.13241807289E+04  0.12699999809E+01 0.  1.
       -4    1    3    3    0  502 -0.15251115608E+03 -0.32735845207E+03  0.18254442205E+04  0.18608254685E+04  0.12699999809E+01 0. -1.
</event>
<event>
 5   0  0.7094341E-06  0.2687450E+04  0.7818609E-02  0.8339088E-01
        2   -1    0    0  501    0  0.00000000000E+00  0.00000000000E+00  0.20433178123E+04  0.20433178123E+04  0.25500000920E-02 0.  1.
       -2   -1    0    0    0  501  0.00000000000E+00  0.00000000000E+00 -0.88365948380E+03  0.88365948380E+03  0.25500000920E-02 0. -1.
    10030    2    1    2    0    0  0.00000000000E+00  0.00000000000E+00  0.11596583285E+04  0.29269772961E+04  0.26874502141E+04 0.  0.
        3    1    3    3  502    0 -0.25575212633E+03 -0.57117223254E+03  0.18749073729E+04  0.19765941760E+04  0.10100000352E+00 0.  1.
       -3    1    3    3    0  502  0.25575212633E+03  0.57117223254E+03 -0.71524904439E+03  0.95038312014E+03  0.10100000352E+00 0. -1.
</event>
<event>
 5   0  0.7079223E-06  0.2215882E+04  0.7818609E-02  0.8511847E-01
        2   -1    0    0  501    0  0.00000000000E+00  0.00000000000E+00  0.68257618089E+03  0.68257618089E+03  0.25500000920E-02 0.  1.
       -2   -1    0    0    0  501  0.00000000000E+00  0.00000000000E+00 -0.17983827863E+04  0.17983827863E+04  0.25500000920E-02 0. -1.
    10030    2    1    2    0    0  0.00000000000E+00  0.00000000000E+00 -0.11158066054E+04  0.24809589672E+04  0.22158819951E+04 0.  0.
        5    1    3    3  502    0  0.91132242983E+01  0.32899205232E+03  0.62657011300E+03  0.70776480405E+03  0.46999998093E+01 0.  1.
       -5    1    3    3    0  502 -0.91132242983E+01 -0.32899205232E+03 -0.17423767184E+04  0.17731941631E+04  0.46999998093E+01 0. -1.
</event>
<event>
 5   0  0.7094341E-06  0.1958165E+04  0.7818609E-02  0.8626434E-01
       -2   -1    0    0    0  501  0.00000000000E+00  0.00000000000E+00  0.61150618875E+03  0.61150618876E+03  0.25500000920E-02 0. -1.
        2   -1    0    0  501    0  0.00000000000E+00  0.00000000000E+00 -0.15676081083E+04  0.15676081083E+04  0.25500000920E-02 0.  1.
    10030    2    1    2    0    0  0.00000000000E+00  0.00000000000E+00 -0.95610191955E+03  0.21791142971E+04  0.19581645077E+04 0.  0.
        3    1    3    3  502    0 -0.43925736981E+03 -0.38874277478E+03  0.39432525757E+03  0.70679586928E+03  0.10100000352E+00 0. -1.
       -3    1    3    3    0  502  0.43925736981E+03  0.38874277478E+03 -0.13504271771E+04  0.14723184278E+04  0.10100000352E+00 0.  1.
</event>
<event>
 5   0  0.2517725E-06  0.3044607E+04  0.7818609E-02  0.8231106E-01
        1   -1    0    0  501    0  0.00000000000E+00  0.00000000000E+00  0.16594992861E+04  0.16594992861E+04  0.50400001928E-02 0. -1.
       -1   -1    0    0    0  501  0.00000000000E+00  0.00000000000E+00 -0.13964504875E+04  0.13964504875E+04  0.50400001928E-02 0.  1.
    10030    2    1    2    0    0  0.00000000000E+00  0.00000000000E+00  0.26304879860E+03  0.30559497737E+04  0.30446074211E+04 0.  0.
        3    1    3    3  502    0  0.13264488395E+04  0.67033591389E+03  0.46228476076E+03  0.15564459424E+04  0.10100000352E+00 0.  1.
       -3    1    3    3    0  502 -0.13264488395E+04 -0.67033591389E+03 -0.19923596216E+03  0.14995038313E+04  0.10100000352E+00 0. -1.
</event>
<event>
 5   0  0.2517725E-06  0.3100249E+04  0.7818609E-02  0.8215670E-01
       -1   -1    0    0    0  501  0.00000000000E+00  0.00000000000E+00  0.16533468068E+04  0.16533468068E+04  0.50400001928E-02 0.  1.
        1   -1    0    0  501    0  0.00000000000E+00  0.00000000000E+00 -0.14533468223E+04  0.14533468223E+04  0.50400001928E-02 0. -1.
    10030    2    1    2    0    0  0.00000000000E+00  0.00000000000E+00  0.19999998452E+03  0.31066936292E+04  0.31002492338E+04 0.  0.
        3    1    3    3  502    0 -0.89284107923E+03  0.26892033402E+03  0.13408805193E+04  0.16332311276E+04  0.10100000352E+00 0.  1.
       -3    1    3    3    0  502  0.89284107923E+03 -0.26892033402E+03 -0.11408805348E+04  0.14734625016E+04  0.10100000352E+00 0. -1.
</event>
<event>
 5   0  0.7363513E-06  0.2902440E+04  0.7818609E-02  0.8272152E-01
        2   -1    0    0  501    0  0.00000000000E+00  0.00000000000E+00  0.14304807739E+04  0.14304807739E+04  0.25500000920E-02 0. -1.
       -2   -1    0    0    0  501  0.00000000000E+00  0.00000000000E+00 -0.14722594670E+04  0.14722594670E+04  0.25500000920E-02 0.  1.
    10030    2    1    2    0    0  0.00000000000E+00  0.00000000000E+00 -0.41778693038E+02  0.29027402409E+04  0.29024395682E+04 0.  0.
        4    1    3    3  502    0  0.14039542513E+04  0.40053021052E+02  0.34431346463E+03  0.14461138126E+04  0.12699999809E+01 0. -1.
       -4    1    3    3    0  502 -0.14039542513E+04 -0.40053021052E+02 -0.38609215767E+03  0.14566264282E+04  0.12699999809E+01 0.  1.
</event>
<event>
 5   0  0.2674441E-06  0.3134287E+04  0.7818609E-02  0.8206391E-01
       -1   -1    0    0    0  501  0.00000000000E+00  0.00000000000E+00  0.11418078421E+04  0.11418078422E+04  0.50400001928E-02 0.  1.
        1   -1    0    0  501    0  0.00000000000E+00  0.00000000000E+00 -0.21509214867E+04  0.21509214867E+04  0.50400001928E-02 0. -1.
    10030    2    1    2    0    0  0.00000000000E+00  0.00000000000E+00 -0.10091136445E+04  0.32927293289E+04  0.31342871734E+04 0.  0.
        5    1    3    3  502    0  0.59762063370E+03  0.12110630498E+04  0.33067622196E+03  0.13903931049E+04  0.46999998093E+01 0.  1.
       -5    1    3    3    0  502 -0.59762063370E+03 -0.12110630498E+04 -0.13397898665E+04  0.19023362239E+04  0.46999998093E+01 0. -1.
</event>
<event>
 5   0  0.2393250E-06  0.3115786E+04  0.7818609E-02  0.8211419E-01
       -3   -1    0    0    0  501  0.00000000000E+00  0.00000000000E+00  0.90221200518E+03  0.90221201083E+03  0.10100000352E+00 0.  1.
        3   -1    0    0  501    0  0.00000000000E+00  0.00000000000E+00 -0.26900885650E+04  0.26900885669E+04  0.10100000352E+00 0. -1.
    10030    2    1    2    0    0  0.00000000000E+00  0.00000000000E+00 -0.17878765598E+04  0.35923005777E+04  0.31157857512E+04 0.  0.
        1    1    3    3  502    0  0.77522944207E+03  0.17061166564E+03 -0.24394489664E+04  0.25653460367E+04  0.50400001928E-02 0. -1.
       -1    1    3    3    0  502 -0.77522944207E+03 -0.17061166564E+03  0.65157240658E+03  0.10269545410E+04  0.50400001928E-02 0.  1.
</event>
<event>
 5   0  0.2517725E-06  0.3106099E+04  0.7818609E-02  0.8214066E-01
        1   -1    0    0  501    0  0.00000000000E+00  0.00000000000E+00  0.13750271709E+04  0.13750271709E+04  0.50400001928E-02 0.  1.
       -1   -1    0    0    0  501  0.00000000000E+00  0.00000000000E+00 -0.17541201437E+04  0.17541201437E+04  0.50400001928E-02 0. -1.
    10030    2    1    2    0    0  0.00000000000E+00  0.00000000000E+00 -0.37909297273E+03  0.31291473146E+04  0.31060990703E+04 0.  0.
        3    1    3    3  502    0  0.34553046028E+03  0.68950330213E+03  0.11684758124E+04  0.14000506552E+04  0.10100000352E+00 0.  1.
       -3    1    3    3    0  502 -0.34553046028E+03 -0.68950330213E+03 -0.15475687852E+04  0.17290966594E+04  0.10100000352E+00 0. -1.
</event>
<event>
 5   0  0.2393250E-06  0.2927305E+04  0.7818609E-02  0.8264799E-01
        3   -1    0    0  501    0  0.00000000000E+00  0.00000000000E+00  0.18961738680E+04  0.18961738707E+04  0.10100000352E+00 0. -1.
       -3   -1    0    0    0  501  0.00000000000E+00  0.00000000000E+00 -0.11297904715E+04  0.11297904760E+04  0.10100000352E+00 0.  1.
    10030    2    1    2    0    0  0.00000000000E+00  0.00000000000E+00  0.76638339654E+03  0.30259643467E+04  0.29273053679E+04 0.  0.
        2    1    3    3  502    0  0.23097070078E+03 -0.47435134379E+03 -0.10280769868E+04  0.11555513631E+04  0.25500000920E-02 0.  1.
       -2    1    3    3    0  502 -0.23097070078E+03  0.47435134379E+03  0.17944603833E+04  0.18704129836E+04  0.25500000920E-02 0. -1.
</event>
<event>
 5   0  0.2517725E-06  0.2882179E+04  0.7818609E-02  0.8278199E-01
       -1   -1    0    0    0  501  0.00000000000E+00  0.00000000000E+00  0.16890618597E+04  0.16890618597E+04  0.50400001928E-02 0.  1.
        1   -1    0    0  501    0  0.00000000000E+00  0.00000000000E+00 -0.12295223420E+04  0.12295223420E+04  0.50400001928E-02 0. -1.
    10030    2    1    2    0    0  0.00000000000E+00  0.00000000000E+00  0.45953951769E+03  0.29185842017E+04  0.28821792405E+04 0.  0.
        3    1    3    3  502    0  0.95712863984E+03  0.65208458706E+03  0.10981738007E+04  0.15960248271E+04  0.10100000352E+00 0.  1.
       -3    1    3    3    0  502 -0.95712863984E+03 -0.65208458706E+03 -0.63863428297E+03  0.13225593747E+04  0.10100000352E+00 0. -1.
</event>
<event>
 5   0  0.7071012E-06  0.2844312E+04  0.7818609E-02  0.8289642E-01
       -2   -1    0    0    0  501  0.00000000000E+00  0.00000000000E+00  0.28931933199E+04  0.28931933199E+04  0.25500000920E-02 0. -1.
        2   -1    0    0  501    0  0.00000000000E+00  0.00000000000E+00 -0.69906427353E+03  0.69906427353E+03  0.25500000920E-02 0.  1.
    10030    2    1    2    0    0  0.00000000000E+00  0.00000000000E+00  0.21941290464E+04  0.35922575934E+04  0.28443122799E+04 0.  0.
        1    1    3    3  502    0  0.44944150094E+01  0.94183649800E+03  0.24428460588E+04  0.26181239573E+04  0.50400001928E-02 0. -1.
       -1    1    3    3    0  502 -0.44944150094E+01 -0.94183649800E+03 -0.24871701244E+03  0.97413363613E+03  0.50400001928E-02 0.  1.
</event>
<event>
 5   0  0.2598987E-06  0.3104691E+04  0.7818609E-02  0.8214452E-01
       -1   -1    0    0    0  501  0.00000000000E+00  0.00000000000E+00  0.16824280642E+04  0.16824280642E+04  0.50400001928E-02 0.  1.
        1   -1    0    0  501    0  0.00000000000E+00  0.00000000000E+00 -0.14323203693E+04  0.14323203693E+04  0.50400001928E-02 0. -1.
    10030    2    1    2    0    0  0.00000000000E+00  0.00000000000E+00  0.25010769494E+03  0.31147484335E+04  0.31046906359E+04 0.  0.
        2    1    3    3  502    0  0.25681677859E+03  0.13859077231E+04 -0.52750000804E+03  0.15049755258E+04  0.25500000920E-02 0. -1.
       -2    1    3    3    0  502 -0.25681677859E+03 -0.13859077231E+04  0.77760770297E+03  0.16097729077E+04  0.25500000920E-02 0.  1.
</event>
<event>
 5   0  0.2517725E-06  0.3117859E+04  0.7818609E-02  0.8210854E-01
       -1   -1    0    0    0  501  0.00000000000E+00  0.00000000000E+00  0.13025462791E+04  0.13025462791E+04  0.50400001928E-02 0. -1.
        1   -1    0    0  501    0  0.00000000000E+00  0.00000000000E+00 -0.18657766889E+04  0.18657766889E+04  0.50400001928E-02 0.  1.
    10030    2    1    2    0    0  0.00000000000E+00  0.00000000000E+00 -0.56323040987E+03  0.31683229680E+04  0.31178585495E+04 0.  0.
        3    1    3    3  502    0  0.13808066766E+04 -0.49975919576E+03  0.25018506342E+03  0.14896237471E+04  0.10100000352E+00 0.  1.
       -3    1    3    3    0  502 -0.13808066766E+04  0.49975919576E+03 -0.81341547328E+03  0.16786992209E+04  0.10100000352E+00 0. -1.
</event>
<event>
 5   0  0.2598987E-06  0.3101163E+04  0.7818609E-02  0.8215419E-01
        1   -1    0    0  501    0  0.00000000000E+00  0.00000000000E+00  0.16731550726E+04  0.16731550726E+04  0.50400001928E-02 0.  1.
       -1   -1    0    0    0  501  0.00000000000E+00  0.00000000000E+00 -0.14369879330E+04  0.14369879330E+04  0.50400001928E-02 0. -1.
    10030    2    1    2    0    0  0.00000000000E+00  0.00000000000E+00  0.23616713953E+03  0.31101430056E+04  0.31011634265E+04 0.  0.
        2    1    3    3  502    0 -0.29849486415E+03 -0.64296475584E+03  0.15011346384E+04  0.16600927877E+04  0.25500000920E-02 0.  1.
       -2    1    3    3    0  502  0.29849486415E+03  0.64296475584E+03 -0.12649674989E+04  0.14500502179E+04  0.25500000920E-02 0. -1.
</event>
<event>
 5   0  0.2517725E-06  0.3134483E+04  0.7818609E-02  0.8206338E-01
        1   -1    0    0  501    0  0.00000000000E+00  0.00000000000E+00  0.15058622564E+04  0.15058622564E+04  0.50400001928E-02 0.  1.
       -1   -1    0    0    0  501  0.00000000000E+00  0.00000000000E+00 -0.16311227797E+04  0.16311227797E+04  0.50400001928E-02 0. -1.
    10030    2    1    2    0    0  0.00000000000E+00  0.00000000000E+00 -0.12526052328E+03  0.31369850361E+04  0.31344831979E+04 0.  0.
        3    1    3    3  502    0  0.89774482382E+03 -0.12516594597E+04 -0.35208255894E+03  0.15800504139E+04  0.10100000352E+00 0. -1.
       -3    1    3    3    0  502 -0.89774482382E+03  0.12516594597E+04  0.22682203566E+03  0.15569346222E+04  0.10100000352E+00 0.  1.
</event>
<event>
 5   0  0.7079223E-06  0.3140436E+04  0.7818609E-02  0.8204727E-01
       -2   -1    0    0    0  501  0.00000000000E+00  0.00000000000E+00  0.11978616298E+04  0.11978616298E+04  0.25500000920E-02 0.  1.
        2   -1    0    0  501    0  0.00000000000E+00  0.00000000000E+00 -0.20583213558E+04  0.20583213558E+04  0.25500000920E-02 0. -1.
    10030    2    1    2    0    0  0.00000000000E+00  0.00000000000E+00 -0.86045972598E+03  0.32561829856E+04  0.31404357493E+04 0.  0.
        5    1    3    3  502    0  0.12436738159E+04 -0.94479024921E+03 -0.26237135563E+03  0.15837341929E+04  0.46999998093E+01 0.  1.
       -5    1    3    3    0  502 -0.12436738159E+04  0.94479024921E+03 -0.59808837035E+03  0.16724487927E+04  0.46999998093E+01 0. -1.
</event>
<event>
 5   0  0.7071012E-06  0.3128665E+04  0.7818609E-02  0.8207915E-01
       -2   -1    0    0    0  501  0.00000000000E+00  0.00000000000E+00  0.17457763695E+04  0.17457763695E+04  0.25500000920E-02 0. -1.
        2   -1    0    0  501    0  0.00000000000E+00  0.00000000000E+00 -0.14017466017E+04  0.14017466017E+04  0.25500000920E-02 0.  1.
    10030    2    1    2    0    0  0.00000000000E+00  0.00000000000E+00  0.34402976772E+03  0.31475229712E+04  0.31286649506E+04 0.  0.
        1    1    3    3  502    0  0.98739853656E+03 -0.27340578291E+03 -0.10172396208E+04  0.14437738875E+04  0.50400001928E-02 0.  1.
       -1    1    3    3    0  502 -0.98739853656E+03  0.27340578291E+03  0.13612693885E+04  0.17037490837E+04  0.50400001928E-02 0. -1.
</event>
<event>
 5   0  0.2624011E-06  0.3076223E+04  0.7818609E-02  0.8222294E-01
       -1   -1    0    0    0  501  0.00000000000E+00  0.00000000000E+00  0.13012778603E+04  0.13012778603E+04  0.50400001928E-02 0.  1.
        1   -1    0    0  501    0  0.00000000000E+00  0.00000000000E+00 -0.18180487428E+04  0.18180487428E+04  0.50400001928E-02 0. -1.
    10030    2    1    2    0    0  0.00000000000E+00  0.00000000000E+00 -0.51677088254E+03  0.31193266031E+04  0.30762227344E+04 0.  0.
        1    1    3    3  502    0 -0.60835913898E+03  0.44346397376E+03 -0.16184568907E+04  0.17849828697E+04  0.50400001928E-02 0. -1.
       -1    1    3    3    0  502  0.60835913898E+03 -0.44346397376E+03  0.11016860082E+04  0.13343437333E+04  0.50400001928E-02 0.  1.
</event>
<event>
 5   0  0.7414808E-06  0.3205717E+04  0.7818609E-02  0.8187309E-01
        2   -1    0    0  501    0  0.00000000000E+00  0.00000000000E+00  0.20530698655E+04  0.20530698655E+04  0.25500000920E-02 0.  1.
       -2   -1    0    0    0  501  0.00000000000E+00  0.00000000000E+00 -0.12513724923E+04  0.12513724923E+04  0.25500000920E-02 0. -1.
    10030    2    1    2    0    0  0.00000000000E+00  0.00000000000E+00  0.80169737328E+03  0.33044423578E+04  0.32057168649E+04 0.  0.
        2    1    3    3  502    0 -0.10108653622E+03 -0.15300116478E+03 -0.12405238588E+04  0.12540045009E+04  0.25500000920E-02 0. -1.
       -2    1    3    3    0  502  0.10108653622E+03  0.15300116478E+03  0.20422212320E+04  0.20504378568E+04  0.25500000920E-02 0.  1.
</event>
<event>
 5   0  0.7079223E-06  0.3146751E+04  0.7818609E-02  0.8203023E-01
       -2   -1    0    0    0  501  0.00000000000E+00  0.00000000000E+00  0.74715735688E+03  0.74715735688E+03  0.25500000920E-02 0. -1.
        2   -1    0    0  501    0  0.00000000000E+00  0.00000000000E+00 -0.33132378887E+04  0.33132378887E+04  0.25500000920E-02 0.  1.
    10030    2    1    2    0    0  0.00000000000E+00  0.00000000000E+00 -0.25660805319E+04  0.40603952456E+04  0.31467507456E+04 0.  0.
        5    1    3    3  502    0 -0.91952529366E+03 -0.10239956996E+04 -0.29916227583E+03  0.14084083626E+04  0.46999998093E+01 0. -1.
       -5    1    3    3    0  502  0.91952529366E+03  0.10239956996E+04 -0.22669182560E+04  0.26519868831E+04  0.46999998093E+01 0.  1.
</event>
<event>
 5   0  0.2598987E-06  0.3079203E+04  0.7818609E-02  0.8221469E-01
        1   -1    0    0  501    0  0.00000000000E+00  0.00000000000E+00  0.18133905302E+04  0.18133905302E+04  0.50400001928E-02 0. -1.
       -1   -1    0    0    0  501  0.00000000000E+00  0.00000000000E+00 -0.13071497925E+04  0.13071497925E+04  0.50400001928E-02 0.  1.
    10030    2    1    2    0    0  0.00000000000E+00  0.00000000000E+00  0.50624073770E+03  0.31205403227E+04  0.30792031796E+04 0.  0.
        2    1    3    3  502    0 -0.82641810661E+03 -0.11254031856E+04 -0.40433672767E+03  0.14536118486E+04  0.25500000920E-02 0.  1.
       -2    1    3    3    0  502  0.82641810661E+03  0.11254031856E+04  0.91057746537E+03  0.16669284740E+04  0.25500000920E-02 0. -1.
</event>
<event>
 5   0  0.7414808E-06  0.3137176E+04  0.7818609E-02  0.8205609E-01
        2   -1    0    0  501    0  0.00000000000E+00  0.00000000000E+00  0.19001060778E+04  0.19001060778E+04  0.25500000920E-02 0. -1.
       -2   -1    0    0    0  501  0.00000000000E+00  0.00000000000E+00 -0.12949110398E+04  0.12949110398E+04  0.25500000920E-02 0.  1.
    10030    2    1    2    0    0  0.00000000000E+00  0.00000000000E+00  0.60519503805E+03  0.31950171176E+04  0.31371760147E+04 0.  0.
        2    1    3    3  502    0  0.11641467975E+04  0.33217164174E+03 -0.71323566867E+03  0.14050910593E+04  0.25500000920E-02 0.  1.
       -2    1    3    3    0  502 -0.11641467975E+04 -0.33217164174E+03  0.13184307067E+04  0.17899260583E+04  0.25500000920E-02 0. -1.
</event>
<event>
 5   0  0.7094341E-06  0.3108931E+04  0.7818609E-02  0.8213291E-01
        2   -1    0    0  501    0  0.00000000000E+00  0.00000000000E+00  0.16988492589E+04  0.16988492589E+04  0.25500000920E-02 0. -1.
       -2   -1    0    0    0  501  0.00000000000E+00  0.00000000000E+00 -0.14223528212E+04  0.14223528212E+04  0.25500000920E-02 0.  1.
    10030    2    1    2    0    0  0.00000000000E+00  0.00000000000E+00  0.27649643767E+03  0.31212020801E+04  0.31089310293E+04 0.  0.
        3    1    3    3  502    0 -0.50714536800E+03 -0.19885119894E+03 -0.13233913670E+04  0.14311194723E+04  0.10100000352E+00 0.  1.
       -3    1    3    3    0  502  0.50714536800E+03  0.19885119894E+03  0.15998878047E+04  0.16900826078E+04  0.10100000352E+00 0. -1.
</event>
<event>
 5   0  0.2674441E-06  0.2501659E+04  0.7818609E-02  0.8402395E-01
        1   -1    0    0  501    0  0.00000000000E+00  0.00000000000E+00  0.17782940926E+04  0.17782940927E+04  0.50400001928E-02 0.  1.
       -1   -1    0    0    0  501  0.00000000000E+00  0.00000000000E+00 -0.87981743891E+03  0.87981743892E+03  0.50400001928E-02 0. -1.
    10030    2    1    2    0    0  0.00000000000E+00  0.00000000000E+00  0.89847665374E+03  0.26581115316E+04  0.25016587731E+04 0.  0.
        5    1    3    3  502    0  0.42257420127E+03 -0.10514055501E+04  0.10120127867E+04  0.15192809341E+04  0.46999998093E+01 0.  1.
       -5    1    3    3    0  502 -0.42257420127E+03  0.10514055501E+04 -0.11353613291E+03  0.11388305975E+04  0.46999998093E+01 0. -1.
</event>
<event>
 5   0  0.2674441E-06  0.3088671E+04  0.7818609E-02  0.8218854E-01
       -1   -1    0    0    0  501  0.00000000000E+00  0.00000000000E+00  0.93090767128E+03  0.93090767130E+03  0.50400001928E-02 0. -1.
        1   -1    0    0  501    0  0.00000000000E+00  0.00000000000E+00 -0.25619854447E+04  0.25619854447E+04  0.50400001928E-02 0.  1.
    10030    2    1    2    0    0  0.00000000000E+00  0.00000000000E+00 -0.16310777734E+04  0.34928931160E+04  0.30886708495E+04 0.  0.
        5    1    3    3  502    0 -0.36149906975E+03 -0.89184806697E+03  0.55037319678E+03  0.11086060156E+04  0.46999998093E+01 0. -1.
       -5    1    3    3    0  502  0.36149906975E+03  0.89184806697E+03 -0.21814509702E+04  0.23842871004E+04  0.46999998093E+01 0.  1.
</event>
<event>
 5   0  0.7071012E-06  0.3094940E+04  0.7818609E-02  0.8217128E-01
        2   -1    0    0  501    0  0.00000000000E+00  0.00000000000E+00  0.20460754960E+04  0.20460754960E+04  0.25500000920E-02 0.  1.
       -2   -1    0    0    0  501  0.00000000000E+00  0.00000000000E+00 -0.11703688225E+04  0.11703688225E+04  0.25500000920E-02 0. -1.
    10030    2    1    2    0    0  0.00000000000E+00  0.00000000000E+00  0.87570667351E+03  0.32164443186E+04  0.30949397210E+04 0.  0.
        1    1    3    3  502    0  0.66958321643E+03 -0.48183523405E+03  0.17985114826E+04  0.19786739068E+04  0.50400001928E-02 0.  1.
       -1    1    3    3    0  502 -0.66958321643E+03  0.48183523405E+03 -0.92280480910E+03  0.12377704118E+04  0.50400001928E-02 0. -1.
</event>
<event>
 5   0  0.2612331E-06  0.2085976E+04  0.7818609E-02  0.8567446E-01
       -1   -1    0    0    0  501  0.00000000000E+00  0.00000000000E+00  0.12249096249E+04  0.12249096249E+04  0.50400001928E-02 0.  1.
        1   -1    0    0  501    0  0.00000000000E+00  0.00000000000E+00 -0.88808528202E+03  0.88808528203E+03  0.50400001928E-02 0. -1.
    10030    2    1    2    0    0  0.00000000000E+00  0.00000000000E+00  0.33682434284E+03  0.21129949069E+04  0.20859762316E+04 0.  0.
        4    1    3    3  502    0  0.50032430775E+03  0.16187271374E+03 -0.74397380967E+03  0.91105753427E+03  0.12699999809E+01 0. -1.
       -4    1    3    3    0  502 -0.50032430775E+03 -0.16187271374E+03  0.10807981525E+04  0.12019373726E+04  0.12699999809E+01 0.  1.
</event>
<event>
 5   0  0.2598987E-06  0.2902758E+04  0.7818609E-02  0.8272057E-01
       -1   -1    0    0    0  501  0.00000000000E+00  0.00000000000E+00  0.12576347793E+04  0.12576347793E+04  0.50400001928E-02 0. -1.
        1   -1    0    0  501    0  0.00000000000E+00  0.00000000000E+00 -0.16749700967E+04  0.16749700967E+04  0.50400001928E-02 0.  1.
    10030    2    1    2    0    0  0.00000000000E+00  0.00000000000E+00 -0.41733531739E+03  0.29326048760E+04  0.29027577563E+04 0.  0.
        2    1    3    3  502    0 -0.14079963143E+04 -0.30925862570E+03 -0.37894183468E+03  0.14905339422E+04  0.25500000920E-02 0. -1.
       -2    1    3    3    0  502  0.14079963143E+04  0.30925862570E+03 -0.38393482709E+02  0.14420709338E+04  0.25500000920E-02 0.  1.
</event>
<event>
 5   0  0.7363513E-06  0.2068480E+04  0.7818609E-02  0.8575257E-01
       -2   -1    0    0    0  501  0.00000000000E+00  0.00000000000E+00  0.94889228501E+03  0.94889228502E+03  0.25500000920E-02 0.  1.
        2   -1    0    0  501    0  0.00000000000E+00  0.00000000000E+00 -0.11272640450E+04  0.11272640450E+04  0.25500000920E-02 0. -1.
    10030    2    1    2    0    0  0.00000000000E+00  0.00000000000E+00 -0.17837175995E+03  0.20761563300E+04  0.20684797852E+04 0.  0.
        4    1    3    3  502    0 -0.99769952624E+03 -0.20521424601E+03 -0.26910880814E+03  0.10535361384E+04  0.12699999809E+01 0.  1.
       -4    1    3    3    0  502  0.99769952624E+03  0.20521424601E+03  0.90737048185E+02  0.10226201916E+04  0.12699999809E+01 0. -1.
</event>
<event>
 5   0  0.7414808E-06  0.3073849E+04  0.7818609E-02  0.8222952E-01
       -2   -1    0    0    0  501  0.00000000000E+00  0.00000000000E+00  0.13713979377E+04  0.13713979377E+04  0.25500000920E-02 0.  1.
        2   -1    0    0  501    0  0.00000000000E+00  0.00000000000E+00 -0.17224304906E+04  0.17224304906E+04  0.25500000920E-02 0. -1.
    10030    2    1    2    0    0  0.00000000000E+00  0.00000000000E+00 -0.35103255290E+03  0.30938284284E+04  0.30738494581E+04 0.  0.
        2    1    3    3  502    0  0.43931691453E+03  0.19831902914E+03 -0.16443879026E+04  0.17135756076E+04  0.25500000920E-02 0. -1.
       -2    1    3    3    0  502 -0.43931691453E+03 -0.19831902914E+03  0.12933553497E+04  0.13802528208E+04  0.25500000920E-02 0.  1.
</event>
<event>
 5   0  0.7094341E-06  0.3176985E+04  0.7818609E-02  0.8194922E-01
       -2   -1    0    0    0  501  0.00000000000E+00  0.00000000000E+00  0.13719254702E+04  0.13719254702E+04  0.25500000920E-02 0. -1.
        2   -1    0    0  501    0  0.00000000000E+00  0.00000000000E+00 -0.18392454294E+04  0.18392454294E+04  0.25500000920E-02 0.  1.
    10030    2    1    2    0    0  0.00000000000E+00  0.00000000000E+00 -0.46731995920E+03  0.32111708996E+04  0.31769845139E+04 0.  0.
        3    1    3    3  502    0 -0.90505045920E+03  0.13560227359E+03 -0.15460163244E+04  0.17965719568E+04  0.10100000352E+00 0.  1.
       -3    1    3    3    0  502  0.90505045920E+03 -0.13560227359E+03  0.10786963652E+04  0.14145989428E+04  0.10100000352E+00 0. -1.
</event>
<event>
 5   0  0.2393250E-06  0.2192279E+04  0.7818609E-02  0.8521649E-01
       -4   -1    0    0    0  501  0.00000000000E+00  0.00000000000E+00  0.76938330068E+03  0.76938434886E+03  0.12699999809E+01 0. -1.
        4   -1    0    0  501    0  0.00000000000E+00  0.00000000000E+00 -0.15616667271E+04  0.15616672435E+04  0.12699999809E+01 0.  1.
    10030    2    1    2    0    0  0.00000000000E+00  0.00000000000E+00 -0.79228342644E+03  0.23310515924E+04  0.21922792930E+04 0.  0.
        3    1    3    3  502    0 -0.49060888796E+03 -0.90389974757E+03 -0.79934194063E+03  0.13025664601E+04  0.10100000352E+00 0.  1.
       -3    1    3    3    0  502  0.49060888796E+03  0.90389974757E+03  0.70585141929E+01  0.10284851323E+04  0.10100000352E+00 0. -1.
</event>
<event>
 5   0  0.7363513E-06  0.3063004E+04  0.7818609E-02  0.8225965E-01
        2   -1    0    0  501    0  0.00000000000E+00  0.00000000000E+00  0.20359949747E+04  0.20359949747E+04  0.25500000920E-02 0.  1.
       -2   -1    0    0    0  501  0.00000000000E+00  0.00000000000E+00 -0.11520161075E+04  0.11520161075E+04  0.25500000920E-02 0. -1.
    10030    2    1    2    0    0  0.00000000000E+00  0.00000000000E+00  0.88397886727E+03  0.31880110822E+04  0.30630044111E+04 0.  0.
        4    1    3    3  502    0 -0.14265726388E+04  0.55458460346E+03  0.38668111755E+03  0.15786695271E+04  0.12699999809E+01 0. -1.
       -4    1    3    3    0  502  0.14265726388E+04 -0.55458460346E+03  0.49729774972E+03  0.16093415551E+04  0.12699999809E+01 0.  1.
</event>
<event>
 5   0  0.7094341E-06  0.3059312E+04  0.7818609E-02  0.8226994E-01
       -2   -1    0    0    0  501  0.00000000000E+00  0.00000000000E+00  0.11143432872E+04  0.11143432872E+04  0.25500000920E-02 0.  1.
        2   -1    0    0  501    0  0.00000000000E+00  0.00000000000E+00 -0.20997546374E+04  0.20997546374E+04  0.25500000920E-02 0. -1.
    10030    2    1    2    0    0  0.00000000000E+00  0.00000000000E+00 -0.98541135021E+03  0.32140979246E+04  0.30593120043E+04 0.  0.
        3    1    3    3  502    0  0.14802516595E+04  0.11304488376E+03 -0.10537457066E+03  0.14882969903E+04  0.10100000352E+00 0.  1.
       -3    1    3    3    0  502 -0.14802516595E+04 -0.11304488376E+03 -0.88003677954E+03  0.17258009342E+04  0.10100000352E+00 0. -1.
</event>
<event>
 5   0  0.2517725E-06  0.3031140E+04  0.7818609E-02  0.8234894E-01
       -1   -1    0    0    0  501  0.00000000000E+00  0.00000000000E+00  0.94405435016E+03  0.94405435017E+03  0.50400001928E-02 0.  1.
        1   -1    0    0  501    0  0.00000000000E+00  0.00000000000E+00 -0.24330719835E+04  0.24330719835E+04  0.50400001928E-02 0. -1.
    10030    2    1    2    0    0  0.00000000000E+00  0.00000000000E+00 -0.14890176334E+04  0.33771263337E+04  0.30311398452E+04 0.  0.
        3    1    3    3  502    0 -0.95498881744E+03 -0.47632443116E+03  0.45445902480E+03  0.11599231098E+04  0.10100000352E+00 0.  1.
       -3    1    3    3    0  502  0.95498881744E+03  0.47632443116E+03 -0.19434766582E+04  0.22172032239E+04  0.10100000352E+00 0. -1.
</event>
<event>
 5   0  0.7094341E-06  0.3140089E+04  0.7818609E-02  0.8204821E-01
        2   -1    0    0  501    0  0.00000000000E+00  0.00000000000E+00  0.20479392643E+04  0.20479392643E+04  0.25500000920E-02 0. -1.
       -2   -1    0    0    0  501  0.00000000000E+00  0.00000000000E+00 -0.12036686427E+04  0.12036686427E+04  0.25500000920E-02 0.  1.
    10030    2    1    2    0    0  0.00000000000E+00  0.00000000000E+00  0.84427062156E+03  0.32516079070E+04  0.31400893456E+04 0.  0.
        3    1    3    3  502    0  0.61609384241E+03 -0.12242344588E+04 -0.37104350301E+03  0.14198573605E+04  0.10100000352E+00 0.  1.
       -3    1    3    3    0  502 -0.61609384241E+03  0.12242344588E+04  0.12153141246E+04  0.18317505465E+04  0.10100000352E+00 0. -1.
</event>
<event>
 5   0  0.2598987E-06  0.3146215E+04  0.7818609E-02  0.8203168E-01
        1   -1    0    0  501    0  0.00000000000E+00  0.00000000000E+00  0.21675557893E+04  0.21675557894E+04  0.50400001928E-02 0. -1.
       -1   -1    0    0    0  501  0.00000000000E+00  0.00000000000E+00 -0.11416857272E+04  0.11416857272E+04  0.50400001928E-02 0.  1.
    10030    2    1    2    0    0  0.00000000000E+00  0.00000000000E+00  0.10258700622E+04  0.33092415165E+04  0.31462151913E+04 0.  0.
        2    1    3    3  502    0 -0.13931795074E+04 -0.87743421983E+02  0.12757881845E+04  0.18911064327E+04  0.25500000920E-02 0. -1.
       -2    1    3    3    0  502  0.13931795074E+04  0.87743421983E+02 -0.24991812232E+03  0.14181350838E+04  0.25500000920E-02 0.  1.
</event>
<event>
 5   0  0.2624011E-06  0.3036926E+04  0.7818609E-02  0.8233264E-01
        1   -1    0    0  501    0  0.00000000000E+00  0.00000000000E+00  0.19265050772E+04  0.19265050772E+04  0.50400001928E-02 0. -1.
       -1   -1    0    0    0  501  0.00000000000E+00  0.00000000000E+00 -0.11968457725E+04  0.11968457725E+04  0.50400001928E-02 0.  1.
    10030    2    1    2    0    0  0.00000000000E+00  0.00000000000E+00  0.72965930463E+03  0.31233508497E+04  0.30369257201E+04 0.  0.
        1    1    3    3  502    0  0.62171549595E+03  0.24181728580E+02  0.17893887421E+04  0.18944727457E+04  0.50400001928E-02 0. -1.
       -1    1    3    3    0  502 -0.62171549595E+03 -0.24181728580E+02 -0.10597294375E+04  0.12288781040E+04  0.50400001928E-02 0.  1.
</event>
<event>
 5   0  0.7363513E-06  0.2954991E+04  0.7818609E-02  0.8256701E-01
        2   -1    0    0  501    0  0.00000000000E+00  0.00000000000E+00  0.13997933753E+04  0.13997933753E+04  0.25500000920E-02 0.  1.
       -2   -1    0    0    0  501  0.00000000000E+00  0.00000000000E+00 -0.15595111432E+04  0.15595111432E+04  0.25500000920E-02 0. -1.
    10030    2    1    2    0    0  0.00000000000E+00  0.00000000000E+00 -0.15971776795E+03  0.29593045185E+04  0.29549912805E+04 0.  0.
        4    1    3    3  502    0 -0.37295143285E+03  0.12068273292E+04  0.68772369645E+03  0.14382247631E+04  0.12699999809E+01 0.  1.
       -4    1    3    3    0  502  0.37295143285E+03 -0.12068273292E+04 -0.84744146440E+03  0.15210797554E+04  0.12699999809E+01 0. -1.
</event>
<event>
 5   0  0.7363513E-06  0.3111246E+04  0.7818609E-02  0.8212658E-01
        2   -1    0    0  501    0  0.00000000000E+00  0.00000000000E+00  0.15633775808E+04  0.15633775808E+04  0.25500000920E-02 0. -1.
       -2   -1    0    0    0  501  0.00000000000E+00  0.00000000000E+00 -0.15479072486E+04  0.15479072486E+04  0.25500000920E-02 0.  1.
    10030    2    1    2    0    0  0.00000000000E+00  0.00000000000E+00  0.15470332247E+02  0.31112848294E+04  0.31112463674E+04 0.  0.
        4    1    3    3  502    0  0.18027240709E+03 -0.71536807887E+03 -0.13618482100E+04  0.15488323954E+04  0.12699999809E+01 0.  1.
       -4    1    3    3    0  502 -0.18027240709E+03  0.71536807887E+03  0.13773185422E+04  0.15624524340E+04  0.12699999809E+01 0. -1.
</event>
<event>
 5   0  0.7363513E-06  0.3073508E+04  0.7818609E-02  0.8223046E-01
        2   -1    0    0  501    0  0.00000000000E+00  0.00000000000E+00  0.16698401292E+04  0.16698401292E+04  0.25500000920E-02 0. -1.
       -2   -1    0    0    0  501  0.00000000000E+00  0.00000000000E+00 -0.14142744845E+04  0.14142744845E+04  0.25500000920E-02 0.  1.
    10030    2    1    2    0    0  0.00000000000E+00  0.00000000000E+00  0.25556564473E+03  0.30841146137E+04  0.30735076300E+04 0.  0.
        4    1    3    3  502    0  0.48565591549E+03 -0.10202419886E+03 -0.13316574011E+04  0.14211205622E+04  0.12699999809E+01 0.  1.
       -4    1    3    3    0  502 -0.48565591549E+03  0.10202419886E+03  0.15872230458E+04  0.16629940516E+04  0.12699999809E+01 0. -1.
</event>
<event>
 5   0  0.2393250E-06  0.3186441E+04  0.7818609E-02  0.8192407E-01
        3   -1    0    0  501    0  0.00000000000E+00  0.00000000000E+00  0.19414862240E+04  0.19414862266E+04  0.10100000352E+00 0. -1.
       -3   -1    0    0    0  501  0.00000000000E+00  0.00000000000E+00 -0.13074270768E+04  0.13074270807E+04  0.10100000352E+00 0.  1.
    10030    2    1    2    0    0  0.00000000000E+00  0.00000000000E+00  0.63405914724E+03  0.32489133073E+04  0.31864410674E+04 0.  0.
        3    1    3    3  502    0 -0.14596890927E+04 -0.28707508997E+03 -0.26445618807E+03  0.15109736729E+04  0.10100000352E+00 0.  1.
       -3    1    3    3    0  502  0.14596890927E+04  0.28707508997E+03  0.89851533531E+03  0.17379396344E+04  0.10100000352E+00 0. -1.
</event>
<event>
 5   0  0.2624011E-06  0.2610509E+04  0.7818609E-02  0.8364640E-01
       -1   -1    0    0    0  501  0.00000000000E+00  0.00000000000E+00  0.96089954294E+03  0.96089954296E+03  0.50400001928E-02 0. -1.
        1   -1    0    0  501    0  0.00000000000E+00  0.00000000000E+00 -0.17730150146E+04  0.17730150146E+04  0.50400001928E-02 0.  1.
    10030    2    1    2    0    0  0.00000000000E+00  0.00000000000E+00 -0.81211547166E+03  0.27339145576E+04  0.26105090057E+04 0.  0.
        1    1    3    3  502    0  0.17787435007E+03  0.72003170543E+03  0.71877562701E+03  0.10328229971E+04  0.50400001928E-02 0. -1.
       -1    1    3    3    0  502 -0.17787435007E+03 -0.72003170543E+03 -0.15308910987E+04  0.17010915605E+04  0.50400001928E-02 0.  1.
</event>
<event>
 5   0  0.2393250E-06  0.2533475E+04  0.7818609E-02  0.8391156E-01
       -3   -1    0    0    0  501  0.00000000000E+00  0.00000000000E+00  0.16757668395E+04  0.16757668426E+04  0.10100000352E+00 0.  1.
        3   -1    0    0  501    0  0.00000000000E+00  0.00000000000E+00 -0.95754584903E+03  0.95754585436E+03  0.10100000352E+00 0. -1.
    10030    2    1    2    0    0  0.00000000000E+00  0.00000000000E+00  0.71822099050E+03  0.26333126969E+04  0.25334747618E+04 0.  0.
        5    1    3    3  502    0  0.46973772986E+03 -0.77475808430E+03 -0.56104280130E+03  0.10656897949E+04  0.46999998093E+01 0. -1.
       -5    1    3    3    0  502 -0.46973772986E+03  0.77475808430E+03  0.12792637918E+04  0.15676229021E+04  0.46999998093E+01 0.  1.
</event>
<event>
 5   0  0.7094341E-06  0.3106373E+04  0.7818609E-02  0.8213991E-01
       -2   -1    0    0    0  501  0.00000000000E+00  0.00000000000E+00  0.17117810776E+04  0.17117810776E+04  0.25500000920E-02 0. -1.
        2   -1    0    0  501    0  0.00000000000E+00  0.00000000000E+00 -0.14092853789E+04  0.14092853789E+04  0.25500000920E-02 0.  1.
    10030    2    1    2    0    0  0.00000000000E+00  0.00000000000E+00  0.30249569866E+03  0.31210664565E+04  0.31063728331E+04 0.  0.
        3    1    3    3  502    0  0.24358821397E+03  0.17105583797E+02 -0.13898785879E+04  0.14111662972E+04  0.10100000352E+00 0.  1.
       -3    1    3    3    0  502 -0.24358821397E+03 -0.17105583797E+02  0.16923742866E+04  0.17099001594E+04  0.10100000352E+00 0. -1.
</event>
<event>
 5   0  0.7071012E-06  0.3246195E+04  0.7818609E-02  0.8176723E-01
       -2   -1    0    0    0  501  0.00000000000E+00  0.00000000000E+00  0.13489004209E+04  0.13489004209E+04  0.25500000920E-02 0.  1.
        2   -1    0    0  501    0  0.00000000000E+00  0.00000000000E+00 -0.19530316731E+04  0.19530316731E+04  0.25500000920E-02 0. -1.
    10030    2    1    2    0    0  0.00000000000E+00  0.00000000000E+00 -0.60413125221E+03  0.33019320939E+04  0.32461948468E+04 0.  0.
        1    1    3    3  502    0 -0.82759276645E+03 -0.13902485775E+04 -0.43368739345E+03  0.16750479544E+04  0.50400001928E-02 0.  1.
       -1    1    3    3    0  502  0.82759276645E+03  0.13902485775E+04 -0.17044385876E+03  0.16268841395E+04  0.50400001928E-02 0. -1.
</event>
<event>
 5   0  0.2598987E-06  0.3135840E+04  0.7818609E-02  0.8205970E-01
       -1   -1    0    0    0  501  0.00000000000E+00  0.00000000000E+00  0.15480747953E+04  0.15480747953E+04  0.50400001928E-02 0. -1.
        1   -1    0    0  501    0  0.00000000000E+00  0.00000000000E+00 -0.15880196966E+04  0.15880196966E+04  0.50400001928E-02 0.  1.
    10030    2    1    2    0    0  0.00000000000E+00  0.00000000000E+00 -0.39944901293E+02  0.31360944919E+04  0.31358400895E+04 0.  0.
        2    1    3    3  502    0 -0.65836210699E+03  0.24845259420E+03 -0.14212299085E+04  0.15858952703E+04  0.25500000920E-02 0.  1.
       -2    1    3    3    0  502  0.65836210699E+03 -0.24845259420E+03  0.13812850072E+04  0.15501992216E+04  0.25500000920E-02 0. -1.
</event>
<event>
 5   0  0.2624011E-06  0.2435301E+04  0.7818609E-02  0.8426404E-01
       -1   -1    0    0    0  501  0.00000000000E+00  0.00000000000E+00  0.14106888230E+04  0.14106888231E+04  0.50400001928E-02 0. -1.
        1   -1    0    0  501    0  0.00000000000E+00  0.00000000000E+00 -0.10510277877E+04  0.10510277877E+04  0.50400001928E-02 0.  1.
    10030    2    1    2    0    0  0.00000000000E+00  0.00000000000E+00  0.35966103538E+03  0.24617166107E+04  0.24353013389E+04 0.  0.
        1    1    3    3  502    0  0.56295852886E+03  0.29208568226E+03  0.12305457612E+04  0.13843696116E+04  0.50400001928E-02 0. -1.
       -1    1    3    3    0  502 -0.56295852886E+03 -0.29208568226E+03 -0.87088472580E+03  0.10773469992E+04  0.50400001928E-02 0.  1.
</event>
<event>
 5   0  0.2598987E-06  0.3064514E+04  0.7818609E-02  0.8225545E-01
       -1   -1    0    0    0  501  0.00000000000E+00  0.00000000000E+00  0.12867786685E+04  0.12867786685E+04  0.50400001928E-02 0.  1.
        1   -1    0    0  501    0  0.00000000000E+00  0.00000000000E+00 -0.18245652267E+04  0.18245652267E+04  0.50400001928E-02 0. -1.
    10030    2    1    2    0    0  0.00000000000E+00  0.00000000000E+00 -0.53778655816E+03  0.31113438952E+04  0.30645140646E+04 0.  0.
        2    1    3    3  502    0 -0.92857621796E+03  0.77637800612E+03 -0.12228228957E+04  0.17205558507E+04  0.25500000920E-02 0. -1.
       -2    1    3    3    0  502  0.92857621796E+03 -0.77637800612E+03  0.68503633756E+03  0.13907880445E+04  0.25500000920E-02 0.  1.
</event>
<event>
 5   0  0.7094341E-06  0.3125355E+04  0.7818609E-02  0.8208814E-01
       -2   -1    0    0    0  501  0.00000000000E+00  0.00000000000E+00  0.12639058186E+04  0.12639058186E+04  0.25500000920E-02 0.  1.
        2   -1    0    0  501    0  0.00000000000E+00  0.00000000000E+00 -0.19320747647E+04  0.19320747647E+04  0.25500000920E-02 0. -1.
    10030    2    1    2    0    0  0.00000000000E+00  0.00000000000E+00 -0.66816894610E+03  0.31959805834E+04  0.31253547237E+04 0.  0.
        3    1    3    3  502    0 -0.15154685536E+04 -0.37722392123E+03 -0.27790947098E+03  0.15862460426E+04  0.10100000352E+00 0.  1.
       -3    1    3    3    0  502  0.15154685536E+04  0.37722392123E+03 -0.39025947512E+03  0.16097345407E+04  0.10100000352E+00 0. -1.
</event>
<event>
 5   0  0.2598987E-06  0.3118786E+04  0.7818609E-02  0.8210601E-01
       -1   -1    0    0    0  501  0.00000000000E+00  0.00000000000E+00  0.77323465142E+03  0.77323465144E+03  0.50400001928E-02 0.  1.
        1   -1    0    0  501    0  0.00000000000E+00  0.00000000000E+00 -0.31448502999E+04  0.31448502999E+04  0.50400001928E-02 0. -1.
    10030    2    1    2    0    0  0.00000000000E+00  0.00000000000E+00 -0.23716156485E+04  0.39180849514E+04  0.31187864470E+04 0.  0.
        2    1    3    3  502    0 -0.20005126608E+03 -0.15361159262E+04 -0.14106603193E+04  0.20951456236E+04  0.25500000920E-02 0. -1.
       -2    1    3    3    0  502  0.20005126608E+03  0.15361159262E+04 -0.96095532924E+03  0.18229393277E+04  0.25500000920E-02 0.  1.
</event>
<event>
 5   0  0.7363513E-06  0.2861039E+04  0.7818609E-02  0.8284565E-01
       -2   -1    0    0    0  501  0.00000000000E+00  0.00000000000E+00  0.68626588250E+03  0.68626588251E+03  0.25500000920E-02 0.  1.
        2   -1    0    0  501    0  0.00000000000E+00  0.00000000000E+00 -0.29819144872E+04  0.29819144872E+04  0.25500000920E-02 0. -1.
    10030    2    1    2    0    0  0.00000000000E+00  0.00000000000E+00 -0.22956486047E+04  0.36681803697E+04  0.28610390959E+04 0.  0.
        4    1    3    3  502    0 -0.13997780761E+04 -0.20869034915E+03 -0.14150898439E+04  0.20013523437E+04  0.12699999809E+01 0.  1.
       -4    1    3    3    0  502  0.13997780761E+04  0.20869034915E+03 -0.88055876076E+03  0.16668280260E+04  0.12699999809E+01 0. -1.
</event>
<event>
 5   0  0.2517725E-06  0.3198309E+04  0.7818609E-02  0.8189264E-01
        1   -1    0    0  501    0  0.00000000000E+00  0.00000000000E+00  0.19276257796E+04  0.19276257796E+04  0.50400001928E-02 0. -1.
       -1   -1    0    0    0  501  0.00000000000E+00  0.00000000000E+00 -0.13266555509E+04  0.13266555509E+04  0.50400001928E-02 0.  1.
    10030    2    1    2    0    0  0.00000000000E+00  0.00000000000E+00  0.60097022864E+03  0.32542813305E+04  0.31983092037E+04 0.  0.
        3    1    3    3  502    0  0.14625089414E+04 -0.37413104644E+02 -0.35654239782E+03  0.15058069716E+04  0.10100000352E+00 0.  1.
       -3    1    3    3    0  502 -0.14625089414E+04  0.37413104644E+02  0.95751262646E+03  0.17484743590E+04  0.10100000352E+00 0. -1.
</event>
<event>
 5   0  0.2624011E-06  0.2933218E+04  0.7818609E-02  0.8263062E-01
       -1   -1    0    0    0  501  0.00000000000E+00  0.00000000000E+00  0.16430458096E+04  0.16430458096E+04  0.50400001928E-02 0. -1.
        1   -1    0    0  501    0  0.00000000000E+00  0.00000000000E+00 -0.13091187697E+04  0.13091187697E+04  0.50400001928E-02 0.  1.
    10030    2    1    2    0    0  0.00000000000E+00  0.00000000000E+00  0.33392703995E+03  0.29521645793E+04  0.29332181022E+04 0.  0.
        1    1    3    3  502    0  0.52807035936E+03 -0.56742808736E+03  0.14200393447E+04  0.16178209664E+04  0.50400001928E-02 0. -1.
       -1    1    3    3    0  502 -0.52807035936E+03  0.56742808736E+03 -0.10861123048E+04  0.13343436129E+04  0.50400001928E-02 0.  1.
</event>
<event>
 5   0  0.7363513E-06  0.3095723E+04  0.7818609E-02  0.8216913E-01
        2   -1    0    0  501    0  0.00000000000E+00  0.00000000000E+00  0.12537639277E+04  0.12537639277E+04  0.25500000920E-02 0.  1.
       -2   -1    0    0    0  501  0.00000000000E+00  0.00000000000E+00 -0.19109454336E+04  0.19109454336E+04  0.25500000920E-02 0. -1.
    10030    2    1    2    0    0  0.00000000000E+00  0.00000000000E+00 -0.65718150589E+03  0.31647093612E+04  0.30957225020E+04 0.  0.
        4    1    3    3  502    0 -0.49115728637E+03 -0.12447252083E+04  0.46675486858E+03  0.14171937216E+04  0.12699999809E+01 0.  1.
       -4    1    3    3    0  502  0.49115728637E+03  0.12447252083E+04 -0.11239363745E+04  0.17475156397E+04  0.12699999809E+01 0. -1.
</event>
<event>
 5   0  0.7079223E-06  0.3104774E+04  0.7818609E-02  0.8214429E-01
        2   -1    0    0  501    0  0.00000000000E+00  0.00000000000E+00  0.23313166480E+04  0.23313166480E+04  0.25500000920E-02 0.  1.
       -2   -1    0    0    0  501  0.00000000000E+00  0.00000000000E+00 -0.10337102009E+04  0.10337102009E+04  0.25500000920E-02 0. -1.
    10030    2    1    2    0    0  0.00000000000E+00  0.00000000000E+00  0.12976064471E+04  0.33650268489E+04  0.31047742594E+04 0.  0.
        5    1    3    3  502    0  0.49556785910E+03 -0.12662606593E+04 -0.16289302679E+03  0.13695107844E+04  0.46999998093E+01 0. -1.
       -5    1    3    3    0  502 -0.49556785910E+03  0.12662606593E+04  0.14604994739E+04  0.19955160645E+04  0.46999998093E+01 0.  1.
</event>
<event>
 5   0  0.2598987E-06  0.2572889E+04  0.7818609E-02  0.8377469E-01
       -1   -1    0    0    0  501  0.00000000000E+00  0.00000000000E+00  0.86706158152E+03  0.86706158153E+03  0.50400001928E-02 0.  1.
        1   -1    0    0  501    0  0.00000000000E+00  0.00000000000E+00 -0.19086755390E+04  0.19086755390E+04  0.50400001928E-02 0. -1.
    10030    2    1    2    0    0  0.00000000000E+00  0.00000000000E+00 -0.10416139574E+04  0.27757371205E+04  0.25728888289E+04 0.  0.
        2    1    3    3  502    0 -0.83073342351E+03 -0.97120073804E+03 -0.67932805859E+03  0.14473546579E+04  0.25500000920E-02 0.  1.
       -2    1    3    3    0  502  0.83073342351E+03  0.97120073804E+03 -0.36228589885E+03  0.13283824626E+04  0.25500000920E-02 0. -1.
</event>
<event>
 5   0  0.2598987E-06  0.3091493E+04  0.7818609E-02  0.8218076E-01
        1   -1    0    0  501    0  0.00000000000E+00  0.00000000000E+00  0.10435292535E+04  0.10435292535E+04  0.50400001928E-02 0.  1.
       -1   -1    0    0    0  501  0.00000000000E+00  0.00000000000E+00 -0.22896648613E+04  0.22896648613E+04  0.50400001928E-02 0. -1.
    10030    2    1    2    0    0  0.00000000000E+00  0.00000000000E+00 -0.12461356078E+04  0.33331941148E+04  0.30914930138E+04 0.  0.
        2    1    3    3  502    0  0.40136125550E+03  0.14909276271E+04 -0.70212305502E+03  0.16961523608E+04  0.25500000920E-02 0. -1.
       -2    1    3    3    0  502 -0.40136125550E+03 -0.14909276271E+04 -0.54401255280E+03  0.16370417540E+04  0.25500000920E-02 0.  1.
</event>
<event>
 5   0  0.2624011E-06  0.3143785E+04  0.7818609E-02  0.8203823E-01
       -1   -1    0    0    0  501  0.00000000000E+00  0.00000000000E+00  0.22178997841E+04  0.22178997841E+04  0.50400001928E-02 0. -1.
        1   -1    0    0  501    0  0.00000000000E+00  0.00000000000E+00 -0.11140478216E+04  0.11140478216E+04  0.50400001928E-02 0.  1.
    10030    2    1    2    0    0  0.00000000000E+00  0.00000000000E+00  0.11038519625E+04  0.33319476057E+04  0.31437852491E+04 0.  0.
        1    1    3    3  502    0  0.85572071942E+03  0.10701310025E+04  0.13683617642E+04  0.19364535186E+04  0.50400001928E-02 0. -1.
       -1    1    3    3    0  502 -0.85572071942E+03 -0.10701310025E+04 -0.26450980162E+03  0.13954940871E+04  0.50400001928E-02 0.  1.
</event>
<event>
 5   0  0.2674441E-06  0.3019438E+04  0.7818609E-02  0.8238202E-01
       -1   -1    0    0    0  501  0.00000000000E+00  0.00000000000E+00  0.12677006692E+04  0.12677006692E+04  0.50400001928E-02 0. -1.
        1   -1    0    0  501    0  0.00000000000E+00  0.00000000000E+00 -0.17979411022E+04  0.17979411022E+04  0.50400001928E-02 0.  1.
    10030    2    1    2    0    0  0.00000000000E+00  0.00000000000E+00 -0.53024043298E+03  0.30656417713E+04  0.30194377876E+04 0.  0.
        5    1    3    3  502    0 -0.11600814340E+04 -0.34464204603E+03  0.65127759214E+03  0.13743186186E+04  0.46999998093E+01 0. -1.
       -5    1    3    3    0  502  0.11600814340E+04  0.34464204603E+03 -0.11815180251E+04  0.16913231528E+04  0.46999998093E+01 0.  1.
</event>
<event>
 5   0  0.2517725E-06  0.3211379E+04  0.7818609E-02  0.8185818E-01
       -1   -1    0    0    0  501  0.00000000000E+00  0.00000000000E+00  0.14560821134E+04  0.14560821134E+04  0.50400001928E-02 0. -1.
        1   -1    0    0  501    0  0.00000000000E+00  0.00000000000E+00 -0.17706686887E+04  0.17706686887E+04  0.50400001928E-02 0.  1.
    10030    2    1    2    0    0  0.00000000000E+00  0.00000000000E+00 -0.31458657532E+03  0.32267508022E+04  0.32113791470E+04 0.  0.
        3    1    3    3  502    0 -0.75746522745E+03  0.99394600535E+03 -0.11703637685E+04  0.17121429827E+04  0.10100000352E+00 0.  1.
       -3    1    3    3    0  502  0.75746522745E+03 -0.99394600535E+03  0.85577719317E+03  0.15146078195E+04  0.10100000352E+00 0. -1.
</event>
<event>
 5   0  0.7071012E-06  0.3076937E+04  0.7818609E-02  0.8222096E-01
       -2   -1    0    0    0  501  0.00000000000E+00  0.00000000000E+00  0.76569945267E+03  0.76569945267E+03  0.25500000920E-02 0. -1.
        2   -1    0    0  501    0  0.00000000000E+00  0.00000000000E+00 -0.30911416936E+04  0.30911416936E+04  0.25500000920E-02 0.  1.
    10030    2    1    2    0    0  0.00000000000E+00  0.00000000000E+00 -0.23254422409E+04  0.38568411463E+04  0.30769371153E+04 0.  0.
        1    1    3    3  502    0 -0.77325220734E+03 -0.12260015589E+04 -0.51638051357E+03  0.15387162290E+04  0.50400001928E-02 0. -1.
       -1    1    3    3    0  502  0.77325220734E+03  0.12260015589E+04 -0.18090617274E+04  0.23181249173E+04  0.50400001928E-02 0.  1.
</event>
<event>
 5   0  0.2517725E-06  0.3102055E+04  0.7818609E-02  0.8215174E-01
        1   -1    0    0  501    0  0.00000000000E+00  0.00000000000E+00  0.23552736364E+04  0.23552736364E+04  0.50400001928E-02 0.  1.
       -1   -1    0    0    0  501  0.00000000000E+00  0.00000000000E+00 -0.10214040448E+04  0.10214040448E+04  0.50400001928E-02 0. -1.
    10030    2    1    2    0    0  0.00000000000E+00  0.00000000000E+00  0.13338695916E+04  0.33766776812E+04  0.31020548150E+04 0.  0.
        3    1    3    3  502    0  0.26051921204E+03 -0.13076889636E+04  0.15293944752E+04  0.20290313345E+04  0.10100000352E+00 0.  1.
       -3    1    3    3    0  502 -0.26051921204E+03  0.13076889636E+04 -0.19552488368E+03  0.13476463467E+04  0.10100000352E+00 0. -1.
</event>
<event>
 5   0  0.2624011E-06  0.3125333E+04  0.7818609E-02  0.8208820E-01
        1   -1    0    0  501    0  0.00000000000E+00  0.00000000000E+00  0.17270475980E+04  0.17270475980E+04  0.50400001928E-02 0. -1.
       -1   -1    0    0    0  501  0.00000000000E+00  0.00000000000E+00 -0.14139309368E+04  0.14139309368E+04  0.50400001928E-02 0.  1.
    10030    2    1    2    0    0  0.00000000000E+00  0.00000000000E+00  0.31311666113E+03  0.31409785348E+04  0.31253326403E+04 0.  0.
        1    1    3    3  502    0  0.53075037033E+03 -0.27934607397E+03  0.16067636988E+04  0.17150567828E+04  0.50400001928E-02 0. -1.
       -1    1    3    3    0  502 -0.53075037033E+03  0.27934607397E+03 -0.12936470376E+04  0.14259217519E+04  0.50400001928E-02 0.  1.
</event>
<event>
 5   0  0.2624011E-06  0.3029458E+04  0.7818609E-02  0.8235369E-01
        1   -1    0    0  501    0  0.00000000000E+00  0.00000000000E+00  0.16836768735E+04  0.16836768735E+04  0.50400001928E-02 0. -1.
       -1   -1    0    0    0  501  0.00000000000E+00  0.00000000000E+00 -0.13627344562E+04  0.13627344562E+04  0.50400001928E-02 0.  1.
    10030    2    1    2    0    0  0.00000000000E+00  0.00000000000E+00  0.32094241725E+03  0.30464113297E+04  0.30294583600E+04 0.  0.
        1    1    3    3  502    0 -0.86245641152E+03  0.82095158420E+03 -0.78104378622E+03  0.14240161380E+04  0.50400001928E-02 0.  1.
       -1    1    3    3    0  502  0.86245641152E+03 -0.82095158420E+03  0.11019862035E+04  0.16223951917E+04  0.50400001928E-02 0. -1.
</event>
<event>
 5   0  0.2612331E-06  0.2815774E+04  0.7818609E-02  0.8298388E-01
        1   -1    0    0  501    0  0.00000000000E+00  0.00000000000E+00  0.15872003380E+04  0.15872003380E+04  0.50400001928E-02 0.  1.
       -1   -1    0    0    0  501  0.00000000000E+00  0.00000000000E+00 -0.12488311022E+04  0.12488311022E+04  0.50400001928E-02 0. -1.
    10030    2    1    2    0    0  0.00000000000E+00  0.00000000000E+00  0.33836923581E+03  0.28360314403E+04  0.28157735332E+04 0.  0.
        4    1    3    3  502    0  0.32141035074E+03 -0.48500243232E+03 -0.11220730468E+04  0.12639547097E+04  0.12699999809E+01 0. -1.
       -4    1    3    3    0  502 -0.32141035074E+03  0.48500243232E+03  0.14604422826E+04  0.15720767306E+04  0.12699999809E+01 0.  1.
</event>
<event>
 5   0  0.2517725E-06  0.3120145E+04  0.7818609E-02  0.8210231E-01
        1   -1    0    0  501    0  0.00000000000E+00  0.00000000000E+00  0.21217696121E+04  0.21217696121E+04  0.50400001928E-02 0.  1.
       -1   -1    0    0    0  501  0.00000000000E+00  0.00000000000E+00 -0.11470734346E+04  0.11470734346E+04  0.50400001928E-02 0. -1.
    10030    2    1    2    0    0  0.00000000000E+00  0.00000000000E+00  0.97469617750E+03  0.32688430466E+04  0.31201445840E+04 0.  0.
        3    1    3    3  502    0 -0.91058867198E+03  0.26128359978E+03 -0.81123378247E+03  0.12472133374E+04  0.10100000352E+00 0. -1.
       -3    1    3    3    0  502  0.91058867198E+03 -0.26128359978E+03  0.17859299600E+04  0.20216297092E+04  0.10100000352E+00 0.  1.
</event>
<event>
 5   0  0.7071012E-06  0.3117509E+04  0.7818609E-02  0.8210949E-01
        2   -1    0    0  501    0  0.00000000000E+00  0.00000000000E+00  0.88178538927E+03  0.88178538927E+03  0.25500000920E-02 0. -1.
       -2   -1    0    0    0  501  0.00000000000E+00  0.00000000000E+00 -0.27554503190E+04  0.27554503190E+04  0.25500000920E-02 0.  1.
    10030    2    1    2    0    0  0.00000000000E+00  0.00000000000E+00 -0.18736649298E+04  0.36372357083E+04  0.31175091546E+04 0.  0.
        1    1    3    3  502    0  0.30315319406E+02  0.12287968091E+04  0.18154202185E+03  0.12425047776E+04  0.50400001928E-02 0. -1.
       -1    1    3    3    0  502 -0.30315319406E+02 -0.12287968091E+04 -0.20552069516E+04  0.23947309307E+04  0.50400001928E-02 0.  1.
</event>
<event>
 5   0  0.7094341E-06  0.3133557E+04  0.7818609E-02  0.8206588E-01
       -2   -1    0    0    0  501  0.00000000000E+00  0.00000000000E+00  0.10264153275E+04  0.10264153275E+04  0.25500000920E-02 0. -1.
        2   -1    0    0  501    0  0.00000000000E+00  0.00000000000E+00 -0.23916187891E+04  0.23916187891E+04  0.25500000920E-02 0.  1.
    10030    2    1    2    0    0  0.00000000000E+00  0.00000000000E+00 -0.13652034616E+04  0.34180341165E+04  0.31335565625E+04 0.  0.
        3    1    3    3  502    0 -0.53828724343E+03  0.11562610292E+04 -0.16752162580E+04  0.21054791012E+04  0.10100000352E+00 0.  1.
       -3    1    3    3    0  502  0.53828724343E+03 -0.11562610292E+04  0.31001279643E+03  0.13125550153E+04  0.10100000352E+00 0. -1.
</event>
<event>
 5   0  0.2517725E-06  0.3073034E+04  0.7818609E-02  0.8223178E-01
       -1   -1    0    0    0  501  0.00000000000E+00  0.00000000000E+00  0.14336253682E+04  0.14336253682E+04  0.50400001928E-02 0. -1.
        1   -1    0    0  501    0  0.00000000000E+00  0.00000000000E+00 -0.16467935348E+04  0.16467935348E+04  0.50400001928E-02 0.  1.
    10030    2    1    2    0    0  0.00000000000E+00  0.00000000000E+00 -0.21316816654E+03  0.30804189030E+04  0.30730343231E+04 0.  0.
        3    1    3    3  502    0 -0.29051573220E+03 -0.93738346339E+03  0.10785419812E+04  0.14581975050E+04  0.10100000352E+00 0. -1.
       -3    1    3    3    0  502  0.29051573220E+03  0.93738346339E+03 -0.12917101478E+04  0.16222213980E+04  0.10100000352E+00 0.  1.
</event>
<event>
 5   0  0.7079223E-06  0.3015397E+04  0.7818609E-02  0.8239348E-01
       -2   -1    0    0    0  501  0.00000000000E+00  0.00000000000E+00  0.21413814979E+04  0.21413814979E+04  0.25500000920E-02 0. -1.
        2   -1    0    0  501    0  0.00000000000E+00  0.00000000000E+00 -0.10615368017E+04  0.10615368017E+04  0.25500000920E-02 0.  1.
    10030    2    1    2    0    0  0.00000000000E+00  0.00000000000E+00  0.10798446962E+04  0.32029182996E+04  0.30153973314E+04 0.  0.
        5    1    3    3  502    0 -0.10816429884E+04 -0.89789454748E+03  0.11187581874E+04  0.17966101816E+04  0.46999998093E+01 0. -1.
       -5    1    3    3    0  502  0.10816429884E+04  0.89789454748E+03 -0.38913491254E+02  0.14063081180E+04  0.46999998093E+01 0.  1.
</event>
<event>
 5   0  0.2612331E-06  0.3033810E+04  0.7818609E-02  0.8234142E-01
        1   -1    0    0  501    0  0.00000000000E+00  0.00000000000E+00  0.25731976059E+04  0.25731976059E+04  0.50400001928E-02 0. -1.
       -1   -1    0    0    0  501  0.00000000000E+00  0.00000000000E+00 -0.89421824260E+03  0.89421824262E+03  0.50400001928E-02 0.  1.
    10030    2    1    2    0    0  0.00000000000E+00  0.00000000000E+00  0.16789793633E+04  0.34674158485E+04  0.30338096453E+04 0.  0.
        4    1    3    3  502    0 -0.70020692579E+03  0.13419385225E+04  0.95326604336E+03  0.17888002961E+04  0.12699999809E+01 0. -1.
       -4    1    3    3    0  502  0.70020692579E+03 -0.13419385225E+04  0.72571331992E+03  0.16786155524E+04  0.12699999809E+01 0.  1.
</event>
<event>
 5   0  0.2598987E-06  0.3086714E+04  0.7818609E-02  0.8219394E-01
       -1   -1    0    0    0  501  0.00000000000E+00  0.00000000000E+00  0.28533319307E+04  0.28533319307E+04  0.50400001928E-02 0.  1.
        1   -1    0    0  501    0  0.00000000000E+00  0.00000000000E+00 -0.83479644323E+03  0.83479644325E+03  0.50400001928E-02 0. -1.
    10030    2    1    2    0    0  0.00000000000E+00  0.00000000000E+00  0.20185354874E+04  0.36881283739E+04  0.30867143354E+04 0.  0.
        2    1    3    3  502    0  0.62544253198E+03  0.27567395921E+03 -0.64409700927E+03  0.93916742382E+03  0.25500000920E-02 0. -1.
       -2    1    3    3    0  502 -0.62544253198E+03 -0.27567395921E+03  0.26626324967E+04  0.27489609501E+04  0.25500000920E-02 0.  1.
</event>
<event>
 5   0  0.2624011E-06  0.3102605E+04  0.7818609E-02  0.8215023E-01
        1   -1    0    0  501    0  0.00000000000E+00  0.00000000000E+00  0.14128376899E+04  0.14128376899E+04  0.50400001928E-02 0.  1.
       -1   -1    0    0    0  501  0.00000000000E+00  0.00000000000E+00 -0.17033369882E+04  0.17033369882E+04  0.50400001928E-02 0. -1.
    10030    2    1    2    0    0  0.00000000000E+00  0.00000000000E+00 -0.29049929824E+03  0.31161746781E+04  0.31026045159E+04 0.  0.
        1    1    3    3  502    0  0.15312703633E+04  0.44643654245E+02 -0.39077069672E+03  0.15809755592E+04  0.50400001928E-02 0. -1.
       -1    1    3    3    0  502 -0.15312703633E+04 -0.44643654245E+02  0.10027139848E+03  0.15351991189E+04  0.50400001928E-02 0.  1.
</event>
<event>
 5   0  0.2674441E-06  0.3107119E+04  0.7818609E-02  0.8213787E-01
       -1   -1    0    0    0  501  0.00000000000E+00  0.00000000000E+00  0.11142464420E+04  0.11142464420E+04  0.50400001928E-02 0.  1.
        1   -1    0    0  501    0  0.00000000000E+00  0.00000000000E+00 -0.21660806317E+04  0.21660806317E+04  0.50400001928E-02 0. -1.
    10030    2    1    2    0    0  0.00000000000E+00  0.00000000000E+00 -0.10518341897E+04  0.32803270737E+04  0.31071193327E+04 0.  0.
        5    1    3    3  502    0 -0.12603405506E+04 -0.88895873616E+03 -0.72291933278E+03  0.17033321431E+04  0.46999998093E+01 0. -1.
       -5    1    3    3    0  502  0.12603405506E+04  0.88895873616E+03 -0.32891485694E+03  0.15769949306E+04  0.46999998093E+01 0.  1.
</event>
<event>
 5   0  0.7079223E-06  0.2413207E+04  0.7818609E-02  0.8434575E-01
        2   -1    0    0  501    0  0.00000000000E+00  0.00000000000E+00  0.15294659791E+04  0.15294659791E+04  0.25500000920E-02 0.  1.
       -2   -1    0    0    0  501  0.00000000000E+00  0.00000000000E+00 -0.95189593716E+03  0.95189593717E+03  0.25500000920E-02 0. -1.
    10030    2    1    2    0    0  0.00000000000E+00  0.00000000000E+00  0.57757004195E+03  0.24813619163E+04  0.24132073691E+04 0.  0.
        5    1    3    3  502    0 -0.11112532883E+04 -0.44110804123E+02 -0.19245075525E+03  0.11286669203E+04  0.46999998093E+01 0.  1.
       -5    1    3    3    0  502  0.11112532883E+04  0.44110804123E+02  0.77002079721E+03  0.13526949959E+04  0.46999998093E+01 0. -1.
</event>
<event>
 5   0  0.7363513E-06  0.3087975E+04  0.7818609E-02  0.8219046E-01
       -2   -1    0    0    0  501  0.00000000000E+00  0.00000000000E+00  0.12760921598E+04  0.12760921598E+04  0.25500000920E-02 0.  1.
        2   -1    0    0  501    0  0.00000000000E+00  0.00000000000E+00 -0.18681228555E+04  0.18681228555E+04  0.25500000920E-02 0. -1.
    10030    2    1    2    0    0  0.00000000000E+00  0.00000000000E+00 -0.59203069565E+03  0.31442150153E+04  0.30879746952E+04 0.  0.
        4    1    3    3  502    0 -0.12698866369E+03 -0.13958524376E+04 -0.95539369641E+03  0.16962632096E+04  0.12699999809E+01 0. -1.
       -4    1    3    3    0  502  0.12698866369E+03  0.13958524376E+04  0.36336300076E+03  0.14479518057E+04  0.12699999809E+01 0.  1.
</event>
<event>
 5   0  0.2674441E-06  0.3107241E+04  0.7818609E-02  0.8213754E-01
       -1   -1    0    0    0  501  0.00000000000E+00  0.00000000000E+00  0.14594439784E+04  0.14594439784E+04  0.50400001928E-02 0.  1.
        1   -1    0    0  501    0  0.00000000000E+00  0.00000000000E+00 -0.16538738242E+04  0.16538738242E+04  0.50400001928E-02 0. -1.
    10030    2    1    2    0    0  0.00000000000E+00  0.00000000000E+00 -0.19442984588E+03  0.31133178026E+04  0.31072407012E+04 0.  0.
        5    1    3    3  502    0 -0.45362678015E+03  0.27006730856E+02  0.13913580794E+04  0.14636960116E+04  0.46999998093E+01 0.  1.
       -5    1    3    3    0  502  0.45362678015E+03 -0.27006730856E+02 -0.15857879253E+04  0.16496217910E+04  0.46999998093E+01 0. -1.
</event>
<event>
 5   0  0.2674441E-06  0.1994786E+04  0.7818609E-02  0.8609062E-01
       -1   -1    0    0    0  501  0.00000000000E+00  0.00000000000E+00  0.94005470413E+03  0.94005470414E+03  0.50400001928E-02 0. -1.
        1   -1    0    0  501    0  0.00000000000E+00  0.00000000000E+00 -0.10582290802E+04  0.10582290802E+04  0.50400001928E-02 0.  1.
    10030    2    1    2    0    0  0.00000000000E+00  0.00000000000E+00 -0.11817437611E+03  0.19982837844E+04  0.19947864296E+04 0.  0.
        5    1    3    3  502    0 -0.68758036377E+03  0.58809365264E+03  0.36135120872E+03  0.97427803371E+03  0.46999998093E+01 0.  1.
       -5    1    3    3    0  502  0.68758036377E+03 -0.58809365264E+03 -0.47952558482E+03  0.10240057507E+04  0.46999998093E+01 0. -1.
</event>
<event>
 5   0  0.7071012E-06  0.2629963E+04  0.7818609E-02  0.8358094E-01
        2   -1    0    0  501    0  0.00000000000E+00  0.00000000000E+00  0.22488183804E+04  0.22488183804E+04  0.25500000920E-02 0.  1.
       -2   -1    0    0    0  501  0.00000000000E+00  0.00000000000E+00 -0.76892667109E+03  0.76892667109E+03  0.25500000920E-02 0. -1.
    10030    2    1    2    0    0  0.00000000000E+00  0.00000000000E+00  0.14798917094E+04  0.30177450515E+04  0.26299630653E+04 0.  0.
        1    1    3    3  502    0  0.51344016279E+03 -0.53515274392E+03 -0.50606144566E+03  0.89783486617E+03  0.50400001928E-02 0. -1.
       -1    1    3    3    0  502 -0.51344016279E+03  0.53515274392E+03  0.19859531550E+04  0.21199101854E+04  0.50400001928E-02 0.  1.
</event>
<event>
 5   0  0.7363513E-06  0.3041723E+04  0.7818609E-02  0.8231916E-01
        2   -1    0    0  501    0  0.00000000000E+00  0.00000000000E+00  0.24372968748E+04  0.24372968748E+04  0.25500000920E-02 0. -1.
       -2   -1    0    0    0  501  0.00000000000E+00  0.00000000000E+00 -0.94901019952E+03  0.94901019952E+03  0.25500000920E-02 0.  1.
    10030    2    1    2    0    0  0.00000000000E+00  0.00000000000E+00  0.14882866753E+04  0.33863070744E+04  0.30417229285E+04 0.  0.
        4    1    3    3  502    0 -0.15149300378E+04  0.10365373546E+03  0.64927946608E+03  0.16514607335E+04  0.12699999809E+01 0. -1.
       -4    1    3    3    0  502  0.15149300378E+04 -0.10365373546E+03  0.83900720923E+03  0.17348463409E+04  0.12699999809E+01 0.  1.
</event>
<event>
 5   0  0.7363513E-06  0.2836059E+04  0.7818609E-02  0.8292160E-01
       -2   -1    0    0    0  501  0.00000000000E+00  0.00000000000E+00  0.14657349891E+04  0.14657349891E+04  0.25500000920E-02 0.  1.
        2   -1    0    0  501    0  0.00000000000E+00  0.00000000000E+00 -0.13718768005E+04  0.13718768005E+04  0.25500000920E-02 0. -1.
    10030    2    1    2    0    0  0.00000000000E+00  0.00000000000E+00  0.93858188564E+02  0.28376117897E+04  0.28360591160E+04 0.  0.
        4    1    3    3  502    0 -0.52201702665E+03  0.10764830404E+04 -0.71472922012E+03  0.13936129245E+04  0.12699999809E+01 0. -1.
       -4    1    3    3    0  502  0.52201702665E+03 -0.10764830404E+04  0.80858740868E+03  0.14439988652E+04  0.12699999809E+01 0.  1.
</event>
<event>
 5   0  0.2612331E-06  0.3110455E+04  0.7818609E-02  0.8212875E-01
       -1   -1    0    0    0  501  0.00000000000E+00  0.00000000000E+00  0.15996618507E+04  0.15996618507E+04  0.50400001928E-02 0. -1.
        1   -1    0    0  501    0  0.00000000000E+00  0.00000000000E+00 -0.15120269802E+04  0.15120269802E+04  0.50400001928E-02 0.  1.
    10030    2    1    2    0    0  0.00000000000E+00  0.00000000000E+00  0.87634870481E+02  0.31116888309E+04  0.31104545503E+04 0.  0.
        4    1    3    3  502    0  0.42799299900E+03  0.14740055061E+04 -0.20700107096E+03  0.15487805834E+04  0.12699999809E+01 0. -1.
       -4    1    3    3    0  502 -0.42799299900E+03 -0.14740055061E+04  0.29463594144E+03  0.15629082475E+04  0.12699999809E+01 0.  1.
</event>
<event>
 5   0  0.2517725E-06  0.2578293E+04  0.7818609E-02  0.8375612E-01
        1   -1    0    0  501    0  0.00000000000E+00  0.00000000000E+00  0.22151816332E+04  0.22151816332E+04  0.50400001928E-02 0.  1.
       -1   -1    0    0    0  501  0.00000000000E+00  0.00000000000E+00 -0.75023158667E+03  0.75023158668E+03  0.50400001928E-02 0. -1.
    10030    2    1    2    0    0  0.00000000000E+00  0.00000000000E+00  0.14649500465E+04  0.29654132199E+04  0.25782934135E+04 0.  0.
        3    1    3    3  502    0 -0.76019153565E+03 -0.68022511554E+03  0.16390509884E+04  0.19305661168E+04  0.10100000352E+00 0.  1.
       -3    1    3    3    0  502  0.76019153565E+03  0.68022511554E+03 -0.17410094181E+03  0.10348471031E+04  0.10100000352E+00 0. -1.
</event>
<event>
 5   0  0.2517725E-06  0.3129262E+04  0.7818609E-02  0.8207753E-01
        1   -1    0    0  501    0  0.00000000000E+00  0.00000000000E+00  0.16146966313E+04  0.16146966313E+04  0.50400001928E-02 0.  1.
       -1   -1    0    0    0  501  0.00000000000E+00  0.00000000000E+00 -0.15161176924E+04  0.15161176924E+04  0.50400001928E-02 0. -1.
    10030    2    1    2    0    0  0.00000000000E+00  0.00000000000E+00  0.98578938905E+02  0.31308143237E+04  0.31292619772E+04 0.  0.
        3    1    3    3  502    0 -0.15528010754E+03  0.12368534419E+04 -0.89677560400E+03  0.15356187166E+04  0.10100000352E+00 0.  1.
       -3    1    3    3    0  502  0.15528010754E+03 -0.12368534419E+04  0.99535454290E+03  0.15951956071E+04  0.10100000352E+00 0. -1.
</event>
<event>
 5   0  0.7071012E-06  0.3102327E+04  0.7818609E-02  0.8215099E-01
       -2   -1    0    0    0  501  0.00000000000E+00  0.00000000000E+00  0.13349997980E+04  0.13349997980E+04  0.25500000920E-02 0.  1.
        2   -1    0    0  501    0  0.00000000000E+00  0.00000000000E+00 -0.18023290273E+04  0.18023290273E+04  0.25500000920E-02 0. -1.
    10030    2    1    2    0    0  0.00000000000E+00  0.00000000000E+00 -0.46732922928E+03  0.31373288253E+04  0.31023274407E+04 0.  0.
        1    1    3    3  502    0 -0.86055913864E+03  0.38273414952E+03  0.10127429423E+04  0.13830024322E+04  0.50400001928E-02 0.  1.
       -1    1    3    3    0  502  0.86055913864E+03 -0.38273414952E+03 -0.14800721716E+04  0.17543263931E+04  0.50400001928E-02 0. -1.
</event>
<event>
 5   0  0.2612331E-06  0.3047998E+04  0.7818609E-02  0.8230156E-01
       -1   -1    0    0    0  501  0.00000000000E+00  0.00000000000E+00  0.12187987681E+04  0.12187987681E+04  0.50400001928E-02 0.  1.
        1   -1    0    0  501    0  0.00000000000E+00  0.00000000000E+00 -0.19056240859E+04  0.19056240859E+04  0.50400001928E-02 0. -1.
    10030    2    1    2    0    0  0.00000000000E+00  0.00000000000E+00 -0.68682531786E+03  0.31244228540E+04  0.30479975645E+04 0.  0.
        4    1    3    3  502    0 -0.10787414497E+03 -0.14757076917E+04 -0.71755854065E+03  0.16444579334E+04  0.12699999809E+01 0. -1.
       -4    1    3    3    0  502  0.10787414497E+03  0.14757076917E+04  0.30733222789E+02  0.14799649206E+04  0.12699999809E+01 0.  1.
</event>
<event>
 5   0  0.7071012E-06  0.2138946E+04  0.7818609E-02  0.8544279E-01
       -2   -1    0    0    0  501  0.00000000000E+00  0.00000000000E+00  0.55375088903E+03  0.55375088904E+03  0.25500000920E-02 0. -1.
        2   -1    0    0  501    0  0.00000000000E+00  0.00000000000E+00 -0.20654995744E+04  0.20654995744E+04  0.25500000920E-02 0.  1.
    10030    2    1    2    0    0  0.00000000000E+00  0.00000000000E+00 -0.15117486853E+04  0.26192504634E+04  0.21389457456E+04 0.  0.
        1    1    3    3  502    0  0.57519933801E+03 -0.45988630546E+03 -0.17055320743E+04  0.18577376965E+04  0.50400001928E-02 0.  1.
       -1    1    3    3    0  502 -0.57519933801E+03  0.45988630546E+03  0.19378338893E+03  0.76151276696E+03  0.50400001928E-02 0. -1.
</event>
<event>
 5   0  0.2674441E-06  0.3106574E+04  0.7818609E-02  0.8213936E-01
        1   -1    0    0  501    0  0.00000000000E+00  0.00000000000E+00  0.15850563457E+04  0.15850563457E+04  0.50400001928E-02 0. -1.
       -1   -1    0    0    0  501  0.00000000000E+00  0.00000000000E+00 -0.15221541315E+04  0.15221541315E+04  0.50400001928E-02 0.  1.
    10030    2    1    2    0    0  0.00000000000E+00  0.00000000000E+00  0.62902214132E+02  0.31072104772E+04  0.31065737173E+04 0.  0.
        5    1    3    3  502    0  0.61887854381E+02 -0.10595077581E+04  0.11658313520E+04  0.15765695758E+04  0.46999998093E+01 0. -1.
       -5    1    3    3    0  502 -0.61887854381E+02  0.10595077581E+04 -0.11029291379E+04  0.15306409014E+04  0.46999998093E+01 0.  1.
</event>
<event>
 5   0  0.7094341E-06  0.3104235E+04  0.7818609E-02  0.8214577E-01
        2   -1    0    0  501    0  0.00000000000E+00  0.00000000000E+00  0.20859180595E+04  0.20859180595E+04  0.25500000920E-02 0. -1.
       -2   -1    0    0    0  501  0.00000000000E+00  0.00000000000E+00 -0.11549201467E+04  0.11549201467E+04  0.25500000920E-02 0.  1.
    10030    2    1    2    0    0  0.00000000000E+00  0.00000000000E+00  0.93099791281E+03  0.32408382062E+04  0.31042350371E+04 0.  0.
        3    1    3    3  502    0 -0.39947590180E+02  0.35471785289E+03 -0.11114843521E+04  0.11673979785E+04  0.10100000352E+00 0.  1.
       -3    1    3    3    0  502  0.39947590180E+02 -0.35471785289E+03  0.20424822649E+04  0.20734402277E+04  0.10100000352E+00 0. -1.
</event>
<event>
 5   0  0.7071012E-06  0.3053033E+04  0.7818609E-02  0.8228747E-01
        2   -1    0    0  501    0  0.00000000000E+00  0.00000000000E+00  0.14683907417E+04  0.14683907417E+04  0.25500000920E-02 0. -1.
       -2   -1    0    0    0  501  0.00000000000E+00  0.00000000000E+00 -0.15869435145E+04  0.15869435145E+04  0.25500000920E-02 0.  1.
    10030    2    1    2    0    0  0.00000000000E+00  0.00000000000E+00 -0.11855277274E+03  0.30553342562E+04  0.30530333534E+04 0.  0.
        1    1    3    3  502    0  0.10150319446E+04  0.11183020823E+04 -0.28162341722E+03  0.15362946152E+04  0.50400001928E-02 0. -1.
       -1    1    3    3    0  502 -0.10150319446E+04 -0.11183020823E+04  0.16307064449E+03  0.15190396409E+04  0.50400001928E-02 0.  1.
</event>
<event>
 5   0  0.2674441E-06  0.3043284E+04  0.7818609E-02  0.8231478E-01
       -1   -1    0    0    0  501  0.00000000000E+00  0.00000000000E+00  0.13636501714E+04  0.13636501714E+04  0.50400001928E-02 0.  1.
        1   -1    0    0  501    0  0.00000000000E+00  0.00000000000E+00 -0.16979386809E+04  0.16979386809E+04  0.50400001928E-02 0. -1.
    10030    2    1    2    0    0  0.00000000000E+00  0.00000000000E+00 -0.33428850957E+03  0.30615888523E+04  0.30432839981E+04 0.  0.
        5    1    3    3  502    0 -0.14534902647E+04  0.44324423605E+03 -0.24682216007E+03  0.15394942907E+04  0.46999998093E+01 0. -1.
       -5    1    3    3    0  502  0.14534902647E+04 -0.44324423605E+03 -0.87466349498E+02  0.15220945616E+04  0.46999998093E+01 0.  1.
</event>
<event>
 5   0  0.2598987E-06  0.3233758E+04  0.7818609E-02  0.8179958E-01
       -1   -1    0    0    0  501  0.00000000000E+00  0.00000000000E+00  0.10706684672E+04  0.10706684672E+04  0.50400001928E-02 0. -1.
        1   -1    0    0  501    0  0.00000000000E+00  0.00000000000E+00 -0.24417433548E+04  0.24417433548E+04  0.50400001928E-02 0.  1.
    10030    2    1    2    0    0  0.00000000000E+00  0.00000000000E+00 -0.13710748876E+04  0.35124118220E+04  0.32337579471E+04 0.  0.
        2    1    3    3  502    0 -0.18139208094E+03 -0.10466539035E+04  0.63848148362E+03  0.12393732632E+04  0.25500000920E-02 0. -1.
       -2    1    3    3    0  502  0.18139208094E+03  0.10466539035E+04 -0.20095563712E+04  0.22730385588E+04  0.25500000920E-02 0.  1.
</event>
<event>
 5   0  0.7414808E-06  0.3137011E+04  0.7818609E-02  0.8205653E-01
       -2   -1    0    0    0  501  0.00000000000E+00  0.00000000000E+00  0.16897808622E+04  0.16897808622E+04  0.25500000920E-02 0. -1.
        2   -1    0    0  501    0  0.00000000000E+00  0.00000000000E+00 -0.14559340989E+04  0.14559340989E+04  0.25500000920E-02 0.  1.
    10030    2    1    2    0    0  0.00000000000E+00  0.00000000000E+00  0.23384676328E+03  0.31457149611E+04  0.31370110468E+04 0.  0.
        2    1    3    3  502    0 -0.11978981911E+04  0.92360359422E+03  0.53305176094E+03  0.16037917120E+04  0.25500000920E-02 0. -1.
       -2    1    3    3    0  502  0.11978981911E+04 -0.92360359422E+03 -0.29920499766E+03  0.15419232491E+04  0.25500000920E-02 0.  1.
</event>
<event>
 5   0  0.7414808E-06  0.2084623E+04  0.7818609E-02  0.8568048E-01
        2   -1    0    0  501    0  0.00000000000E+00  0.00000000000E+00  0.18175685221E+04  0.18175685221E+04  0.25500000920E-02 0.  1.
       -2   -1    0    0    0  501  0.00000000000E+00  0.00000000000E+00 -0.59772864671E+03  0.59772864672E+03  0.25500000920E-02 0. -1.
    10030    2    1    2    0    0  0.00000000000E+00  0.00000000000E+00  0.12198398754E+04  0.24152971688E+04  0.20846225299E+04 0.  0.
        2    1    3    3  502    0  0.13100796184E+03 -0.61056057544E+03  0.15768452737E+04  0.16959918395E+04  0.25500000920E-02 0.  1.
       -2    1    3    3    0  502 -0.13100796184E+03  0.61056057544E+03 -0.35700539834E+03  0.71930532933E+03  0.25500000920E-02 0. -1.
</event>
<event>
 5   0  0.2517725E-06  0.3114819E+04  0.7818609E-02  0.8211683E-01
       -1   -1    0    0    0  501  0.00000000000E+00  0.00000000000E+00  0.16209070785E+04  0.16209070785E+04  0.50400001928E-02 0.  1.
        1   -1    0    0  501    0  0.00000000000E+00  0.00000000000E+00 -0.14963990073E+04  0.14963990073E+04  0.50400001928E-02 0. -1.
    10030    2    1    2    0    0  0.00000000000E+00  0.00000000000E+00  0.12450807119E+03  0.31173060858E+04  0.31148186099E+04 0.  0.
        3    1    3    3  502    0 -0.10364904358E+04  0.71807100609E+03 -0.85257953382E+03  0.15221137490E+04  0.10100000352E+00 0. -1.
       -3    1    3    3    0  502  0.10364904358E+04 -0.71807100609E+03  0.97708760501E+03  0.15951923368E+04  0.10100000352E+00 0.  1.
</event>
<event>
 5   0  0.2598987E-06  0.3197525E+04  0.7818609E-02  0.8189471E-01
        1   -1    0    0  501    0  0.00000000000E+00  0.00000000000E+00  0.17016534994E+04  0.17016534994E+04  0.50400001928E-02 0. -1.
       -1   -1    0    0    0  501  0.00000000000E+00  0.00000000000E+00 -0.15020926484E+04  0.15020926484E+04  0.50400001928E-02 0.  1.
    10030    2    1    2    0    0  0.00000000000E+00  0.00000000000E+00  0.19956085103E+03  0.32037461478E+04  0.31975248000E+04 0.  0.
        2    1    3    3  502    0  0.36502345962E+03 -0.92557752229E+03 -0.11540957774E+04  0.15237693196E+04  0.25500000920E-02 0.  1.
       -2    1    3    3    0  502 -0.36502345962E+03  0.92557752229E+03  0.13536566284E+04  0.16799768283E+04  0.25500000920E-02 0. -1.
</event>
<event>
 5   0  0.7071012E-06  0.3093473E+04  0.7818609E-02  0.8217531E-01
       -2   -1    0    0    0  501  0.00000000000E+00  0.00000000000E+00  0.18826127171E+04  0.18826127171E+04  0.25500000920E-02 0. -1.
        2   -1    0    0  501    0  0.00000000000E+00  0.00000000000E+00 -0.12707842304E+04  0.12707842304E+04  0.25500000920E-02 0.  1.
    10030    2    1    2    0    0  0.00000000000E+00  0.00000000000E+00  0.61182848664E+03  0.31533969475E+04  0.30934734865E+04 0.  0.
        1    1    3    3  502    0  0.53334472894E+02 -0.49382255103E+03 -0.11872777756E+04  0.12869863226E+04  0.50400001928E-02 0.  1.
       -1    1    3    3    0  502 -0.53334472894E+02  0.49382255103E+03  0.17991062623E+04  0.18664106250E+04  0.50400001928E-02 0. -1.
</event>
<event>
 5   0  0.2612331E-06  0.3205305E+04  0.7818609E-02  0.8187417E-01
        1   -1    0    0  501    0  0.00000000000E+00  0.00000000000E+00  0.13519818982E+04  0.13519818982E+04  0.50400001928E-02 0.  1.
       -1   -1    0    0    0  501  0.00000000000E+00  0.00000000000E+00 -0.18998002436E+04  0.18998002436E+04  0.50400001928E-02 0. -1.
    10030    2    1    2    0    0  0.00000000000E+00  0.00000000000E+00 -0.54781834542E+03  0.32517821419E+04  0.32053053144E+04 0.  0.
        4    1    3    3  502    0  0.10891124381E+04  0.11101905581E+04 -0.66656777648E+03  0.16920411318E+04  0.12699999809E+01 0. -1.
       -4    1    3    3    0  502 -0.10891124381E+04 -0.11101905581E+04  0.11874943106E+03  0.15597410101E+04  0.12699999809E+01 0.  1.
</event>
<event>
 5   0  0.7071012E-06  0.2066172E+04  0.7818609E-02  0.8576293E-01
        2   -1    0    0  501    0  0.00000000000E+00  0.00000000000E+00  0.10147820650E+04  0.10147820650E+04  0.25500000920E-02 0.  1.
       -2   -1    0    0    0  501  0.00000000000E+00  0.00000000000E+00 -0.10517203061E+04  0.10517203061E+04  0.25500000920E-02 0. -1.
    10030    2    1    2    0    0  0.00000000000E+00  0.00000000000E+00 -0.36938241106E+02  0.20665023711E+04  0.20661722136E+04 0.  0.
        1    1    3    3  502    0  0.43863038730E+03 -0.53364433359E+03  0.74982939705E+03  0.10195180313E+04  0.50400001928E-02 0.  1.
       -1    1    3    3    0  502 -0.43863038730E+03  0.53364433359E+03 -0.78676763815E+03  0.10469843399E+04  0.50400001928E-02 0. -1.
</event>
<event>
 5   0  0.2624011E-06  0.3047369E+04  0.7818609E-02  0.8230332E-01
        1   -1    0    0  501    0  0.00000000000E+00  0.00000000000E+00  0.12663280738E+04  0.12663280738E+04  0.50400001928E-02 0.  1.
       -1   -1    0    0    0  501  0.00000000000E+00  0.00000000000E+00 -0.18333436340E+04  0.18333436340E+04  0.50400001928E-02 0. -1.
    10030    2    1    2    0    0  0.00000000000E+00  0.00000000000E+00 -0.56701556016E+03  0.30996717078E+04  0.30473690375E+04 0.  0.
        1    1    3    3  502    0 -0.12352378307E+04 -0.73254197180E+03 -0.80134703850E+03  0.16445629556E+04  0.50400001928E-02 0. -1.
       -1    1    3    3    0  502  0.12352378307E+04  0.73254197180E+03  0.23433147834E+03  0.14551087522E+04  0.50400001928E-02 0.  1.
</event>
<event>
 5   0  0.7363513E-06  0.3140057E+04  0.7818609E-02  0.8204830E-01
        2   -1    0    0  501    0  0.00000000000E+00  0.00000000000E+00  0.13401207608E+04  0.13401207608E+04  0.25500000920E-02 0.  1.
       -2   -1    0    0    0  501  0.00000000000E+00  0.00000000000E+00 -0.18393784556E+04  0.18393784556E+04  0.25500000920E-02 0. -1.
    10030    2    1    2    0    0  0.00000000000E+00  0.00000000000E+00 -0.49925769472E+03  0.31794992164E+04  0.31400568500E+04 0.  0.
        4    1    3    3  502    0 -0.14180242979E+04  0.67218484993E+03 -0.29884244342E+03  0.15974773241E+04  0.12699999809E+01 0. -1.
       -4    1    3    3    0  502  0.14180242979E+04 -0.67218484993E+03 -0.20041525131E+03  0.15820218923E+04  0.12699999809E+01 0.  1.
</event>
<event>
 5   0  0.2674441E-06  0.2822487E+04  0.7818609E-02  0.8296321E-01
       -1   -1    0    0    0  501  0.00000000000E+00  0.00000000000E+00  0.98934855456E+03  0.98934855457E+03  0.50400001928E-02 0. -1.
        1   -1    0    0  501    0  0.00000000000E+00  0.00000000000E+00 -0.20130503825E+04  0.20130503825E+04  0.50400001928E-02 0.  1.
    10030    2    1    2    0    0  0.00000000000E+00  0.00000000000E+00 -0.10237018279E+04  0.30023989370E+04  0.28224871912E+04 0.  0.
        5    1    3    3  502    0  0.23325687260E+03 -0.70570711217E+03  0.76426527544E+03  0.10660932408E+04  0.46999998093E+01 0. -1.
       -5    1    3    3    0  502 -0.23325687260E+03  0.70570711217E+03 -0.17879671033E+04  0.19363056963E+04  0.46999998093E+01 0.  1.
</event>
<event>
 5   0  0.7094341E-06  0.1957180E+04  0.7818609E-02  0.8626906E-01
       -2   -1    0    0    0  501  0.00000000000E+00  0.00000000000E+00  0.80814548655E+03  0.80814548656E+03  0.25500000920E-02 0. -1.
        2   -1    0    0  501    0  0.00000000000E+00  0.00000000000E+00 -0.11849832066E+04  0.11849832066E+04  0.25500000920E-02 0.  1.
    10030    2    1    2    0    0  0.00000000000E+00  0.00000000000E+00 -0.37683772006E+03  0.19931286932E+04  0.19571804516E+04 0.  0.
        3    1    3    3  502    0 -0.29637216037E+03  0.88424020683E+03 -0.49038087199E+03  0.10536558312E+04  0.10100000352E+00 0.  1.
       -3    1    3    3    0  502  0.29637216037E+03 -0.88424020683E+03  0.11354315193E+03  0.93947286197E+03  0.10100000352E+00 0. -1.
</event>
<event>
 5   0  0.7414808E-06  0.3082740E+04  0.7818609E-02  0.8220491E-01
        2   -1    0    0  501    0  0.00000000000E+00  0.00000000000E+00  0.22668182673E+04  0.22668182673E+04  0.25500000920E-02 0. -1.
       -2   -1    0    0    0  501  0.00000000000E+00  0.00000000000E+00 -0.10480867576E+04  0.10480867577E+04  0.25500000920E-02 0.  1.
    10030    2    1    2    0    0  0.00000000000E+00  0.00000000000E+00  0.12187315097E+04  0.33149050250E+04  0.30827404743E+04 0.  0.
        2    1    3    3  502    0  0.20000897640E+03  0.47310223932E+03 -0.95335129785E+03  0.10829164403E+04  0.25500000920E-02 0.  1.
       -2    1    3    3    0  502 -0.20000897640E+03 -0.47310223932E+03  0.21720828075E+04  0.22319885847E+04  0.25500000920E-02 0. -1.
</event>
<event>
 5   0  0.7071012E-06  0.3211708E+04  0.7818609E-02  0.8185732E-01
       -2   -1    0    0    0  501  0.00000000000E+00  0.00000000000E+00  0.10140073648E+04  0.10140073648E+04  0.25500000920E-02 0. -1.
        2   -1    0    0  501    0  0.00000000000E+00  0.00000000000E+00 -0.25431443426E+04  0.25431443426E+04  0.25500000920E-02 0.  1.
    10030    2    1    2    0    0  0.00000000000E+00  0.00000000000E+00 -0.15291369778E+04  0.35571517074E+04  0.32117080149E+04 0.  0.
        1    1    3    3  502    0  0.64592883112E+03  0.10318891055E+04 -0.19244663305E+04  0.22771890212E+04  0.50400001928E-02 0.  1.
       -1    1    3    3    0  502 -0.64592883112E+03 -0.10318891055E+04  0.39532935271E+03  0.12799626862E+04  0.50400001928E-02 0. -1.
</event>
<event>
 5   0  0.2598987E-06  0.3085972E+04  0.7818609E-02  0.8219598E-01
       -1   -1    0    0    0  501  0.00000000000E+00  0.00000000000E+00  0.11882380606E+04  0.11882380606E+04  0.50400001928E-02 0.  1.
        1   -1    0    0  501    0  0.00000000000E+00  0.00000000000E+00 -0.20036435485E+04  0.20036435485E+04  0.50400001928E-02 0. -1.
    10030    2    1    2    0    0  0.00000000000E+00  0.00000000000E+00 -0.81540548790E+03  0.31918816091E+04  0.30859718238E+04 0.  0.
        2    1    3    3  502    0 -0.35098851163E+03 -0.14190013339E+04  0.10326356972E+03  0.14654081635E+04  0.25500000920E-02 0.  1.
       -2    1    3    3    0  502  0.35098851163E+03  0.14190013339E+04 -0.91866905762E+03  0.17264734456E+04  0.25500000920E-02 0. -1.
</event>
<event>
 5   0  0.7414808E-06  0.3147216E+04  0.7818609E-02  0.8202898E-01
        2   -1    0    0  501    0  0.00000000000E+00  0.00000000000E+00  0.16351737614E+04  0.16351737614E+04  0.25500000920E-02 0.  1.
       -2   -1    0    0    0  501  0.00000000000E+00  0.00000000000E+00 -0.15143606253E+04  0.15143606253E+04  0.25500000920E-02 0. -1.
    10030    2    1    2    0    0  0.00000000000E+00  0.00000000000E+00  0.12081313615E+03  0.31495343867E+04  0.31472163954E+04 0.  0.
        2    1    3    3  502    0 -0.28054413176E+03  0.18352935255E+03  0.15990222013E+04  0.16337870221E+04  0.25500000920E-02 0.  1.
       -2    1    3    3    0  502  0.28054413176E+03 -0.18352935255E+03 -0.14782090652E+04  0.15157473647E+04  0.25500000920E-02 0. -1.
</event>
<event>
 5   0  0.2517725E-06  0.3101999E+04  0.7818609E-02  0.8215189E-01
        1   -1    0    0  501    0  0.00000000000E+00  0.00000000000E+00  0.23006637686E+04  0.23006637686E+04  0.50400001928E-02 0.  1.
       -1   -1    0    0    0  501  0.00000000000E+00  0.00000000000E+00 -0.10456111283E+04  0.10456111283E+04  0.50400001928E-02 0. -1.
    10030    2    1    2    0    0  0.00000000000E+00  0.00000000000E+00  0.12550526403E+04  0.33462748969E+04  0.31019991225E+04 0.  0.
        3    1    3    3  502    0  0.10424500278E+04  0.63426971337E+03 -0.40525827777E+03  0.12857816345E+04  0.10100000352E+00 0. -1.
       -3    1    3    3    0  502 -0.10424500278E+04 -0.63426971337E+03  0.16603109181E+04  0.20604932624E+04  0.10100000352E+00 0.  1.
</event>
<event>
 5   0  0.2612331E-06  0.3120124E+04  0.7818609E-02  0.8210237E-01
       -1   -1    0    0    0  501  0.00000000000E+00  0.00000000000E+00  0.15611193974E+04  0.15611193974E+04  0.50400001928E-02 0. -1.
        1   -1    0    0  501    0  0.00000000000E+00  0.00000000000E+00 -0.15590048633E+04  0.15590048633E+04  0.50400001928E-02 0.  1.
    10030    2    1    2    0    0  0.00000000000E+00  0.00000000000E+00  0.21145341104E+01  0.31201242607E+04  0.31201235442E+04 0.  0.
        4    1    3    3  502    0  0.70386311352E+03 -0.39034588334E+03 -0.13353553747E+04  0.15591564324E+04  0.12699999809E+01 0.  1.
       -4    1    3    3    0  502 -0.70386311352E+03  0.39034588334E+03  0.13374699088E+04  0.15609678283E+04  0.12699999809E+01 0. -1.
</event>
<event>
 5   0  0.2598987E-06  0.3113924E+04  0.7818609E-02  0.8211927E-01
        1   -1    0    0  501    0  0.00000000000E+00  0.00000000000E+00  0.20140742584E+04  0.20140742584E+04  0.50400001928E-02 0.  1.
       -1   -1    0    0    0  501  0.00000000000E+00  0.00000000000E+00 -0.12035954301E+04  0.12035954301E+04  0.50400001928E-02 0. -1.
    10030    2    1    2    0    0  0.00000000000E+00  0.00000000000E+00  0.81047882829E+03  0.32176696884E+04  0.31139239382E+04 0.  0.
        2    1    3    3  502    0  0.14475894214E+04  0.56621094296E+03  0.31269779071E+03  0.15855251096E+04  0.25500000920E-02 0. -1.
       -2    1    3    3    0  502 -0.14475894214E+04 -0.56621094296E+03  0.49778103759E+03  0.16321445788E+04  0.25500000920E-02 0.  1.
</event>
<event>
 5   0  0.2674441E-06  0.3013083E+04  0.7818609E-02  0.8240005E-01
        1   -1    0    0  501    0  0.00000000000E+00  0.00000000000E+00  0.16086371632E+04  0.16086371632E+04  0.50400001928E-02 0.  1.
       -1   -1    0    0    0  501  0.00000000000E+00  0.00000000000E+00 -0.14109257817E+04  0.14109257817E+04  0.50400001928E-02 0. -1.
    10030    2    1    2    0    0  0.00000000000E+00  0.00000000000E+00  0.19771138145E+03  0.30195629449E+04  0.30130832361E+04 0.  0.
        5    1    3    3  502    0 -0.10698086063E+04 -0.79462420368E+03  0.80302421243E+03  0.15558881885E+04  0.46999998093E+01 0.  1.
       -5    1    3    3    0  502  0.10698086063E+04  0.79462420368E+03 -0.60531283098E+03  0.14636747564E+04  0.46999998093E+01 0. -1.
</event>
<event>
 5   0  0.7071012E-06  0.2989882E+04  0.7818609E-02  0.8246626E-01
        2   -1    0    0  501    0  0.00000000000E+00  0.00000000000E+00  0.22454725718E+04  0.22454725718E+04  0.25500000920E-02 0. -1.
       -2   -1    0    0    0  501  0.00000000000E+00  0.00000000000E+00 -0.99526900961E+03  0.99526900962E+03  0.25500000920E-02 0.  1.
    10030    2    1    2    0    0  0.00000000000E+00  0.00000000000E+00  0.12502035621E+04  0.32407415814E+04  0.29898824476E+04 0.  0.
        1    1    3    3  502    0  0.11193592012E+04 -0.41924432216E+03 -0.34807046701E+03  0.12449433212E+04  0.50400001928E-02 0.  1.
       -1    1    3    3    0  502 -0.11193592012E+04  0.41924432216E+03  0.15982740292E+04  0.19957982602E+04  0.50400001928E-02 0. -1.
</event>
<event>
 5   0  0.7363513E-06  0.3109645E+04  0.7818609E-02  0.8213096E-01
       -2   -1    0    0    0  501  0.00000000000E+00  0.00000000000E+00  0.12656471098E+04  0.12656471098E+04  0.25500000920E-02 0. -1.
        2   -1    0    0  501    0  0.00000000000E+00  0.00000000000E+00 -0.19100688161E+04  0.19100688161E+04  0.25500000920E-02 0.  1.
    10030    2    1    2    0    0  0.00000000000E+00  0.00000000000E+00 -0.64442170629E+03  0.31757159259E+04  0.31096450451E+04 0.  0.
        4    1    3    3  502    0 -0.58857915599E+03  0.12479386651E+04  0.40974274843E+03  0.14393286864E+04  0.12699999809E+01 0. -1.
       -4    1    3    3    0  502  0.58857915599E+03 -0.12479386651E+04 -0.10541644547E+04  0.17363872394E+04  0.12699999809E+01 0.  1.
</event>
<event>
 5   0  0.7094341E-06  0.2503534E+04  0.7818609E-02  0.8401728E-01
        2   -1    0    0  501    0  0.00000000000E+00  0.00000000000E+00  0.22303226824E+04  0.22303226824E+04  0.25500000920E-02 0.  1.
       -2   -1    0    0    0  501  0.00000000000E+00  0.00000000000E+00 -0.70255310813E+03  0.70255310813E+03  0.25500000920E-02 0. -1.
    10030    2    1    2    0    0  0.00000000000E+00  0.00000000000E+00  0.15277695742E+04  0.29328757905E+04  0.25035336088E+04 0.  0.
        3    1    3    3  502    0  0.43612018843E+03  0.96547436360E+03  0.15449989288E+04  0.18733294600E+04  0.10100000352E+00 0.  1.
       -3    1    3    3    0  502 -0.43612018843E+03 -0.96547436360E+03 -0.17229354606E+02  0.10595463305E+04  0.10100000352E+00 0. -1.
</event>
<event>
 5   0  0.2598987E-06  0.2206594E+04  0.7818609E-02  0.8515689E-01
        1   -1    0    0  501    0  0.00000000000E+00  0.00000000000E+00  0.15596932981E+04  0.15596932981E+04  0.50400001928E-02 0.  1.
       -1   -1    0    0    0  501  0.00000000000E+00  0.00000000000E+00 -0.78045106661E+03  0.78045106662E+03  0.50400001928E-02 0. -1.
    10030    2    1    2    0    0  0.00000000000E+00  0.00000000000E+00  0.77924223146E+03  0.23401443647E+04  0.22065940253E+04 0.  0.
        2    1    3    3  502    0  0.10879518955E+04  0.11880482570E+02  0.19556034783E+03  0.11054520896E+04  0.25500000920E-02 0. -1.
       -2    1    3    3    0  502 -0.10879518955E+04 -0.11880482570E+02  0.58368188364E+03  0.12346922751E+04  0.25500000920E-02 0.  1.
</event>
<event>
 5   0  0.2393250E-06  0.3102483E+04  0.7818609E-02  0.8215057E-01
        4   -1    0    0  501    0  0.00000000000E+00  0.00000000000E+00  0.12405390623E+04  0.12405397124E+04  0.12699999809E+01 0. -1.
       -4   -1    0    0    0  501  0.00000000000E+00  0.00000000000E+00 -0.19397603430E+04  0.19397607587E+04  0.12699999809E+01 0.  1.
    10030    2    1    2    0    0  0.00000000000E+00  0.00000000000E+00 -0.69922128066E+03  0.31803004711E+04  0.31024829874E+04 0.  0.
        5    1    3    3  502    0  0.44782577646E+03  0.72898713512E+02  0.11709931530E+04  0.12558300852E+04  0.46999998093E+01 0. -1.
       -5    1    3    3    0  502 -0.44782577646E+03 -0.72898713512E+02 -0.18702144336E+04  0.19244703859E+04  0.46999998093E+01 0.  1.
</event>
<event>
 5   0  0.2393250E-06  0.2539504E+04  0.7818609E-02  0.8389046E-01
       -3   -1    0    0    0  501  0.00000000000E+00  0.00000000000E+00  0.10156724740E+04  0.10156724790E+04  0.10100000352E+00 0. -1.
        3   -1    0    0  501    0  0.00000000000E+00  0.00000000000E+00 -0.15873913986E+04  0.15873914018E+04  0.10100000352E+00 0.  1.
    10030    2    1    2    0    0  0.00000000000E+00  0.00000000000E+00 -0.57171892460E+03  0.26030638808E+04  0.25395036993E+04 0.  0.
        4    1    3    3  502    0 -0.33686684186E+02 -0.12664202918E+04 -0.37351588142E+03  0.13207841893E+04  0.12699999809E+01 0. -1.
       -4    1    3    3    0  502  0.33686684186E+02  0.12664202918E+04 -0.19820304318E+03  0.12822796915E+04  0.12699999809E+01 0.  1.
</event>
<event>
 5   0  0.2674441E-06  0.2282040E+04  0.7818609E-02  0.8485036E-01
        1   -1    0    0  501    0  0.00000000000E+00  0.00000000000E+00  0.94458540636E+03  0.94458540638E+03  0.50400001928E-02 0.  1.
       -1   -1    0    0    0  501  0.00000000000E+00  0.00000000000E+00 -0.13783046343E+04  0.13783046343E+04  0.50400001928E-02 0. -1.
    10030    2    1    2    0    0  0.00000000000E+00  0.00000000000E+00 -0.43371922794E+03  0.23228900407E+04  0.22820398271E+04 0.  0.
        5    1    3    3  502    0 -0.29275862745E+03 -0.49443848369E+03 -0.12202678004E+04  0.13487967315E+04  0.46999998093E+01 0. -1.
       -5    1    3    3    0  502  0.29275862745E+03  0.49443848369E+03  0.78654857251E+03  0.97409330919E+03  0.46999998093E+01 0.  1.
</event>
<event>
 5   0  0.2612331E-06  0.3058503E+04  0.7818609E-02  0.8227220E-01
       -1   -1    0    0    0  501  0.00000000000E+00  0.00000000000E+00  0.10410548841E+04  0.10410548841E+04  0.50400001928E-02 0.  1.
        1   -1    0    0  501    0  0.00000000000E+00  0.00000000000E+00 -0.22463846272E+04  0.22463846272E+04  0.50400001928E-02 0. -1.
    10030    2    1    2    0    0  0.00000000000E+00  0.00000000000E+00 -0.12053297432E+04  0.32874395113E+04  0.30585026976E+04 0.  0.
        4    1    3    3  502    0  0.10062528052E+04  0.26979006963E+03 -0.18059606221E+04  0.20849044993E+04  0.12699999809E+01 0. -1.
       -4    1    3    3    0  502 -0.10062528052E+04 -0.26979006963E+03  0.60063087891E+03  0.12025350121E+04  0.12699999809E+01 0.  1.
</event>
<event>
 5   0  0.2624011E-06  0.3163329E+04  0.7818609E-02  0.8198570E-01
        1   -1    0    0  501    0  0.00000000000E+00  0.00000000000E+00  0.15383471672E+04  0.15383471672E+04  0.50400001928E-02 0.  1.
       -1   -1    0    0    0  501  0.00000000000E+00  0.00000000000E+00 -0.16262014745E+04  0.16262014745E+04  0.50400001928E-02 0. -1.
    10030    2    1    2    0    0  0.00000000000E+00  0.00000000000E+00 -0.87854307357E+02  0.31645486417E+04  0.31633288995E+04 0.  0.
        1    1    3    3  502    0  0.95755803550E+03 -0.45575475870E+03  0.11299956632E+04  0.15496838356E+04  0.50400001928E-02 0.  1.
       -1    1    3    3    0  502 -0.95755803550E+03  0.45575475870E+03 -0.12178499705E+04  0.16148648061E+04  0.50400001928E-02 0. -1.
</event>
<event>
 5   0  0.7363513E-06  0.3099211E+04  0.7818609E-02  0.8215954E-01
        2   -1    0    0  501    0  0.00000000000E+00  0.00000000000E+00  0.19189086544E+04  0.19189086544E+04  0.25500000920E-02 0.  1.
       -2   -1    0    0    0  501  0.00000000000E+00  0.00000000000E+00 -0.12513768835E+04  0.12513768835E+04  0.25500000920E-02 0. -1.
    10030    2    1    2    0    0  0.00000000000E+00  0.00000000000E+00  0.66753177095E+03  0.31702855380E+04  0.30992114686E+04 0.  0.
        4    1    3    3  502    0  0.93594682374E+03  0.93190855365E+03  0.11628000711E+04  0.17597032783E+04  0.12699999809E+01 0.  1.
       -4    1    3    3    0  502 -0.93594682374E+03 -0.93190855365E+03 -0.49526830020E+03  0.14105822597E+04  0.12699999809E+01 0. -1.
</event>
<event>
 5   0  0.7079223E-06  0.3148289E+04  0.7818609E-02  0.8202609E-01
       -2   -1    0    0    0  501  0.00000000000E+00  0.00000000000E+00  0.14882608291E+04  0.14882608291E+04  0.25500000920E-02 0.  1.
        2   -1    0    0  501    0  0.00000000000E+00  0.00000000000E+00 -0.16649842144E+04  0.16649842144E+04  0.25500000920E-02 0. -1.
    10030    2    1    2    0    0  0.00000000000E+00  0.00000000000E+00 -0.17672338531E+03  0.31532450435E+04  0.31482889241E+04 0.  0.
        5    1    3    3  502    0 -0.81893919727E+03  0.10104945258E+03 -0.14310078240E+04  0.16518710249E+04  0.46999998093E+01 0. -1.
       -5    1    3    3    0  502  0.81893919727E+03 -0.10104945258E+03  0.12542844387E+04  0.15013740186E+04  0.46999998093E+01 0.  1.
</event>
<event>
 5   0  0.2674441E-06  0.3063883E+04  0.7818609E-02  0.8225720E-01
       -1   -1    0    0    0  501  0.00000000000E+00  0.00000000000E+00  0.10075894887E+04  0.10075894887E+04  0.50400001928E-02 0. -1.
        1   -1    0    0  501    0  0.00000000000E+00  0.00000000000E+00 -0.23291672063E+04  0.23291672063E+04  0.50400001928E-02 0.  1.
    10030    2    1    2    0    0  0.00000000000E+00  0.00000000000E+00 -0.13215777176E+04  0.33367566951E+04  0.30638827619E+04 0.  0.
        5    1    3    3  502    0 -0.95343676348E+03  0.11990420436E+04 -0.65112008211E+03  0.16645488685E+04  0.46999998093E+01 0.  1.
       -5    1    3    3    0  502  0.95343676348E+03 -0.11990420436E+04 -0.67045763549E+03  0.16722078266E+04  0.46999998093E+01 0. -1.
</event>
<event>
 5   0  0.7071012E-06  0.3072627E+04  0.7818609E-02  0.8223290E-01
        2   -1    0    0  501    0  0.00000000000E+00  0.00000000000E+00  0.19715082609E+04  0.19715082609E+04  0.25500000920E-02 0.  1.
       -2   -1    0    0    0  501  0.00000000000E+00  0.00000000000E+00 -0.11971847522E+04  0.11971847522E+04  0.25500000920E-02 0. -1.
    10030    2    1    2    0    0  0.00000000000E+00  0.00000000000E+00  0.77432350876E+03  0.31686930131E+04  0.30726272984E+04 0.  0.
        1    1    3    3  502    0 -0.27337662436E+03 -0.15656767700E+03  0.19378398734E+04  0.19632808233E+04  0.50400001928E-02 0.  1.
       -1    1    3    3    0  502  0.27337662436E+03  0.15656767700E+03 -0.11635163647E+04  0.12054121897E+04  0.50400001928E-02 0. -1.
</event>
<event>
 5   0  0.7414808E-06  0.3066531E+04  0.7818609E-02  0.8224984E-01
       -2   -1    0    0    0  501  0.00000000000E+00  0.00000000000E+00  0.99402617542E+03  0.99402617542E+03  0.25500000920E-02 0. -1.
        2   -1    0    0  501    0  0.00000000000E+00  0.00000000000E+00 -0.23650317533E+04  0.23650317533E+04  0.25500000920E-02 0.  1.
    10030    2    1    2    0    0  0.00000000000E+00  0.00000000000E+00 -0.13710055778E+04  0.33590579287E+04  0.30665312446E+04 0.  0.
        2    1    3    3  502    0 -0.46230317290E+02 -0.10846602368E+04 -0.18715049501E+04  0.21635978946E+04  0.25500000920E-02 0.  1.
       -2    1    3    3    0  502  0.46230317290E+02  0.10846602368E+04  0.50049937221E+03  0.11954600341E+04  0.25500000920E-02 0. -1.
</event>
<event>
 5   0  0.7414808E-06  0.3074862E+04  0.7818609E-02  0.8222671E-01
       -2   -1    0    0    0  501  0.00000000000E+00  0.00000000000E+00  0.27342684049E+04  0.27342684049E+04  0.25500000920E-02 0. -1.
        2   -1    0    0  501    0  0.00000000000E+00  0.00000000000E+00 -0.86447022952E+03  0.86447022953E+03  0.25500000920E-02 0.  1.
    10030    2    1    2    0    0  0.00000000000E+00  0.00000000000E+00  0.18697981753E+04  0.35987386344E+04  0.30748617111E+04 0.  0.
        2    1    3    3  502    0  0.58640145535E+03  0.13916460516E+04  0.12723815715E+04  0.19747152360E+04  0.25500000920E-02 0. -1.
       -2    1    3    3    0  502 -0.58640145535E+03 -0.13916460516E+04  0.59741660385E+03  0.16240233984E+04  0.25500000920E-02 0.  1.
</event>
<event>
 5   0  0.2612331E-06  0.3137727E+04  0.7818609E-02  0.8205460E-01
        1   -1    0    0  501    0  0.00000000000E+00  0.00000000000E+00  0.14324119492E+04  0.14324119493E+04  0.50400001928E-02 0.  1.
       -1   -1    0    0    0  501  0.00000000000E+00  0.00000000000E+00 -0.17183133501E+04  0.17183133501E+04  0.50400001928E-02 0. -1.
    10030    2    1    2    0    0  0.00000000000E+00  0.00000000000E+00 -0.28590140082E+03  0.31507252993E+04  0.31377269322E+04 0.  0.
        4    1    3    3  502    0  0.48892629278E+03  0.94394665820E+03 -0.13015270928E+04  0.16804935583E+04  0.12699999809E+01 0. -1.
       -4    1    3    3    0  502 -0.48892629278E+03 -0.94394665820E+03  0.10156256920E+04  0.14702317410E+04  0.12699999809E+01 0.  1.
</event>
<event>
 5   0  0.2624011E-06  0.3062062E+04  0.7818609E-02  0.8226227E-01
        1   -1    0    0  501    0  0.00000000000E+00  0.00000000000E+00  0.18645182499E+04  0.18645182499E+04  0.50400001928E-02 0. -1.
       -1   -1    0    0    0  501  0.00000000000E+00  0.00000000000E+00 -0.12571915103E+04  0.12571915103E+04  0.50400001928E-02 0.  1.
    10030    2    1    2    0    0  0.00000000000E+00  0.00000000000E+00  0.60732673961E+03  0.31217097602E+04  0.30620623864E+04 0.  0.
        1    1    3    3  502    0  0.72550131901E+03  0.72449029477E+03 -0.85550683629E+03  0.13353390199E+04  0.50400001928E-02 0.  1.
       -1    1    3    3    0  502 -0.72550131901E+03 -0.72449029477E+03  0.14628335759E+04  0.17863707403E+04  0.50400001928E-02 0. -1.
</event>
<event>
 5   0  0.7079223E-06  0.3103556E+04  0.7818609E-02  0.8214763E-01
        2   -1    0    0  501    0  0.00000000000E+00  0.00000000000E+00  0.15469710407E+04  0.15469710407E+04  0.25500000920E-02 0. -1.
       -2   -1    0    0    0  501  0.00000000000E+00  0.00000000000E+00 -0.15565996884E+04  0.15565996884E+04  0.25500000920E-02 0.  1.
    10030    2    1    2    0    0  0.00000000000E+00  0.00000000000E+00 -0.96286477241E+01  0.31035707291E+04  0.31035557929E+04 0.  0.
        5    1    3    3  502    0  0.33454507726E+03 -0.90273274883E+03 -0.12218434861E+04  0.15555611267E+04  0.46999998093E+01 0.  1.
       -5    1    3    3    0  502 -0.33454507726E+03  0.90273274883E+03  0.12122148384E+04  0.15480096023E+04  0.46999998093E+01 0. -1.
</event>
<event>
 5   0  0.2674441E-06  0.2558501E+04  0.7818609E-02  0.8382436E-01
        1   -1    0    0  501    0  0.00000000000E+00  0.00000000000E+00  0.20951762759E+04  0.20951762759E+04  0.50400001928E-02 0.  1.
       -1   -1    0    0    0  501  0.00000000000E+00  0.00000000000E+00 -0.78107102460E+03  0.78107102461E+03  0.50400001928E-02 0. -1.
    10030    2    1    2    0    0  0.00000000000E+00  0.00000000000E+00  0.13141052513E+04  0.28762473005E+04  0.25585007177E+04 0.  0.
        5    1    3    3  502    0  0.11527972237E+04 -0.23380945639E+03  0.91760291833E+02  0.11798518305E+04  0.46999998093E+01 0. -1.
       -5    1    3    3    0  502 -0.11527972237E+04  0.23380945639E+03  0.12223449595E+04  0.16963954700E+04  0.46999998093E+01 0.  1.
</event>
<event>
 5   0  0.7414808E-06  0.3148441E+04  0.7818609E-02  0.8202568E-01
        2   -1    0    0  501    0  0.00000000000E+00  0.00000000000E+00  0.19297972784E+04  0.19297972785E+04  0.25500000920E-02 0.  1.
       -2   -1    0    0    0  501  0.00000000000E+00  0.00000000000E+00 -0.12841608956E+04  0.12841608956E+04  0.25500000920E-02 0. -1.
    10030    2    1    2    0    0  0.00000000000E+00  0.00000000000E+00  0.64563638283E+03  0.32139581741E+04  0.31484410120E+04 0.  0.
        2    1    3    3  502    0  0.93705101013E+03 -0.85186782478E+03 -0.63174875761E+03  0.14152207882E+04  0.25500000920E-02 0. -1.
       -2    1    3    3    0  502 -0.93705101013E+03  0.85186782478E+03  0.12773851404E+04  0.17987373859E+04  0.25500000920E-02 0.  1.
</event>
<event>
 5   0  0.7363513E-06  0.2931924E+04  0.7818609E-02  0.8263442E-01
        2   -1    0    0  501    0  0.00000000000E+00  0.00000000000E+00  0.17758245271E+04  0.17758245271E+04  0.25500000920E-02 0. -1.
       -2   -1    0    0    0  501  0.00000000000E+00  0.00000000000E+00 -0.12101668614E+04  0.12101668614E+04  0.25500000920E-02 0.  1.
    10030    2    1    2    0    0  0.00000000000E+00  0.00000000000E+00  0.56565766574E+03  0.29859913886E+04  0.29319235968E+04 0.  0.
        4    1    3    3  502    0 -0.57756206543E+03  0.11664850390E+04 -0.40397892816E+03  0.13628887970E+04  0.12699999809E+01 0.  1.
       -4    1    3    3    0  502  0.57756206543E+03 -0.11664850390E+04  0.96963659389E+03  0.16231025916E+04  0.12699999809E+01 0. -1.
</event>
<event>
 5   0  0.2612331E-06  0.2954193E+04  0.7818609E-02  0.8256934E-01
        1   -1    0    0  501    0  0.00000000000E+00  0.00000000000E+00  0.24027554238E+04  0.24027554238E+04  0.50400001928E-02 0.  1.
       -1   -1    0    0    0  501  0.00000000000E+00  0.00000000000E+00 -0.90804657030E+03  0.90804657032E+03  0.50400001928E-02 0. -1.
    10030    2    1    2    0    0  0.00000000000E+00  0.00000000000E+00  0.14947088535E+04  0.33108019941E+04  0.29541928318E+04 0.  0.
        4    1    3    3  502    0  0.28009501011E+03 -0.78375099278E+03  0.21149425921E+04  0.22728182097E+04  0.12699999809E+01 0.  1.
       -4    1    3    3    0  502 -0.28009501011E+03  0.78375099278E+03 -0.62023373861E+03  0.10379837845E+04  0.12699999809E+01 0. -1.
</event>
<event>
 5   0  0.7079223E-06  0.2428405E+04  0.7818609E-02  0.8428945E-01
       -2   -1    0    0    0  501  0.00000000000E+00  0.00000000000E+00  0.15195500532E+04  0.15195500532E+04  0.25500000920E-02 0.  1.
        2   -1    0    0  501    0  0.00000000000E+00  0.00000000000E+00 -0.97021313698E+03  0.97021313699E+03  0.25500000920E-02 0. -1.
    10030    2    1    2    0    0  0.00000000000E+00  0.00000000000E+00  0.54933691617E+03  0.24897631901E+04  0.24284047635E+04 0.  0.
        5    1    3    3  502    0 -0.72981272252E+03 -0.96075741154E+03  0.41443577577E+03  0.12757196071E+04  0.46999998093E+01 0.  1.
       -5    1    3    3    0  502  0.72981272252E+03  0.96075741154E+03  0.13490114040E+03  0.12140435830E+04  0.46999998093E+01 0. -1.
</event>
<event>
 5   0  0.7094341E-06  0.3062567E+04  0.7818609E-02  0.8226087E-01
        2   -1    0    0  501    0  0.00000000000E+00  0.00000000000E+00  0.12937520213E+04  0.12937520213E+04  0.25500000920E-02 0. -1.
       -2   -1    0    0    0  501  0.00000000000E+00  0.00000000000E+00 -0.18124250359E+04  0.18124250359E+04  0.25500000920E-02 0.  1.
    10030    2    1    2    0    0  0.00000000000E+00  0.00000000000E+00 -0.51867301465E+03  0.31061770572E+04  0.30625666057E+04 0.  0.
        3    1    3    3  502    0  0.38664922053E+03 -0.76474683915E+03 -0.15464596886E+04  0.17680138366E+04  0.10100000352E+00 0.  1.
       -3    1    3    3    0  502 -0.38664922053E+03  0.76474683915E+03  0.10277866739E+04  0.13381632206E+04  0.10100000352E+00 0. -1.
</event>
<event>
 5   0  0.7363513E-06  0.2988387E+04  0.7818609E-02  0.8247055E-01
        2   -1    0    0  501    0  0.00000000000E+00  0.00000000000E+00  0.28075002355E+04  0.28075002355E+04  0.25500000920E-02 0. -1.
       -2   -1    0    0    0  501  0.00000000000E+00  0.00000000000E+00 -0.79523216097E+03  0.79523216097E+03  0.25500000920E-02 0.  1.
    10030    2    1    2    0    0  0.00000000000E+00  0.00000000000E+00  0.20122680746E+04  0.36027323965E+04  0.29883871765E+04 0.  0.
        4    1    3    3  502    0 -0.12038028562E+04  0.27048215156E+03 -0.99260626828E+01  0.12338565761E+04  0.12699999809E+01 0.  1.
       -4    1    3    3    0  502  0.12038028562E+04 -0.27048215156E+03  0.20221941372E+04  0.23688758204E+04  0.12699999809E+01 0. -1.
</event>
<event>
 5   0  0.2598987E-06  0.3138523E+04  0.7818609E-02  0.8205244E-01
       -1   -1    0    0    0  501  0.00000000000E+00  0.00000000000E+00  0.14700987447E+04  0.14700987447E+04  0.50400001928E-02 0. -1.
        1   -1    0    0  501    0  0.00000000000E+00  0.00000000000E+00 -0.16751134820E+04  0.16751134820E+04  0.50400001928E-02 0.  1.
    10030    2    1    2    0    0  0.00000000000E+00  0.00000000000E+00 -0.20501473735E+03  0.31452122267E+04  0.31385233644E+04 0.  0.
        2    1    3    3  502    0 -0.15420163199E+04  0.15440828243E+03 -0.34986530370E+03  0.15887296746E+04  0.25500000920E-02 0.  1.
       -2    1    3    3    0  502  0.15420163199E+04 -0.15440828243E+03  0.14485056635E+03  0.15564825521E+04  0.25500000920E-02 0. -1.
</event>
<event>
 5   0  0.7094341E-06  0.3170084E+04  0.7818609E-02  0.8196763E-01
        2   -1    0    0  501    0  0.00000000000E+00  0.00000000000E+00  0.13743846991E+04  0.13743846991E+04  0.25500000920E-02 0.  1.
       -2   -1    0    0    0  501  0.00000000000E+00  0.00000000000E+00 -0.18279877686E+04  0.18279877686E+04  0.25500000920E-02 0. -1.
    10030    2    1    2    0    0  0.00000000000E+00  0.00000000000E+00 -0.45360306946E+03  0.32023724677E+04  0.31700841751E+04 0.  0.
        3    1    3    3  502    0 -0.57985415974E+03  0.56423344850E+02 -0.17159065043E+04  0.18121119122E+04  0.10100000352E+00 0. -1.
       -3    1    3    3    0  502  0.57985415974E+03 -0.56423344850E+02  0.12623034349E+04  0.13902605555E+04  0.10100000352E+00 0.  1.
</event>
<event>
 5   0  0.2517725E-06  0.3090870E+04  0.7818609E-02  0.8218248E-01
       -1   -1    0    0    0  501  0.00000000000E+00  0.00000000000E+00  0.12278601802E+04  0.12278601802E+04  0.50400001928E-02 0. -1.
        1   -1    0    0  501    0  0.00000000000E+00  0.00000000000E+00 -0.19451474695E+04  0.19451474695E+04  0.50400001928E-02 0.  1.
    10030    2    1    2    0    0  0.00000000000E+00  0.00000000000E+00 -0.71728728926E+03  0.31730076497E+04  0.30908698598E+04 0.  0.
        3    1    3    3  502    0  0.67004562811E+03  0.29074344117E+03 -0.17567746481E+04  0.19025640769E+04  0.10100000352E+00 0.  1.
       -3    1    3    3    0  502 -0.67004562811E+03 -0.29074344117E+03  0.10394873588E+04  0.12704435728E+04  0.10100000352E+00 0. -1.
</event>
<event>
 5   0  0.7363513E-06  0.3098804E+04  0.7818609E-02  0.8216066E-01
        2   -1    0    0  501    0  0.00000000000E+00  0.00000000000E+00  0.24737177161E+04  0.24737177161E+04  0.25500000920E-02 0.  1.
       -2   -1    0    0    0  501  0.00000000000E+00  0.00000000000E+00 -0.97046119729E+03  0.97046119729E+03  0.25500000920E-02 0. -1.
    10030    2    1    2    0    0  0.00000000000E+00  0.00000000000E+00  0.15032565188E+04  0.34441789134E+04  0.30988043220E+04 0.  0.
        4    1    3    3  502    0 -0.90292726420E+03 -0.12561033862E+04  0.84834445782E+03  0.17643024948E+04  0.12699999809E+01 0. -1.
       -4    1    3    3    0  502  0.90292726420E+03  0.12561033862E+04  0.65491206099E+03  0.16798764186E+04  0.12699999809E+01 0.  1.
</event>
<event>
 5   0  0.2624011E-06  0.3074252E+04  0.7818609E-02  0.8222840E-01
        1   -1    0    0  501    0  0.00000000000E+00  0.00000000000E+00  0.23750106322E+04  0.23750106322E+04  0.50400001928E-02 0.  1.
       -1   -1    0    0    0  501  0.00000000000E+00  0.00000000000E+00 -0.99484025081E+03  0.99484025082E+03  0.50400001928E-02 0. -1.
    10030    2    1    2    0    0  0.00000000000E+00  0.00000000000E+00  0.13801703814E+04  0.33698508831E+04  0.30742518915E+04 0.  0.
        1    1    3    3  502    0 -0.10016702582E+04 -0.24213202990E+03 -0.56009895182E+03  0.11728947361E+04  0.50400001928E-02 0. -1.
       -1    1    3    3    0  502  0.10016702582E+04  0.24213202990E+03  0.19402693332E+04  0.21969561470E+04  0.50400001928E-02 0.  1.
</event>
<event>
 5   0  0.7079223E-06  0.3167814E+04  0.7818609E-02  0.8197369E-01
        2   -1    0    0  501    0  0.00000000000E+00  0.00000000000E+00  0.17346321650E+04  0.17346321651E+04  0.25500000920E-02 0.  1.
       -2   -1    0    0    0  501  0.00000000000E+00  0.00000000000E+00 -0.14462788169E+04  0.14462788169E+04  0.25500000920E-02 0. -1.
    10030    2    1    2    0    0  0.00000000000E+00  0.00000000000E+00  0.28835334814E+03  0.31809109820E+04  0.31678142341E+04 0.  0.
        5    1    3    3  502    0 -0.12170795601E+04  0.88840059082E+03  0.63425327185E+03  0.16348815150E+04  0.46999998093E+01 0.  1.
       -5    1    3    3    0  502  0.12170795601E+04 -0.88840059082E+03 -0.34589992371E+03  0.15460294669E+04  0.46999998093E+01 0. -1.
</event>
<event>
 5   0  0.2674441E-06  0.3072159E+04  0.7818609E-02  0.8223420E-01
        1   -1    0    0  501    0  0.00000000000E+00  0.00000000000E+00  0.22662167520E+04  0.22662167520E+04  0.50400001928E-02 0.  1.
       -1   -1    0    0    0  501  0.00000000000E+00  0.00000000000E+00 -0.10411803899E+04  0.10411803899E+04  0.50400001928E-02 0. -1.
    10030    2    1    2    0    0  0.00000000000E+00  0.00000000000E+00  0.12250363621E+04  0.33073971419E+04  0.30721591375E+04 0.  0.
        5    1    3    3  502    0  0.93136551452E+03 -0.78876051009E+03  0.16166382864E+04  0.20256175115E+04  0.46999998093E+01 0.  1.
       -5    1    3    3    0  502 -0.93136551452E+03  0.78876051009E+03 -0.39160192429E+03  0.12817796304E+04  0.46999998093E+01 0. -1.
</event>
<event>
 5   0  0.2674441E-06  0.3095103E+04  0.7818609E-02  0.8217083E-01
        1   -1    0    0  501    0  0.00000000000E+00  0.00000000000E+00  0.23177871415E+04  0.23177871415E+04  0.50400001928E-02 0. -1.
       -1   -1    0    0    0  501  0.00000000000E+00  0.00000000000E+00 -0.10332767768E+04  0.10332767768E+04  0.50400001928E-02 0.  1.
    10030    2    1    2    0    0  0.00000000000E+00  0.00000000000E+00  0.12845103647E+04  0.33510639183E+04  0.30951029882E+04 0.  0.
        5    1    3    3  502    0 -0.27181638996E+03  0.94938655332E+03 -0.64778134352E+03  0.11810426480E+04  0.46999998093E+01 0.  1.
       -5    1    3    3    0  502  0.27181638996E+03 -0.94938655332E+03  0.19322917083E+04  0.21700212703E+04  0.46999998093E+01 0. -1.
</event>
<event>
 5   0  0.7079223E-06  0.3142137E+04  0.7818609E-02  0.8204268E-01
       -2   -1    0    0    0  501  0.00000000000E+00  0.00000000000E+00  0.12446681463E+04  0.12446681463E+04  0.25500000920E-02 0.  1.
        2   -1    0    0  501    0  0.00000000000E+00  0.00000000000E+00 -0.19830630987E+04  0.19830630987E+04  0.25500000920E-02 0. -1.
    10030    2    1    2    0    0  0.00000000000E+00  0.00000000000E+00 -0.73839495231E+03  0.32277312450E+04  0.31421365159E+04 0.  0.
        5    1    3    3  502    0 -0.42668464258E+03 -0.12709920832E+04 -0.12105026081E+04  0.18063275766E+04  0.46999998093E+01 0. -1.
       -5    1    3    3    0  502  0.42668464258E+03  0.12709920832E+04  0.47210765579E+03  0.14214036684E+04  0.46999998093E+01 0.  1.
</event>
<event>
 5   0  0.2612331E-06  0.3111167E+04  0.7818609E-02  0.8212680E-01
        1   -1    0    0  501    0  0.00000000000E+00  0.00000000000E+00  0.22817415776E+04  0.22817415776E+04  0.50400001928E-02 0. -1.
       -1   -1    0    0    0  501  0.00000000000E+00  0.00000000000E+00 -0.10605232034E+04  0.10605232034E+04  0.50400001928E-02 0.  1.
    10030    2    1    2    0    0  0.00000000000E+00  0.00000000000E+00  0.12212183742E+04  0.33422647811E+04  0.31111669112E+04 0.  0.
        4    1    3    3  502    0  0.53204272567E+02  0.14600105834E+04  0.36721669125E+02  0.14614416486E+04  0.12699999809E+01 0.  1.
       -4    1    3    3    0  502 -0.53204272567E+02 -0.14600105834E+04  0.11844967051E+04  0.18808231325E+04  0.12699999809E+01 0. -1.
</event>
<event>
 5   0  0.2612331E-06  0.3102134E+04  0.7818609E-02  0.8215152E-01
       -1   -1    0    0    0  501  0.00000000000E+00  0.00000000000E+00  0.14366956807E+04  0.14366956807E+04  0.50400001928E-02 0.  1.
        1   -1    0    0  501    0  0.00000000000E+00  0.00000000000E+00 -0.16745436388E+04  0.16745436388E+04  0.50400001928E-02 0. -1.
    10030    2    1    2    0    0  0.00000000000E+00  0.00000000000E+00 -0.23784795813E+03  0.31112393196E+04  0.31021344994E+04 0.  0.
        4    1    3    3  502    0  0.96918301659E+03  0.12096368747E+04 -0.61564232555E+02  0.15512346231E+04  0.12699999809E+01 0.  1.
       -4    1    3    3    0  502 -0.96918301659E+03 -0.12096368747E+04 -0.17628372558E+03  0.15600046965E+04  0.12699999809E+01 0. -1.
</event>
<event>
 5   0  0.2674441E-06  0.2983528E+04  0.7818609E-02  0.8248450E-01
       -1   -1    0    0    0  501  0.00000000000E+00  0.00000000000E+00  0.13332608356E+04  0.13332608356E+04  0.50400001928E-02 0.  1.
        1   -1    0    0  501    0  0.00000000000E+00  0.00000000000E+00 -0.16691111133E+04  0.16691111133E+04  0.50400001928E-02 0. -1.
    10030    2    1    2    0    0  0.00000000000E+00  0.00000000000E+00 -0.33585027770E+03  0.30023719489E+04  0.29835284330E+04 0.  0.
        5    1    3    3  502    0  0.11694920828E+04  0.35880955959E+03 -0.10270633425E+04  0.15972905908E+04  0.46999998093E+01 0. -1.
       -5    1    3    3    0  502 -0.11694920828E+04 -0.35880955959E+03  0.69121306481E+03  0.14050813581E+04  0.46999998093E+01 0.  1.
</event>
<event>
 5   0  0.2612331E-06  0.3083254E+04  0.7818609E-02  0.8220349E-01
       -1   -1    0    0    0  501  0.00000000000E+00  0.00000000000E+00  0.12281356950E+04  0.12281356950E+04  0.50400001928E-02 0. -1.
        1   -1    0    0  501    0  0.00000000000E+00  0.00000000000E+00 -0.19351389023E+04  0.19351389023E+04  0.50400001928E-02 0.  1.
    10030    2    1    2    0    0  0.00000000000E+00  0.00000000000E+00 -0.70700320737E+03  0.31632745973E+04  0.30832535807E+04 0.  0.
        4    1    3    3  502    0 -0.50584073120E+03  0.19816388124E+03  0.11266714558E+04  0.12508133160E+04  0.12699999809E+01 0. -1.
       -4    1    3    3    0  502  0.50584073120E+03 -0.19816388124E+03 -0.18336746632E+04  0.19124612813E+04  0.12699999809E+01 0.  1.
</event>
<event>
 5   0  0.2612331E-06  0.3010227E+04  0.7818609E-02  0.8240817E-01
       -1   -1    0    0    0  501  0.00000000000E+00  0.00000000000E+00  0.12795707691E+04  0.12795707691E+04  0.50400001928E-02 0. -1.
        1   -1    0    0  501    0  0.00000000000E+00  0.00000000000E+00 -0.17704110089E+04  0.17704110089E+04  0.50400001928E-02 0.  1.
    10030    2    1    2    0    0  0.00000000000E+00  0.00000000000E+00 -0.49084023976E+03  0.30499817780E+04  0.30102266867E+04 0.  0.
        4    1    3    3  502    0  0.62872779261E+03 -0.11054577725E+04 -0.10610540369E+04  0.16562526396E+04  0.12699999809E+01 0.  1.
       -4    1    3    3    0  502 -0.62872779261E+03  0.11054577725E+04  0.57021379712E+03  0.13937291385E+04  0.12699999809E+01 0. -1.
</event>
<event>
 5   0  0.2612331E-06  0.3118738E+04  0.7818609E-02  0.8210614E-01
        1   -1    0    0  501    0  0.00000000000E+00  0.00000000000E+00  0.17858743853E+04  0.17858743853E+04  0.50400001928E-02 0.  1.
       -1   -1    0    0    0  501  0.00000000000E+00  0.00000000000E+00 -0.13615914491E+04  0.13615914491E+04  0.50400001928E-02 0. -1.
    10030    2    1    2    0    0  0.00000000000E+00  0.00000000000E+00  0.42428293623E+03  0.31474658344E+04  0.31187377525E+04 0.  0.
        4    1    3    3  502    0 -0.44941798939E+03 -0.45878302431E+03  0.16462061759E+04  0.17670469091E+04  0.12699999809E+01 0.  1.
       -4    1    3    3    0  502  0.44941798939E+03  0.45878302431E+03 -0.12219232397E+04  0.13804189253E+04  0.12699999809E+01 0. -1.
</event>
<event>
 5   0  0.2624011E-06  0.3115974E+04  0.7818609E-02  0.8211368E-01
       -1   -1    0    0    0  501  0.00000000000E+00  0.00000000000E+00  0.12713337606E+04  0.12713337606E+04  0.50400001928E-02 0.  1.
        1   -1    0    0  501    0  0.00000000000E+00  0.00000000000E+00 -0.19092737437E+04  0.19092737437E+04  0.50400001928E-02 0. -1.
    10030    2    1    2    0    0  0.00000000000E+00  0.00000000000E+00 -0.63793998312E+03  0.31806075043E+04  0.31159744341E+04 0.  0.
        1    1    3    3  502    0 -0.52750960904E+03  0.84075870653E+03 -0.15447888997E+04  0.18361683841E+04  0.50400001928E-02 0. -1.
       -1    1    3    3    0  502  0.52750960904E+03 -0.84075870653E+03  0.90684891658E+03  0.13444391201E+04  0.50400001928E-02 0.  1.
</event>
<event>
 5   0  0.7414808E-06  0.3075264E+04  0.7818609E-02  0.8222559E-01
        2   -1    0    0  501    0  0.00000000000E+00  0.00000000000E+00  0.16367749033E+04  0.16367749033E+04  0.25500000920E-02 0.  1.
       -2   -1    0    0    0  501  0.00000000000E+00  0.00000000000E+00 -0.14444944883E+04  0.14444944883E+04  0.25500000920E-02 0. -1.
    10030    2    1    2    0    0  0.00000000000E+00  0.00000000000E+00  0.19228041501E+03  0.30812693915E+04  0.30752641033E+04 0.  0.
        2    1    3    3  502    0 -0.88259242865E+03 -0.12332060618E+04 -0.15841444821E+03  0.15247497248E+04  0.25500000920E-02 0. -1.
       -2    1    3    3    0  502  0.88259242865E+03  0.12332060618E+04  0.35069486322E+03  0.15565196667E+04  0.25500000920E-02 0.  1.
</event>
<event>
 5   0  0.2624011E-06  0.2215364E+04  0.7818609E-02  0.8512060E-01
        1   -1    0    0  501    0  0.00000000000E+00  0.00000000000E+00  0.10535210227E+04  0.10535210227E+04  0.50400001928E-02 0.  1.
       -1   -1    0    0    0  501  0.00000000000E+00  0.00000000000E+00 -0.11646277074E+04  0.11646277074E+04  0.50400001928E-02 0. -1.
    10030    2    1    2    0    0  0.00000000000E+00  0.00000000000E+00 -0.11110668463E+03  0.22181487301E+04  0.22153643252E+04 0.  0.
        1    1    3    3  502    0 -0.10508822613E+04 -0.26938387937E+03 -0.27952752372E+03  0.11202931929E+04  0.50400001928E-02 0.  1.
       -1    1    3    3    0  502  0.10508822613E+04  0.26938387937E+03  0.16842083909E+03  0.10978555372E+04  0.50400001928E-02 0. -1.
</event>
<event>
 5   0  0.2612331E-06  0.3117740E+04  0.7818609E-02  0.8210886E-01
        1   -1    0    0  501    0  0.00000000000E+00  0.00000000000E+00  0.22174493799E+04  0.22174493799E+04  0.50400001928E-02 0. -1.
       -1   -1    0    0    0  501  0.00000000000E+00  0.00000000000E+00 -0.10958877021E+04  0.10958877022E+04  0.50400001928E-02 0.  1.
    10030    2    1    2    0    0  0.00000000000E+00  0.00000000000E+00  0.11215616777E+04  0.33133370820E+04  0.31177398901E+04 0.  0.
        4    1    3    3  502    0 -0.12254484617E+04 -0.91161553751E+03  0.22926983822E+03  0.15444523599E+04  0.12699999809E+01 0. -1.
       -4    1    3    3    0  502  0.12254484617E+04  0.91161553751E+03  0.89229183950E+03  0.17688847221E+04  0.12699999809E+01 0.  1.
</event>
<event>
 5   0  0.7079223E-06  0.3063165E+04  0.7818609E-02  0.8225920E-01
        2   -1    0    0  501    0  0.00000000000E+00  0.00000000000E+00  0.12868444321E+04  0.12868444321E+04  0.25500000920E-02 0. -1.
       -2   -1    0    0    0  501  0.00000000000E+00  0.00000000000E+00 -0.18228660491E+04  0.18228660491E+04  0.25500000920E-02 0.  1.
    10030    2    1    2    0    0  0.00000000000E+00  0.00000000000E+00 -0.53602161706E+03  0.31097104812E+04  0.30631650466E+04 0.  0.
        5    1    3    3  502    0  0.13613909694E+04 -0.48836443022E+02  0.44259144111E+03  0.14323685431E+04  0.46999998093E+01 0. -1.
       -5    1    3    3    0  502 -0.13613909694E+04  0.48836443022E+02 -0.97861305817E+03  0.16773419381E+04  0.46999998093E+01 0.  1.
</event>
<event>
 5   0  0.7079223E-06  0.3084986E+04  0.7818609E-02  0.8219871E-01
       -2   -1    0    0    0  501  0.00000000000E+00  0.00000000000E+00  0.14432275265E+04  0.14432275265E+04  0.25500000920E-02 0.  1.
        2   -1    0    0  501    0  0.00000000000E+00  0.00000000000E+00 -0.16485856219E+04  0.16485856219E+04  0.25500000920E-02 0. -1.
    10030    2    1    2    0    0  0.00000000000E+00  0.00000000000E+00 -0.20535809542E+03  0.30918131485E+04  0.30849856722E+04 0.  0.
        5    1    3    3  502    0 -0.14829080426E+04  0.34743538687E+03 -0.34721586542E+03  0.15621486991E+04  0.46999998093E+01 0.  1.
       -5    1    3    3    0  502  0.14829080426E+04 -0.34743538687E+03  0.14185777000E+03  0.15296644494E+04  0.46999998093E+01 0. -1.
</event>
<event>
 5   0  0.2517725E-06  0.3102445E+04  0.7818609E-02  0.8215067E-01
        1   -1    0    0  501    0  0.00000000000E+00  0.00000000000E+00  0.17754881989E+04  0.17754881989E+04  0.50400001928E-02 0. -1.
       -1   -1    0    0    0  501  0.00000000000E+00  0.00000000000E+00 -0.13552840839E+04  0.13552840839E+04  0.50400001928E-02 0.  1.
    10030    2    1    2    0    0  0.00000000000E+00  0.00000000000E+00  0.42020411493E+03  0.31307722828E+04  0.31024447761E+04 0.  0.
        3    1    3    3  502    0 -0.10448292941E+04 -0.87275886585E+03  0.96047375953E+03  0.16660990801E+04  0.10100000352E+00 0. -1.
       -3    1    3    3    0  502  0.10448292941E+04  0.87275886585E+03 -0.54026964460E+03  0.14646732027E+04  0.10100000352E+00 0.  1.
</event>
<event>
 5   0  0.2612331E-06  0.2683959E+04  0.7818609E-02  0.8340228E-01
        1   -1    0    0  501    0  0.00000000000E+00  0.00000000000E+00  0.16729918810E+04  0.16729918811E+04  0.50400001928E-02 0. -1.
       -1   -1    0    0    0  501  0.00000000000E+00  0.00000000000E+00 -0.10764602271E+04  0.10764602271E+04  0.50400001928E-02 0.  1.
    10030    2    1    2    0    0  0.00000000000E+00  0.00000000000E+00  0.59653165398E+03  0.27494521081E+04  0.26839591801E+04 0.  0.
        4    1    3    3  502    0  0.38250309223E+03  0.12695413827E+04  0.51035325544E+03  0.14207413544E+04  0.12699999809E+01 0.  1.
       -4    1    3    3    0  502 -0.38250309223E+03 -0.12695413827E+04  0.86178398538E+02  0.13287107537E+04  0.12699999809E+01 0. -1.
</event>
<event>
 5   0  0.2612331E-06  0.2913895E+04  0.7818609E-02  0.8268755E-01
        1   -1    0    0  501    0  0.00000000000E+00  0.00000000000E+00  0.16375283638E+04  0.16375283638E+04  0.50400001928E-02 0. -1.
       -1   -1    0    0    0  501  0.00000000000E+00  0.00000000000E+00 -0.12962804957E+04  0.12962804957E+04  0.50400001928E-02 0.  1.
    10030    2    1    2    0    0  0.00000000000E+00  0.00000000000E+00  0.34124786817E+03  0.29338088595E+04  0.29138950422E+04 0.  0.
        4    1    3    3  502    0 -0.84504148044E+03 -0.14187156868E+03 -0.10157632490E+04  0.13289090400E+04  0.12699999809E+01 0.  1.
       -4    1    3    3    0  502  0.84504148044E+03  0.14187156868E+03  0.13570111172E+04  0.16048998195E+04  0.12699999809E+01 0. -1.
</event>
<event>
 5   0  0.7363513E-06  0.3137674E+04  0.7818609E-02  0.8205474E-01
        2   -1    0    0  501    0  0.00000000000E+00  0.00000000000E+00  0.26338166095E+04  0.26338166095E+04  0.25500000920E-02 0.  1.
       -2   -1    0    0    0  501  0.00000000000E+00  0.00000000000E+00 -0.93448003610E+03  0.93448003610E+03  0.25500000920E-02 0. -1.
    10030    2    1    2    0    0  0.00000000000E+00  0.00000000000E+00  0.16993365734E+04  0.35682966456E+04  0.31376736862E+04 0.  0.
        4    1    3    3  502    0 -0.82120446092E+03  0.17046895128E+03  0.23574527530E+04  0.25022033341E+04  0.12699999809E+01 0.  1.
       -4    1    3    3    0  502  0.82120446092E+03 -0.17046895128E+03 -0.65811617959E+03  0.10660933114E+04  0.12699999809E+01 0. -1.
</event>
<event>
 5   0  0.2393250E-06  0.3073699E+04  0.7818609E-02  0.8222993E-01
        3   -1    0    0  501    0  0.00000000000E+00  0.00000000000E+00  0.19559915398E+04  0.19559915424E+04  0.10100000352E+00 0.  1.
       -3   -1    0    0    0  501  0.00000000000E+00  0.00000000000E+00 -0.12075236588E+04  0.12075236631E+04  0.10100000352E+00 0. -1.
    10030    2    1    2    0    0  0.00000000000E+00  0.00000000000E+00  0.74846788096E+03  0.31635152054E+04  0.30736987956E+04 0.  0.
        2    1    3    3  502    0  0.92851882435E+03 -0.40011213537E+03  0.15654962368E+04  0.18636027998E+04  0.25500000920E-02 0.  1.
       -2    1    3    3    0  502 -0.92851882435E+03  0.40011213537E+03 -0.81702835584E+03  0.12999124056E+04  0.25500000920E-02 0. -1.
</event>
<event>
 5   0  0.2517725E-06  0.3104994E+04  0.7818609E-02  0.8214369E-01
        1   -1    0    0  501    0  0.00000000000E+00  0.00000000000E+00  0.10259547994E+04  0.10259547994E+04  0.50400001928E-02 0. -1.
       -1   -1    0    0    0  501  0.00000000000E+00  0.00000000000E+00 -0.23492719632E+04  0.23492719632E+04  0.50400001928E-02 0.  1.
    10030    2    1    2    0    0  0.00000000000E+00  0.00000000000E+00 -0.13233171637E+04  0.33752267626E+04  0.31049939425E+04 0.  0.
        3    1    3    3  502    0 -0.13531566650E+04 -0.46539281181E+03 -0.13162497105E+04  0.19442573749E+04  0.10100000352E+00 0.  1.
       -3    1    3    3    0  502  0.13531566650E+04  0.46539281181E+03 -0.70674532349E+01  0.14309693877E+04  0.10100000352E+00 0. -1.
</event>
<event>
 5   0  0.7414808E-06  0.3094142E+04  0.7818609E-02  0.8217347E-01
       -2   -1    0    0    0  501  0.00000000000E+00  0.00000000000E+00  0.14169792748E+04  0.14169792748E+04  0.25500000920E-02 0.  1.
        2   -1    0    0  501    0  0.00000000000E+00  0.00000000000E+00 -0.16891061247E+04  0.16891061247E+04  0.25500000920E-02 0. -1.
    10030    2    1    2    0    0  0.00000000000E+00  0.00000000000E+00 -0.27212684989E+03  0.31060853995E+04  0.30941418013E+04 0.  0.
        2    1    3    3  502    0  0.75233829626E+03 -0.12795357496E+04 -0.57387041194E+03  0.15913993516E+04  0.25500000920E-02 0. -1.
       -2    1    3    3    0  502 -0.75233829626E+03  0.12795357496E+04  0.30174356204E+03  0.15146860479E+04  0.25500000920E-02 0.  1.
</event>
<event>
 5   0  0.7079223E-06  0.2668906E+04  0.7818609E-02  0.8345165E-01
       -2   -1    0    0    0  501  0.00000000000E+00  0.00000000000E+00  0.94540200950E+03  0.94540200951E+03  0.25500000920E-02 0.  1.
        2   -1    0    0  501    0  0.00000000000E+00  0.00000000000E+00 -0.18836054309E+04  0.18836054309E+04  0.25500000920E-02 0. -1.
    10030    2    1    2    0    0  0.00000000000E+00  0.00000000000E+00 -0.93820342143E+03  0.28290074404E+04  0.26689056630E+04 0.  0.
        5    1    3    3  502    0  0.71323445718E+02  0.13192519392E+04 -0.27014689566E+03  0.13485229506E+04  0.46999998093E+01 0. -1.
       -5    1    3    3    0  502 -0.71323445718E+02 -0.13192519392E+04 -0.66805652577E+03  0.14804844898E+04  0.46999998093E+01 0.  1.
</event>
<event>
 5   0  0.7094341E-06  0.2703032E+04  0.7818609E-02  0.8334022E-01
        2   -1    0    0  501    0  0.00000000000E+00  0.00000000000E+00  0.19328076618E+04  0.19328076618E+04  0.25500000920E-02 0. -1.
       -2   -1    0    0    0  501  0.00000000000E+00  0.00000000000E+00 -0.94504794783E+03  0.94504794784E+03  0.25500000920E-02 0.  1.
    10030    2    1    2    0    0  0.00000000000E+00  0.00000000000E+00  0.98775971392E+03  0.28778556096E+04  0.27030323078E+04 0.  0.
        3    1    3    3  502    0  0.43516229012E+03  0.54328938493E+02  0.18549507226E+04  0.19060850049E+04  0.10100000352E+00 0. -1.
       -3    1    3    3    0  502 -0.43516229012E+03 -0.54328938493E+02 -0.86719100873E+03  0.97177060468E+03  0.10100000352E+00 0.  1.
</event>
<event>
 5   0  0.2598987E-06  0.3126490E+04  0.7818609E-02  0.8208505E-01
       -1   -1    0    0    0  501  0.00000000000E+00  0.00000000000E+00  0.17957749862E+04  0.17957749862E+04  0.50400001928E-02 0.  1.
        1   -1    0    0  501    0  0.00000000000E+00  0.00000000000E+00 -0.13608246846E+04  0.13608246847E+04  0.50400001928E-02 0. -1.
    10030    2    1    2    0    0  0.00000000000E+00  0.00000000000E+00  0.43495030156E+03  0.31565996709E+04  0.31264899995E+04 0.  0.
        2    1    3    3  502    0  0.15355707521E+04  0.26494252069E+03  0.34342774124E+03  0.15956549399E+04  0.25500000920E-02 0. -1.
       -2    1    3    3    0  502 -0.15355707521E+04 -0.26494252069E+03  0.91522560323E+02  0.15609447309E+04  0.25500000920E-02 0.  1.
</event>
<event>
 5   0  0.7094341E-06  0.3192028E+04  0.7818609E-02  0.8190926E-01
       -2   -1    0    0    0  501  0.00000000000E+00  0.00000000000E+00  0.13458885709E+04  0.13458885709E+04  0.25500000920E-02 0.  1.
        2   -1    0    0  501    0  0.00000000000E+00  0.00000000000E+00 -0.18926242184E+04  0.18926242184E+04  0.25500000920E-02 0. -1.
    10030    2    1    2    0    0  0.00000000000E+00  0.00000000000E+00 -0.54673564746E+03  0.32385127893E+04  0.31920283862E+04 0.  0.
        3    1    3    3  502    0 -0.49695029090E+03  0.38717009223E+03  0.12144117801E+04  0.13680848854E+04  0.10100000352E+00 0.  1.
       -3    1    3    3    0  502  0.49695029090E+03 -0.38717009223E+03 -0.17611474275E+04  0.18704279039E+04  0.10100000352E+00 0. -1.
</event>
<event>
 5   0  0.2674441E-06  0.3038577E+04  0.7818609E-02  0.8232800E-01
        1   -1    0    0  501    0  0.00000000000E+00  0.00000000000E+00  0.12471470337E+04  0.12471470337E+04  0.50400001928E-02 0.  1.
       -1   -1    0    0    0  501  0.00000000000E+00  0.00000000000E+00 -0.18508145014E+04  0.18508145014E+04  0.50400001928E-02 0. -1.
    10030    2    1    2    0    0  0.00000000000E+00  0.00000000000E+00 -0.60366746766E+03  0.30979615351E+04  0.30385771772E+04 0.  0.
        5    1    3    3  502    0 -0.14512163503E+04 -0.70637781516E+02 -0.75458122126E+03  0.16372029505E+04  0.46999998093E+01 0.  1.
       -5    1    3    3    0  502  0.14512163503E+04  0.70637781516E+02  0.15091375359E+03  0.14607585846E+04  0.46999998093E+01 0. -1.
</event>
<event>
 5   0  0.2517725E-06  0.3099070E+04  0.7818609E-02  0.8215993E-01
       -1   -1    0    0    0  501  0.00000000000E+00  0.00000000000E+00  0.19313806906E+04  0.19313806906E+04  0.50400001928E-02 0.  1.
        1   -1    0    0  501    0  0.00000000000E+00  0.00000000000E+00 -0.12431824325E+04  0.12431824325E+04  0.50400001928E-02 0. -1.
    10030    2    1    2    0    0  0.00000000000E+00  0.00000000000E+00  0.68819825807E+03  0.31745631231E+04  0.30990698895E+04 0.  0.
        3    1    3    3  502    0  0.34040770879E+03 -0.37219765200E+03 -0.11567368088E+04  0.12619225631E+04  0.10100000352E+00 0. -1.
       -3    1    3    3    0  502 -0.34040770879E+03  0.37219765200E+03  0.18449350668E+04  0.19126405599E+04  0.10100000352E+00 0.  1.
</event>
<event>
 5   0  0.2612331E-06  0.3262936E+04  0.7818609E-02  0.8172391E-01
        1   -1    0    0  501    0  0.00000000000E+00  0.00000000000E+00  0.13270336203E+04  0.13270336203E+04  0.50400001928E-02 0.  1.
       -1   -1    0    0    0  501  0.00000000000E+00  0.00000000000E+00 -0.20057430585E+04  0.20057430585E+04  0.50400001928E-02 0. -1.
    10030    2    1    2    0    0  0.00000000000E+00  0.00000000000E+00 -0.67870943818E+03  0.33327766788E+04  0.32629363906E+04 0.  0.
        4    1    3    3  502    0 -0.82931144137E+03 -0.12957956034E+04  0.21526221406E+03  0.15534423537E+04  0.12699999809E+01 0.  1.
       -4    1    3    3    0  502  0.82931144137E+03  0.12957956034E+04 -0.89397165223E+03  0.17793343251E+04  0.12699999809E+01 0. -1.
</event>
<event>
 5   0  0.7363513E-06  0.3107401E+04  0.7818609E-02  0.8213710E-01
       -2   -1    0    0    0  501  0.00000000000E+00  0.00000000000E+00  0.98999436917E+03  0.98999436917E+03  0.25500000920E-02 0.  1.
        2   -1    0    0  501    0  0.00000000000E+00  0.00000000000E+00 -0.24383824262E+04  0.24383824262E+04  0.25500000920E-02 0. -1.
    10030    2    1    2    0    0  0.00000000000E+00  0.00000000000E+00 -0.14483880570E+04  0.34283767954E+04  0.31074007607E+04 0.  0.
        4    1    3    3  502    0 -0.97325306421E+03 -0.47653132932E+02  0.61096998874E+03  0.11501209885E+04  0.12699999809E+01 0.  1.
       -4    1    3    3    0  502  0.97325306421E+03  0.47653132932E+02 -0.20593580458E+04  0.22782558069E+04  0.12699999809E+01 0. -1.
</event>
<event>
 5   0  0.2612331E-06  0.2530653E+04  0.7818609E-02  0.8392146E-01
        1   -1    0    0  501    0  0.00000000000E+00  0.00000000000E+00  0.13308642020E+04  0.13308642020E+04  0.50400001928E-02 0.  1.
       -1   -1    0    0    0  501  0.00000000000E+00  0.00000000000E+00 -0.12030158150E+04  0.12030158150E+04  0.50400001928E-02 0. -1.
    10030    2    1    2    0    0  0.00000000000E+00  0.00000000000E+00  0.12784838698E+03  0.25338800170E+04  0.25306526294E+04 0.  0.
        4    1    3    3  502    0 -0.11316475243E+04 -0.15414873925E+03 -0.48143648887E+03  0.12394235188E+04  0.12699999809E+01 0. -1.
       -4    1    3    3    0  502  0.11316475243E+04  0.15414873925E+03  0.60928487585E+03  0.12944564983E+04  0.12699999809E+01 0.  1.
</event>
<event>
 5   0  0.7079223E-06  0.3005935E+04  0.7818609E-02  0.8242038E-01
        2   -1    0    0  501    0  0.00000000000E+00  0.00000000000E+00  0.25130829295E+04  0.25130829295E+04  0.25500000920E-02 0.  1.
       -2   -1    0    0    0  501  0.00000000000E+00  0.00000000000E+00 -0.89886037126E+03  0.89886037127E+03  0.25500000920E-02 0. -1.
    10030    2    1    2    0    0  0.00000000000E+00  0.00000000000E+00  0.16142225583E+04  0.34119433008E+04  0.30059345669E+04 0.  0.
        5    1    3    3  502    0  0.50084409384E+03 -0.80382019861E+02  0.24129762669E+04  0.24657215232E+04  0.46999998093E+01 0.  1.
       -5    1    3    3    0  502 -0.50084409384E+03  0.80382019861E+02 -0.79875370859E+03  0.94622177762E+03  0.46999998093E+01 0. -1.
</event>
<event>
 5   0  0.2517725E-06  0.3016022E+04  0.7818609E-02  0.8239171E-01
        1   -1    0    0  501    0  0.00000000000E+00  0.00000000000E+00  0.11853859741E+04  0.11853859741E+04  0.50400001928E-02 0.  1.
       -1   -1    0    0    0  501  0.00000000000E+00  0.00000000000E+00 -0.19184441050E+04  0.19184441050E+04  0.50400001928E-02 0. -1.
    10030    2    1    2    0    0  0.00000000000E+00  0.00000000000E+00 -0.73305813094E+03  0.31038300791E+04  0.30160217069E+04 0.  0.
        3    1    3    3  502    0  0.13326384412E+04 -0.40602054117E+03  0.22761723668E+03  0.14115904191E+04  0.10100000352E+00 0.  1.
       -3    1    3    3    0  502 -0.13326384412E+04  0.40602054117E+03 -0.96067536763E+03  0.16922396600E+04  0.10100000352E+00 0. -1.
</event>
<event>
 5   0  0.7414808E-06  0.3059987E+04  0.7818609E-02  0.8226806E-01
        2   -1    0    0  501    0  0.00000000000E+00  0.00000000000E+00  0.26988281635E+04  0.26988281635E+04  0.25500000920E-02 0. -1.
       -2   -1    0    0    0  501  0.00000000000E+00  0.00000000000E+00 -0.86736896088E+03  0.86736896088E+03  0.25500000920E-02 0.  1.
    10030    2    1    2    0    0  0.00000000000E+00  0.00000000000E+00  0.18314592027E+04  0.35661971244E+04  0.30599867841E+04 0.  0.
        2    1    3    3  502    0  0.82716308065E+03 -0.43861663585E+03 -0.49453401492E+03  0.10588423901E+04  0.25500000920E-02 0.  1.
       -2    1    3    3    0  502 -0.82716308065E+03  0.43861663585E+03  0.23259932176E+04  0.25073547343E+04  0.25500000920E-02 0. -1.
</event>
<event>
 5   0  0.7363513E-06  0.3117375E+04  0.7818609E-02  0.8210986E-01
        2   -1    0    0  501    0  0.00000000000E+00  0.00000000000E+00  0.18842652115E+04  0.18842652115E+04  0.25500000920E-02 0. -1.
       -2   -1    0    0    0  501  0.00000000000E+00  0.00000000000E+00 -0.12893655557E+04  0.12893655557E+04  0.25500000920E-02 0.  1.
    10030    2    1    2    0    0  0.00000000000E+00  0.00000000000E+00  0.59489965583E+03  0.31736307672E+04  0.31173749607E+04 0.  0.
        4    1    3    3  502    0 -0.31645235609E+03 -0.38852150102E+03  0.18000296919E+04  0.18684751952E+04  0.12699999809E+01 0. -1.
       -4    1    3    3    0  502  0.31645235609E+03  0.38852150102E+03 -0.12051300360E+04  0.13051555720E+04  0.12699999809E+01 0.  1.
</event>
<event>
 5   0  0.7414808E-06  0.2912470E+04  0.7818609E-02  0.8269177E-01
        2   -1    0    0  501    0  0.00000000000E+00  0.00000000000E+00  0.20540038903E+04  0.20540038903E+04  0.25500000920E-02 0.  1.
       -2   -1    0    0    0  501  0.00000000000E+00  0.00000000000E+00 -0.10324324412E+04  0.10324324412E+04  0.25500000920E-02 0. -1.
    10030    2    1    2    0    0  0.00000000000E+00  0.00000000000E+00  0.10215714491E+04  0.30864363315E+04  0.29124699145E+04 0.  0.
        2    1    3    3  502    0  0.60269780671E+02  0.25943337338E+03 -0.10064013425E+04  0.10410484061E+04  0.25500000920E-02 0. -1.
       -2    1    3    3    0  502 -0.60269780671E+02 -0.25943337338E+03  0.20279727916E+04  0.20453879254E+04  0.25500000920E-02 0.  1.
</event>
<event>
 5   0  0.2612331E-06  0.3029123E+04  0.7818609E-02  0.8235463E-01
       -1   -1    0    0    0  501  0.00000000000E+00  0.00000000000E+00  0.18918685676E+04  0.18918685676E+04  0.50400001928E-02 0.  1.
        1   -1    0    0  501    0  0.00000000000E+00  0.00000000000E+00 -0.12125032007E+04  0.12125032007E+04  0.50400001928E-02 0. -1.
    10030    2    1    2    0    0  0.00000000000E+00  0.00000000000E+00  0.67936536690E+03  0.31043717683E+04  0.30291231031E+04 0.  0.
        4    1    3    3  502    0  0.12234443544E+04 -0.84161174335E+03  0.34340611907E+02  0.14853643679E+04  0.12699999809E+01 0. -1.
       -4    1    3    3    0  502 -0.12234443544E+04  0.84161174335E+03  0.64502475500E+03  0.16190074004E+04  0.12699999809E+01 0.  1.
</event>
<event>
 5   0  0.7079223E-06  0.2997551E+04  0.7818609E-02  0.8244431E-01
        2   -1    0    0  501    0  0.00000000000E+00  0.00000000000E+00  0.20014068181E+04  0.20014068181E+04  0.25500000920E-02 0. -1.
       -2   -1    0    0    0  501  0.00000000000E+00  0.00000000000E+00 -0.11223741558E+04  0.11223741558E+04  0.25500000920E-02 0.  1.
    10030    2    1    2    0    0  0.00000000000E+00  0.00000000000E+00  0.87903266230E+03  0.31237809739E+04  0.29975505253E+04 0.  0.
        5    1    3    3  502    0 -0.75778886559E+03  0.94167131525E+03  0.13630152423E+04  0.18217632864E+04  0.46999998093E+01 0. -1.
       -5    1    3    3    0  502  0.75778886559E+03 -0.94167131525E+03 -0.48398258004E+03  0.13020176875E+04  0.46999998093E+01 0.  1.
</event>
<event>
 5   0  0.2598987E-06  0.3047911E+04  0.7818609E-02  0.8230180E-01
        1   -1    0    0  501    0  0.00000000000E+00  0.00000000000E+00  0.15599444510E+04  0.15599444510E+04  0.50400001928E-02 0.  1.
       -1   -1    0    0    0  501  0.00000000000E+00  0.00000000000E+00 -0.14887968895E+04  0.14887968895E+04  0.50400001928E-02 0. -1.
    10030    2    1    2    0    0  0.00000000000E+00  0.00000000000E+00  0.71147561523E+02  0.30487413406E+04  0.30479110529E+04 0.  0.
        2    1    3    3  502    0  0.12655642517E+04 -0.81815824654E+03 -0.19121392889E+03  0.15190781936E+04  0.25500000920E-02 0. -1.
       -2    1    3    3    0  502 -0.12655642517E+04  0.81815824654E+03  0.26236149041E+03  0.15296631470E+04  0.25500000920E-02 0.  1.
</event>
<event>
 5   0  0.2624011E-06  0.2596994E+04  0.7818609E-02  0.8369223E-01
       -1   -1    0    0    0  501  0.00000000000E+00  0.00000000000E+00  0.65989144247E+03  0.65989144249E+03  0.50400001928E-02 0. -1.
        1   -1    0    0  501    0  0.00000000000E+00  0.00000000000E+00 -0.25551087248E+04  0.25551087248E+04  0.50400001928E-02 0.  1.
    10030    2    1    2    0    0  0.00000000000E+00  0.00000000000E+00 -0.18952172824E+04  0.32150001673E+04  0.25969939408E+04 0.  0.
        1    1    3    3  502    0 -0.19148039511E+03  0.11218752984E+04 -0.17367899209E+03  0.11512746498E+04  0.50400001928E-02 0. -1.
       -1    1    3    3    0  502  0.19148039511E+03 -0.11218752984E+04 -0.17215382903E+04  0.20637255176E+04  0.50400001928E-02 0.  1.
</event>
<event>
 5   0  0.2674441E-06  0.3096786E+04  0.7818609E-02  0.8216620E-01
       -1   -1    0    0    0  501  0.00000000000E+00  0.00000000000E+00  0.10879662003E+04  0.10879662003E+04  0.50400001928E-02 0.  1.
        1   -1    0    0  501    0  0.00000000000E+00  0.00000000000E+00 -0.22036725117E+04  0.22036725117E+04  0.50400001928E-02 0. -1.
    10030    2    1    2    0    0  0.00000000000E+00  0.00000000000E+00 -0.11157063114E+04  0.32916387119E+04  0.30967862110E+04 0.  0.
        5    1    3    3  502    0 -0.87668237583E+03  0.91516036021E+02  0.79525469905E+03  0.11871812411E+04  0.46999998093E+01 0.  1.
       -5    1    3    3    0  502  0.87668237583E+03 -0.91516036021E+02 -0.19109610105E+04  0.21044574708E+04  0.46999998093E+01 0. -1.
</event>
<event>
 5   0  0.2612331E-06  0.3093144E+04  0.7818609E-02  0.8217622E-01
        1   -1    0    0  501    0  0.00000000000E+00  0.00000000000E+00  0.24194008892E+04  0.24194008892E+04  0.50400001928E-02 0. -1.
       -1   -1    0    0    0  501  0.00000000000E+00  0.00000000000E+00 -0.98862705663E+03  0.98862705664E+03  0.50400001928E-02 0.  1.
    10030    2    1    2    0    0  0.00000000000E+00  0.00000000000E+00  0.14307738326E+04  0.34080279459E+04  0.30931441479E+04 0.  0.
        4    1    3    3  502    0 -0.11924214360E+03  0.89779843528E+03  0.20966523848E+04  0.22839031404E+04  0.12699999809E+01 0. -1.
       -4    1    3    3    0  502  0.11924214360E+03 -0.89779843528E+03 -0.66587855216E+03  0.11241248055E+04  0.12699999809E+01 0.  1.
</event>
<event>
 5   0  0.7071012E-06  0.3112357E+04  0.7818609E-02  0.8212355E-01
       -2   -1    0    0    0  501  0.00000000000E+00  0.00000000000E+00  0.14799955171E+04  0.14799955171E+04  0.25500000920E-02 0. -1.
        2   -1    0    0  501    0  0.00000000000E+00  0.00000000000E+00 -0.16362832569E+04  0.16362832569E+04  0.25500000920E-02 0.  1.
    10030    2    1    2    0    0  0.00000000000E+00  0.00000000000E+00 -0.15628773979E+03  0.31162787740E+04  0.31123572321E+04 0.  0.
        1    1    3    3  502    0  0.66208171089E+02  0.46824334813E+03 -0.15625963219E+04  0.16325877068E+04  0.50400001928E-02 0.  1.
       -1    1    3    3    0  502 -0.66208171089E+02 -0.46824334813E+03  0.14063085821E+04  0.14836910673E+04  0.50400001928E-02 0. -1.
</event>
<event>
 5   0  0.2624011E-06  0.3142347E+04  0.7818609E-02  0.8204211E-01
       -1   -1    0    0    0  501  0.00000000000E+00  0.00000000000E+00  0.18253817145E+04  0.18253817145E+04  0.50400001928E-02 0.  1.
        1   -1    0    0  501    0  0.00000000000E+00  0.00000000000E+00 -0.13523668658E+04  0.13523668659E+04  0.50400001928E-02 0. -1.
    10030    2    1    2    0    0  0.00000000000E+00  0.00000000000E+00  0.47301484868E+03  0.31777485804E+04  0.31423467334E+04 0.  0.
        1    1    3    3  502    0 -0.36678144264E+03  0.90218535636E+02 -0.13057703653E+04  0.13593028572E+04  0.50400001928E-02 0. -1.
       -1    1    3    3    0  502  0.36678144264E+03 -0.90218535636E+02  0.17787852139E+04  0.18184457232E+04  0.50400001928E-02 0.  1.
</event>
<event>
 5   0  0.7094341E-06  0.2861884E+04  0.7818609E-02  0.8284309E-01
        2   -1    0    0  501    0  0.00000000000E+00  0.00000000000E+00  0.21757389006E+04  0.21757389006E+04  0.25500000920E-02 0. -1.
       -2   -1    0    0    0  501  0.00000000000E+00  0.00000000000E+00 -0.94110336176E+03  0.94110336177E+03  0.25500000920E-02 0.  1.
    10030    2    1    2    0    0  0.00000000000E+00  0.00000000000E+00  0.12346355388E+04  0.31168422624E+04  0.28618841302E+04 0.  0.
        3    1    3    3  502    0 -0.56570584783E+03 -0.10817506750E+04 -0.19577745673E+03  0.12363399419E+04  0.10100000352E+00 0.  1.
       -3    1    3    3    0  502  0.56570584783E+03  0.10817506750E+04  0.14304129956E+04  0.18805023205E+04  0.10100000352E+00 0. -1.
</event>
<event>
 5   0  0.7071012E-06  0.3169876E+04  0.7818609E-02  0.8196818E-01
       -2   -1    0    0    0  501  0.00000000000E+00  0.00000000000E+00  0.12056661963E+04  0.12056661963E+04  0.25500000920E-02 0. -1.
        2   -1    0    0  501    0  0.00000000000E+00  0.00000000000E+00 -0.20835194872E+04  0.20835194872E+04  0.25500000920E-02 0.  1.
    10030    2    1    2    0    0  0.00000000000E+00  0.00000000000E+00 -0.87785329090E+03  0.32891856834E+04  0.31698763477E+04 0.  0.
        1    1    3    3  502    0  0.84876424465E+03 -0.10355695481E+03 -0.18236606352E+04  0.20141655588E+04  0.50400001928E-02 0.  1.
       -1    1    3    3    0  502 -0.84876424465E+03  0.10355695481E+03  0.94580734425E+03  0.12750201247E+04  0.50400001928E-02 0. -1.
</event>
<event>
 5   0  0.7071012E-06  0.2936556E+04  0.7818609E-02  0.8262083E-01
       -2   -1    0    0    0  501  0.00000000000E+00  0.00000000000E+00  0.15020982216E+04  0.15020982216E+04  0.25500000920E-02 0.  1.
        2   -1    0    0  501    0  0.00000000000E+00  0.00000000000E+00 -0.14352188381E+04  0.14352188381E+04  0.25500000920E-02 0. -1.
    10030    2    1    2    0    0  0.00000000000E+00  0.00000000000E+00  0.66879383500E+02  0.29373170597E+04  0.29365555771E+04 0.  0.
        1    1    3    3  502    0 -0.14568974901E+03  0.14427775328E+04  0.26373221563E+03  0.14739020299E+04  0.50400001928E-02 0.  1.
       -1    1    3    3    0  502  0.14568974901E+03 -0.14427775328E+04 -0.19685283213E+03  0.14634150299E+04  0.50400001928E-02 0. -1.
</event>
<event>
 5   0  0.7079223E-06  0.3162774E+04  0.7818609E-02  0.8198718E-01
        2   -1    0    0  501    0  0.00000000000E+00  0.00000000000E+00  0.19639173357E+04  0.19639173357E+04  0.25500000920E-02 0.  1.
       -2   -1    0    0    0  501  0.00000000000E+00  0.00000000000E+00 -0.12733656756E+04  0.12733656756E+04  0.25500000920E-02 0. -1.
    10030    2    1    2    0    0  0.00000000000E+00  0.00000000000E+00  0.69055166002E+03  0.32372830113E+04  0.31627740514E+04 0.  0.
        5    1    3    3  502    0  0.15107330184E+04  0.26082324572E+03  0.74225254052E+03  0.17033214442E+04  0.46999998093E+01 0.  1.
       -5    1    3    3    0  502 -0.15107330184E+04 -0.26082324572E+03 -0.51700880501E+02  0.15339615671E+04  0.46999998093E+01 0. -1.
</event>
<event>
 5   0  0.2674441E-06  0.3106771E+04  0.7818609E-02  0.8213882E-01
       -1   -1    0    0    0  501  0.00000000000E+00  0.00000000000E+00  0.14837433364E+04  0.14837433364E+04  0.50400001928E-02 0.  1.
        1   -1    0    0  501    0  0.00000000000E+00  0.00000000000E+00 -0.16262968268E+04  0.16262968268E+04  0.50400001928E-02 0. -1.
    10030    2    1    2    0    0  0.00000000000E+00  0.00000000000E+00 -0.14255349034E+03  0.31100401632E+04  0.31067713658E+04 0.  0.
        5    1    3    3  502    0  0.13474850663E+04  0.76516553321E+03 -0.17997594926E+03  0.15600024774E+04  0.46999998093E+01 0.  1.
       -5    1    3    3    0  502 -0.13474850663E+04 -0.76516553321E+03  0.37422458919E+02  0.15500376858E+04  0.46999998093E+01 0. -1.
</event>
<event>
 5   0  0.7094341E-06  0.3111062E+04  0.7818609E-02  0.8212709E-01
        2   -1    0    0  501    0  0.00000000000E+00  0.00000000000E+00  0.20199677466E+04  0.20199677466E+04  0.25500000920E-02 0.  1.
       -2   -1    0    0    0  501  0.00000000000E+00  0.00000000000E+00 -0.11978787860E+04  0.11978787860E+04  0.25500000920E-02 0. -1.
    10030    2    1    2    0    0  0.00000000000E+00  0.00000000000E+00  0.82208896062E+03  0.32178465325E+04  0.31110618843E+04 0.  0.
        3    1    3    3  502    0  0.72662683799E+03  0.31913200750E+03 -0.97272692777E+03  0.12554001299E+04  0.10100000352E+00 0. -1.
       -3    1    3    3    0  502 -0.72662683799E+03 -0.31913200750E+03  0.17948158884E+04  0.19624464027E+04  0.10100000352E+00 0.  1.
</event>
<event>
 5   0  0.2598987E-06  0.3045416E+04  0.7818609E-02  0.8230880E-01
       -1   -1    0    0    0  501  0.00000000000E+00  0.00000000000E+00  0.18834624205E+04  0.18834624205E+04  0.50400001928E-02 0.  1.
        1   -1    0    0  501    0  0.00000000000E+00  0.00000000000E+00 -0.12310515499E+04  0.12310515499E+04  0.50400001928E-02 0. -1.
    10030    2    1    2    0    0  0.00000000000E+00  0.00000000000E+00  0.65241087061E+03  0.31145139705E+04  0.30454157891E+04 0.  0.
        2    1    3    3  502    0  0.15004149944E+04 -0.17692009263E+02  0.61328586811E+02  0.15017720727E+04  0.25500000920E-02 0. -1.
       -2    1    3    3    0  502 -0.15004149944E+04  0.17692009263E+02  0.59108228380E+03  0.16127418978E+04  0.25500000920E-02 0.  1.
</event>
<event>
 5   0  0.2624011E-06  0.3102628E+04  0.7818609E-02  0.8215017E-01
        1   -1    0    0  501    0  0.00000000000E+00  0.00000000000E+00  0.12921502120E+04  0.12921502120E+04  0.50400001928E-02 0. -1.
       -1   -1    0    0    0  501  0.00000000000E+00  0.00000000000E+00 -0.18624581090E+04  0.18624581091E+04  0.50400001928E-02 0.  1.
    10030    2    1    2    0    0  0.00000000000E+00  0.00000000000E+00 -0.57030789703E+03  0.31546083211E+04  0.31026283313E+04 0.  0.
        1    1    3    3  502    0  0.11590272245E+04  0.59135725798E+02 -0.13318346748E+04  0.17665290098E+04  0.50400001928E-02 0.  1.
       -1    1    3    3    0  502 -0.11590272245E+04 -0.59135725798E+02  0.76152677780E+03  0.13880793113E+04  0.50400001928E-02 0. -1.
</event>
<event>
 5   0  0.2517725E-06  0.2717549E+04  0.7818609E-02  0.8329333E-01
       -1   -1    0    0    0  501  0.00000000000E+00  0.00000000000E+00  0.88401491229E+03  0.88401491231E+03  0.50400001928E-02 0. -1.
        1   -1    0    0  501    0  0.00000000000E+00  0.00000000000E+00 -0.20885034774E+04  0.20885034774E+04  0.50400001928E-02 0.  1.
    10030    2    1    2    0    0  0.00000000000E+00  0.00000000000E+00 -0.12044885651E+04  0.29725183897E+04  0.27175490564E+04 0.  0.
        3    1    3    3  502    0 -0.64344459270E+03  0.54817089481E+03 -0.17658974279E+04  0.19577808891E+04  0.10100000352E+00 0.  1.
       -3    1    3    3    0  502  0.64344459270E+03 -0.54817089481E+03  0.56140886275E+03  0.10147375006E+04  0.10100000352E+00 0. -1.
</event>
<event>
 5   0  0.2517725E-06  0.2741897E+04  0.7818609E-02  0.8321537E-01
       -1   -1    0    0    0  501  0.00000000000E+00  0.00000000000E+00  0.10165552884E+04  0.10165552884E+04  0.50400001928E-02 0.  1.
        1   -1    0    0  501    0  0.00000000000E+00  0.00000000000E+00 -0.18488913215E+04  0.18488913215E+04  0.50400001928E-02 0. -1.
    10030    2    1    2    0    0  0.00000000000E+00  0.00000000000E+00 -0.83233603311E+03  0.28654466099E+04  0.27418973362E+04 0.  0.
        3    1    3    3  502    0  0.27413146451E+03  0.54875563694E+03 -0.16974724293E+04  0.18049081603E+04  0.10100000352E+00 0. -1.
       -3    1    3    3    0  502 -0.27413146451E+03 -0.54875563694E+03  0.86513639615E+03  0.10605384496E+04  0.10100000352E+00 0.  1.
</event>
<event>
 5   0  0.7414808E-06  0.3085430E+04  0.7818609E-02  0.8219748E-01
       -2   -1    0    0    0  501  0.00000000000E+00  0.00000000000E+00  0.78620400894E+03  0.78620400894E+03  0.25500000920E-02 0.  1.
        2   -1    0    0  501    0  0.00000000000E+00  0.00000000000E+00 -0.30271660229E+04  0.30271660229E+04  0.25500000920E-02 0. -1.
    10030    2    1    2    0    0  0.00000000000E+00  0.00000000000E+00 -0.22409620140E+04  0.38133700318E+04  0.30854303187E+04 0.  0.
        2    1    3    3  502    0 -0.74291161273E+03 -0.10206611310E+04 -0.24537310614E+02  0.12626436109E+04  0.25500000920E-02 0.  1.
       -2    1    3    3    0  502  0.74291161273E+03  0.10206611310E+04 -0.22164247034E+04  0.25507264209E+04  0.25500000920E-02 0. -1.
</event>
<event>
 5   0  0.2674441E-06  0.3128246E+04  0.7818609E-02  0.8208029E-01
       -1   -1    0    0    0  501  0.00000000000E+00  0.00000000000E+00  0.19639312033E+04  0.19639312033E+04  0.50400001928E-02 0.  1.
        1   -1    0    0  501    0  0.00000000000E+00  0.00000000000E+00 -0.12457058188E+04  0.12457058188E+04  0.50400001928E-02 0. -1.
    10030    2    1    2    0    0  0.00000000000E+00  0.00000000000E+00  0.71822538457E+03  0.32096370221E+04  0.31282458520E+04 0.  0.
        5    1    3    3  502    0  0.20694933264E+03  0.15257995549E+04  0.64115784004E+03  0.16679321851E+04  0.46999998093E+01 0. -1.
       -5    1    3    3    0  502 -0.20694933264E+03 -0.15257995549E+04  0.77067544522E+02  0.15417048370E+04  0.46999998093E+01 0.  1.
</event>
<event>
 5   0  0.7079223E-06  0.3104545E+04  0.7818609E-02  0.8214492E-01
       -2   -1    0    0    0  501  0.00000000000E+00  0.00000000000E+00  0.19779565388E+04  0.19779565388E+04  0.25500000920E-02 0. -1.
        2   -1    0    0  501    0  0.00000000000E+00  0.00000000000E+00 -0.12182013218E+04  0.12182013218E+04  0.25500000920E-02 0.  1.
    10030    2    1    2    0    0  0.00000000000E+00  0.00000000000E+00  0.75975521699E+03  0.31961578606E+04  0.31045445850E+04 0.  0.
        5    1    3    3  502    0  0.50848183439E+03  0.68841178791E+03  0.17131072444E+04  0.19149995004E+04  0.46999998093E+01 0. -1.
       -5    1    3    3    0  502 -0.50848183439E+03 -0.68841178791E+03 -0.95335202744E+03  0.12811583602E+04  0.46999998093E+01 0.  1.
</event>
<event>
 5   0  0.2598987E-06  0.3092209E+04  0.7818609E-02  0.8217879E-01
       -1   -1    0    0    0  501  0.00000000000E+00  0.00000000000E+00  0.12654884649E+04  0.12654884650E+04  0.50400001928E-02 0. -1.
        1   -1    0    0  501    0  0.00000000000E+00  0.00000000000E+00 -0.18889454719E+04  0.18889454719E+04  0.50400001928E-02 0.  1.
    10030    2    1    2    0    0  0.00000000000E+00  0.00000000000E+00 -0.62345700695E+03  0.31544339368E+04  0.30922087288E+04 0.  0.
        2    1    3    3  502    0  0.20699494888E+03  0.61256765694E+03 -0.17443943901E+04  0.18603757232E+04  0.25500000920E-02 0.  1.
       -2    1    3    3    0  502 -0.20699494888E+03 -0.61256765694E+03  0.11209373832E+04  0.12940582136E+04  0.25500000920E-02 0. -1.
</event>
<event>
 5   0  0.2393250E-06  0.3073356E+04  0.7818609E-02  0.8223088E-01
        4   -1    0    0  501    0  0.00000000000E+00  0.00000000000E+00  0.27978850555E+04  0.27978853437E+04  0.12699999809E+01 0.  1.
       -4   -1    0    0    0  501  0.00000000000E+00  0.00000000000E+00 -0.84398645047E+03  0.84398740599E+03  0.12699999809E+01 0. -1.
    10030    2    1    2    0    0  0.00000000000E+00  0.00000000000E+00  0.19538986050E+04  0.36418727497E+04  0.30733560429E+04 0.  0.
        2    1    3    3  502    0  0.55555600527E+03 -0.51172589705E+03  0.25627344410E+04  0.26717248518E+04  0.25500000920E-02 0.  1.
       -2    1    3    3    0  502 -0.55555600527E+03  0.51172589705E+03 -0.60883583595E+03  0.97014789793E+03  0.25500000920E-02 0. -1.
</event>
<event>
 5   0  0.2624011E-06  0.2219252E+04  0.7818609E-02  0.8510457E-01
       -1   -1    0    0    0  501  0.00000000000E+00  0.00000000000E+00  0.13516292235E+04  0.13516292235E+04  0.50400001928E-02 0. -1.
        1   -1    0    0  501    0  0.00000000000E+00  0.00000000000E+00 -0.91095262943E+03  0.91095262945E+03  0.50400001928E-02 0.  1.
    10030    2    1    2    0    0  0.00000000000E+00  0.00000000000E+00  0.44067659404E+03  0.22625818529E+04  0.22192523022E+04 0.  0.
        1    1    3    3  502    0  0.21570876376E+03 -0.89358686853E+03  0.85395645178E+03  0.12546989216E+04  0.50400001928E-02 0. -1.
       -1    1    3    3    0  502 -0.21570876376E+03  0.89358686853E+03 -0.41327985774E+03  0.10078829313E+04  0.50400001928E-02 0.  1.
</event>
<event>
 5   0  0.2598987E-06  0.3086257E+04  0.7818609E-02  0.8219520E-01
        1   -1    0    0  501    0  0.00000000000E+00  0.00000000000E+00  0.14927890676E+04  0.14927890676E+04  0.50400001928E-02 0. -1.
       -1   -1    0    0    0  501  0.00000000000E+00  0.00000000000E+00 -0.15951658663E+04  0.15951658663E+04  0.50400001928E-02 0.  1.
    10030    2    1    2    0    0  0.00000000000E+00  0.00000000000E+00 -0.10237679871E+03  0.30879549338E+04  0.30862573879E+04 0.  0.
        2    1    3    3  502    0 -0.41477275334E+03  0.73166109569E+03 -0.13456858539E+04  0.15868947077E+04  0.25500000920E-02 0.  1.
       -2    1    3    3    0  502  0.41477275334E+03 -0.73166109569E+03  0.12433090552E+04  0.15010602262E+04  0.25500000920E-02 0. -1.
</event>
<event>
 5   0  0.7071012E-06  0.1970735E+04  0.7818609E-02  0.8620426E-01
        2   -1    0    0  501    0  0.00000000000E+00  0.00000000000E+00  0.10487653548E+04  0.10487653548E+04  0.25500000920E-02 0.  1.
       -2   -1    0    0    0  501  0.00000000000E+00  0.00000000000E+00 -0.92580240381E+03  0.92580240382E+03  0.25500000920E-02 0. -1.
    10030    2    1    2    0    0  0.00000000000E+00  0.00000000000E+00  0.12296295100E+03  0.19745677586E+04  0.19707353821E+04 0.  0.
        1    1    3    3  502    0 -0.37675838262E+03  0.20676275015E+02  0.97351261423E+03  0.10440791145E+04  0.50400001928E-02 0.  1.
       -1    1    3    3    0  502  0.37675838262E+03 -0.20676275015E+02 -0.85054966324E+03  0.93048864414E+03  0.50400001928E-02 0. -1.
</event>
<event>
 5   0  0.7071012E-06  0.3174144E+04  0.7818609E-02  0.8195679E-01
        2   -1    0    0  501    0  0.00000000000E+00  0.00000000000E+00  0.26702411096E+04  0.26702411096E+04  0.25500000920E-02 0.  1.
       -2   -1    0    0    0  501  0.00000000000E+00  0.00000000000E+00 -0.94328466602E+03  0.94328466602E+03  0.25500000920E-02 0. -1.
    10030    2    1    2    0    0  0.00000000000E+00  0.00000000000E+00  0.17269564436E+04  0.36135257756E+04  0.31741439748E+04 0.  0.
        1    1    3    3  502    0  0.15199818417E+03 -0.11518428615E+04 -0.36736542076E+03  0.12185248368E+04  0.50400001928E-02 0. -1.
       -1    1    3    3    0  502 -0.15199818417E+03  0.11518428615E+04  0.20943218643E+04  0.23950009388E+04  0.50400001928E-02 0.  1.
</event>
<event>
 5   0  0.2393250E-06  0.2468343E+04  0.7818609E-02  0.8414351E-01
        3   -1    0    0  501    0  0.00000000000E+00  0.00000000000E+00  0.14121245175E+04  0.14121245211E+04  0.10100000352E+00 0.  1.
       -3   -1    0    0    0  501  0.00000000000E+00  0.00000000000E+00 -0.10786437873E+04  0.10786437921E+04  0.10100000352E+00 0. -1.
    10030    2    1    2    0    0  0.00000000000E+00  0.00000000000E+00  0.33348073018E+03  0.24907683132E+04  0.24683430460E+04 0.  0.
        4    1    3    3  502    0 -0.65654078075E+03 -0.70072760609E+03  0.94909883521E+03  0.13501315442E+04  0.12699999809E+01 0.  1.
       -4    1    3    3    0  502  0.65654078075E+03  0.70072760609E+03 -0.61561810502E+03  0.11406367690E+04  0.12699999809E+01 0. -1.
</event>
<event>
 5   0  0.2612331E-06  0.2148048E+04  0.7818609E-02  0.8540368E-01
       -1   -1    0    0    0  501  0.00000000000E+00  0.00000000000E+00  0.90672694164E+03  0.90672694166E+03  0.50400001928E-02 0. -1.
        1   -1    0    0  501    0  0.00000000000E+00  0.00000000000E+00 -0.12721887758E+04  0.12721887758E+04  0.50400001928E-02 0.  1.
    10030    2    1    2    0    0  0.00000000000E+00  0.00000000000E+00 -0.36546183411E+03  0.21789157174E+04  0.21480482656E+04 0.  0.
        4    1    3    3  502    0 -0.48568427808E+03 -0.95777808170E+03 -0.20024615866E+03  0.10923956283E+04  0.12699999809E+01 0.  1.
       -4    1    3    3    0  502  0.48568427808E+03  0.95777808170E+03 -0.16521567546E+03  0.10865200891E+04  0.12699999809E+01 0. -1.
</event>
<event>
 5   0  0.7079223E-06  0.3294544E+04  0.7818609E-02  0.8164285E-01
       -2   -1    0    0    0  501  0.00000000000E+00  0.00000000000E+00  0.24628892873E+04  0.24628892873E+04  0.25500000920E-02 0. -1.
        2   -1    0    0  501    0  0.00000000000E+00  0.00000000000E+00 -0.11017570110E+04  0.11017570110E+04  0.25500000920E-02 0.  1.
    10030    2    1    2    0    0  0.00000000000E+00  0.00000000000E+00  0.13611322763E+04  0.35646462984E+04  0.32945443022E+04 0.  0.
        5    1    3    3  502    0  0.13985139997E+04 -0.41426481225E+03  0.15088511375E+04  0.20985972904E+04  0.46999998093E+01 0.  1.
       -5    1    3    3    0  502 -0.13985139997E+04  0.41426481225E+03 -0.14771886122E+03  0.14660490080E+04  0.46999998093E+01 0. -1.
</event>
<event>
 5   0  0.2674441E-06  0.3125657E+04  0.7818609E-02  0.8208732E-01
       -1   -1    0    0    0  501  0.00000000000E+00  0.00000000000E+00  0.12146583083E+04  0.12146583083E+04  0.50400001928E-02 0.  1.
        1   -1    0    0  501    0  0.00000000000E+00  0.00000000000E+00 -0.20107984514E+04  0.20107984514E+04  0.50400001928E-02 0. -1.
    10030    2    1    2    0    0  0.00000000000E+00  0.00000000000E+00 -0.79614014315E+03  0.32254567597E+04  0.31256570799E+04 0.  0.
        5    1    3    3  502    0  0.38447289187E+03  0.13846667412E+04  0.23578109303E+03  0.14562747689E+04  0.46999998093E+01 0.  1.
       -5    1    3    3    0  502 -0.38447289187E+03 -0.13846667412E+04 -0.10319212362E+04  0.17691819908E+04  0.46999998093E+01 0. -1.
</event>
<event>
 5   0  0.2598987E-06  0.3074685E+04  0.7818609E-02  0.8222720E-01
       -1   -1    0    0    0  501  0.00000000000E+00  0.00000000000E+00  0.94577477291E+03  0.94577477292E+03  0.50400001928E-02 0.  1.
        1   -1    0    0  501    0  0.00000000000E+00  0.00000000000E+00 -0.24989270472E+04  0.24989270472E+04  0.50400001928E-02 0. -1.
    10030    2    1    2    0    0  0.00000000000E+00  0.00000000000E+00 -0.15531522742E+04  0.34447018201E+04  0.30746851290E+04 0.  0.
        2    1    3    3  502    0  0.43765787887E+03  0.78051226056E+03  0.62393247962E+03  0.10908875043E+04  0.25500000920E-02 0.  1.
       -2    1    3    3    0  502 -0.43765787887E+03 -0.78051226056E+03 -0.21770847539E+04  0.23538143158E+04  0.25500000920E-02 0. -1.
</event>
<event>
 5   0  0.7079223E-06  0.2988142E+04  0.7818609E-02  0.8247125E-01
       -2   -1    0    0    0  501  0.00000000000E+00  0.00000000000E+00  0.10119080235E+04  0.10119080235E+04  0.25500000920E-02 0. -1.
        2   -1    0    0  501    0  0.00000000000E+00  0.00000000000E+00 -0.22059799452E+04  0.22059799452E+04  0.25500000920E-02 0.  1.
    10030    2    1    2    0    0  0.00000000000E+00  0.00000000000E+00 -0.11940719217E+04  0.32178879686E+04  0.29881424371E+04 0.  0.
        5    1    3    3  502    0  0.54964412371E+02  0.14926919846E+04 -0.56170707490E+03  0.15958343823E+04  0.46999998093E+01 0. -1.
       -5    1    3    3    0  502 -0.54964412371E+02 -0.14926919846E+04 -0.63236484680E+03  0.16220535864E+04  0.46999998093E+01 0.  1.
</event>
<event>
 5   0  0.7071012E-06  0.2674726E+04  0.7818609E-02  0.8343252E-01
       -2   -1    0    0    0  501  0.00000000000E+00  0.00000000000E+00  0.59478381184E+03  0.59478381185E+03  0.25500000920E-02 0. -1.
        2   -1    0    0  501    0  0.00000000000E+00  0.00000000000E+00 -0.30070420136E+04  0.30070420136E+04  0.25500000920E-02 0.  1.
    10030    2    1    2    0    0  0.00000000000E+00  0.00000000000E+00 -0.24122582017E+04  0.36018258254E+04  0.26747260878E+04 0.  0.
        1    1    3    3  502    0 -0.66822998071E+03  0.11103793550E+04 -0.16508511566E+04  0.20987575278E+04  0.50400001928E-02 0.  1.
       -1    1    3    3    0  502  0.66822998071E+03 -0.11103793550E+04 -0.76140704508E+03  0.15030682976E+04  0.50400001928E-02 0. -1.
</event>
<event>
 5   0  0.2598987E-06  0.3110913E+04  0.7818609E-02  0.8212749E-01
       -1   -1    0    0    0  501  0.00000000000E+00  0.00000000000E+00  0.12270157120E+04  0.12270157120E+04  0.50400001928E-02 0.  1.
        1   -1    0    0  501    0  0.00000000000E+00  0.00000000000E+00 -0.19718129774E+04  0.19718129774E+04  0.50400001928E-02 0. -1.
    10030    2    1    2    0    0  0.00000000000E+00  0.00000000000E+00 -0.74479726541E+03  0.31988286894E+04  0.31109133735E+04 0.  0.
        2    1    3    3  502    0 -0.12530602099E+04 -0.60522243804E+03 -0.10870146896E+04  0.17658015247E+04  0.25500000920E-02 0.  1.
       -2    1    3    3    0  502  0.12530602099E+04  0.60522243804E+03  0.34221742424E+03  0.14330271647E+04  0.25500000920E-02 0. -1.
</event>
<event>
 5   0  0.2674441E-06  0.2998921E+04  0.7818609E-02  0.8244039E-01
        1   -1    0    0  501    0  0.00000000000E+00  0.00000000000E+00  0.17134420196E+04  0.17134420196E+04  0.50400001928E-02 0.  1.
       -1   -1    0    0    0  501  0.00000000000E+00  0.00000000000E+00 -0.13122018089E+04  0.13122018089E+04  0.50400001928E-02 0. -1.
    10030    2    1    2    0    0  0.00000000000E+00  0.00000000000E+00  0.40124021074E+03  0.30256438285E+04  0.29989209510E+04 0.  0.
        5    1    3    3  502    0 -0.80012060030E+03  0.81502955402E+03  0.11808191550E+04  0.16428092147E+04  0.46999998093E+01 0.  1.
       -5    1    3    3    0  502  0.80012060030E+03 -0.81502955402E+03 -0.77957894426E+03  0.13828346139E+04  0.46999998093E+01 0. -1.
</event>
<event>
 5   0  0.2517725E-06  0.3026167E+04  0.7818609E-02  0.8236298E-01
        1   -1    0    0  501    0  0.00000000000E+00  0.00000000000E+00  0.18394959000E+04  0.18394959000E+04  0.50400001928E-02 0.  1.
       -1   -1    0    0    0  501  0.00000000000E+00  0.00000000000E+00 -0.12445922151E+04  0.12445922151E+04  0.50400001928E-02 0. -1.
    10030    2    1    2    0    0  0.00000000000E+00  0.00000000000E+00  0.59490368490E+03  0.30840881151E+04  0.30261673958E+04 0.  0.
        3    1    3    3  502    0  0.12789800165E+04 -0.61197321472E+03 -0.24097935695E+03  0.14381836319E+04  0.10100000352E+00 0. -1.
       -3    1    3    3    0  502 -0.12789800165E+04  0.61197321472E+03  0.83588304185E+03  0.16459044833E+04  0.10100000352E+00 0.  1.
</event>
<event>
 5   0  0.2517725E-06  0.3104102E+04  0.7818609E-02  0.8214613E-01
        1   -1    0    0  501    0  0.00000000000E+00  0.00000000000E+00  0.24183561308E+04  0.24183561308E+04  0.50400001928E-02 0. -1.
       -1   -1    0    0    0  501  0.00000000000E+00  0.00000000000E+00 -0.99607449297E+03  0.99607449298E+03  0.50400001928E-02 0.  1.
    10030    2    1    2    0    0  0.00000000000E+00  0.00000000000E+00  0.14222816378E+04  0.34144306238E+04  0.31041023545E+04 0.  0.
        3    1    3    3  502    0  0.64548768311E+02 -0.14311722170E+04  0.54425824831E+02  0.14336605731E+04  0.10100000352E+00 0.  1.
       -3    1    3    3    0  502 -0.64548768311E+02  0.14311722170E+04  0.13678558130E+04  0.19807700507E+04  0.10100000352E+00 0. -1.
</event>
<event>
 5   0  0.2674441E-06  0.2346188E+04  0.7818609E-02  0.8459929E-01
        1   -1    0    0  501    0  0.00000000000E+00  0.00000000000E+00  0.76976271932E+03  0.76976271933E+03  0.50400001928E-02 0. -1.
       -1   -1    0    0    0  501  0.00000000000E+00  0.00000000000E+00 -0.17877582845E+04  0.17877582845E+04  0.50400001928E-02 0.  1.
    10030    2    1    2    0    0  0.00000000000E+00  0.00000000000E+00 -0.10179955652E+04  0.25575210038E+04  0.23461881242E+04 0.  0.
        5    1    3    3  502    0  0.59829918403E+03  0.97133688096E+03 -0.80687030108E+03  0.13973256681E+04  0.46999998093E+01 0.  1.
       -5    1    3    3    0  502 -0.59829918403E+03 -0.97133688096E+03 -0.21112526408E+03  0.11601953357E+04  0.46999998093E+01 0. -1.
</event>
<event>
 5   0  0.2612331E-06  0.3176040E+04  0.7818609E-02  0.8195174E-01
       -1   -1    0    0    0  501  0.00000000000E+00  0.00000000000E+00  0.11761520578E+04  0.11761520578E+04  0.50400001928E-02 0.  1.
        1   -1    0    0  501    0  0.00000000000E+00  0.00000000000E+00 -0.21441173642E+04  0.21441173642E+04  0.50400001928E-02 0. -1.
    10030    2    1    2    0    0  0.00000000000E+00  0.00000000000E+00 -0.96796530646E+03  0.33202694220E+04  0.31760403335E+04 0.  0.
        4    1    3    3  502    0 -0.81255333914E+03  0.64674302540E+02  0.94076446104E+03  0.12447751116E+04  0.12699999809E+01 0.  1.
       -4    1    3    3    0  502  0.81255333914E+03 -0.64674302540E+02 -0.19087297675E+04  0.20754943104E+04  0.12699999809E+01 0. -1.
</event>
<event>
 5   0  0.2517725E-06  0.2647850E+04  0.7818609E-02  0.8352127E-01
        1   -1    0    0  501    0  0.00000000000E+00  0.00000000000E+00  0.21580076732E+04  0.21580076732E+04  0.50400001928E-02 0. -1.
       -1   -1    0    0    0  501  0.00000000000E+00  0.00000000000E+00 -0.81222046801E+03  0.81222046802E+03  0.50400001928E-02 0.  1.
    10030    2    1    2    0    0  0.00000000000E+00  0.00000000000E+00  0.13457872052E+04  0.29702281412E+04  0.26478504507E+04 0.  0.
        3    1    3    3  502    0 -0.37373971379E+03 -0.12288908623E+04  0.10327708608E+04  0.16481716495E+04  0.10100000352E+00 0. -1.
       -3    1    3    3    0  502  0.37373971379E+03  0.12288908623E+04  0.31301634434E+03  0.13220564917E+04  0.10100000352E+00 0.  1.
</event>
<event>
 5   0  0.7363513E-06  0.3093261E+04  0.7818609E-02  0.8217590E-01
       -2   -1    0    0    0  501  0.00000000000E+00  0.00000000000E+00  0.12802454741E+04  0.12802454741E+04  0.25500000920E-02 0. -1.
        2   -1    0    0  501    0  0.00000000000E+00  0.00000000000E+00 -0.18684425912E+04  0.18684425912E+04  0.25500000920E-02 0.  1.
    10030    2    1    2    0    0  0.00000000000E+00  0.00000000000E+00 -0.58819711707E+03  0.31486880653E+04  0.30932605263E+04 0.  0.
        4    1    3    3  502    0 -0.18734754137E+03 -0.45384848861E+03  0.11988056111E+04  0.12954590144E+04  0.12699999809E+01 0. -1.
       -4    1    3    3    0  502  0.18734754137E+03  0.45384848861E+03 -0.17870027281E+04  0.18532290509E+04  0.12699999809E+01 0.  1.
</event>
<event>
 5   0  0.2517725E-06  0.2976305E+04  0.7818609E-02  0.8250530E-01
       -1   -1    0    0    0  501  0.00000000000E+00  0.00000000000E+00  0.16259160684E+04  0.16259160684E+04  0.50400001928E-02 0.  1.
        1   -1    0    0  501    0  0.00000000000E+00  0.00000000000E+00 -0.13620616606E+04  0.13620616606E+04  0.50400001928E-02 0. -1.
    10030    2    1    2    0    0  0.00000000000E+00  0.00000000000E+00  0.26385440778E+03  0.29879777289E+04  0.29763050516E+04 0.  0.
        3    1    3    3  502    0  0.25392701513E+03 -0.13827523281E+04 -0.35795683749E+03  0.14507294846E+04  0.10100000352E+00 0. -1.
       -3    1    3    3    0  502 -0.25392701513E+03  0.13827523281E+04  0.62181124527E+03  0.15372482443E+04  0.10100000352E+00 0.  1.
</event>
<event>
 5   0  0.7094341E-06  0.3066733E+04  0.7818609E-02  0.8224927E-01
        2   -1    0    0  501    0  0.00000000000E+00  0.00000000000E+00  0.19223302217E+04  0.19223302218E+04  0.25500000920E-02 0. -1.
       -2   -1    0    0    0  501  0.00000000000E+00  0.00000000000E+00 -0.12231058065E+04  0.12231058065E+04  0.25500000920E-02 0.  1.
    10030    2    1    2    0    0  0.00000000000E+00  0.00000000000E+00  0.69922441527E+03  0.31454360282E+04  0.30667332823E+04 0.  0.
        3    1    3    3  502    0  0.82415178606E+03 -0.43914824025E+03 -0.89779684023E+03  0.12954213677E+04  0.10100000352E+00 0.  1.
       -3    1    3    3    0  502 -0.82415178606E+03  0.43914824025E+03  0.15970212555E+04  0.18500146605E+04  0.10100000352E+00 0. -1.
</event>
<event>
 5   0  0.7094341E-06  0.2827556E+04  0.7818609E-02  0.8294764E-01
        2   -1    0    0  501    0  0.00000000000E+00  0.00000000000E+00  0.16064006741E+04  0.16064006741E+04  0.25500000920E-02 0.  1.
       -2   -1    0    0    0  501  0.00000000000E+00  0.00000000000E+00 -0.12442523669E+04  0.12442523669E+04  0.25500000920E-02 0. -1.
    10030    2    1    2    0    0  0.00000000000E+00  0.00000000000E+00  0.36214830724E+03  0.28506530410E+04  0.28275557225E+04 0.  0.
        3    1    3    3  502    0  0.10632159519E+04  0.39846661427E+03  0.10303113042E+04  0.15332140088E+04  0.10100000352E+00 0.  1.
       -3    1    3    3    0  502 -0.10632159519E+04 -0.39846661427E+03 -0.66816299697E+03  0.13174390322E+04  0.10100000352E+00 0. -1.
</event>
<event>
 5   0  0.2393250E-06  0.3280329E+04  0.7818609E-02  0.8167919E-01
       -4   -1    0    0    0  501  0.00000000000E+00  0.00000000000E+00  0.13943133722E+04  0.13943139505E+04  0.12699999809E+01 0.  1.
        4   -1    0    0  501    0  0.00000000000E+00  0.00000000000E+00 -0.19293638995E+04  0.19293643175E+04  0.12699999809E+01 0. -1.
    10030    2    1    2    0    0  0.00000000000E+00  0.00000000000E+00 -0.53505052733E+03  0.33236782680E+04  0.32803289717E+04 0.  0.
        1    1    3    3  502    0  0.88817082743E+03 -0.35254352835E+03  0.10831343838E+04  0.14444079935E+04  0.50400001928E-02 0.  1.
       -1    1    3    3    0  502 -0.88817082743E+03  0.35254352835E+03 -0.16181849112E+04  0.18792702746E+04  0.50400001928E-02 0. -1.
</event>
<event>
 5   0  0.7079223E-06  0.3094850E+04  0.7818609E-02  0.8217153E-01
        2   -1    0    0  501    0  0.00000000000E+00  0.00000000000E+00  0.19132699990E+04  0.19132699990E+04  0.25500000920E-02 0.  1.
       -2   -1    0    0    0  501  0.00000000000E+00  0.00000000000E+00 -0.12515350531E+04  0.12515350531E+04  0.25500000920E-02 0. -1.
    10030    2    1    2    0    0  0.00000000000E+00  0.00000000000E+00  0.66173494586E+03  0.31648050521E+04  0.30948502192E+04 0.  0.
        5    1    3    3  502    0  0.59504558317E+02  0.44129600769E+03 -0.11845950179E+04  0.12655316690E+04  0.46999998093E+01 0. -1.
       -5    1    3    3    0  502 -0.59504558317E+02 -0.44129600769E+03  0.18463299637E+04  0.18992733831E+04  0.46999998093E+01 0.  1.
</event>
<event>
 5   0  0.2674441E-06  0.3153904E+04  0.7818609E-02  0.8201098E-01
       -1   -1    0    0    0  501  0.00000000000E+00  0.00000000000E+00  0.14371309588E+04  0.14371309588E+04  0.50400001928E-02 0. -1.
        1   -1    0    0  501    0  0.00000000000E+00  0.00000000000E+00 -0.17303767463E+04  0.17303767463E+04  0.50400001928E-02 0.  1.
    10030    2    1    2    0    0  0.00000000000E+00  0.00000000000E+00 -0.29324578755E+03  0.31675077051E+04  0.31539042424E+04 0.  0.
        5    1    3    3  502    0  0.46908601005E+03  0.38905789361E+03  0.13140740028E+04  0.14485234911E+04  0.46999998093E+01 0. -1.
       -5    1    3    3    0  502 -0.46908601005E+03 -0.38905789361E+03 -0.16073197904E+04  0.17189842140E+04  0.46999998093E+01 0.  1.
</event>
<event>
 5   0  0.2598987E-06  0.3156255E+04  0.7818609E-02  0.8200466E-01
        1   -1    0    0  501    0  0.00000000000E+00  0.00000000000E+00  0.22647624056E+04  0.22647624056E+04  0.50400001928E-02 0. -1.
       -1   -1    0    0    0  501  0.00000000000E+00  0.00000000000E+00 -0.10996681784E+04  0.10996681784E+04  0.50400001928E-02 0.  1.
    10030    2    1    2    0    0  0.00000000000E+00  0.00000000000E+00  0.11650942272E+04  0.33644305840E+04  0.31562554707E+04 0.  0.
        2    1    3    3  502    0 -0.13981911349E+04  0.52246154920E+03  0.36321048705E+02  0.14930585182E+04  0.25500000920E-02 0.  1.
       -2    1    3    3    0  502  0.13981911349E+04 -0.52246154920E+03  0.11287731785E+04  0.18713720658E+04  0.25500000920E-02 0. -1.
</event>
<event>
 5   0  0.7079223E-06  0.3121812E+04  0.7818609E-02  0.8209777E-01
       -2   -1    0    0    0  501  0.00000000000E+00  0.00000000000E+00  0.15229487094E+04  0.15229487094E+04  0.25500000920E-02 0.  1.
        2   -1    0    0  501    0  0.00000000000E+00  0.00000000000E+00 -0.15998096610E+04  0.15998096610E+04  0.25500000920E-02 0. -1.
    10030    2    1    2    0    0  0.00000000000E+00  0.00000000000E+00 -0.76860951579E+02  0.31227583705E+04  0.31218123317E+04 0.  0.
        5    1    3    3  502    0  0.15300958576E+04 -0.15881562752E+03  0.22620636560E+03  0.15548656363E+04  0.46999998093E+01 0.  1.
       -5    1    3    3    0  502 -0.15300958576E+04  0.15881562752E+03 -0.30306731718E+03  0.15678927342E+04  0.46999998093E+01 0. -1.
</event>
<event>
 5   0  0.7071012E-06  0.3234041E+04  0.7818609E-02  0.8179885E-01
        2   -1    0    0  501    0  0.00000000000E+00  0.00000000000E+00  0.22693876653E+04  0.22693876653E+04  0.25500000920E-02 0. -1.
       -2   -1    0    0    0  501  0.00000000000E+00  0.00000000000E+00 -0.11521851394E+04  0.11521851394E+04  0.25500000920E-02 0.  1.
    10030    2    1    2    0    0  0.00000000000E+00  0.00000000000E+00  0.11172025258E+04  0.34215728047E+04  0.32340406575E+04 0.  0.
        1    1    3    3  502    0  0.13533577467E+04 -0.36883211328E+03  0.14096992726E+04  0.19886845797E+04  0.50400001928E-02 0. -1.
       -1    1    3    3    0  502 -0.13533577467E+04  0.36883211328E+03 -0.29249674677E+03  0.14328882250E+04  0.50400001928E-02 0.  1.
</event>
<event>
 5   0  0.2598987E-06  0.3078733E+04  0.7818609E-02  0.8221599E-01
       -1   -1    0    0    0  501  0.00000000000E+00  0.00000000000E+00  0.16825815844E+04  0.16825815844E+04  0.50400001928E-02 0. -1.
        1   -1    0    0  501    0  0.00000000000E+00  0.00000000000E+00 -0.14083409880E+04  0.14083409880E+04  0.50400001928E-02 0.  1.
    10030    2    1    2    0    0  0.00000000000E+00  0.00000000000E+00  0.27424059648E+03  0.30909225724E+04  0.30787326035E+04 0.  0.
        2    1    3    3  502    0 -0.51842793633E+03 -0.34113357069E+03  0.15514240346E+04  0.16709446949E+04  0.25500000920E-02 0. -1.
       -2    1    3    3    0  502  0.51842793633E+03  0.34113357069E+03 -0.12771834381E+04  0.14199778776E+04  0.25500000920E-02 0.  1.
</event>
<event>
 5   0  0.7071012E-06  0.3103623E+04  0.7818609E-02  0.8214744E-01
        2   -1    0    0  501    0  0.00000000000E+00  0.00000000000E+00  0.17226999336E+04  0.17226999336E+04  0.25500000920E-02 0.  1.
       -2   -1    0    0    0  501  0.00000000000E+00  0.00000000000E+00 -0.13978747819E+04  0.13978747819E+04  0.25500000920E-02 0. -1.
    10030    2    1    2    0    0  0.00000000000E+00  0.00000000000E+00  0.32482515169E+03  0.31205747156E+04  0.31036229114E+04 0.  0.
        1    1    3    3  502    0  0.40683908343E+03  0.85749637635E+03  0.13968400787E+04  0.16887807083E+04  0.50400001928E-02 0.  1.
       -1    1    3    3    0  502 -0.40683908343E+03 -0.85749637635E+03 -0.10720149270E+04  0.14317940072E+04  0.50400001928E-02 0. -1.
</event>
<event>
 5   0  0.2612331E-06  0.3078844E+04  0.7818609E-02  0.8221568E-01
       -1   -1    0    0    0  501  0.00000000000E+00  0.00000000000E+00  0.16014266477E+04  0.16014266477E+04  0.50400001928E-02 0. -1.
        1   -1    0    0  501    0  0.00000000000E+00  0.00000000000E+00 -0.14798184643E+04  0.14798184643E+04  0.50400001928E-02 0.  1.
    10030    2    1    2    0    0  0.00000000000E+00  0.00000000000E+00  0.12160818347E+03  0.30812451120E+04  0.30788444082E+04 0.  0.
        4    1    3    3  502    0 -0.21175341210E+03  0.10904952266E+04 -0.10057659784E+04  0.14985279987E+04  0.12699999809E+01 0.  1.
       -4    1    3    3    0  502  0.21175341210E+03 -0.10904952266E+04  0.11273741619E+04  0.15827171133E+04  0.12699999809E+01 0. -1.
</event>
<event>
 5   0  0.7094341E-06  0.3094928E+04  0.7818609E-02  0.8217131E-01
        2   -1    0    0  501    0  0.00000000000E+00  0.00000000000E+00  0.18497359160E+04  0.18497359160E+04  0.25500000920E-02 0. -1.
       -2   -1    0    0    0  501  0.00000000000E+00  0.00000000000E+00 -0.12945876512E+04  0.12945876512E+04  0.25500000920E-02 0.  1.
    10030    2    1    2    0    0  0.00000000000E+00  0.00000000000E+00  0.55514826487E+03  0.31443235672E+04  0.30949282866E+04 0.  0.
        3    1    3    3  502    0  0.12653637761E+04  0.73026997648E+03  0.79581888112E+03  0.16636608507E+04  0.10100000352E+00 0. -1.
       -3    1    3    3    0  502 -0.12653637761E+04 -0.73026997648E+03 -0.24067061625E+03  0.14806627165E+04  0.10100000352E+00 0.  1.
</event>
<event>
 5   0  0.2612331E-06  0.3080377E+04  0.7818609E-02  0.8221144E-01
        1   -1    0    0  501    0  0.00000000000E+00  0.00000000000E+00  0.11047857166E+04  0.11047857166E+04  0.50400001928E-02 0. -1.
       -1   -1    0    0    0  501  0.00000000000E+00  0.00000000000E+00 -0.21471860132E+04  0.21471860132E+04  0.50400001928E-02 0.  1.
    10030    2    1    2    0    0  0.00000000000E+00  0.00000000000E+00 -0.10424002966E+04  0.32519717298E+04  0.30803768850E+04 0.  0.
        4    1    3    3  502    0  0.29497772236E+01 -0.45535218192E+03  0.10320959607E+04  0.11280859878E+04  0.12699999809E+01 0. -1.
       -4    1    3    3    0  502 -0.29497772236E+01  0.45535218192E+03 -0.20744962573E+04  0.21238857421E+04  0.12699999809E+01 0.  1.
</event>
<event>
 5   0  0.7094341E-06  0.3129996E+04  0.7818609E-02  0.8207554E-01
        2   -1    0    0  501    0  0.00000000000E+00  0.00000000000E+00  0.19785120204E+04  0.19785120205E+04  0.25500000920E-02 0.  1.
       -2   -1    0    0    0  501  0.00000000000E+00  0.00000000000E+00 -0.12379091494E+04  0.12379091494E+04  0.25500000920E-02 0. -1.
    10030    2    1    2    0    0  0.00000000000E+00  0.00000000000E+00  0.74060287102E+03  0.32164211699E+04  0.31299956117E+04 0.  0.
        3    1    3    3  502    0  0.11096045260E+04  0.71626571903E+03  0.12331035822E+04  0.18068766530E+04  0.10100000352E+00 0.  1.
       -3    1    3    3    0  502 -0.11096045260E+04 -0.71626571903E+03 -0.49250071123E+03  0.14095445169E+04  0.10100000352E+00 0. -1.
</event>
<event>
 5   0  0.7363513E-06  0.3064426E+04  0.7818609E-02  0.8225569E-01
       -2   -1    0    0    0  501  0.00000000000E+00  0.00000000000E+00  0.13797963913E+04  0.13797963913E+04  0.25500000920E-02 0. -1.
        2   -1    0    0  501    0  0.00000000000E+00  0.00000000000E+00 -0.17014657005E+04  0.17014657005E+04  0.25500000920E-02 0.  1.
    10030    2    1    2    0    0  0.00000000000E+00  0.00000000000E+00 -0.32166930924E+03  0.30812620918E+04  0.30644257103E+04 0.  0.
        4    1    3    3  502    0 -0.37036570359E+03 -0.98450990108E+03  0.95939778759E+03  0.14236840336E+04  0.12699999809E+01 0. -1.
       -4    1    3    3    0  502  0.37036570359E+03  0.98450990108E+03 -0.12810670968E+04  0.16575780583E+04  0.12699999809E+01 0.  1.
</event>
<event>
 5   0  0.7414808E-06  0.3077371E+04  0.7818609E-02  0.8221976E-01
        2   -1    0    0  501    0  0.00000000000E+00  0.00000000000E+00  0.21451654580E+04  0.21451654580E+04  0.25500000920E-02 0. -1.
       -2   -1    0    0    0  501  0.00000000000E+00  0.00000000000E+00 -0.11036692669E+04  0.11036692669E+04  0.25500000920E-02 0.  1.
    10030    2    1    2    0    0  0.00000000000E+00  0.00000000000E+00  0.10414961912E+04  0.32488347249E+04  0.30773710783E+04 0.  0.
        2    1    3    3  502    0 -0.25461269880E+02  0.10344544788E+04 -0.68147684208E+03  0.12390137333E+04  0.25500000920E-02 0.  1.
       -2    1    3    3    0  502  0.25461269880E+02 -0.10344544788E+04  0.17229730332E+04  0.20098209916E+04  0.25500000920E-02 0. -1.
</event>
<event>
 5   0  0.7414808E-06  0.2008538E+04  0.7818609E-02  0.8602639E-01
       -2   -1    0    0    0  501  0.00000000000E+00  0.00000000000E+00  0.74071405973E+03  0.74071405973E+03  0.25500000920E-02 0. -1.
        2   -1    0    0  501    0  0.00000000000E+00  0.00000000000E+00 -0.13615992935E+04  0.13615992935E+04  0.25500000920E-02 0.  1.
    10030    2    1    2    0    0  0.00000000000E+00  0.00000000000E+00 -0.62088523375E+03  0.21023133532E+04  0.20085375181E+04 0.  0.
        2    1    3    3  502    0  0.88242073523E+03 -0.30883391020E+03 -0.69432342891E+03  0.11645298459E+04  0.25500000920E-02 0.  1.
       -2    1    3    3    0  502 -0.88242073523E+03  0.30883391020E+03  0.73438195164E+02  0.93778350731E+03  0.25500000920E-02 0. -1.
</event>
<event>
 5   0  0.2612331E-06  0.1961582E+04  0.7818609E-02  0.8624796E-01
        1   -1    0    0  501    0  0.00000000000E+00  0.00000000000E+00  0.13642131580E+04  0.13642131580E+04  0.50400001928E-02 0.  1.
       -1   -1    0    0    0  501  0.00000000000E+00  0.00000000000E+00 -0.70513242372E+03  0.70513242373E+03  0.50400001928E-02 0. -1.
    10030    2    1    2    0    0  0.00000000000E+00  0.00000000000E+00  0.65908073431E+03  0.20693455818E+04  0.19615819439E+04 0.  0.
        4    1    3    3  502    0 -0.73715363220E+03  0.77057910813E+02 -0.34810045137E+03  0.81884610045E+03  0.12699999809E+01 0. -1.
       -4    1    3    3    0  502  0.73715363220E+03 -0.77057910813E+02  0.10071811857E+04  0.12504994813E+04  0.12699999809E+01 0.  1.
</event>
<event>
 5   0  0.7414808E-06  0.3096124E+04  0.7818609E-02  0.8216803E-01
       -2   -1    0    0    0  501  0.00000000000E+00  0.00000000000E+00  0.10050518243E+04  0.10050518243E+04  0.25500000920E-02 0. -1.
        2   -1    0    0  501    0  0.00000000000E+00  0.00000000000E+00 -0.23844497121E+04  0.23844497121E+04  0.25500000920E-02 0.  1.
    10030    2    1    2    0    0  0.00000000000E+00  0.00000000000E+00 -0.13793978878E+04  0.33895015365E+04  0.30961237270E+04 0.  0.
        2    1    3    3  502    0  0.11048964815E+04  0.63689101766E+03 -0.16503869850E+04  0.20857141711E+04  0.25500000920E-02 0.  1.
       -2    1    3    3    0  502 -0.11048964815E+04 -0.63689101766E+03  0.27098909718E+03  0.13037873654E+04  0.25500000920E-02 0. -1.
</event>
<event>
 5   0  0.7079223E-06  0.3025973E+04  0.7818609E-02  0.8236353E-01
        2   -1    0    0  501    0  0.00000000000E+00  0.00000000000E+00  0.20489189600E+04  0.20489189600E+04  0.25500000920E-02 0.  1.
       -2   -1    0    0    0  501  0.00000000000E+00  0.00000000000E+00 -0.11172368534E+04  0.11172368534E+04  0.25500000920E-02 0. -1.
    10030    2    1    2    0    0  0.00000000000E+00  0.00000000000E+00  0.93168210660E+03  0.31661558134E+04  0.30259727505E+04 0.  0.
        5    1    3    3  502    0  0.93522437792E+02  0.50291017012E+03  0.19556869184E+04  0.20214842316E+04  0.46999998093E+01 0.  1.
       -5    1    3    3    0  502 -0.93522437792E+02 -0.50291017012E+03 -0.10240048118E+04  0.11446715818E+04  0.46999998093E+01 0. -1.
</event>
<event>
 5   0  0.7079223E-06  0.3059503E+04  0.7818609E-02  0.8226941E-01
       -2   -1    0    0    0  501  0.00000000000E+00  0.00000000000E+00  0.10654265798E+04  0.10654265798E+04  0.25500000920E-02 0. -1.
        2   -1    0    0  501    0  0.00000000000E+00  0.00000000000E+00 -0.21964342308E+04  0.21964342308E+04  0.25500000920E-02 0.  1.
    10030    2    1    2    0    0  0.00000000000E+00  0.00000000000E+00 -0.11310076510E+04  0.32618608105E+04  0.30595028421E+04 0.  0.
        5    1    3    3  502    0  0.13903811319E+04  0.63538637849E+03 -0.62620627528E+03  0.16519781872E+04  0.46999998093E+01 0.  1.
       -5    1    3    3    0  502 -0.13903811319E+04 -0.63538637849E+03 -0.50480137573E+03  0.16098826233E+04  0.46999998093E+01 0. -1.
</event>
<event>
 5   0  0.7094341E-06  0.3078592E+04  0.7818609E-02  0.8221638E-01
        2   -1    0    0  501    0  0.00000000000E+00  0.00000000000E+00  0.14341680608E+04  0.14341680608E+04  0.25500000920E-02 0. -1.
       -2   -1    0    0    0  501  0.00000000000E+00  0.00000000000E+00 -0.16521305078E+04  0.16521305078E+04  0.25500000920E-02 0.  1.
    10030    2    1    2    0    0  0.00000000000E+00  0.00000000000E+00 -0.21796244697E+03  0.30862985687E+04  0.30785924100E+04 0.  0.
        3    1    3    3  502    0 -0.79396895479E+03  0.87479297713E+03 -0.10982559492E+04  0.16130144432E+04  0.10100000352E+00 0.  1.
       -3    1    3    3    0  502  0.79396895479E+03 -0.87479297713E+03  0.88029350220E+03  0.14732841254E+04  0.10100000352E+00 0. -1.
</event>
<event>
 5   0  0.2674441E-06  0.3073423E+04  0.7818609E-02  0.8223070E-01
        1   -1    0    0  501    0  0.00000000000E+00  0.00000000000E+00  0.97460118380E+03  0.97460118381E+03  0.50400001928E-02 0. -1.
       -1   -1    0    0    0  501  0.00000000000E+00  0.00000000000E+00 -0.24230233930E+04  0.24230233930E+04  0.50400001928E-02 0.  1.
    10030    2    1    2    0    0  0.00000000000E+00  0.00000000000E+00 -0.14484222092E+04  0.33976245768E+04  0.30734225009E+04 0.  0.
        5    1    3    3  502    0  0.15147411450E+02  0.12341936305E+04 -0.17361961619E+04  0.21302259421E+04  0.46999998093E+01 0.  1.
       -5    1    3    3    0  502 -0.15147411450E+02 -0.12341936305E+04  0.28777395267E+03  0.12673986348E+04  0.46999998093E+01 0. -1.
</event>
<event>
 5   0  0.2624011E-06  0.3103227E+04  0.7818609E-02  0.8214853E-01
       -1   -1    0    0    0  501  0.00000000000E+00  0.00000000000E+00  0.13249166954E+04  0.13249166954E+04  0.50400001928E-02 0.  1.
        1   -1    0    0  501    0  0.00000000000E+00  0.00000000000E+00 -0.18170987025E+04  0.18170987025E+04  0.50400001928E-02 0. -1.
    10030    2    1    2    0    0  0.00000000000E+00  0.00000000000E+00 -0.49218200710E+03  0.31420153979E+04  0.31032269709E+04 0.  0.
        1    1    3    3  502    0 -0.13865057179E+04 -0.11174495695E+03  0.44997516341E+03  0.14619721916E+04  0.50400001928E-02 0.  1.
       -1    1    3    3    0  502  0.13865057179E+04  0.11174495695E+03 -0.94215717051E+03  0.16800432063E+04  0.50400001928E-02 0. -1.
</event>
<event>
 5   0  0.7094341E-06  0.3040043E+04  0.7818609E-02  0.8232388E-01
       -2   -1    0    0    0  501  0.00000000000E+00  0.00000000000E+00  0.88625694936E+03  0.88625694936E+03  0.25500000920E-02 0.  1.
        2   -1    0    0  501    0  0.00000000000E+00  0.00000000000E+00 -0.26069928787E+04  0.26069928787E+04  0.25500000920E-02 0. -1.
    10030    2    1    2    0    0  0.00000000000E+00  0.00000000000E+00 -0.17207359294E+04  0.34932498281E+04  0.30400431284E+04 0.  0.
        3    1    3    3  502    0  0.56095529648E+03  0.41250833874E+02 -0.24830095932E+04  0.25459200942E+04  0.10100000352E+00 0. -1.
       -3    1    3    3    0  502 -0.56095529648E+03 -0.41250833874E+02  0.76227366383E+03  0.94732973389E+03  0.10100000352E+00 0.  1.
</event>
<event>
 5   0  0.2598987E-06  0.2182769E+04  0.7818609E-02  0.8525634E-01
        1   -1    0    0  501    0  0.00000000000E+00  0.00000000000E+00  0.87617917671E+03  0.87617917672E+03  0.50400001928E-02 0.  1.
       -1   -1    0    0    0  501  0.00000000000E+00  0.00000000000E+00 -0.13594478873E+04  0.13594478873E+04  0.50400001928E-02 0. -1.
    10030    2    1    2    0    0  0.00000000000E+00  0.00000000000E+00 -0.48326871059E+03  0.22356270640E+04  0.21827688203E+04 0.  0.
        2    1    3    3  502    0  0.48599220824E+03 -0.40227723397E+03  0.67049583921E+03  0.92064111892E+03  0.25500000920E-02 0.  1.
       -2    1    3    3    0  502 -0.48599220824E+03  0.40227723397E+03 -0.11537645498E+04  0.13149859451E+04  0.25500000920E-02 0. -1.
</event>
<event>
 5   0  0.7363513E-06  0.3152296E+04  0.7818609E-02  0.8201530E-01
       -2   -1    0    0    0  501  0.00000000000E+00  0.00000000000E+00  0.15357051732E+04  0.15357051732E+04  0.25500000920E-02 0.  1.
        2   -1    0    0  501    0  0.00000000000E+00  0.00000000000E+00 -0.16176563750E+04  0.16176563750E+04  0.25500000920E-02 0. -1.
    10030    2    1    2    0    0  0.00000000000E+00  0.00000000000E+00 -0.81951201818E+02  0.31533615482E+04  0.31522964730E+04 0.  0.
        4    1    3    3  502    0 -0.46750939461E+03  0.10403570692E+04  0.10472034068E+04  0.15484006114E+04  0.12699999809E+01 0.  1.
       -4    1    3    3    0  502  0.46750939461E+03 -0.10403570692E+04 -0.11291546086E+04  0.16049609367E+04  0.12699999809E+01 0. -1.
</event>
<event>
 5   0  0.2612331E-06  0.3162560E+04  0.7818609E-02  0.8198776E-01
        1   -1    0    0  501    0  0.00000000000E+00  0.00000000000E+00  0.19664802997E+04  0.19664802997E+04  0.50400001928E-02 0.  1.
       -1   -1    0    0    0  501  0.00000000000E+00  0.00000000000E+00 -0.12715336387E+04  0.12715336387E+04  0.50400001928E-02 0. -1.
    10030    2    1    2    0    0  0.00000000000E+00  0.00000000000E+00  0.69494666099E+03  0.32380139384E+04  0.31625596284E+04 0.  0.
        4    1    3    3  502    0 -0.11389756497E+04  0.60839536995E+03  0.12819560997E+04  0.18195668471E+04  0.12699999809E+01 0.  1.
       -4    1    3    3    0  502  0.11389756497E+04 -0.60839536995E+03 -0.58700943869E+03  0.14184470913E+04  0.12699999809E+01 0. -1.
</event>
<event>
 5   0  0.7363513E-06  0.3093875E+04  0.7818609E-02  0.8217421E-01
       -2   -1    0    0    0  501  0.00000000000E+00  0.00000000000E+00  0.10088251266E+04  0.10088251266E+04  0.25500000920E-02 0. -1.
        2   -1    0    0  501    0  0.00000000000E+00  0.00000000000E+00 -0.23720824098E+04  0.23720824098E+04  0.25500000920E-02 0.  1.
    10030    2    1    2    0    0  0.00000000000E+00  0.00000000000E+00 -0.13632572831E+04  0.33809075364E+04  0.30938754580E+04 0.  0.
        4    1    3    3  502    0 -0.46835643904E+03 -0.14724159502E+04 -0.59950143650E+03  0.16573382484E+04  0.12699999809E+01 0.  1.
       -4    1    3    3    0  502  0.46835643904E+03  0.14724159502E+04 -0.76375584663E+03  0.17235692880E+04  0.12699999809E+01 0. -1.
</event>
<event>
 5   0  0.7071012E-06  0.3116113E+04  0.7818609E-02  0.8211330E-01
        2   -1    0    0  501    0  0.00000000000E+00  0.00000000000E+00  0.17296345062E+04  0.17296345062E+04  0.25500000920E-02 0. -1.
       -2   -1    0    0    0  501  0.00000000000E+00  0.00000000000E+00 -0.14034989327E+04  0.14034989327E+04  0.25500000920E-02 0.  1.
    10030    2    1    2    0    0  0.00000000000E+00  0.00000000000E+00  0.32613557352E+03  0.31331334388E+04  0.31161130809E+04 0.  0.
        1    1    3    3  502    0 -0.54562220681E+03 -0.13904989553E+04  0.60860122185E+03  0.16129433916E+04  0.50400001928E-02 0. -1.
       -1    1    3    3    0  502  0.54562220681E+03  0.13904989553E+04 -0.28246564832E+03  0.15201900472E+04  0.50400001928E-02 0.  1.
</event>
<event>
 5   0  0.7414808E-06  0.3068897E+04  0.7818609E-02  0.8224326E-01
        2   -1    0    0  501    0  0.00000000000E+00  0.00000000000E+00  0.25312533525E+04  0.25312533525E+04  0.25500000920E-02 0. -1.
       -2   -1    0    0    0  501  0.00000000000E+00  0.00000000000E+00 -0.93018451283E+03  0.93018451283E+03  0.25500000920E-02 0.  1.
    10030    2    1    2    0    0  0.00000000000E+00  0.00000000000E+00  0.16010688397E+04  0.34614378653E+04  0.30688973046E+04 0.  0.
        2    1    3    3  502    0 -0.79943721829E+03  0.10541847125E+04  0.16772090695E+04  0.21362199177E+04  0.25500000920E-02 0. -1.
       -2    1    3    3    0  502  0.79943721829E+03 -0.10541847125E+04 -0.76140229883E+02  0.13252179476E+04  0.25500000920E-02 0.  1.
</event>
<event>
 5   0  0.2517725E-06  0.3122614E+04  0.7818609E-02  0.8209559E-01
       -1   -1    0    0    0  501  0.00000000000E+00  0.00000000000E+00  0.12110006198E+04  0.12110006198E+04  0.50400001928E-02 0.  1.
        1   -1    0    0  501    0  0.00000000000E+00  0.00000000000E+00 -0.20129465708E+04  0.20129465708E+04  0.50400001928E-02 0. -1.
    10030    2    1    2    0    0  0.00000000000E+00  0.00000000000E+00 -0.80194595102E+03  0.32239471906E+04  0.31226139979E+04 0.  0.
        3    1    3    3  502    0 -0.11192202754E+04 -0.10616178758E+01 -0.15248874394E+04  0.18915435139E+04  0.10100000352E+00 0. -1.
       -3    1    3    3    0  502  0.11192202754E+04  0.10616178758E+01  0.72294148843E+03  0.13324036767E+04  0.10100000352E+00 0.  1.
</event>
<event>
 5   0  0.2393250E-06  0.3125313E+04  0.7818609E-02  0.8208825E-01
        3   -1    0    0  501    0  0.00000000000E+00  0.00000000000E+00  0.10578146628E+04  0.10578146677E+04  0.10100000352E+00 0.  1.
       -3   -1    0    0    0  501  0.00000000000E+00  0.00000000000E+00 -0.23084337207E+04  0.23084337229E+04  0.10100000352E+00 0. -1.
    10030    2    1    2    0    0  0.00000000000E+00  0.00000000000E+00 -0.12506190579E+04  0.33662483906E+04  0.31253128162E+04 0.  0.
        5    1    3    3  502    0  0.56110062222E+03 -0.11649166048E+04 -0.15704587587E+04  0.20342633574E+04  0.46999998093E+01 0. -1.
       -5    1    3    3    0  502 -0.56110062222E+03  0.11649166048E+04  0.31983970083E+03  0.13319850332E+04  0.46999998093E+01 0.  1.
</event>
<event>
 5   0  0.2624011E-06  0.2975725E+04  0.7818609E-02  0.8250697E-01
       -1   -1    0    0    0  501  0.00000000000E+00  0.00000000000E+00  0.19223878234E+04  0.19223878234E+04  0.50400001928E-02 0.  1.
        1   -1    0    0  501    0  0.00000000000E+00  0.00000000000E+00 -0.11515544947E+04  0.11515544947E+04  0.50400001928E-02 0. -1.
    10030    2    1    2    0    0  0.00000000000E+00  0.00000000000E+00  0.77083332873E+03  0.30739423181E+04  0.29757246771E+04 0.  0.
        1    1    3    3  502    0  0.11153751833E+04 -0.91251124224E+03  0.30706663683E+01  0.14410926396E+04  0.50400001928E-02 0. -1.
       -1    1    3    3    0  502 -0.11153751833E+04  0.91251124224E+03  0.76776266236E+03  0.16328496785E+04  0.50400001928E-02 0.  1.
</event>
<event>
 5   0  0.2598987E-06  0.3119673E+04  0.7818609E-02  0.8210360E-01
        1   -1    0    0  501    0  0.00000000000E+00  0.00000000000E+00  0.14715507594E+04  0.14715507594E+04  0.50400001928E-02 0.  1.
       -1   -1    0    0    0  501  0.00000000000E+00  0.00000000000E+00 -0.16534187154E+04  0.16534187154E+04  0.50400001928E-02 0. -1.
    10030    2    1    2    0    0  0.00000000000E+00  0.00000000000E+00 -0.18186795601E+03  0.31249694749E+04  0.31196727818E+04 0.  0.
        2    1    3    3  502    0 -0.99091683101E+03 -0.39272323494E+03 -0.12317010836E+04  0.16288754601E+04  0.25500000920E-02 0. -1.
       -2    1    3    3    0  502  0.99091683101E+03  0.39272323494E+03  0.10498331276E+04  0.14960940148E+04  0.25500000920E-02 0.  1.
</event>
<event>
 5   0  0.7414808E-06  0.2960972E+04  0.7818609E-02  0.8254964E-01
        2   -1    0    0  501    0  0.00000000000E+00  0.00000000000E+00  0.18848850530E+04  0.18848850530E+04  0.25500000920E-02 0.  1.
       -2   -1    0    0    0  501  0.00000000000E+00  0.00000000000E+00 -0.11628500028E+04  0.11628500028E+04  0.25500000920E-02 0. -1.
    10030    2    1    2    0    0  0.00000000000E+00  0.00000000000E+00  0.72203505017E+03  0.30477350558E+04  0.29609718601E+04 0.  0.
        2    1    3    3  502    0 -0.71273606620E+03  0.12139589140E+04  0.83287111111E+03  0.16356537630E+04  0.25500000920E-02 0. -1.
       -2    1    3    3    0  502  0.71273606620E+03 -0.12139589140E+04 -0.11083606094E+03  0.14120812927E+04  0.25500000920E-02 0.  1.
</event>
<event>
 5   0  0.7079223E-06  0.3150858E+04  0.7818609E-02  0.8201917E-01
       -2   -1    0    0    0  501  0.00000000000E+00  0.00000000000E+00  0.30159881180E+04  0.30159881180E+04  0.25500000920E-02 0. -1.
        2   -1    0    0  501    0  0.00000000000E+00  0.00000000000E+00 -0.82293990034E+03  0.82293990034E+03  0.25500000920E-02 0.  1.
    10030    2    1    2    0    0  0.00000000000E+00  0.00000000000E+00  0.21930482176E+04  0.38389280183E+04  0.31508582712E+04 0.  0.
        5    1    3    3  502    0  0.15513733427E+04 -0.19595427526E+03  0.13302412262E+04  0.20529786011E+04  0.46999998093E+01 0. -1.
       -5    1    3    3    0  502 -0.15513733427E+04  0.19595427526E+03  0.86280699141E+03  0.17859494172E+04  0.46999998093E+01 0.  1.
</event>
<event>
 5   0  0.2624011E-06  0.2907019E+04  0.7818609E-02  0.8270792E-01
        1   -1    0    0  501    0  0.00000000000E+00  0.00000000000E+00  0.20577366696E+04  0.20577366696E+04  0.50400001928E-02 0.  1.
       -1   -1    0    0    0  501  0.00000000000E+00  0.00000000000E+00 -0.10267056425E+04  0.10267056425E+04  0.50400001928E-02 0. -1.
    10030    2    1    2    0    0  0.00000000000E+00  0.00000000000E+00  0.10310310271E+04  0.30844423122E+04  0.29070189883E+04 0.  0.
        1    1    3    3  502    0  0.59239221262E+03 -0.43706543650E+03  0.18452969339E+04  0.19867248183E+04  0.50400001928E-02 0.  1.
       -1    1    3    3    0  502 -0.59239221262E+03  0.43706543650E+03 -0.81426590677E+03  0.10977174939E+04  0.50400001928E-02 0. -1.
</event>
<event>
 5   0  0.7071012E-06  0.2713862E+04  0.7818609E-02  0.8330521E-01
       -2   -1    0    0    0  501  0.00000000000E+00  0.00000000000E+00  0.14541131134E+04  0.14541131134E+04  0.25500000920E-02 0. -1.
        2   -1    0    0  501    0  0.00000000000E+00  0.00000000000E+00 -0.12662441861E+04  0.12662441861E+04  0.25500000920E-02 0.  1.
    10030    2    1    2    0    0  0.00000000000E+00  0.00000000000E+00  0.18786892736E+03  0.27203572995E+04  0.27138623957E+04 0.  0.
        1    1    3    3  502    0 -0.80986324550E+03  0.17453818022E+03 -0.98330962338E+03  0.12857837564E+04  0.50400001928E-02 0.  1.
       -1    1    3    3    0  502  0.80986324550E+03 -0.17453818022E+03  0.11711785507E+04  0.14345735431E+04  0.50400001928E-02 0. -1.
</event>
<event>
 5   0  0.2624011E-06  0.3153213E+04  0.7818609E-02  0.8201284E-01
        1   -1    0    0  501    0  0.00000000000E+00  0.00000000000E+00  0.14469106629E+04  0.14469106629E+04  0.50400001928E-02 0.  1.
       -1   -1    0    0    0  501  0.00000000000E+00  0.00000000000E+00 -0.17179275718E+04  0.17179275718E+04  0.50400001928E-02 0. -1.
    10030    2    1    2    0    0  0.00000000000E+00  0.00000000000E+00 -0.27101690886E+03  0.31648382347E+04  0.31532127881E+04 0.  0.
        1    1    3    3  502    0  0.67358410100E+03 -0.11939200763E+04  0.64616131869E+03  0.15154818176E+04  0.50400001928E-02 0.  1.
       -1    1    3    3    0  502 -0.67358410100E+03  0.11939200763E+04 -0.91717822755E+03  0.16493564171E+04  0.50400001928E-02 0. -1.
</event>
<event>
 5   0  0.7079223E-06  0.3130044E+04  0.7818609E-02  0.8207541E-01
        2   -1    0    0  501    0  0.00000000000E+00  0.00000000000E+00  0.99843533635E+03  0.99843533635E+03  0.25500000920E-02 0.  1.
       -2   -1    0    0    0  501  0.00000000000E+00  0.00000000000E+00 -0.24531318532E+04  0.24531318532E+04  0.25500000920E-02 0. -1.
    10030    2    1    2    0    0  0.00000000000E+00  0.00000000000E+00 -0.14546965168E+04  0.34515671895E+04  0.31300437869E+04 0.  0.
        5    1    3    3  502    0 -0.14928198726E+04  0.73180391599E+02 -0.12391405061E+04  0.19414834085E+04  0.46999998093E+01 0. -1.
       -5    1    3    3    0  502  0.14928198726E+04 -0.73180391599E+02 -0.21555601075E+03  0.15100837810E+04  0.46999998093E+01 0.  1.
</event>
<event>
 5   0  0.7071012E-06  0.3089253E+04  0.7818609E-02  0.8218693E-01
       -2   -1    0    0    0  501  0.00000000000E+00  0.00000000000E+00  0.11352326501E+04  0.11352326501E+04  0.25500000920E-02 0. -1.
        2   -1    0    0  501    0  0.00000000000E+00  0.00000000000E+00 -0.21016588138E+04  0.21016588138E+04  0.25500000920E-02 0.  1.
    10030    2    1    2    0    0  0.00000000000E+00  0.00000000000E+00 -0.96642616374E+03  0.32368914639E+04  0.30892534404E+04 0.  0.
        1    1    3    3  502    0 -0.57861232065E+03 -0.10744108848E+04  0.50899601629E+03  0.13222056995E+04  0.50400001928E-02 0. -1.
       -1    1    3    3    0  502  0.57861232065E+03  0.10744108848E+04 -0.14754221800E+04  0.19146857644E+04  0.50400001928E-02 0.  1.
</event>
<event>
 5   0  0.7079223E-06  0.2038682E+04  0.7818609E-02  0.8588746E-01
        2   -1    0    0  501    0  0.00000000000E+00  0.00000000000E+00  0.56224561324E+03  0.56224561325E+03  0.25500000920E-02 0.  1.
       -2   -1    0    0    0  501  0.00000000000E+00  0.00000000000E+00 -0.18480461472E+04  0.18480461472E+04  0.25500000920E-02 0. -1.
    10030    2    1    2    0    0  0.00000000000E+00  0.00000000000E+00 -0.12858005340E+04  0.24102917605E+04  0.20386817695E+04 0.  0.
        5    1    3    3  502    0  0.60106951586E+03  0.20262145107E+03  0.30047712612E+03  0.70188931367E+03  0.46999998093E+01 0.  1.
       -5    1    3    3    0  502 -0.60106951586E+03 -0.20262145107E+03 -0.15862776601E+04  0.17084024468E+04  0.46999998093E+01 0. -1.
</event>
<event>
 5   0  0.7079223E-06  0.3040841E+04  0.7818609E-02  0.8232164E-01
       -2   -1    0    0    0  501  0.00000000000E+00  0.00000000000E+00  0.11196947458E+04  0.11196947458E+04  0.25500000920E-02 0. -1.
        2   -1    0    0  501    0  0.00000000000E+00  0.00000000000E+00 -0.20645614633E+04  0.20645614633E+04  0.25500000920E-02 0.  1.
    10030    2    1    2    0    0  0.00000000000E+00  0.00000000000E+00 -0.94486671745E+03  0.31842562091E+04  0.30408410829E+04 0.  0.
        5    1    3    3  502    0  0.32933557528E+03  0.11661019371E+04  0.48924824010E+03  0.13067676072E+04  0.46999998093E+01 0. -1.
       -5    1    3    3    0  502 -0.32933557528E+03 -0.11661019371E+04 -0.14341149576E+04  0.18774886019E+04  0.46999998093E+01 0.  1.
</event>
<event>
 5   0  0.2393250E-06  0.3088160E+04  0.7818609E-02  0.8218995E-01
        4   -1    0    0  501    0  0.00000000000E+00  0.00000000000E+00  0.13645625853E+04  0.13645631763E+04  0.12699999809E+01 0.  1.
       -4   -1    0    0    0  501  0.00000000000E+00  0.00000000000E+00 -0.17472125576E+04  0.17472130192E+04  0.12699999809E+01 0. -1.
    10030    2    1    2    0    0  0.00000000000E+00  0.00000000000E+00 -0.38264997232E+03  0.31117761955E+04  0.30881596606E+04 0.  0.
        1    1    3    3  502    0 -0.10200520736E+04 -0.53779951870E+03  0.84339106329E+03  0.14286507764E+04  0.50400001928E-02 0.  1.
       -1    1    3    3    0  502  0.10200520736E+04  0.53779951870E+03 -0.12260410356E+04  0.16831254191E+04  0.50400001928E-02 0. -1.
</event>
<event>
 5   0  0.7071012E-06  0.3083629E+04  0.7818609E-02  0.8220245E-01
        2   -1    0    0  501    0  0.00000000000E+00  0.00000000000E+00  0.17480699203E+04  0.17480699203E+04  0.25500000920E-02 0.  1.
       -2   -1    0    0    0  501  0.00000000000E+00  0.00000000000E+00 -0.13598950804E+04  0.13598950804E+04  0.25500000920E-02 0. -1.
    10030    2    1    2    0    0  0.00000000000E+00  0.00000000000E+00  0.38817483992E+03  0.31079650007E+04  0.30836288264E+04 0.  0.
        1    1    3    3  502    0  0.14958743437E+03 -0.63741374048E+03 -0.12128226753E+04  0.13782639511E+04  0.50400001928E-02 0. -1.
       -1    1    3    3    0  502 -0.14958743437E+03  0.63741374048E+03  0.16009975152E+04  0.17297010496E+04  0.50400001928E-02 0.  1.
</event>
<event>
 5   0  0.2598987E-06  0.2948950E+04  0.7818609E-02  0.8258461E-01
        1   -1    0    0  501    0  0.00000000000E+00  0.00000000000E+00  0.17975349928E+04  0.17975349928E+04  0.50400001928E-02 0. -1.
       -1   -1    0    0    0  501  0.00000000000E+00  0.00000000000E+00 -0.12094766000E+04  0.12094766000E+04  0.50400001928E-02 0.  1.
    10030    2    1    2    0    0  0.00000000000E+00  0.00000000000E+00  0.58805839276E+03  0.30070115928E+04  0.29489499904E+04 0.  0.
        2    1    3    3  502    0  0.58590095547E+03 -0.13316455065E+04  0.53857778111E+03  0.15513303036E+04  0.25500000920E-02 0. -1.
       -2    1    3    3    0  502 -0.58590095547E+03  0.13316455065E+04  0.49480611650E+02  0.14556812892E+04  0.25500000920E-02 0.  1.
</event>
<event>
 5   0  0.7363513E-06  0.3047738E+04  0.7818609E-02  0.8230229E-01
       -2   -1    0    0    0  501  0.00000000000E+00  0.00000000000E+00  0.20508092880E+04  0.20508092880E+04  0.25500000920E-02 0. -1.
        2   -1    0    0  501    0  0.00000000000E+00  0.00000000000E+00 -0.11323222729E+04  0.11323222729E+04  0.25500000920E-02 0.  1.
    10030    2    1    2    0    0  0.00000000000E+00  0.00000000000E+00  0.91848701505E+03  0.31831315609E+04  0.30477382003E+04 0.  0.
        4    1    3    3  502    0  0.14425198409E+04 -0.28339574665E+03  0.87831510133E+03  0.17124881520E+04  0.12699999809E+01 0. -1.
       -4    1    3    3    0  502 -0.14425198409E+04  0.28339574665E+03  0.40171913720E+02  0.14706434089E+04  0.12699999809E+01 0.  1.
</event>
<event>
 5   0  0.2517725E-06  0.3081134E+04  0.7818609E-02  0.8220935E-01
       -1   -1    0    0    0  501  0.00000000000E+00  0.00000000000E+00  0.14890795347E+04  0.14890795347E+04  0.50400001928E-02 0. -1.
        1   -1    0    0  501    0  0.00000000000E+00  0.00000000000E+00 -0.15938343715E+04  0.15938343716E+04  0.50400001928E-02 0.  1.
    10030    2    1    2    0    0  0.00000000000E+00  0.00000000000E+00 -0.10475483685E+03  0.30829139063E+04  0.30811336514E+04 0.  0.
        3    1    3    3  502    0 -0.16443207008E+03  0.77676515266E+03  0.12685914786E+04  0.14965715345E+04  0.10100000352E+00 0. -1.
       -3    1    3    3    0  502  0.16443207008E+03 -0.77676515266E+03 -0.13733463155E+04  0.15863423718E+04  0.10100000352E+00 0.  1.
</event>
<event>
 5   0  0.7094341E-06  0.3067283E+04  0.7818609E-02  0.8224775E-01
        2   -1    0    0  501    0  0.00000000000E+00  0.00000000000E+00  0.16166227819E+04  0.16166227819E+04  0.25500000920E-02 0. -1.
       -2   -1    0    0    0  501  0.00000000000E+00  0.00000000000E+00 -0.14549192574E+04  0.14549192574E+04  0.25500000920E-02 0.  1.
    10030    2    1    2    0    0  0.00000000000E+00  0.00000000000E+00  0.16170352449E+03  0.30715420393E+04  0.30672825871E+04 0.  0.
        3    1    3    3  502    0 -0.11813727155E+04  0.69240377120E+03 -0.61075276415E+03  0.14993610054E+04  0.10100000352E+00 0.  1.
       -3    1    3    3    0  502  0.11813727155E+04 -0.69240377120E+03  0.77245628864E+03  0.15721810339E+04  0.10100000352E+00 0. -1.
</event>
<event>
 5   0  0.2612331E-06  0.2806920E+04  0.7818609E-02  0.8301123E-01
        1   -1    0    0  501    0  0.00000000000E+00  0.00000000000E+00  0.12917828797E+04  0.12917828798E+04  0.50400001928E-02 0. -1.
       -1   -1    0    0    0  501  0.00000000000E+00  0.00000000000E+00 -0.15247918507E+04  0.15247918507E+04  0.50400001928E-02 0.  1.
    10030    2    1    2    0    0  0.00000000000E+00  0.00000000000E+00 -0.23300897097E+03  0.28165747305E+04  0.28069200259E+04 0.  0.
        4    1    3    3  502    0 -0.10244451611E+04  0.95916444976E+03 -0.13118577847E+03  0.14095019160E+04  0.12699999809E+01 0. -1.
       -4    1    3    3    0  502  0.10244451611E+04 -0.95916444976E+03 -0.10182319250E+03  0.14070728145E+04  0.12699999809E+01 0.  1.
</event>
<event>
 5   0  0.7071012E-06  0.3088251E+04  0.7818609E-02  0.8218970E-01
       -2   -1    0    0    0  501  0.00000000000E+00  0.00000000000E+00  0.22333067223E+04  0.22333067224E+04  0.25500000920E-02 0.  1.
        2   -1    0    0  501    0  0.00000000000E+00  0.00000000000E+00 -0.10676204719E+04  0.10676204719E+04  0.25500000920E-02 0. -1.
    10030    2    1    2    0    0  0.00000000000E+00  0.00000000000E+00  0.11656862504E+04  0.33009271943E+04  0.30882512702E+04 0.  0.
        1    1    3    3  502    0  0.38443654074E+02 -0.14843317681E+04  0.12985914022E+03  0.14904972689E+04  0.50400001928E-02 0.  1.
       -1    1    3    3    0  502 -0.38443654074E+02  0.14843317681E+04  0.10358271102E+04  0.18104299254E+04  0.50400001928E-02 0. -1.
</event>
<event>
 5   0  0.2674441E-06  0.3108796E+04  0.7818609E-02  0.8213328E-01
        1   -1    0    0  501    0  0.00000000000E+00  0.00000000000E+00  0.18163183164E+04  0.18163183164E+04  0.50400001928E-02 0. -1.
       -1   -1    0    0    0  501  0.00000000000E+00  0.00000000000E+00 -0.13302474859E+04  0.13302474859E+04  0.50400001928E-02 0.  1.
    10030    2    1    2    0    0  0.00000000000E+00  0.00000000000E+00  0.48607083047E+03  0.31465658023E+04  0.31087958273E+04 0.  0.
        5    1    3    3  502    0 -0.13573921805E+03  0.11731403527E+04  0.12659811915E+04  0.17313041008E+04  0.46999998093E+01 0. -1.
       -5    1    3    3    0  502  0.13573921805E+03 -0.11731403527E+04 -0.77991036100E+03  0.14152617014E+04  0.46999998093E+01 0.  1.
</event>
<event>
 5   0  0.2612331E-06  0.3103756E+04  0.7818609E-02  0.8214708E-01
        1   -1    0    0  501    0  0.00000000000E+00  0.00000000000E+00  0.21798529086E+04  0.21798529086E+04  0.50400001928E-02 0.  1.
       -1   -1    0    0    0  501  0.00000000000E+00  0.00000000000E+00 -0.11048106752E+04  0.11048106752E+04  0.50400001928E-02 0. -1.
    10030    2    1    2    0    0  0.00000000000E+00  0.00000000000E+00  0.10750422335E+04  0.32846635838E+04  0.31037556371E+04 0.  0.
        4    1    3    3  502    0  0.66382858534E+03 -0.11937662288E+04 -0.24201105719E+03  0.13871975938E+04  0.12699999809E+01 0. -1.
       -4    1    3    3    0  502 -0.66382858534E+03  0.11937662288E+04  0.13170532906E+04  0.18974659899E+04  0.12699999809E+01 0.  1.
</event>
<event>
 5   0  0.7094341E-06  0.2791350E+04  0.7818609E-02  0.8305959E-01
        2   -1    0    0  501    0  0.00000000000E+00  0.00000000000E+00  0.14229443728E+04  0.14229443728E+04  0.25500000920E-02 0.  1.
       -2   -1    0    0    0  501  0.00000000000E+00  0.00000000000E+00 -0.13689285449E+04  0.13689285449E+04  0.25500000920E-02 0. -1.
    10030    2    1    2    0    0  0.00000000000E+00  0.00000000000E+00  0.54015827867E+02  0.27918729177E+04  0.27913503326E+04 0.  0.
        3    1    3    3  502    0  0.36692570292E+03 -0.57056251531E+03  0.12469629176E+04  0.14195395674E+04  0.10100000352E+00 0.  1.
       -3    1    3    3    0  502 -0.36692570292E+03  0.57056251531E+03 -0.11929470897E+04  0.13723333503E+04  0.10100000352E+00 0. -1.
</event>
<event>
 5   0  0.2674441E-06  0.3174553E+04  0.7818609E-02  0.8195570E-01
        1   -1    0    0  501    0  0.00000000000E+00  0.00000000000E+00  0.18858934702E+04  0.18858934702E+04  0.50400001928E-02 0. -1.
       -1   -1    0    0    0  501  0.00000000000E+00  0.00000000000E+00 -0.13359428820E+04  0.13359428820E+04  0.50400001928E-02 0.  1.
    10030    2    1    2    0    0  0.00000000000E+00  0.00000000000E+00  0.54995058818E+03  0.32218363522E+04  0.31745525403E+04 0.  0.
        5    1    3    3  502    0 -0.87425720176E+03  0.33899333513E+03 -0.10247960065E+04  0.13890540238E+04  0.46999998093E+01 0.  1.
       -5    1    3    3    0  502  0.87425720176E+03 -0.33899333513E+03  0.15747465947E+04  0.18327823284E+04  0.46999998093E+01 0. -1.
</event>
<event>
 5   0  0.2517725E-06  0.3089395E+04  0.7818609E-02  0.8218654E-01
       -1   -1    0    0    0  501  0.00000000000E+00  0.00000000000E+00  0.11264155587E+04  0.11264155588E+04  0.50400001928E-02 0.  1.
        1   -1    0    0  501    0  0.00000000000E+00  0.00000000000E+00 -0.21183032744E+04  0.21183032745E+04  0.50400001928E-02 0. -1.
    10030    2    1    2    0    0  0.00000000000E+00  0.00000000000E+00 -0.99188771570E+03  0.32447188332E+04  0.30893946116E+04 0.  0.
        3    1    3    3  502    0 -0.23510197874E+03 -0.67006357724E+03 -0.19367118956E+04  0.20627920677E+04  0.10100000352E+00 0. -1.
       -3    1    3    3    0  502  0.23510197874E+03  0.67006357724E+03  0.94482417987E+03  0.11819267655E+04  0.10100000352E+00 0.  1.
</event>
<event>
 5   0  0.2598987E-06  0.3051134E+04  0.7818609E-02  0.8229278E-01
        1   -1    0    0  501    0  0.00000000000E+00  0.00000000000E+00  0.13637355136E+04  0.13637355136E+04  0.50400001928E-02 0. -1.
       -1   -1    0    0    0  501  0.00000000000E+00  0.00000000000E+00 -0.17066021313E+04  0.17066021313E+04  0.50400001928E-02 0.  1.
    10030    2    1    2    0    0  0.00000000000E+00  0.00000000000E+00 -0.34286661773E+03  0.30703376448E+04  0.30511335165E+04 0.  0.
        2    1    3    3  502    0  0.10076591737E+04  0.70186918131E+03 -0.10823137916E+04  0.16368874431E+04  0.25500000920E-02 0.  1.
       -2    1    3    3    0  502 -0.10076591737E+04 -0.70186918131E+03  0.73944717386E+03  0.14334502017E+04  0.25500000920E-02 0. -1.
</event>
<event>
 5   0  0.7414808E-06  0.3326262E+04  0.7818609E-02  0.8156245E-01
        2   -1    0    0  501    0  0.00000000000E+00  0.00000000000E+00  0.28162569522E+04  0.28162569522E+04  0.25500000920E-02 0.  1.
       -2   -1    0    0    0  501  0.00000000000E+00  0.00000000000E+00 -0.98215638407E+03  0.98215638408E+03  0.25500000920E-02 0. -1.
    10030    2    1    2    0    0  0.00000000000E+00  0.00000000000E+00  0.18341005681E+04  0.37984133363E+04  0.33262620130E+04 0.  0.
        2    1    3    3  502    0 -0.10462386727E+04 -0.20653703573E+03 -0.54032217775E+03  0.11955002983E+04  0.25500000920E-02 0. -1.
       -2    1    3    3    0  502  0.10462386727E+04  0.20653703573E+03  0.23744227459E+04  0.26029130380E+04  0.25500000920E-02 0.  1.
</event>
<event>
 5   0  0.2598987E-06  0.2413777E+04  0.7818609E-02  0.8434364E-01
        1   -1    0    0  501    0  0.00000000000E+00  0.00000000000E+00  0.18059923027E+04  0.18059923028E+04  0.50400001928E-02 0. -1.
       -1   -1    0    0    0  501  0.00000000000E+00  0.00000000000E+00 -0.80652598962E+03  0.80652598964E+03  0.50400001928E-02 0.  1.
    10030    2    1    2    0    0  0.00000000000E+00  0.00000000000E+00  0.99946631313E+03  0.26125182924E+04  0.24137768988E+04 0.  0.
        2    1    3    3  502    0  0.80750466288E+03 -0.86957111306E+03  0.73775371267E+03  0.13973182321E+04  0.25500000920E-02 0. -1.
       -2    1    3    3    0  502 -0.80750466288E+03  0.86957111306E+03  0.26171260045E+03  0.12152000603E+04  0.25500000920E-02 0.  1.
</event>
<event>
 5   0  0.2598987E-06  0.3104924E+04  0.7818609E-02  0.8214388E-01
        1   -1    0    0  501    0  0.00000000000E+00  0.00000000000E+00  0.19439808048E+04  0.19439808048E+04  0.50400001928E-02 0.  1.
       -1   -1    0    0    0  501  0.00000000000E+00  0.00000000000E+00 -0.12397951609E+04  0.12397951609E+04  0.50400001928E-02 0. -1.
    10030    2    1    2    0    0  0.00000000000E+00  0.00000000000E+00  0.70418564394E+03  0.31837759657E+04  0.31049238281E+04 0.  0.
        2    1    3    3  502    0 -0.13137196343E+04 -0.86057718107E+02  0.11957093435E+04  0.17784785752E+04  0.25500000920E-02 0.  1.
       -2    1    3    3    0  502  0.13137196343E+04  0.86057718107E+02 -0.49152369951E+03  0.14052973905E+04  0.25500000920E-02 0. -1.
</event>
<event>
 5   0  0.2517725E-06  0.2215658E+04  0.7818609E-02  0.8511939E-01
       -1   -1    0    0    0  501  0.00000000000E+00  0.00000000000E+00  0.11392843297E+04  0.11392843297E+04  0.50400001928E-02 0. -1.
        1   -1    0    0  501    0  0.00000000000E+00  0.00000000000E+00 -0.10772418422E+04  0.10772418422E+04  0.50400001928E-02 0.  1.
    10030    2    1    2    0    0  0.00000000000E+00  0.00000000000E+00  0.62042487518E+02  0.22165261720E+04  0.22156576903E+04 0.  0.
        3    1    3    3  502    0  0.19714868347E+02  0.69489150752E+03  0.89392636395E+03  0.11324165477E+04  0.10100000352E+00 0. -1.
       -3    1    3    3    0  502 -0.19714868347E+02 -0.69489150752E+03 -0.83188387643E+03  0.10841096242E+04  0.10100000352E+00 0.  1.
</event>
<event>
 5   0  0.7071012E-06  0.3158804E+04  0.7818609E-02  0.8199782E-01
       -2   -1    0    0    0  501  0.00000000000E+00  0.00000000000E+00  0.14143654922E+04  0.14143654922E+04  0.25500000920E-02 0. -1.
        2   -1    0    0  501    0  0.00000000000E+00  0.00000000000E+00 -0.17636963535E+04  0.17636963535E+04  0.25500000920E-02 0.  1.
    10030    2    1    2    0    0  0.00000000000E+00  0.00000000000E+00 -0.34933086129E+03  0.31780618457E+04  0.31588043694E+04 0.  0.
        1    1    3    3  502    0  0.62393311444E+03  0.99078874290E+03 -0.12411069689E+04  0.17062536073E+04  0.50400001928E-02 0.  1.
       -1    1    3    3    0  502 -0.62393311444E+03 -0.99078874290E+03  0.89177610759E+03  0.14718082383E+04  0.50400001928E-02 0. -1.
</event>
<event>
 5   0  0.7363513E-06  0.3190695E+04  0.7818609E-02  0.8191279E-01
        2   -1    0    0  501    0  0.00000000000E+00  0.00000000000E+00  0.27725804539E+04  0.27725804539E+04  0.25500000920E-02 0. -1.
       -2   -1    0    0    0  501  0.00000000000E+00  0.00000000000E+00 -0.91796581473E+03  0.91796581473E+03  0.25500000920E-02 0.  1.
    10030    2    1    2    0    0  0.00000000000E+00  0.00000000000E+00  0.18546146391E+04  0.36905462686E+04  0.31906952692E+04 0.  0.
        4    1    3    3  502    0 -0.67659185601E+02 -0.10896764888E+04  0.22727954695E+04  0.25214229067E+04  0.12699999809E+01 0. -1.
       -4    1    3    3    0  502  0.67659185601E+02  0.10896764888E+04 -0.41818083034E+03  0.11691233619E+04  0.12699999809E+01 0.  1.
</event>
<event>
 5   0  0.2624011E-06  0.3140304E+04  0.7818609E-02  0.8204763E-01
       -1   -1    0    0    0  501  0.00000000000E+00  0.00000000000E+00  0.10926062917E+04  0.10926062917E+04  0.50400001928E-02 0.  1.
        1   -1    0    0  501    0  0.00000000000E+00  0.00000000000E+00 -0.22564191307E+04  0.22564191307E+04  0.50400001928E-02 0. -1.
    10030    2    1    2    0    0  0.00000000000E+00  0.00000000000E+00 -0.11638128390E+04  0.33490254224E+04  0.31403042776E+04 0.  0.
        1    1    3    3  502    0  0.43379189937E+03  0.54361561869E+03  0.91938138702E+03  0.11528033170E+04  0.50400001928E-02 0.  1.
       -1    1    3    3    0  502 -0.43379189937E+03 -0.54361561869E+03 -0.20831942260E+04  0.21962221054E+04  0.50400001928E-02 0. -1.
</event>
<event>
 5   0  0.7071012E-06  0.3078890E+04  0.7818609E-02  0.8221555E-01
       -2   -1    0    0    0  501  0.00000000000E+00  0.00000000000E+00  0.90940561910E+03  0.90940561911E+03  0.25500000920E-02 0.  1.
        2   -1    0    0  501    0  0.00000000000E+00  0.00000000000E+00 -0.26059782199E+04  0.26059782199E+04  0.25500000920E-02 0. -1.
    10030    2    1    2    0    0  0.00000000000E+00  0.00000000000E+00 -0.16965726008E+04  0.35153838390E+04  0.30788902134E+04 0.  0.
        1    1    3    3  502    0 -0.50595575307E+01 -0.15043187676E+04 -0.47499447978E+03  0.15775361516E+04  0.50400001928E-02 0. -1.
       -1    1    3    3    0  502  0.50595575307E+01  0.15043187676E+04 -0.12215781211E+04  0.19378476874E+04  0.50400001928E-02 0.  1.
</event>
<event>
 5   0  0.7363513E-06  0.3086120E+04  0.7818609E-02  0.8219557E-01
        2   -1    0    0  501    0  0.00000000000E+00  0.00000000000E+00  0.12882618504E+04  0.12882618504E+04  0.25500000920E-02 0.  1.
       -2   -1    0    0    0  501  0.00000000000E+00  0.00000000000E+00 -0.18482533560E+04  0.18482533560E+04  0.25500000920E-02 0. -1.
    10030    2    1    2    0    0  0.00000000000E+00  0.00000000000E+00 -0.55999150558E+03  0.31365152064E+04  0.30861200809E+04 0.  0.
        4    1    3    3  502    0 -0.15265450156E+04 -0.58377577259E+02 -0.50099790391E+03  0.16077151920E+04  0.12699999809E+01 0.  1.
       -4    1    3    3    0  502  0.15265450156E+04  0.58377577259E+02 -0.58993601670E+02  0.15288000144E+04  0.12699999809E+01 0. -1.
</event>
<event>
 5   0  0.7079223E-06  0.3017777E+04  0.7818609E-02  0.8238673E-01
        2   -1    0    0  501    0  0.00000000000E+00  0.00000000000E+00  0.16030926525E+04  0.16030926525E+04  0.25500000920E-02 0. -1.
       -2   -1    0    0    0  501  0.00000000000E+00  0.00000000000E+00 -0.14202200081E+04  0.14202200081E+04  0.25500000920E-02 0.  1.
    10030    2    1    2    0    0  0.00000000000E+00  0.00000000000E+00  0.18287264442E+03  0.30233126606E+04  0.30177768372E+04 0.  0.
        5    1    3    3  502    0  0.12358938519E+02  0.14749329510E+04  0.41004835629E+03  0.15309283778E+04  0.46999998093E+01 0. -1.
       -5    1    3    3    0  502 -0.12358938519E+02 -0.14749329510E+04 -0.22717571187E+03  0.14923842828E+04  0.46999998093E+01 0.  1.
</event>
<event>
 5   0  0.7071012E-06  0.3041746E+04  0.7818609E-02  0.8231910E-01
        2   -1    0    0  501    0  0.00000000000E+00  0.00000000000E+00  0.15917920631E+04  0.15917920631E+04  0.25500000920E-02 0. -1.
       -2   -1    0    0    0  501  0.00000000000E+00  0.00000000000E+00 -0.14531134724E+04  0.14531134724E+04  0.25500000920E-02 0.  1.
    10030    2    1    2    0    0  0.00000000000E+00  0.00000000000E+00  0.13867859069E+03  0.30449055355E+04  0.30417458750E+04 0.  0.
        1    1    3    3  502    0  0.13819853597E+04 -0.19495993100E+03 -0.53557442699E+03  0.14949022964E+04  0.50400001928E-02 0.  1.
       -1    1    3    3    0  502 -0.13819853597E+04  0.19495993100E+03  0.67425301769E+03  0.15500032390E+04  0.50400001928E-02 0. -1.
</event>
<event>
 5   0  0.7079223E-06  0.3099694E+04  0.7818609E-02  0.8215822E-01
        2   -1    0    0  501    0  0.00000000000E+00  0.00000000000E+00  0.13449524286E+04  0.13449524286E+04  0.25500000920E-02 0. -1.
       -2   -1    0    0    0  501  0.00000000000E+00  0.00000000000E+00 -0.17859558631E+04  0.17859558631E+04  0.25500000920E-02 0.  1.
    10030    2    1    2    0    0  0.00000000000E+00  0.00000000000E+00 -0.44100343448E+03  0.31309082917E+04  0.30996939690E+04 0.  0.
        5    1    3    3  502    0 -0.81968191975E+02  0.42202354255E+03 -0.17245164684E+04  0.17773018299E+04  0.46999998093E+01 0.  1.
       -5    1    3    3    0  502  0.81968191975E+02 -0.42202354255E+03  0.12835130339E+04  0.13536064617E+04  0.46999998093E+01 0. -1.
</event>
<event>
 5   0  0.7071012E-06  0.3115671E+04  0.7818609E-02  0.8211450E-01
       -2   -1    0    0    0  501  0.00000000000E+00  0.00000000000E+00  0.86499001601E+03  0.86499001601E+03  0.25500000920E-02 0. -1.
        2   -1    0    0  501    0  0.00000000000E+00  0.00000000000E+00 -0.28056416045E+04  0.28056416045E+04  0.25500000920E-02 0.  1.
    10030    2    1    2    0    0  0.00000000000E+00  0.00000000000E+00 -0.19406515885E+04  0.36706316205E+04  0.31156713411E+04 0.  0.
        1    1    3    3  502    0 -0.66340985804E+03  0.11529684829E+04 -0.19255493145E+04  0.23403395320E+04  0.50400001928E-02 0.  1.
       -1    1    3    3    0  502  0.66340985804E+03 -0.11529684829E+04 -0.15102273992E+02  0.13302920886E+04  0.50400001928E-02 0. -1.
</event>
<event>
 5   0  0.2612331E-06  0.3088885E+04  0.7818609E-02  0.8218795E-01
        1   -1    0    0  501    0  0.00000000000E+00  0.00000000000E+00  0.22931589749E+04  0.22931589749E+04  0.50400001928E-02 0. -1.
       -1   -1    0    0    0  501  0.00000000000E+00  0.00000000000E+00 -0.10401820062E+04  0.10401820062E+04  0.50400001928E-02 0.  1.
    10030    2    1    2    0    0  0.00000000000E+00  0.00000000000E+00  0.12529769686E+04  0.33333409811E+04  0.30888850436E+04 0.  0.
        4    1    3    3  502    0 -0.65085019773E+03 -0.81182072300E+02 -0.88242031988E+03  0.10994833980E+04  0.12699999809E+01 0.  1.
       -4    1    3    3    0  502  0.65085019773E+03  0.81182072300E+02  0.21353972885E+04  0.22338575831E+04  0.12699999809E+01 0. -1.
</event>
<event>
 5   0  0.2517725E-06  0.3064927E+04  0.7818609E-02  0.8225430E-01
       -1   -1    0    0    0  501  0.00000000000E+00  0.00000000000E+00  0.27609371539E+04  0.27609371539E+04  0.50400001928E-02 0. -1.
        1   -1    0    0  501    0  0.00000000000E+00  0.00000000000E+00 -0.85059672867E+03  0.85059672868E+03  0.50400001928E-02 0.  1.
    10030    2    1    2    0    0  0.00000000000E+00  0.00000000000E+00  0.19103404252E+04  0.36115338826E+04  0.30649268253E+04 0.  0.
        3    1    3    3  502    0  0.71348342581E+03  0.22611109285E+03 -0.62057801248E+03  0.97226637553E+03  0.10100000352E+00 0.  1.
       -3    1    3    3    0  502 -0.71348342581E+03 -0.22611109285E+03  0.25309184377E+04  0.26392675070E+04  0.10100000352E+00 0. -1.
</event>
<event>
 5   0  0.7071012E-06  0.3137644E+04  0.7818609E-02  0.8205482E-01
       -2   -1    0    0    0  501  0.00000000000E+00  0.00000000000E+00  0.90530720646E+03  0.90530720647E+03  0.25500000920E-02 0. -1.
        2   -1    0    0  501    0  0.00000000000E+00  0.00000000000E+00 -0.27186385051E+04  0.27186385051E+04  0.25500000920E-02 0.  1.
    10030    2    1    2    0    0  0.00000000000E+00  0.00000000000E+00 -0.18133312987E+04  0.36239457116E+04  0.31376443587E+04 0.  0.
        1    1    3    3  502    0  0.83340248431E+03 -0.89313344389E+02  0.62502022419E+03  0.10455557637E+04  0.50400001928E-02 0. -1.
       -1    1    3    3    0  502 -0.83340248431E+03  0.89313344389E+02 -0.24383515228E+04  0.25783899479E+04  0.50400001928E-02 0.  1.
</event>
<event>
 5   0  0.2598987E-06  0.2913636E+04  0.7818609E-02  0.8268832E-01
        1   -1    0    0  501    0  0.00000000000E+00  0.00000000000E+00  0.20590423431E+04  0.20590423431E+04  0.50400001928E-02 0. -1.
       -1   -1    0    0    0  501  0.00000000000E+00  0.00000000000E+00 -0.10307308613E+04  0.10307308613E+04  0.50400001928E-02 0.  1.
    10030    2    1    2    0    0  0.00000000000E+00  0.00000000000E+00  0.10283114818E+04  0.30897732044E+04  0.29136358645E+04 0.  0.
        2    1    3    3  502    0  0.24000082984E+02 -0.12647937267E+03  0.20529985657E+04  0.20570309056E+04  0.25500000920E-02 0. -1.
       -2    1    3    3    0  502 -0.24000082984E+02  0.12647937267E+03 -0.10246870840E+04  0.10327422988E+04  0.25500000920E-02 0.  1.
</event>
<event>
 5   0  0.7414808E-06  0.2665426E+04  0.7818609E-02  0.8346311E-01
        2   -1    0    0  501    0  0.00000000000E+00  0.00000000000E+00  0.19766056140E+04  0.19766056140E+04  0.25500000920E-02 0.  1.
       -2   -1    0    0    0  501  0.00000000000E+00  0.00000000000E+00 -0.89857274793E+03  0.89857274794E+03  0.25500000920E-02 0. -1.
    10030    2    1    2    0    0  0.00000000000E+00  0.00000000000E+00  0.10780328661E+04  0.28751783620E+04  0.26654259984E+04 0.  0.
        2    1    3    3  502    0  0.34005126394E+02 -0.10383269375E+04 -0.36144720755E+03  0.10999651184E+04  0.25500000920E-02 0. -1.
       -2    1    3    3    0  502 -0.34005126394E+02  0.10383269375E+04  0.14394800737E+04  0.17752132436E+04  0.25500000920E-02 0.  1.
</event>
<event>
 5   0  0.2612331E-06  0.3020135E+04  0.7818609E-02  0.8238004E-01
        1   -1    0    0  501    0  0.00000000000E+00  0.00000000000E+00  0.20058115568E+04  0.20058115569E+04  0.50400001928E-02 0.  1.
       -1   -1    0    0    0  501  0.00000000000E+00  0.00000000000E+00 -0.11368487475E+04  0.11368487475E+04  0.50400001928E-02 0. -1.
    10030    2    1    2    0    0  0.00000000000E+00  0.00000000000E+00  0.86896280938E+03  0.31426603043E+04  0.30201353321E+04 0.  0.
        4    1    3    3  502    0 -0.11653519485E+04 -0.45847490122E+03 -0.44358796139E+03  0.13285391569E+04  0.12699999809E+01 0. -1.
       -4    1    3    3    0  502  0.11653519485E+04  0.45847490122E+03  0.13125507708E+04  0.18141211475E+04  0.12699999809E+01 0.  1.
</event>
<event>
 5   0  0.7079223E-06  0.1937825E+04  0.7818609E-02  0.8636254E-01
        2   -1    0    0  501    0  0.00000000000E+00  0.00000000000E+00  0.12453381947E+04  0.12453381947E+04  0.25500000920E-02 0. -1.
       -2   -1    0    0    0  501  0.00000000000E+00  0.00000000000E+00 -0.75384426278E+03  0.75384426278E+03  0.25500000920E-02 0.  1.
    10030    2    1    2    0    0  0.00000000000E+00  0.00000000000E+00  0.49149393190E+03  0.19991824575E+04  0.19378246085E+04 0.  0.
        5    1    3    3  502    0  0.57446046437E+03 -0.21997600753E+03 -0.52653736427E+03  0.80972708673E+03  0.46999998093E+01 0.  1.
       -5    1    3    3    0  502 -0.57446046437E+03  0.21997600753E+03  0.10180312962E+04  0.11894553707E+04  0.46999998093E+01 0. -1.
</event>
<event>
 5   0  0.2612331E-06  0.3090098E+04  0.7818609E-02  0.8218461E-01
       -1   -1    0    0    0  501  0.00000000000E+00  0.00000000000E+00  0.31937260245E+04  0.31937260245E+04  0.50400001928E-02 0. -1.
        1   -1    0    0  501    0  0.00000000000E+00  0.00000000000E+00 -0.74745811341E+03  0.74745811342E+03  0.50400001928E-02 0.  1.
    10030    2    1    2    0    0  0.00000000000E+00  0.00000000000E+00  0.24462679110E+04  0.39411841379E+04  0.30900980108E+04 0.  0.
        4    1    3    3  502    0 -0.10095638586E+04 -0.11386598246E+04  0.88230830585E+03  0.17590437573E+04  0.12699999809E+01 0. -1.
       -4    1    3    3    0  502  0.10095638586E+04  0.11386598246E+04  0.15639596052E+04  0.21821403805E+04  0.12699999809E+01 0.  1.
</event>
<event>
 5   0  0.7071012E-06  0.3108793E+04  0.7818609E-02  0.8213329E-01
        2   -1    0    0  501    0  0.00000000000E+00  0.00000000000E+00  0.15350460394E+04  0.15350460394E+04  0.25500000920E-02 0. -1.
       -2   -1    0    0    0  501  0.00000000000E+00  0.00000000000E+00 -0.15739906643E+04  0.15739906643E+04  0.25500000920E-02 0.  1.
    10030    2    1    2    0    0  0.00000000000E+00  0.00000000000E+00 -0.38944624855E+02  0.31090367037E+04  0.31087927788E+04 0.  0.
        1    1    3    3  502    0  0.35996964679E+03  0.65486482908E+03  0.13436174060E+04  0.15374439257E+04  0.50400001928E-02 0. -1.
       -1    1    3    3    0  502 -0.35996964679E+03 -0.65486482908E+03 -0.13825620308E+04  0.15715927781E+04  0.50400001928E-02 0.  1.
</event>
<event>
 5   0  0.2598987E-06  0.3099996E+04  0.7818609E-02  0.8215739E-01
       -1   -1    0    0    0  501  0.00000000000E+00  0.00000000000E+00  0.23075357593E+04  0.23075357594E+04  0.50400001928E-02 0.  1.
        1   -1    0    0  501    0  0.00000000000E+00  0.00000000000E+00 -0.10411513956E+04  0.10411513956E+04  0.50400001928E-02 0. -1.
    10030    2    1    2    0    0  0.00000000000E+00  0.00000000000E+00  0.12663843637E+04  0.33486871550E+04  0.30999961783E+04 0.  0.
        2    1    3    3  502    0 -0.94780343704E+03  0.19577197385E+03 -0.67465234050E+03  0.11797515847E+04  0.25500000920E-02 0. -1.
       -2    1    3    3    0  502  0.94780343704E+03 -0.19577197385E+03  0.19410367042E+04  0.21689355703E+04  0.25500000920E-02 0.  1.
</event>
<event>
 5   0  0.2598987E-06  0.1960773E+04  0.7818609E-02  0.8625183E-01
        1   -1    0    0  501    0  0.00000000000E+00  0.00000000000E+00  0.10407470859E+04  0.10407470859E+04  0.50400001928E-02 0. -1.
       -1   -1    0    0    0  501  0.00000000000E+00  0.00000000000E+00 -0.92352689605E+03  0.92352689607E+03  0.50400001928E-02 0.  1.
    10030    2    1    2    0    0  0.00000000000E+00  0.00000000000E+00  0.11722018987E+03  0.19642739820E+04  0.19607732412E+04 0.  0.
        2    1    3    3  502    0  0.76156017756E+03 -0.42578997854E+03  0.50649546476E+03  0.10088650384E+04  0.25500000920E-02 0. -1.
       -2    1    3    3    0  502 -0.76156017756E+03  0.42578997854E+03 -0.38927527489E+03  0.95540894360E+03  0.25500000920E-02 0.  1.
</event>
<event>
 5   0  0.2517725E-06  0.3062949E+04  0.7818609E-02  0.8225980E-01
       -1   -1    0    0    0  501  0.00000000000E+00  0.00000000000E+00  0.16642061360E+04  0.16642061360E+04  0.50400001928E-02 0.  1.
        1   -1    0    0  501    0  0.00000000000E+00  0.00000000000E+00 -0.14093289863E+04  0.14093289863E+04  0.50400001928E-02 0. -1.
    10030    2    1    2    0    0  0.00000000000E+00  0.00000000000E+00  0.25487714971E+03  0.30735351222E+04  0.30629488710E+04 0.  0.
        3    1    3    3  502    0 -0.13707853607E+04  0.42672924172E+03  0.66244506187E+03  0.15811337138E+04  0.10100000352E+00 0.  1.
       -3    1    3    3    0  502  0.13707853607E+04 -0.42672924172E+03 -0.40756791215E+03  0.14924014084E+04  0.10100000352E+00 0. -1.
</event>
<event>
 5   0  0.2674441E-06  0.3051380E+04  0.7818609E-02  0.8229209E-01
       -1   -1    0    0    0  501  0.00000000000E+00  0.00000000000E+00  0.10020121620E+04  0.10020121620E+04  0.50400001928E-02 0.  1.
        1   -1    0    0  501    0  0.00000000000E+00  0.00000000000E+00 -0.23230557030E+04  0.23230557030E+04  0.50400001928E-02 0. -1.
    10030    2    1    2    0    0  0.00000000000E+00  0.00000000000E+00 -0.13210435410E+04  0.33250678650E+04  0.30513800599E+04 0.  0.
        5    1    3    3  502    0 -0.57490690040E+02  0.48618739393E+03 -0.22351281876E+04  0.22881222577E+04  0.46999998093E+01 0. -1.
       -5    1    3    3    0  502  0.57490690040E+02 -0.48618739393E+03  0.91408464653E+03  0.10369456073E+04  0.46999998093E+01 0.  1.
</event>
<event>
 5   0  0.2612331E-06  0.3148674E+04  0.7818609E-02  0.8202505E-01
        1   -1    0    0  501    0  0.00000000000E+00  0.00000000000E+00  0.22461300047E+04  0.22461300047E+04  0.50400001928E-02 0. -1.
       -1   -1    0    0    0  501  0.00000000000E+00  0.00000000000E+00 -0.11034697121E+04  0.11034697121E+04  0.50400001928E-02 0.  1.
    10030    2    1    2    0    0  0.00000000000E+00  0.00000000000E+00  0.11426602926E+04  0.33495997167E+04  0.31486736443E+04 0.  0.
        4    1    3    3  502    0 -0.58695528390E+03  0.14505207364E+04  0.38704806992E+03  0.16119350897E+04  0.12699999809E+01 0.  1.
       -4    1    3    3    0  502  0.58695528390E+03 -0.14505207364E+04  0.75561222268E+03  0.17376646270E+04  0.12699999809E+01 0. -1.
</event>
<event>
 5   0  0.7363513E-06  0.3125154E+04  0.7818609E-02  0.8208868E-01
        2   -1    0    0  501    0  0.00000000000E+00  0.00000000000E+00  0.12782927535E+04  0.12782927535E+04  0.25500000920E-02 0.  1.
       -2   -1    0    0    0  501  0.00000000000E+00  0.00000000000E+00 -0.19100844983E+04  0.19100844983E+04  0.25500000920E-02 0. -1.
    10030    2    1    2    0    0  0.00000000000E+00  0.00000000000E+00 -0.63179174479E+03  0.31883772518E+04  0.31251541868E+04 0.  0.
        4    1    3    3  502    0  0.24952677333E+03 -0.10881136603E+04  0.79956200050E+03  0.13731554733E+04  0.12699999809E+01 0.  1.
       -4    1    3    3    0  502 -0.24952677333E+03  0.10881136603E+04 -0.14313537453E+04  0.18152217785E+04  0.12699999809E+01 0. -1.
</event>
<event>
 5   0  0.7071012E-06  0.3075022E+04  0.7818609E-02  0.8222627E-01
        2   -1    0    0  501    0  0.00000000000E+00  0.00000000000E+00  0.14048112282E+04  0.14048112282E+04  0.25500000920E-02 0.  1.
       -2   -1    0    0    0  501  0.00000000000E+00  0.00000000000E+00 -0.16827455310E+04  0.16827455310E+04  0.25500000920E-02 0. -1.
    10030    2    1    2    0    0  0.00000000000E+00  0.00000000000E+00 -0.27793430272E+03  0.30875567592E+04  0.30750218316E+04 0.  0.
        1    1    3    3  502    0 -0.73725208612E+03 -0.12707803059E+04  0.31622020610E+03  0.15028035278E+04  0.50400001928E-02 0.  1.
       -1    1    3    3    0  502  0.73725208612E+03  0.12707803059E+04 -0.59415450882E+03  0.15847532315E+04  0.50400001928E-02 0. -1.
</event>
<event>
 5   0  0.7079223E-06  0.3183484E+04  0.7818609E-02  0.8193193E-01
        2   -1    0    0  501    0  0.00000000000E+00  0.00000000000E+00  0.15468238901E+04  0.15468238901E+04  0.25500000920E-02 0. -1.
       -2   -1    0    0    0  501  0.00000000000E+00  0.00000000000E+00 -0.16379644738E+04  0.16379644738E+04  0.25500000920E-02 0.  1.
    10030    2    1    2    0    0  0.00000000000E+00  0.00000000000E+00 -0.91140583721E+02  0.31847883639E+04  0.31834839903E+04 0.  0.
        5    1    3    3  502    0 -0.57583305608E+03  0.14471729092E+03 -0.15230280334E+04  0.16346752837E+04  0.46999998093E+01 0.  1.
       -5    1    3    3    0  502  0.57583305608E+03 -0.14471729092E+03  0.14318874496E+04  0.15501130801E+04  0.46999998093E+01 0. -1.
</event>
<event>
 5   0  0.7414808E-06  0.3113554E+04  0.7818609E-02  0.8212028E-01
        2   -1    0    0  501    0  0.00000000000E+00  0.00000000000E+00  0.22418582094E+04  0.22418582094E+04  0.25500000920E-02 0.  1.
       -2   -1    0    0    0  501  0.00000000000E+00  0.00000000000E+00 -0.10810473986E+04  0.10810473986E+04  0.25500000920E-02 0. -1.
    10030    2    1    2    0    0  0.00000000000E+00  0.00000000000E+00  0.11608108109E+04  0.33229056080E+04  0.31135542297E+04 0.  0.
        2    1    3    3  502    0  0.70363100805E+03  0.82055168144E+03 -0.61526081886E+03  0.12437634553E+04  0.25500000920E-02 0. -1.
       -2    1    3    3    0  502 -0.70363100805E+03 -0.82055168144E+03  0.17760716297E+04  0.20791421527E+04  0.25500000920E-02 0.  1.
</event>
<event>
 5   0  0.2598987E-06  0.3109260E+04  0.7818609E-02  0.8213201E-01
        1   -1    0    0  501    0  0.00000000000E+00  0.00000000000E+00  0.21709761270E+04  0.21709761270E+04  0.50400001928E-02 0.  1.
       -1   -1    0    0    0  501  0.00000000000E+00  0.00000000000E+00 -0.11132664214E+04  0.11132664214E+04  0.50400001928E-02 0. -1.
    10030    2    1    2    0    0  0.00000000000E+00  0.00000000000E+00  0.10577097056E+04  0.32842425484E+04  0.31092602489E+04 0.  0.
        2    1    3    3  502    0 -0.18280436234E+03 -0.35298730875E+03  0.21163870836E+04  0.21533954032E+04  0.25500000920E-02 0.  1.
       -2    1    3    3    0  502  0.18280436234E+03  0.35298730875E+03 -0.10586773780E+04  0.11308471452E+04  0.25500000920E-02 0. -1.
</event>
<event>
 5   0  0.2624011E-06  0.3178455E+04  0.7818609E-02  0.8194530E-01
        1   -1    0    0  501    0  0.00000000000E+00  0.00000000000E+00  0.26092747664E+04  0.26092747664E+04  0.50400001928E-02 0. -1.
       -1   -1    0    0    0  501  0.00000000000E+00  0.00000000000E+00 -0.96794857230E+03  0.96794857231E+03  0.50400001928E-02 0.  1.
    10030    2    1    2    0    0  0.00000000000E+00  0.00000000000E+00  0.16413261941E+04  0.35772233387E+04  0.31784548352E+04 0.  0.
        1    1    3    3  502    0 -0.73337902070E+03  0.90623191764E+03  0.20362341029E+04  0.23463483114E+04  0.50400001928E-02 0. -1.
       -1    1    3    3    0  502  0.73337902070E+03 -0.90623191764E+03 -0.39490790875E+03  0.12308750274E+04  0.50400001928E-02 0.  1.
</event>
<event>
 5   0  0.7079223E-06  0.3135615E+04  0.7818609E-02  0.8206031E-01
       -2   -1    0    0    0  501  0.00000000000E+00  0.00000000000E+00  0.14563998809E+04  0.14563998809E+04  0.25500000920E-02 0. -1.
        2   -1    0    0  501    0  0.00000000000E+00  0.00000000000E+00 -0.16877371320E+04  0.16877371320E+04  0.25500000920E-02 0.  1.
    10030    2    1    2    0    0  0.00000000000E+00  0.00000000000E+00 -0.23133725111E+03  0.31441370128E+04  0.31356148730E+04 0.  0.
        5    1    3    3  502    0 -0.58694300768E+03 -0.89382890337E+03  0.10339927023E+04  0.14874794792E+04  0.46999998093E+01 0. -1.
       -5    1    3    3    0  502  0.58694300768E+03  0.89382890337E+03 -0.12653299534E+04  0.16566575336E+04  0.46999998093E+01 0.  1.
</event>
<event>
 5   0  0.7071012E-06  0.3075595E+04  0.7818609E-02  0.8222468E-01
        2   -1    0    0  501    0  0.00000000000E+00  0.00000000000E+00  0.19208886065E+04  0.19208886065E+04  0.25500000920E-02 0.  1.
       -2   -1    0    0    0  501  0.00000000000E+00  0.00000000000E+00 -0.12311080599E+04  0.12311080599E+04  0.25500000920E-02 0. -1.
    10030    2    1    2    0    0  0.00000000000E+00  0.00000000000E+00  0.68978054662E+03  0.31519966663E+04  0.30755951915E+04 0.  0.
        1    1    3    3  502    0 -0.89964581126E+03  0.11518318750E+04  0.83504107261E+03  0.16832625603E+04  0.50400001928E-02 0.  1.
       -1    1    3    3    0  502  0.89964581126E+03 -0.11518318750E+04 -0.14526052599E+03  0.14687341061E+04  0.50400001928E-02 0. -1.
</event>
<event>
 5   0  0.2674441E-06  0.2966569E+04  0.7818609E-02  0.8253342E-01
        1   -1    0    0  501    0  0.00000000000E+00  0.00000000000E+00  0.20477011353E+04  0.20477011353E+04  0.50400001928E-02 0.  1.
       -1   -1    0    0    0  501  0.00000000000E+00  0.00000000000E+00 -0.10744403212E+04  0.10744403213E+04  0.50400001928E-02 0. -1.
    10030    2    1    2    0    0  0.00000000000E+00  0.00000000000E+00  0.97326081403E+03  0.31221414565E+04  0.29665688366E+04 0.  0.
        5    1    3    3  502    0 -0.27702975090E+03 -0.22674636237E+03 -0.10282833340E+04  0.10888287747E+04  0.46999998093E+01 0. -1.
       -5    1    3    3    0  502  0.27702975090E+03  0.22674636237E+03  0.20015441480E+04  0.20333126818E+04  0.46999998093E+01 0.  1.
</event>
<event>
 5   0  0.2517725E-06  0.2964296E+04  0.7818609E-02  0.8254000E-01
        1   -1    0    0  501    0  0.00000000000E+00  0.00000000000E+00  0.16125669003E+04  0.16125669003E+04  0.50400001928E-02 0. -1.
       -1   -1    0    0    0  501  0.00000000000E+00  0.00000000000E+00 -0.13622771475E+04  0.13622771475E+04  0.50400001928E-02 0.  1.
    10030    2    1    2    0    0  0.00000000000E+00  0.00000000000E+00  0.25028975287E+03  0.29748440478E+04  0.29642962315E+04 0.  0.
        3    1    3    3  502    0  0.35673119486E+03 -0.12493245643E+03  0.15633870267E+04  0.16084291310E+04  0.10100000352E+00 0. -1.
       -3    1    3    3    0  502 -0.35673119486E+03  0.12493245643E+03 -0.13130972738E+04  0.13664149168E+04  0.10100000352E+00 0.  1.
</event>
<event>
 5   0  0.7079223E-06  0.2904441E+04  0.7818609E-02  0.8271557E-01
       -2   -1    0    0    0  501  0.00000000000E+00  0.00000000000E+00  0.10789896662E+04  0.10789896662E+04  0.25500000920E-02 0.  1.
        2   -1    0    0  501    0  0.00000000000E+00  0.00000000000E+00 -0.19545545017E+04  0.19545545017E+04  0.25500000920E-02 0. -1.
    10030    2    1    2    0    0  0.00000000000E+00  0.00000000000E+00 -0.87556483544E+03  0.30335441679E+04  0.29044408132E+04 0.  0.
        5    1    3    3  502    0  0.77168362263E+03 -0.96380215509E+03  0.36073508089E+03  0.12862978256E+04  0.46999998093E+01 0.  1.
       -5    1    3    3    0  502 -0.77168362263E+03  0.96380215509E+03 -0.12362999163E+04  0.17472463423E+04  0.46999998093E+01 0. -1.
</event>
<event>
 5   0  0.2517725E-06  0.2679019E+04  0.7818609E-02  0.8341845E-01
       -1   -1    0    0    0  501  0.00000000000E+00  0.00000000000E+00  0.10157760397E+04  0.10157760397E+04  0.50400001928E-02 0. -1.
        1   -1    0    0  501    0  0.00000000000E+00  0.00000000000E+00 -0.17664190739E+04  0.17664190739E+04  0.50400001928E-02 0.  1.
    10030    2    1    2    0    0  0.00000000000E+00  0.00000000000E+00 -0.75064303423E+03  0.27821951136E+04  0.26790193514E+04 0.  0.
        3    1    3    3  502    0 -0.48545030779E+03 -0.12378131457E+04 -0.20644655815E+03  0.13455346806E+04  0.10100000352E+00 0. -1.
       -3    1    3    3    0  502  0.48545030779E+03  0.12378131457E+04 -0.54419647608E+03  0.14366604330E+04  0.10100000352E+00 0.  1.
</event>
<event>
 5   0  0.7094341E-06  0.3106615E+04  0.7818609E-02  0.8213925E-01
       -2   -1    0    0    0  501  0.00000000000E+00  0.00000000000E+00  0.18568554750E+04  0.18568554750E+04  0.25500000920E-02 0.  1.
        2   -1    0    0  501    0  0.00000000000E+00  0.00000000000E+00 -0.12993816401E+04  0.12993816401E+04  0.25500000920E-02 0. -1.
    10030    2    1    2    0    0  0.00000000000E+00  0.00000000000E+00  0.55747383487E+03  0.31562371151E+04  0.31066148217E+04 0.  0.
        3    1    3    3  502    0 -0.11488912449E+04  0.95985067639E+02  0.13363252378E+04  0.17649162521E+04  0.10100000352E+00 0.  1.
       -3    1    3    3    0  502  0.11488912449E+04 -0.95985067639E+02 -0.77885140292E+03  0.13913208630E+04  0.10100000352E+00 0. -1.
</event>
<event>
 5   0  0.2598987E-06  0.2933042E+04  0.7818609E-02  0.8263114E-01
       -1   -1    0    0    0  501  0.00000000000E+00  0.00000000000E+00  0.10071282428E+04  0.10071282429E+04  0.50400001928E-02 0. -1.
        1   -1    0    0  501    0  0.00000000000E+00  0.00000000000E+00 -0.21354612525E+04  0.21354612525E+04  0.50400001928E-02 0.  1.
    10030    2    1    2    0    0  0.00000000000E+00  0.00000000000E+00 -0.11283330096E+04  0.31425894953E+04  0.29330416560E+04 0.  0.
        2    1    3    3  502    0  0.89208378864E+03 -0.11503584477E+04 -0.37386741203E+03  0.15029686910E+04  0.25500000920E-02 0. -1.
       -2    1    3    3    0  502 -0.89208378864E+03  0.11503584477E+04 -0.75446559760E+03  0.16396208044E+04  0.25500000920E-02 0.  1.
</event>
<event>
 5   0  0.7071012E-06  0.3113619E+04  0.7818609E-02  0.8212010E-01
        2   -1    0    0  501    0  0.00000000000E+00  0.00000000000E+00  0.12594466464E+04  0.12594466464E+04  0.25500000920E-02 0.  1.
       -2   -1    0    0    0  501  0.00000000000E+00  0.00000000000E+00 -0.19243817270E+04  0.19243817270E+04  0.25500000920E-02 0. -1.
    10030    2    1    2    0    0  0.00000000000E+00  0.00000000000E+00 -0.66493508056E+03  0.31838283734E+04  0.31136191884E+04 0.  0.
        1    1    3    3  502    0  0.65923119654E+03 -0.92110114606E+03  0.75962396112E+03  0.13638334407E+04  0.50400001928E-02 0.  1.
       -1    1    3    3    0  502 -0.65923119654E+03  0.92110114606E+03 -0.14245590417E+04  0.18199949327E+04  0.50400001928E-02 0. -1.
</event>
<event>
 5   0  0.2598987E-06  0.3017756E+04  0.7818609E-02  0.8238679E-01
        1   -1    0    0  501    0  0.00000000000E+00  0.00000000000E+00  0.15594213929E+04  0.15594213929E+04  0.50400001928E-02 0.  1.
       -1   -1    0    0    0  501  0.00000000000E+00  0.00000000000E+00 -0.14599724731E+04  0.14599724731E+04  0.50400001928E-02 0. -1.
    10030    2    1    2    0    0  0.00000000000E+00  0.00000000000E+00  0.99448919827E+02  0.30193938659E+04  0.30177556611E+04 0.  0.
        2    1    3    3  502    0 -0.64232734004E+03 -0.94796444086E+03 -0.93340312256E+03  0.14773159385E+04  0.25500000920E-02 0. -1.
       -2    1    3    3    0  502  0.64232734004E+03  0.94796444086E+03  0.10328520424E+04  0.15420779275E+04  0.25500000920E-02 0.  1.
</event>
<event>
 5   0  0.7363513E-06  0.3090139E+04  0.7818609E-02  0.8218449E-01
        2   -1    0    0  501    0  0.00000000000E+00  0.00000000000E+00  0.19055660177E+04  0.19055660177E+04  0.25500000920E-02 0.  1.
       -2   -1    0    0    0  501  0.00000000000E+00  0.00000000000E+00 -0.12527719659E+04  0.12527719659E+04  0.25500000920E-02 0. -1.
    10030    2    1    2    0    0  0.00000000000E+00  0.00000000000E+00  0.65279405174E+03  0.31583379836E+04  0.30901389523E+04 0.  0.
        4    1    3    3  502    0 -0.12794898749E+04  0.70553702154E+03  0.83983965670E+03  0.16852919897E+04  0.12699999809E+01 0.  1.
       -4    1    3    3    0  502  0.12794898749E+04 -0.70553702154E+03 -0.18704560495E+03  0.14730459938E+04  0.12699999809E+01 0. -1.
</event>
<event>
 5   0  0.2612331E-06  0.3120413E+04  0.7818609E-02  0.8210158E-01
        1   -1    0    0  501    0  0.00000000000E+00  0.00000000000E+00  0.31736451117E+04  0.31736451117E+04  0.50400001928E-02 0. -1.
       -1   -1    0    0    0  501  0.00000000000E+00  0.00000000000E+00 -0.76701843934E+03  0.76701843936E+03  0.50400001928E-02 0.  1.
    10030    2    1    2    0    0  0.00000000000E+00  0.00000000000E+00  0.24066266724E+04  0.39406635511E+04  0.31204129987E+04 0.  0.
        4    1    3    3  502    0 -0.22933292940E+03  0.12822681547E+04  0.22877891887E+04  0.26326386379E+04  0.12699999809E+01 0. -1.
       -4    1    3    3    0  502  0.22933292940E+03 -0.12822681547E+04  0.11883748373E+03  0.13080249132E+04  0.12699999809E+01 0.  1.
</event>
<event>
 5   0  0.2393250E-06  0.3081544E+04  0.7818609E-02  0.8220821E-01
       -4   -1    0    0    0  501  0.00000000000E+00  0.00000000000E+00  0.13899403452E+04  0.13899409254E+04  0.12699999809E+01 0. -1.
        4   -1    0    0  501    0  0.00000000000E+00  0.00000000000E+00 -0.17079699702E+04  0.17079704424E+04  0.12699999809E+01 0.  1.
    10030    2    1    2    0    0  0.00000000000E+00  0.00000000000E+00 -0.31802962496E+03  0.30979113678E+04  0.30815437690E+04 0.  0.
        5    1    3    3  502    0 -0.96889446821E+03  0.11940488276E+04 -0.61303826043E+02  0.15389247357E+04  0.46999998093E+01 0. -1.
       -5    1    3    3    0  502  0.96889446821E+03 -0.11940488276E+04 -0.25672579892E+03  0.15589866321E+04  0.46999998093E+01 0.  1.
</event>
<event>
 5   0  0.2517725E-06  0.2724238E+04  0.7818609E-02  0.8327183E-01
        1   -1    0    0  501    0  0.00000000000E+00  0.00000000000E+00  0.14148403267E+04  0.14148403268E+04  0.50400001928E-02 0.  1.
       -1   -1    0    0    0  501  0.00000000000E+00  0.00000000000E+00 -0.13113619195E+04  0.13113619195E+04  0.50400001928E-02 0. -1.
    10030    2    1    2    0    0  0.00000000000E+00  0.00000000000E+00  0.10347840723E+03  0.27262022463E+04  0.27242376744E+04 0.  0.
        3    1    3    3  502    0  0.11931441663E+04 -0.55878150275E+03 -0.29425272964E+03  0.13499683139E+04  0.10100000352E+00 0. -1.
       -3    1    3    3    0  502 -0.11931441663E+04  0.55878150275E+03  0.39773113687E+03  0.13762339324E+04  0.10100000352E+00 0.  1.
</event>
<event>
 5   0  0.2598987E-06  0.3181929E+04  0.7818609E-02  0.8193606E-01
        1   -1    0    0  501    0  0.00000000000E+00  0.00000000000E+00  0.21435808833E+04  0.21435808833E+04  0.50400001928E-02 0. -1.
       -1   -1    0    0    0  501  0.00000000000E+00  0.00000000000E+00 -0.11808130414E+04  0.11808130414E+04  0.50400001928E-02 0.  1.
    10030    2    1    2    0    0  0.00000000000E+00  0.00000000000E+00  0.96276784198E+03  0.33243939247E+04  0.31819291395E+04 0.  0.
        2    1    3    3  502    0 -0.10673638594E+04 -0.10615416342E+04  0.10192462690E+04  0.18179656780E+04  0.25500000920E-02 0. -1.
       -2    1    3    3    0  502  0.10673638594E+04  0.10615416342E+04 -0.56478427045E+02  0.15064282467E+04  0.25500000920E-02 0.  1.
</event>
<event>
 5   0  0.2517725E-06  0.2983367E+04  0.7818609E-02  0.8248497E-01
        1   -1    0    0  501    0  0.00000000000E+00  0.00000000000E+00  0.16792379620E+04  0.16792379620E+04  0.50400001928E-02 0.  1.
       -1   -1    0    0    0  501  0.00000000000E+00  0.00000000000E+00 -0.13250770600E+04  0.13250770600E+04  0.50400001928E-02 0. -1.
    10030    2    1    2    0    0  0.00000000000E+00  0.00000000000E+00  0.35416090195E+03  0.30043150220E+04  0.29833670252E+04 0.  0.
        3    1    3    3  502    0 -0.85643659131E+02  0.11764578258E+04  0.10965809677E+04  0.16105519803E+04  0.10100000352E+00 0.  1.
       -3    1    3    3    0  502  0.85643659131E+02 -0.11764578258E+04 -0.74242006579E+03  0.13937630417E+04  0.10100000352E+00 0. -1.
</event>
<event>
 5   0  0.2674441E-06  0.2997729E+04  0.7818609E-02  0.8244380E-01
       -1   -1    0    0    0  501  0.00000000000E+00  0.00000000000E+00  0.15393352708E+04  0.15393352708E+04  0.50400001928E-02 0. -1.
        1   -1    0    0  501    0  0.00000000000E+00  0.00000000000E+00 -0.14594581020E+04  0.14594581020E+04  0.50400001928E-02 0.  1.
    10030    2    1    2    0    0  0.00000000000E+00  0.00000000000E+00  0.79877168766E+02  0.29987933728E+04  0.29977293625E+04 0.  0.
        5    1    3    3  502    0  0.39306450059E+03  0.14421326278E+04  0.15100512797E+03  0.15023551033E+04  0.46999998093E+01 0. -1.
       -5    1    3    3    0  502 -0.39306450059E+03 -0.14421326278E+04 -0.71127959200E+02  0.14964382695E+04  0.46999998093E+01 0.  1.
</event>
<event>
 5   0  0.2674441E-06  0.2321024E+04  0.7818609E-02  0.8469677E-01
        1   -1    0    0  501    0  0.00000000000E+00  0.00000000000E+00  0.10727631055E+04  0.10727631055E+04  0.50400001928E-02 0.  1.
       -1   -1    0    0    0  501  0.00000000000E+00  0.00000000000E+00 -0.12554387475E+04  0.12554387476E+04  0.50400001928E-02 0. -1.
    10030    2    1    2    0    0  0.00000000000E+00  0.00000000000E+00 -0.18267564202E+03  0.23282018531E+04  0.23210242305E+04 0.  0.
        5    1    3    3  502    0  0.71189765417E+03  0.66806385425E+03 -0.72070034834E+03  0.12134820417E+04  0.46999998093E+01 0. -1.
       -5    1    3    3    0  502 -0.71189765417E+03 -0.66806385425E+03  0.53802470633E+03  0.11147198114E+04  0.46999998093E+01 0.  1.
</event>
<event>
 5   0  0.2674441E-06  0.3098345E+04  0.7818609E-02  0.8216192E-01
       -1   -1    0    0    0  501  0.00000000000E+00  0.00000000000E+00  0.13049325595E+04  0.13049325595E+04  0.50400001928E-02 0. -1.
        1   -1    0    0  501    0  0.00000000000E+00  0.00000000000E+00 -0.18391263440E+04  0.18391263441E+04  0.50400001928E-02 0.  1.
    10030    2    1    2    0    0  0.00000000000E+00  0.00000000000E+00 -0.53419378456E+03  0.31440589035E+04  0.30983452663E+04 0.  0.
        5    1    3    3  502    0 -0.83614884970E+03 -0.81154608288E+03  0.76882840787E+03  0.13960197542E+04  0.46999998093E+01 0. -1.
       -5    1    3    3    0  502  0.83614884970E+03  0.81154608288E+03 -0.13030221924E+04  0.17480391493E+04  0.46999998093E+01 0.  1.
</event>
<event>
 5   0  0.7363513E-06  0.3093498E+04  0.7818609E-02  0.8217524E-01
        2   -1    0    0  501    0  0.00000000000E+00  0.00000000000E+00  0.12357362571E+04  0.12357362571E+04  0.25500000920E-02 0. -1.
       -2   -1    0    0    0  501  0.00000000000E+00  0.00000000000E+00 -0.19360384949E+04  0.19360384949E+04  0.25500000920E-02 0.  1.
    10030    2    1    2    0    0  0.00000000000E+00  0.00000000000E+00 -0.70030223784E+03  0.31717747521E+04  0.30934983196E+04 0.  0.
        4    1    3    3  502    0 -0.59644346951E+03 -0.14037895949E+04 -0.61367868338E+03  0.16440721330E+04  0.12699999809E+01 0. -1.
       -4    1    3    3    0  502  0.59644346951E+03  0.14037895949E+04 -0.86623554458E+02  0.15277026191E+04  0.12699999809E+01 0.  1.
</event>
<event>
 5   0  0.2612331E-06  0.3112249E+04  0.7818609E-02  0.8212384E-01
       -1   -1    0    0    0  501  0.00000000000E+00  0.00000000000E+00  0.15022528580E+04  0.15022528580E+04  0.50400001928E-02 0. -1.
        1   -1    0    0  501    0  0.00000000000E+00  0.00000000000E+00 -0.16119283263E+04  0.16119283263E+04  0.50400001928E-02 0.  1.
    10030    2    1    2    0    0  0.00000000000E+00  0.00000000000E+00 -0.10967546828E+03  0.31141811844E+04  0.31122493057E+04 0.  0.
        4    1    3    3  502    0  0.92358212518E+03  0.21363209573E+03 -0.12896538747E+04  0.16005784403E+04  0.12699999809E+01 0.  1.
       -4    1    3    3    0  502 -0.92358212518E+03 -0.21363209573E+03  0.11799784064E+04  0.15136027440E+04  0.12699999809E+01 0. -1.
</event>
<event>
 5   0  0.7094341E-06  0.3160422E+04  0.7818609E-02  0.8199349E-01
       -2   -1    0    0    0  501  0.00000000000E+00  0.00000000000E+00  0.97211834655E+03  0.97211834656E+03  0.25500000920E-02 0.  1.
        2   -1    0    0  501    0  0.00000000000E+00  0.00000000000E+00 -0.25686859827E+04  0.25686859827E+04  0.25500000920E-02 0. -1.
    10030    2    1    2    0    0  0.00000000000E+00  0.00000000000E+00 -0.15965676361E+04  0.35408043292E+04  0.31604219783E+04 0.  0.
        3    1    3    3  502    0  0.59076380782E+03  0.12468809406E+04 -0.16612889010E+04  0.21595357786E+04  0.10100000352E+00 0. -1.
       -3    1    3    3    0  502 -0.59076380782E+03 -0.12468809406E+04  0.64721264844E+02  0.13812685506E+04  0.10100000352E+00 0.  1.
</event>
<event>
 5   0  0.7071012E-06  0.3029471E+04  0.7818609E-02  0.8235365E-01
       -2   -1    0    0    0  501  0.00000000000E+00  0.00000000000E+00  0.90151741830E+03  0.90151741831E+03  0.25500000920E-02 0.  1.
        2   -1    0    0  501    0  0.00000000000E+00  0.00000000000E+00 -0.25450684028E+04  0.25450684028E+04  0.25500000920E-02 0. -1.
    10030    2    1    2    0    0  0.00000000000E+00  0.00000000000E+00 -0.16435509844E+04  0.34465858211E+04  0.30294709082E+04 0.  0.
        1    1    3    3  502    0 -0.88106971054E+03  0.54625388735E+03  0.43470883146E+03  0.11241213958E+04  0.50400001928E-02 0.  1.
       -1    1    3    3    0  502  0.88106971054E+03 -0.54625388735E+03 -0.20782598159E+04  0.23224644253E+04  0.50400001928E-02 0. -1.
</event>
<event>
 5   0  0.2612331E-06  0.2842135E+04  0.7818609E-02  0.8290305E-01
       -1   -1    0    0    0  501  0.00000000000E+00  0.00000000000E+00  0.15249330394E+04  0.15249330394E+04  0.50400001928E-02 0. -1.
        1   -1    0    0  501    0  0.00000000000E+00  0.00000000000E+00 -0.13242764014E+04  0.13242764014E+04  0.50400001928E-02 0.  1.
    10030    2    1    2    0    0  0.00000000000E+00  0.00000000000E+00  0.20065663799E+03  0.28492094408E+04  0.28421349988E+04 0.  0.
        4    1    3    3  502    0  0.97121095044E+03  0.61338104295E+03  0.93903747662E+03  0.14836711258E+04  0.12699999809E+01 0. -1.
       -4    1    3    3    0  502 -0.97121095044E+03 -0.61338104295E+03 -0.73838083863E+03  0.13655383150E+04  0.12699999809E+01 0.  1.
</event>
<event>
 5   0  0.7071012E-06  0.2372526E+04  0.7818609E-02  0.8449862E-01
        2   -1    0    0  501    0  0.00000000000E+00  0.00000000000E+00  0.11559203918E+04  0.11559203918E+04  0.25500000920E-02 0.  1.
       -2   -1    0    0    0  501  0.00000000000E+00  0.00000000000E+00 -0.12174021534E+04  0.12174021534E+04  0.25500000920E-02 0. -1.
    10030    2    1    2    0    0  0.00000000000E+00  0.00000000000E+00 -0.61481761648E+02  0.23733225452E+04  0.23725260581E+04 0.  0.
        1    1    3    3  502    0  0.85493316833E+02  0.36110933325E+03 -0.11578448872E+04  0.12158593013E+04  0.50400001928E-02 0. -1.
       -1    1    3    3    0  502 -0.85493316833E+02 -0.36110933325E+03  0.10963631256E+04  0.11574632439E+04  0.50400001928E-02 0.  1.
</event>
<event>
 5   0  0.7094341E-06  0.3199990E+04  0.7818609E-02  0.8188820E-01
        2   -1    0    0  501    0  0.00000000000E+00  0.00000000000E+00  0.18463510713E+04  0.18463510713E+04  0.25500000920E-02 0. -1.
       -2   -1    0    0    0  501  0.00000000000E+00  0.00000000000E+00 -0.13865102341E+04  0.13865102341E+04  0.25500000920E-02 0.  1.
    10030    2    1    2    0    0  0.00000000000E+00  0.00000000000E+00  0.45984083724E+03  0.32328613054E+04  0.31999904101E+04 0.  0.
        3    1    3    3  502    0 -0.41007492231E+03  0.13815793533E+04  0.93208625733E+03  0.17163064273E+04  0.10100000352E+00 0. -1.
       -3    1    3    3    0  502  0.41007492231E+03 -0.13815793533E+04 -0.47224542010E+03  0.15165548781E+04  0.10100000352E+00 0.  1.
</event>
<event>
 5   0  0.2598987E-06  0.2156142E+04  0.7818609E-02  0.8536908E-01
        1   -1    0    0  501    0  0.00000000000E+00  0.00000000000E+00  0.10539607144E+04  0.10539607144E+04  0.50400001928E-02 0. -1.
       -1   -1    0    0    0  501  0.00000000000E+00  0.00000000000E+00 -0.11027328439E+04  0.11027328439E+04  0.50400001928E-02 0.  1.
    10030    2    1    2    0    0  0.00000000000E+00  0.00000000000E+00 -0.48772129453E+02  0.21566935583E+04  0.21561420139E+04 0.  0.
        2    1    3    3  502    0  0.50491422654E+01 -0.54497189040E+03 -0.95479454773E+03  0.10993873219E+04  0.25500000920E-02 0.  1.
       -2    1    3    3    0  502 -0.50491422654E+01  0.54497189040E+03  0.90602241828E+03  0.10573062364E+04  0.25500000920E-02 0. -1.
</event>
<event>
 5   0  0.7094341E-06  0.3157201E+04  0.7818609E-02  0.8200213E-01
        2   -1    0    0  501    0  0.00000000000E+00  0.00000000000E+00  0.17862177533E+04  0.17862177533E+04  0.25500000920E-02 0. -1.
       -2   -1    0    0    0  501  0.00000000000E+00  0.00000000000E+00 -0.13951152005E+04  0.13951152005E+04  0.25500000920E-02 0.  1.
    10030    2    1    2    0    0  0.00000000000E+00  0.00000000000E+00  0.39110255279E+03  0.31813329538E+04  0.31572010002E+04 0.  0.
        3    1    3    3  502    0  0.10361060741E+04  0.11217262737E+04 -0.20775026177E+03  0.15410859195E+04  0.10100000352E+00 0.  1.
       -3    1    3    3    0  502 -0.10361060741E+04 -0.11217262737E+04  0.59885281456E+03  0.16402470343E+04  0.10100000352E+00 0. -1.
</event>
<event>
 5   0  0.2612331E-06  0.3099257E+04  0.7818609E-02  0.8215942E-01
        1   -1    0    0  501    0  0.00000000000E+00  0.00000000000E+00  0.15586769525E+04  0.15586769525E+04  0.50400001928E-02 0. -1.
       -1   -1    0    0    0  501  0.00000000000E+00  0.00000000000E+00 -0.15406325140E+04  0.15406325140E+04  0.50400001928E-02 0.  1.
    10030    2    1    2    0    0  0.00000000000E+00  0.00000000000E+00  0.18044438546E+02  0.30993094665E+04  0.30992569380E+04 0.  0.
        4    1    3    3  502    0 -0.12581011790E+04 -0.90346308607E+03  0.56800161570E+02  0.15499329004E+04  0.12699999809E+01 0.  1.
       -4    1    3    3    0  502  0.12581011790E+04  0.90346308607E+03 -0.38755723024E+02  0.15493765661E+04  0.12699999809E+01 0. -1.
</event>
<event>
 5   0  0.2598987E-06  0.3120821E+04  0.7818609E-02  0.8210047E-01
        1   -1    0    0  501    0  0.00000000000E+00  0.00000000000E+00  0.21134088024E+04  0.21134088024E+04  0.50400001928E-02 0. -1.
       -1   -1    0    0    0  501  0.00000000000E+00  0.00000000000E+00 -0.11521107837E+04  0.11521107838E+04  0.50400001928E-02 0.  1.
    10030    2    1    2    0    0  0.00000000000E+00  0.00000000000E+00  0.96129801861E+03  0.32655195861E+04  0.31208210918E+04 0.  0.
        2    1    3    3  502    0 -0.30700515237E+03  0.45257738245E+03 -0.10485498946E+04  0.11825968595E+04  0.25500000920E-02 0.  1.
       -2    1    3    3    0  502  0.30700515237E+03 -0.45257738245E+03  0.20098479132E+04  0.20829227266E+04  0.25500000920E-02 0. -1.
</event>
<event>
 5   0  0.2612331E-06  0.3026661E+04  0.7818609E-02  0.8236158E-01
        1   -1    0    0  501    0  0.00000000000E+00  0.00000000000E+00  0.98301584123E+03  0.98301584124E+03  0.50400001928E-02 0.  1.
       -1   -1    0    0    0  501  0.00000000000E+00  0.00000000000E+00 -0.23297385991E+04  0.23297385991E+04  0.50400001928E-02 0. -1.
    10030    2    1    2    0    0  0.00000000000E+00  0.00000000000E+00 -0.13467227579E+04  0.33127544404E+04  0.30266614934E+04 0.  0.
        4    1    3    3  502    0 -0.35175254235E+03 -0.14139420977E+04 -0.11209217444E+04  0.18383224083E+04  0.12699999809E+01 0.  1.
       -4    1    3    3    0  502  0.35175254235E+03  0.14139420977E+04 -0.22580101351E+03  0.14744320321E+04  0.12699999809E+01 0. -1.
</event>
<event>
 5   0  0.7071012E-06  0.3067645E+04  0.7818609E-02  0.8224674E-01
        2   -1    0    0  501    0  0.00000000000E+00  0.00000000000E+00  0.16907672050E+04  0.16907672050E+04  0.25500000920E-02 0.  1.
       -2   -1    0    0    0  501  0.00000000000E+00  0.00000000000E+00 -0.13914457534E+04  0.13914457534E+04  0.25500000920E-02 0. -1.
    10030    2    1    2    0    0  0.00000000000E+00  0.00000000000E+00  0.29932145154E+03  0.30822129584E+04  0.30676445996E+04 0.  0.
        1    1    3    3  502    0  0.13402558502E+04 -0.74443851676E+03  0.19610141815E+03  0.15456164516E+04  0.50400001928E-02 0. -1.
       -1    1    3    3    0  502 -0.13402558502E+04  0.74443851676E+03  0.10322003340E+03  0.15365965068E+04  0.50400001928E-02 0.  1.
</event>
<event>
 5   0  0.2624011E-06  0.3079966E+04  0.7818609E-02  0.8221258E-01
       -1   -1    0    0    0  501  0.00000000000E+00  0.00000000000E+00  0.11306205276E+04  0.11306205276E+04  0.50400001928E-02 0.  1.
        1   -1    0    0  501    0  0.00000000000E+00  0.00000000000E+00 -0.20975631816E+04  0.20975631816E+04  0.50400001928E-02 0. -1.
    10030    2    1    2    0    0  0.00000000000E+00  0.00000000000E+00 -0.96694265398E+03  0.32281837092E+04  0.30799662277E+04 0.  0.
        1    1    3    3  502    0  0.14051521899E+04  0.27228142424E+02 -0.11433344806E+04  0.18117416436E+04  0.50400001928E-02 0. -1.
       -1    1    3    3    0  502 -0.14051521899E+04 -0.27228142424E+02  0.17639182661E+03  0.14164420656E+04  0.50400001928E-02 0.  1.
</event>
<event>
 5   0  0.2612331E-06  0.2973527E+04  0.7818609E-02  0.8251331E-01
       -1   -1    0    0    0  501  0.00000000000E+00  0.00000000000E+00  0.17343740067E+04  0.17343740067E+04  0.50400001928E-02 0.  1.
        1   -1    0    0  501    0  0.00000000000E+00  0.00000000000E+00 -0.12745036213E+04  0.12745036213E+04  0.50400001928E-02 0. -1.
    10030    2    1    2    0    0  0.00000000000E+00  0.00000000000E+00  0.45987038536E+03  0.30088776280E+04  0.29735271664E+04 0.  0.
        4    1    3    3  502    0  0.19111485054E+03 -0.12627629905E+04  0.10001471785E+04  0.16221563574E+04  0.12699999809E+01 0.  1.
       -4    1    3    3    0  502 -0.19111485054E+03  0.12627629905E+04 -0.54027679312E+03  0.13867212706E+04  0.12699999809E+01 0. -1.
</event>
<event>
 5   0  0.7414808E-06  0.2995062E+04  0.7818609E-02  0.8245142E-01
       -2   -1    0    0    0  501  0.00000000000E+00  0.00000000000E+00  0.29877401568E+04  0.29877401568E+04  0.25500000920E-02 0. -1.
        2   -1    0    0  501    0  0.00000000000E+00  0.00000000000E+00 -0.75060047288E+03  0.75060047288E+03  0.25500000920E-02 0.  1.
    10030    2    1    2    0    0  0.00000000000E+00  0.00000000000E+00  0.22371396840E+04  0.37383406297E+04  0.29950620525E+04 0.  0.
        2    1    3    3  502    0 -0.25967152214E+03 -0.65326486324E+03 -0.53185326287E+03  0.88150562913E+03  0.25500000920E-02 0.  1.
       -2    1    3    3    0  502  0.25967152214E+03  0.65326486324E+03  0.27689929468E+04  0.28568350006E+04  0.25500000920E-02 0. -1.
</event>
<event>
 5   0  0.7414808E-06  0.3062432E+04  0.7818609E-02  0.8226124E-01
        2   -1    0    0  501    0  0.00000000000E+00  0.00000000000E+00  0.17758130769E+04  0.17758130769E+04  0.25500000920E-02 0.  1.
       -2   -1    0    0    0  501  0.00000000000E+00  0.00000000000E+00 -0.13203089783E+04  0.13203089783E+04  0.25500000920E-02 0. -1.
    10030    2    1    2    0    0  0.00000000000E+00  0.00000000000E+00  0.45550409859E+03  0.30961220552E+04  0.30624316804E+04 0.  0.
        2    1    3    3  502    0 -0.38983693762E+03  0.30726224117E+03 -0.12367134491E+04  0.13326076234E+04  0.25500000920E-02 0. -1.
       -2    1    3    3    0  502  0.38983693762E+03 -0.30726224117E+03  0.16922175477E+04  0.17635144319E+04  0.25500000920E-02 0.  1.
</event>
<event>
 5   0  0.7079223E-06  0.3062139E+04  0.7818609E-02  0.8226206E-01
       -2   -1    0    0    0  501  0.00000000000E+00  0.00000000000E+00  0.12588029104E+04  0.12588029104E+04  0.25500000920E-02 0. -1.
        2   -1    0    0  501    0  0.00000000000E+00  0.00000000000E+00 -0.18622245044E+04  0.18622245044E+04  0.25500000920E-02 0.  1.
    10030    2    1    2    0    0  0.00000000000E+00  0.00000000000E+00 -0.60342159401E+03  0.31210274148E+04  0.30621388773E+04 0.  0.
        5    1    3    3  502    0 -0.36059981483E+03 -0.12599909318E+04  0.50505569214E+03  0.14045329177E+04  0.46999998093E+01 0. -1.
       -5    1    3    3    0  502  0.36059981483E+03  0.12599909318E+04 -0.11084772862E+04  0.17164944971E+04  0.46999998093E+01 0.  1.
</event>
<event>
 5   0  0.7071012E-06  0.3340975E+04  0.7818609E-02  0.8152547E-01
       -2   -1    0    0    0  501  0.00000000000E+00  0.00000000000E+00  0.23037008596E+04  0.23037008596E+04  0.25500000920E-02 0. -1.
        2   -1    0    0  501    0  0.00000000000E+00  0.00000000000E+00 -0.12113242455E+04  0.12113242455E+04  0.25500000920E-02 0.  1.
    10030    2    1    2    0    0  0.00000000000E+00  0.00000000000E+00  0.10923766141E+04  0.35150251051E+04  0.33409751305E+04 0.  0.
        1    1    3    3  502    0 -0.10159225070E+04  0.11297337676E+04  0.12767183280E+04  0.19845419156E+04  0.50400001928E-02 0. -1.
       -1    1    3    3    0  502  0.10159225070E+04 -0.11297337676E+04 -0.18434171383E+03  0.15304831895E+04  0.50400001928E-02 0.  1.
</event>
<event>
 5   0  0.2517725E-06  0.3113731E+04  0.7818609E-02  0.8211980E-01
       -1   -1    0    0    0  501  0.00000000000E+00  0.00000000000E+00  0.11007408832E+04  0.11007408832E+04  0.50400001928E-02 0. -1.
        1   -1    0    0  501    0  0.00000000000E+00  0.00000000000E+00 -0.22019988516E+04  0.22019988516E+04  0.50400001928E-02 0.  1.
    10030    2    1    2    0    0  0.00000000000E+00  0.00000000000E+00 -0.11012579684E+04  0.33027397348E+04  0.31137309844E+04 0.  0.
        3    1    3    3  502    0 -0.14832071623E+03  0.80151795245E+03  0.85631098575E+03  0.11822430281E+04  0.10100000352E+00 0. -1.
       -3    1    3    3    0  502  0.14832071623E+03 -0.80151795245E+03 -0.19575689541E+04  0.21204967067E+04  0.10100000352E+00 0.  1.
</event>
<event>
 5   0  0.7363513E-06  0.3108923E+04  0.7818609E-02  0.8213293E-01
       -2   -1    0    0    0  501  0.00000000000E+00  0.00000000000E+00  0.17405899326E+04  0.17405899326E+04  0.25500000920E-02 0.  1.
        2   -1    0    0  501    0  0.00000000000E+00  0.00000000000E+00 -0.13882362052E+04  0.13882362052E+04  0.25500000920E-02 0. -1.
    10030    2    1    2    0    0  0.00000000000E+00  0.00000000000E+00  0.35235372739E+03  0.31288261378E+04  0.31089226190E+04 0.  0.
        4    1    3    3  502    0 -0.30926911975E+03  0.83220790442E+02  0.17070249833E+04  0.17368100054E+04  0.12699999809E+01 0.  1.
       -4    1    3    3    0  502  0.30926911975E+03 -0.83220790442E+02 -0.13546712559E+04  0.13920161324E+04  0.12699999809E+01 0. -1.
</event>
<event>
 5   0  0.7079223E-06  0.2943995E+04  0.7818609E-02  0.8259907E-01
        2   -1    0    0  501    0  0.00000000000E+00  0.00000000000E+00  0.22353228401E+04  0.22353228401E+04  0.25500000920E-02 0.  1.
       -2   -1    0    0    0  501  0.00000000000E+00  0.00000000000E+00 -0.96933529768E+03  0.96933529768E+03  0.25500000920E-02 0. -1.
    10030    2    1    2    0    0  0.00000000000E+00  0.00000000000E+00  0.12659875425E+04  0.32046581378E+04  0.29439954692E+04 0.  0.
        5    1    3    3  502    0  0.62171478362E+03  0.13185826941E+02 -0.81932157730E+03  0.10285976255E+04  0.46999998093E+01 0. -1.
       -5    1    3    3    0  502 -0.62171478362E+03 -0.13185826941E+02  0.20853091198E+04  0.21760605123E+04  0.46999998093E+01 0.  1.
</event>
<event>
 5   0  0.7094341E-06  0.2999263E+04  0.7818609E-02  0.8243941E-01
        2   -1    0    0  501    0  0.00000000000E+00  0.00000000000E+00  0.23856705134E+04  0.23856705134E+04  0.25500000920E-02 0. -1.
       -2   -1    0    0    0  501  0.00000000000E+00  0.00000000000E+00 -0.94266783589E+03  0.94266783589E+03  0.25500000920E-02 0.  1.
    10030    2    1    2    0    0  0.00000000000E+00  0.00000000000E+00  0.14430026775E+04  0.33283383493E+04  0.29992631495E+04 0.  0.
        3    1    3    3  502    0  0.94599419209E+03  0.31938546790E+03 -0.52018548307E+03  0.11258352613E+04  0.10100000352E+00 0.  1.
       -3    1    3    3    0  502 -0.94599419209E+03 -0.31938546790E+03  0.19631881606E+04  0.22025030880E+04  0.10100000352E+00 0. -1.
</event>
<event>
 5   0  0.2624011E-06  0.1923170E+04  0.7818609E-02  0.8643408E-01
        1   -1    0    0  501    0  0.00000000000E+00  0.00000000000E+00  0.10879886956E+04  0.10879886956E+04  0.50400001928E-02 0. -1.
       -1   -1    0    0    0  501  0.00000000000E+00  0.00000000000E+00 -0.84986743227E+03  0.84986743229E+03  0.50400001928E-02 0.  1.
    10030    2    1    2    0    0  0.00000000000E+00  0.00000000000E+00  0.23812126328E+03  0.19378561279E+04  0.19231704647E+04 0.  0.
        1    1    3    3  502    0 -0.63000489032E+03 -0.52965974221E+03 -0.38192869145E+03  0.90736714163E+03  0.50400001928E-02 0.  1.
       -1    1    3    3    0  502  0.63000489032E+03  0.52965974221E+03  0.62004995473E+03  0.10304889862E+04  0.50400001928E-02 0. -1.
</event>
<event>
 5   0  0.2598987E-06  0.3548947E+04  0.7818609E-02  0.8102287E-01
        1   -1    0    0  501    0  0.00000000000E+00  0.00000000000E+00  0.18736588604E+04  0.18736588605E+04  0.50400001928E-02 0.  1.
       -1   -1    0    0    0  501  0.00000000000E+00  0.00000000000E+00 -0.16805386065E+04  0.16805386065E+04  0.50400001928E-02 0. -1.
    10030    2    1    2    0    0  0.00000000000E+00  0.00000000000E+00  0.19312025394E+03  0.35541974670E+04  0.35489469145E+04 0.  0.
        2    1    3    3  502    0 -0.11330158606E+04 -0.10378349364E+04  0.98552745649E+03  0.18254015073E+04  0.25500000920E-02 0.  1.
       -2    1    3    3    0  502  0.11330158606E+04  0.10378349364E+04 -0.79240720255E+03  0.17287959596E+04  0.25500000920E-02 0. -1.
</event>
<event>
 5   0  0.2598987E-06  0.3129017E+04  0.7818609E-02  0.8207819E-01
       -1   -1    0    0    0  501  0.00000000000E+00  0.00000000000E+00  0.12186020894E+04  0.12186020894E+04  0.50400001928E-02 0.  1.
        1   -1    0    0  501    0  0.00000000000E+00  0.00000000000E+00 -0.20086020433E+04  0.20086020433E+04  0.50400001928E-02 0. -1.
    10030    2    1    2    0    0  0.00000000000E+00  0.00000000000E+00 -0.78999995387E+03  0.32272041327E+04  0.31290168723E+04 0.  0.
        2    1    3    3  502    0  0.12400368238E+04  0.26781762734E+03 -0.13393005333E+04  0.18447611022E+04  0.25500000920E-02 0. -1.
       -2    1    3    3    0  502 -0.12400368238E+04 -0.26781762734E+03  0.54930057939E+03  0.13824430304E+04  0.25500000920E-02 0.  1.
</event>
<event>
 5   0  0.7414808E-06  0.3091506E+04  0.7818609E-02  0.8218073E-01
       -2   -1    0    0    0  501  0.00000000000E+00  0.00000000000E+00  0.12276958819E+04  0.12276958819E+04  0.25500000920E-02 0.  1.
        2   -1    0    0  501    0  0.00000000000E+00  0.00000000000E+00 -0.19462090006E+04  0.19462090006E+04  0.25500000920E-02 0. -1.
    10030    2    1    2    0    0  0.00000000000E+00  0.00000000000E+00 -0.71851311862E+03  0.31739048825E+04  0.30915062836E+04 0.  0.
        2    1    3    3  502    0 -0.75831662227E+03 -0.12506267817E+04 -0.87283087070E+03  0.17032161271E+04  0.25500000920E-02 0.  1.
       -2    1    3    3    0  502  0.75831662227E+03  0.12506267817E+04  0.15431775208E+03  0.14706887554E+04  0.25500000920E-02 0. -1.
</event>
<event>
 5   0  0.7363513E-06  0.2257393E+04  0.7818609E-02  0.8494912E-01
        2   -1    0    0  501    0  0.00000000000E+00  0.00000000000E+00  0.25452976578E+04  0.25452976578E+04  0.25500000920E-02 0.  1.
       -2   -1    0    0    0  501  0.00000000000E+00  0.00000000000E+00 -0.50051349789E+03  0.50051349790E+03  0.25500000920E-02 0. -1.
    10030    2    1    2    0    0  0.00000000000E+00  0.00000000000E+00  0.20447841599E+04  0.30458111557E+04  0.22573930397E+04 0.  0.
        4    1    3    3  502    0  0.59077933140E+03 -0.47169153496E+03  0.21532310023E+04  0.22820864324E+04  0.12699999809E+01 0.  1.
       -4    1    3    3    0  502 -0.59077933140E+03  0.47169153496E+03 -0.10844684238E+03  0.76372472336E+03  0.12699999809E+01 0. -1.
</event>
<event>
 5   0  0.7079223E-06  0.3089154E+04  0.7818609E-02  0.8218721E-01
       -2   -1    0    0    0  501  0.00000000000E+00  0.00000000000E+00  0.11511917441E+04  0.11511917441E+04  0.25500000920E-02 0. -1.
        2   -1    0    0  501    0  0.00000000000E+00  0.00000000000E+00 -0.20723895139E+04  0.20723895139E+04  0.25500000920E-02 0.  1.
    10030    2    1    2    0    0  0.00000000000E+00  0.00000000000E+00 -0.92119776981E+03  0.32235812579E+04  0.30891537345E+04 0.  0.
        5    1    3    3  502    0  0.12158417222E+04 -0.78491588106E+03 -0.10238380923E+04  0.17727466155E+04  0.46999998093E+01 0.  1.
       -5    1    3    3    0  502 -0.12158417222E+04  0.78491588106E+03  0.10264032247E+03  0.14508346424E+04  0.46999998093E+01 0. -1.
</event>
<event>
 5   0  0.2612331E-06  0.3087309E+04  0.7818609E-02  0.8219230E-01
       -1   -1    0    0    0  501  0.00000000000E+00  0.00000000000E+00  0.89087593100E+03  0.89087593101E+03  0.50400001928E-02 0.  1.
        1   -1    0    0  501    0  0.00000000000E+00  0.00000000000E+00 -0.26747482530E+04  0.26747482530E+04  0.50400001928E-02 0. -1.
    10030    2    1    2    0    0  0.00000000000E+00  0.00000000000E+00 -0.17838723220E+04  0.35656241840E+04  0.30873087569E+04 0.  0.
        4    1    3    3  502    0 -0.13051622106E+04 -0.59192371986E+02  0.57578280589E+02  0.13077725353E+04  0.12699999809E+01 0.  1.
       -4    1    3    3    0  502  0.13051622106E+04  0.59192371986E+02 -0.18414506026E+04  0.22578516487E+04  0.12699999809E+01 0. -1.
</event>
<event>
 5   0  0.2612331E-06  0.3266432E+04  0.7818609E-02  0.8171490E-01
        1   -1    0    0  501    0  0.00000000000E+00  0.00000000000E+00  0.16946214738E+04  0.16946214738E+04  0.50400001928E-02 0.  1.
       -1   -1    0    0    0  501  0.00000000000E+00  0.00000000000E+00 -0.15740355346E+04  0.15740355346E+04  0.50400001928E-02 0. -1.
    10030    2    1    2    0    0  0.00000000000E+00  0.00000000000E+00  0.12058593921E+03  0.32686570084E+04  0.32664319479E+04 0.  0.
        4    1    3    3  502    0  0.11680618378E+04  0.79189099842E+03 -0.76241851410E+03  0.16039773732E+04  0.12699999809E+01 0. -1.
       -4    1    3    3    0  502 -0.11680618378E+04 -0.79189099842E+03  0.88300445331E+03  0.16646796352E+04  0.12699999809E+01 0.  1.
</event>
<event>
 5   0  0.7414808E-06  0.3146310E+04  0.7818609E-02  0.8203142E-01
        2   -1    0    0  501    0  0.00000000000E+00  0.00000000000E+00  0.24732178196E+04  0.24732178196E+04  0.25500000920E-02 0.  1.
       -2   -1    0    0    0  501  0.00000000000E+00  0.00000000000E+00 -0.10006462087E+04  0.10006462087E+04  0.25500000920E-02 0. -1.
    10030    2    1    2    0    0  0.00000000000E+00  0.00000000000E+00  0.14725716109E+04  0.34738640283E+04  0.31463096062E+04 0.  0.
        2    1    3    3  502    0 -0.85473437035E+03 -0.84553322533E+03 -0.38389029479E+03  0.12620891559E+04  0.25500000920E-02 0. -1.
       -2    1    3    3    0  502  0.85473437035E+03  0.84553322533E+03  0.18564619057E+04  0.22117748724E+04  0.25500000920E-02 0.  1.
</event>
<event>
 5   0  0.7071012E-06  0.3133050E+04  0.7818609E-02  0.8206726E-01
       -2   -1    0    0    0  501  0.00000000000E+00  0.00000000000E+00  0.89771460289E+03  0.89771460289E+03  0.25500000920E-02 0. -1.
        2   -1    0    0  501    0  0.00000000000E+00  0.00000000000E+00 -0.27336092983E+04  0.27336092983E+04  0.25500000920E-02 0.  1.
    10030    2    1    2    0    0  0.00000000000E+00  0.00000000000E+00 -0.18358946954E+04  0.36313239012E+04  0.31330502618E+04 0.  0.
        1    1    3    3  502    0 -0.89340749940E+03  0.77670319202E+03  0.27115782480E+03  0.12144839951E+04  0.50400001928E-02 0. -1.
       -1    1    3    3    0  502  0.89340749940E+03 -0.77670319202E+03 -0.21070525202E+04  0.24168399060E+04  0.50400001928E-02 0.  1.
</event>
<event>
 5   0  0.7071012E-06  0.3089443E+04  0.7818609E-02  0.8218641E-01
        2   -1    0    0  501    0  0.00000000000E+00  0.00000000000E+00  0.17951037846E+04  0.17951037847E+04  0.25500000920E-02 0. -1.
       -2   -1    0    0    0  501  0.00000000000E+00  0.00000000000E+00 -0.13292629755E+04  0.13292629755E+04  0.25500000920E-02 0.  1.
    10030    2    1    2    0    0  0.00000000000E+00  0.00000000000E+00  0.46584080918E+03  0.31243667601E+04  0.30894433143E+04 0.  0.
        1    1    3    3  502    0 -0.11170912548E+04  0.93688233158E+03 -0.28326453886E+03  0.14852205808E+04  0.50400001928E-02 0.  1.
       -1    1    3    3    0  502  0.11170912548E+04 -0.93688233158E+03  0.74910534804E+03  0.16391461793E+04  0.50400001928E-02 0. -1.
</event>
<event>
 5   0  0.2598987E-06  0.2009546E+04  0.7818609E-02  0.8602171E-01
        1   -1    0    0  501    0  0.00000000000E+00  0.00000000000E+00  0.11280617553E+04  0.11280617553E+04  0.50400001928E-02 0. -1.
       -1   -1    0    0    0  501  0.00000000000E+00  0.00000000000E+00 -0.89495877173E+03  0.89495877175E+03  0.50400001928E-02 0.  1.
    10030    2    1    2    0    0  0.00000000000E+00  0.00000000000E+00  0.23310298359E+03  0.20230205271E+04  0.20095459816E+04 0.  0.
        2    1    3    3  502    0  0.28010650107E+03  0.30572976375E+03 -0.80481122969E+03  0.90534604204E+03  0.25500000920E-02 0.  1.
       -2    1    3    3    0  502 -0.28010650107E+03 -0.30572976375E+03  0.10379142133E+04  0.11176744850E+04  0.25500000920E-02 0. -1.
</event>
<event>
 5   0  0.7079223E-06  0.3128328E+04  0.7818609E-02  0.8208006E-01
       -2   -1    0    0    0  501  0.00000000000E+00  0.00000000000E+00  0.12315004272E+04  0.12315004272E+04  0.25500000920E-02 0. -1.
        2   -1    0    0  501    0  0.00000000000E+00  0.00000000000E+00 -0.19866893105E+04  0.19866893105E+04  0.25500000920E-02 0.  1.
    10030    2    1    2    0    0  0.00000000000E+00  0.00000000000E+00 -0.75518888334E+03  0.32181897377E+04  0.31283278182E+04 0.  0.
        5    1    3    3  502    0 -0.13272590766E+04  0.81651245788E+03 -0.51667183083E+03  0.16417311354E+04  0.46999998093E+01 0.  1.
       -5    1    3    3    0  502  0.13272590766E+04 -0.81651245788E+03 -0.23851705251E+03  0.15764586022E+04  0.46999998093E+01 0. -1.
</event>
<event>
 5   0  0.2612331E-06  0.2809885E+04  0.7818609E-02  0.8300206E-01
       -1   -1    0    0    0  501  0.00000000000E+00  0.00000000000E+00  0.24320997928E+04  0.24320997928E+04  0.50400001928E-02 0.  1.
        1   -1    0    0  501    0  0.00000000000E+00  0.00000000000E+00 -0.81158797538E+03  0.81158797540E+03  0.50400001928E-02 0. -1.
    10030    2    1    2    0    0  0.00000000000E+00  0.00000000000E+00  0.16205118174E+04  0.32436877682E+04  0.28098846573E+04 0.  0.
        4    1    3    3  502    0 -0.11563917725E+04  0.31767420786E+03  0.16551696762E+04  0.20439537919E+04  0.12699999809E+01 0.  1.
       -4    1    3    3    0  502  0.11563917725E+04 -0.31767420786E+03 -0.34657858751E+02  0.11997339763E+04  0.12699999809E+01 0. -1.
</event>
<event>
 5   0  0.2624011E-06  0.3094348E+04  0.7818609E-02  0.8217291E-01
       -1   -1    0    0    0  501  0.00000000000E+00  0.00000000000E+00  0.24832477331E+04  0.24832477331E+04  0.50400001928E-02 0.  1.
        1   -1    0    0  501    0  0.00000000000E+00  0.00000000000E+00 -0.96395864210E+03  0.96395864211E+03  0.50400001928E-02 0. -1.
    10030    2    1    2    0    0  0.00000000000E+00  0.00000000000E+00  0.15192890910E+04  0.34472063752E+04  0.30943484696E+04 0.  0.
        1    1    3    3  502    0 -0.49640694811E+03  0.16208591274E+03 -0.86281610890E+03  0.10085352443E+04  0.50400001928E-02 0. -1.
       -1    1    3    3    0  502  0.49640694811E+03 -0.16208591274E+03  0.23821051999E+04  0.24386711309E+04  0.50400001928E-02 0.  1.
</event>
<event>
 5   0  0.2624011E-06  0.3314512E+04  0.7818609E-02  0.8159213E-01
        1   -1    0    0  501    0  0.00000000000E+00  0.00000000000E+00  0.20593724287E+04  0.20593724287E+04  0.50400001928E-02 0.  1.
       -1   -1    0    0    0  501  0.00000000000E+00  0.00000000000E+00 -0.13336571722E+04  0.13336571722E+04  0.50400001928E-02 0. -1.
    10030    2    1    2    0    0  0.00000000000E+00  0.00000000000E+00  0.72571525652E+03  0.33930296009E+04  0.33145116140E+04 0.  0.
        1    1    3    3  502    0 -0.29837841574E+03 -0.14189323890E+04 -0.45871144158E+03  0.15207941972E+04  0.50400001928E-02 0. -1.
       -1    1    3    3    0  502  0.29837841574E+03  0.14189323890E+04  0.11844266981E+04  0.18722354037E+04  0.50400001928E-02 0.  1.
</event>
<event>
 5   0  0.2598987E-06  0.3090390E+04  0.7818609E-02  0.8218380E-01
       -1   -1    0    0    0  501  0.00000000000E+00  0.00000000000E+00  0.14882030656E+04  0.14882030656E+04  0.50400001928E-02 0.  1.
        1   -1    0    0  501    0  0.00000000000E+00  0.00000000000E+00 -0.16043697278E+04  0.16043697278E+04  0.50400001928E-02 0. -1.
    10030    2    1    2    0    0  0.00000000000E+00  0.00000000000E+00 -0.11616666220E+03  0.30925727935E+04  0.30903902326E+04 0.  0.
        2    1    3    3  502    0  0.48123264452E+03 -0.12556725150E+04  0.70359127546E+03  0.15176755272E+04  0.25500000920E-02 0.  1.
       -2    1    3    3    0  502 -0.48123264452E+03  0.12556725150E+04 -0.81975793766E+03  0.15748972663E+04  0.25500000920E-02 0. -1.
</event>
<event>
 5   0  0.2624011E-06  0.3060806E+04  0.7818609E-02  0.8226577E-01
       -1   -1    0    0    0  501  0.00000000000E+00  0.00000000000E+00  0.81083095866E+03  0.81083095867E+03  0.50400001928E-02 0. -1.
        1   -1    0    0  501    0  0.00000000000E+00  0.00000000000E+00 -0.28885589894E+04  0.28885589894E+04  0.50400001928E-02 0.  1.
    10030    2    1    2    0    0  0.00000000000E+00  0.00000000000E+00 -0.20777280308E+04  0.36993899481E+04  0.30608058119E+04 0.  0.
        1    1    3    3  502    0  0.12803165284E+04  0.29094472033E+03 -0.88511430230E+02  0.13159382647E+04  0.50400001928E-02 0. -1.
       -1    1    3    3    0  502 -0.12803165284E+04 -0.29094472033E+03 -0.19892166005E+04  0.23834516834E+04  0.50400001928E-02 0.  1.
</event>
<event>
 5   0  0.7094341E-06  0.2513680E+04  0.7818609E-02  0.8398128E-01
        2   -1    0    0  501    0  0.00000000000E+00  0.00000000000E+00  0.16317010877E+04  0.16317010877E+04  0.25500000920E-02 0. -1.
       -2   -1    0    0    0  501  0.00000000000E+00  0.00000000000E+00 -0.96809849730E+03  0.96809849730E+03  0.25500000920E-02 0.  1.
    10030    2    1    2    0    0  0.00000000000E+00  0.00000000000E+00  0.66360259043E+03  0.25997995850E+04  0.25136804658E+04 0.  0.
        3    1    3    3  502    0 -0.10097397108E+04 -0.44390683779E+03  0.95495467453E+03  0.14589605906E+04  0.10100000352E+00 0. -1.
       -3    1    3    3    0  502  0.10097397108E+04  0.44390683779E+03 -0.29135208410E+03  0.11408389945E+04  0.10100000352E+00 0.  1.
</event>
<event>
 5   0  0.2517725E-06  0.2814852E+04  0.7818609E-02  0.8298672E-01
        1   -1    0    0  501    0  0.00000000000E+00  0.00000000000E+00  0.18869104901E+04  0.18869104901E+04  0.50400001928E-02 0. -1.
       -1   -1    0    0    0  501  0.00000000000E+00  0.00000000000E+00 -0.10497838398E+04  0.10497838398E+04  0.50400001928E-02 0.  1.
    10030    2    1    2    0    0  0.00000000000E+00  0.00000000000E+00  0.83712665030E+03  0.29366943299E+04  0.28148521380E+04 0.  0.
        3    1    3    3  502    0  0.68145993382E+03 -0.74239505111E+03  0.14435933289E+04  0.17605396226E+04  0.10100000352E+00 0. -1.
       -3    1    3    3    0  502 -0.68145993382E+03  0.74239505111E+03 -0.60646667855E+03  0.11761547074E+04  0.10100000352E+00 0.  1.
</event>
<event>
 5   0  0.7363513E-06  0.3076127E+04  0.7818609E-02  0.8222320E-01
        2   -1    0    0  501    0  0.00000000000E+00  0.00000000000E+00  0.16789302665E+04  0.16789302665E+04  0.25500000920E-02 0.  1.
       -2   -1    0    0    0  501  0.00000000000E+00  0.00000000000E+00 -0.14090155816E+04  0.14090155816E+04  0.25500000920E-02 0. -1.
    10030    2    1    2    0    0  0.00000000000E+00  0.00000000000E+00  0.26991468492E+03  0.30879458481E+04  0.30761267242E+04 0.  0.
        4    1    3    3  502    0  0.13220089332E+04 -0.19586341949E+03 -0.62926081203E+03  0.14771732739E+04  0.12699999809E+01 0. -1.
       -4    1    3    3    0  502 -0.13220089332E+04  0.19586341949E+03  0.89917549695E+03  0.16107725742E+04  0.12699999809E+01 0.  1.
</event>
<event>
 5   0  0.7094341E-06  0.3153887E+04  0.7818609E-02  0.8201103E-01
       -2   -1    0    0    0  501  0.00000000000E+00  0.00000000000E+00  0.91165506816E+03  0.91165506816E+03  0.25500000920E-02 0. -1.
        2   -1    0    0  501    0  0.00000000000E+00  0.00000000000E+00 -0.27277326830E+04  0.27277326830E+04  0.25500000920E-02 0.  1.
    10030    2    1    2    0    0  0.00000000000E+00  0.00000000000E+00 -0.18160776148E+04  0.36393877511E+04  0.31538873315E+04 0.  0.
        3    1    3    3  502    0  0.13368536977E+03  0.12769335957E+04 -0.19645816235E+04  0.23469154548E+04  0.10100000352E+00 0.  1.
       -3    1    3    3    0  502 -0.13368536977E+03 -0.12769335957E+04  0.14850400874E+03  0.12924722964E+04  0.10100000352E+00 0. -1.
</event>
<event>
 5   0  0.7414808E-06  0.3129455E+04  0.7818609E-02  0.8207700E-01
        2   -1    0    0  501    0  0.00000000000E+00  0.00000000000E+00  0.18524241154E+04  0.18524241154E+04  0.25500000920E-02 0.  1.
       -2   -1    0    0    0  501  0.00000000000E+00  0.00000000000E+00 -0.13217124428E+04  0.13217124428E+04  0.25500000920E-02 0. -1.
    10030    2    1    2    0    0  0.00000000000E+00  0.00000000000E+00  0.53071167263E+03  0.31741365581E+04  0.31294549062E+04 0.  0.
        2    1    3    3  502    0 -0.64081590477E+03  0.12969398209E+04  0.87025504633E+03  0.16882066723E+04  0.25500000920E-02 0.  1.
       -2    1    3    3    0  502  0.64081590477E+03 -0.12969398209E+04 -0.33954337370E+03  0.14859298858E+04  0.25500000920E-02 0. -1.
</event>
<event>
 5   0  0.2674441E-06  0.2363044E+04  0.7818609E-02  0.8453471E-01
        1   -1    0    0  501    0  0.00000000000E+00  0.00000000000E+00  0.12124949031E+04  0.12124949031E+04  0.50400001928E-02 0.  1.
       -1   -1    0    0    0  501  0.00000000000E+00  0.00000000000E+00 -0.11513398167E+04  0.11513398167E+04  0.50400001928E-02 0. -1.
    10030    2    1    2    0    0  0.00000000000E+00  0.00000000000E+00  0.61155086357E+02  0.23638347198E+04  0.23630435117E+04 0.  0.
        5    1    3    3  502    0  0.53712750377E+03 -0.91217967284E+03 -0.49437798593E+03  0.11683361647E+04  0.46999998093E+01 0. -1.
       -5    1    3    3    0  502 -0.53712750377E+03  0.91217967284E+03  0.55553307229E+03  0.11954985551E+04  0.46999998093E+01 0.  1.
</event>
<event>
 5   0  0.2624011E-06  0.3080635E+04  0.7818609E-02  0.8221073E-01
       -1   -1    0    0    0  501  0.00000000000E+00  0.00000000000E+00  0.14186039749E+04  0.14186039749E+04  0.50400001928E-02 0.  1.
        1   -1    0    0  501    0  0.00000000000E+00  0.00000000000E+00 -0.16724739509E+04  0.16724739509E+04  0.50400001928E-02 0. -1.
    10030    2    1    2    0    0  0.00000000000E+00  0.00000000000E+00 -0.25386997597E+03  0.30910779258E+04  0.30806351259E+04 0.  0.
        1    1    3    3  502    0  0.13769070689E+04 -0.66764580808E+03  0.49599448367E+02  0.15310402042E+04  0.50400001928E-02 0. -1.
       -1    1    3    3    0  502 -0.13769070689E+04  0.66764580808E+03 -0.30346942434E+03  0.15600377217E+04  0.50400001928E-02 0.  1.
</event>
<event>
 5   0  0.7071012E-06  0.2832356E+04  0.7818609E-02  0.8293293E-01
        2   -1    0    0  501    0  0.00000000000E+00  0.00000000000E+00  0.32235658321E+04  0.32235658321E+04  0.25500000920E-02 0.  1.
       -2   -1    0    0    0  501  0.00000000000E+00  0.00000000000E+00 -0.62215597652E+03  0.62215597653E+03  0.25500000920E-02 0. -1.
    10030    2    1    2    0    0  0.00000000000E+00  0.00000000000E+00  0.26014098555E+04  0.38457218086E+04  0.28323564381E+04 0.  0.
        1    1    3    3  502    0  0.19033119286E+03  0.10819165736E+04  0.25142240534E+04  0.27437368725E+04  0.50400001928E-02 0.  1.
       -1    1    3    3    0  502 -0.19033119286E+03 -0.10819165736E+04  0.87185802188E+02  0.11019849361E+04  0.50400001928E-02 0. -1.
</event>
<event>
 5   0  0.7363513E-06  0.3091918E+04  0.7818609E-02  0.8217959E-01
        2   -1    0    0  501    0  0.00000000000E+00  0.00000000000E+00  0.11792999220E+04  0.11792999220E+04  0.25500000920E-02 0. -1.
       -2   -1    0    0    0  501  0.00000000000E+00  0.00000000000E+00 -0.20266175460E+04  0.20266175460E+04  0.25500000920E-02 0.  1.
    10030    2    1    2    0    0  0.00000000000E+00  0.00000000000E+00 -0.84731762403E+03  0.32059174680E+04  0.30919184426E+04 0.  0.
        4    1    3    3  502    0 -0.37861047853E+02  0.50227626133E+03  0.10918299647E+04  0.12024180581E+04  0.12699999809E+01 0. -1.
       -4    1    3    3    0  502  0.37861047853E+02 -0.50227626133E+03 -0.19391475887E+04  0.20034994099E+04  0.12699999809E+01 0.  1.
</event>
<event>
 5   0  0.7079223E-06  0.3044872E+04  0.7818609E-02  0.8231032E-01
        2   -1    0    0  501    0  0.00000000000E+00  0.00000000000E+00  0.19233070830E+04  0.19233070830E+04  0.25500000920E-02 0. -1.
       -2   -1    0    0    0  501  0.00000000000E+00  0.00000000000E+00 -0.12051179486E+04  0.12051179486E+04  0.25500000920E-02 0.  1.
    10030    2    1    2    0    0  0.00000000000E+00  0.00000000000E+00  0.71818913445E+03  0.31284250317E+04  0.30448723365E+04 0.  0.
        5    1    3    3  502    0  0.89036885674E+03 -0.83917004538E+03 -0.57176123272E+03  0.13505169615E+04  0.46999998093E+01 0.  1.
       -5    1    3    3    0  502 -0.89036885674E+03  0.83917004538E+03  0.12899503672E+04  0.17779080701E+04  0.46999998093E+01 0. -1.
</event>
<event>
 5   0  0.7094341E-06  0.3076956E+04  0.7818609E-02  0.8222091E-01
        2   -1    0    0  501    0  0.00000000000E+00  0.00000000000E+00  0.16831314212E+04  0.16831314212E+04  0.25500000920E-02 0.  1.
       -2   -1    0    0    0  501  0.00000000000E+00  0.00000000000E+00 -0.14062568890E+04  0.14062568890E+04  0.25500000920E-02 0. -1.
    10030    2    1    2    0    0  0.00000000000E+00  0.00000000000E+00  0.27687453215E+03  0.30893883102E+04  0.30769563898E+04 0.  0.
        3    1    3    3  502    0 -0.97870481111E+03 -0.84834401097E+03  0.97207162936E+03  0.16194054252E+04  0.10100000352E+00 0.  1.
       -3    1    3    3    0  502  0.97870481111E+03  0.84834401097E+03 -0.69519709720E+03  0.14699828851E+04  0.10100000352E+00 0. -1.
</event>
<event>
 5   0  0.7363513E-06  0.2232173E+04  0.7818609E-02  0.8505155E-01
       -2   -1    0    0    0  501  0.00000000000E+00  0.00000000000E+00  0.14407593847E+04  0.14407593847E+04  0.25500000920E-02 0. -1.
        2   -1    0    0  501    0  0.00000000000E+00  0.00000000000E+00 -0.86457831700E+03  0.86457831700E+03  0.25500000920E-02 0.  1.
    10030    2    1    2    0    0  0.00000000000E+00  0.00000000000E+00  0.57618106773E+03  0.23053377017E+04  0.22321732227E+04 0.  0.
        4    1    3    3  502    0  0.63385395855E+03  0.27687168262E+03 -0.61652974081E+03  0.92657396014E+03  0.12699999809E+01 0.  1.
       -4    1    3    3    0  502 -0.63385395855E+03 -0.27687168262E+03  0.11927108085E+04  0.13787637416E+04  0.12699999809E+01 0. -1.
</event>
<event>
 5   0  0.2674441E-06  0.3144457E+04  0.7818609E-02  0.8203642E-01
       -1   -1    0    0    0  501  0.00000000000E+00  0.00000000000E+00  0.10517488100E+04  0.10517488100E+04  0.50400001928E-02 0.  1.
        1   -1    0    0  501    0  0.00000000000E+00  0.00000000000E+00 -0.23502786897E+04  0.23502786897E+04  0.50400001928E-02 0. -1.
    10030    2    1    2    0    0  0.00000000000E+00  0.00000000000E+00 -0.12985298797E+04  0.34020274997E+04  0.31444572282E+04 0.  0.
        5    1    3    3  502    0 -0.25215520377E+03  0.13623823222E+04 -0.14532452202E+04  0.20078873471E+04  0.46999998093E+01 0. -1.
       -5    1    3    3    0  502  0.25215520377E+03 -0.13623823222E+04  0.15471534047E+03  0.13941401526E+04  0.46999998093E+01 0.  1.
</event>
<event>
 5   0  0.2598987E-06  0.3092058E+04  0.7818609E-02  0.8217921E-01
        1   -1    0    0  501    0  0.00000000000E+00  0.00000000000E+00  0.11948383509E+04  0.11948383509E+04  0.50400001928E-02 0. -1.
       -1   -1    0    0    0  501  0.00000000000E+00  0.00000000000E+00 -0.20004428538E+04  0.20004428538E+04  0.50400001928E-02 0.  1.
    10030    2    1    2    0    0  0.00000000000E+00  0.00000000000E+00 -0.80560450294E+03  0.31952812047E+04  0.30920581111E+04 0.  0.
        2    1    3    3  502    0  0.10549129280E+04 -0.11287818390E+04 -0.46140624415E+03  0.16124160282E+04  0.25500000920E-02 0. -1.
       -2    1    3    3    0  502 -0.10549129280E+04  0.11287818390E+04 -0.34419825879E+03  0.15828651766E+04  0.25500000920E-02 0.  1.
</event>
<event>
 5   0  0.7363513E-06  0.3061508E+04  0.7818609E-02  0.8226382E-01
        2   -1    0    0  501    0  0.00000000000E+00  0.00000000000E+00  0.74629257864E+03  0.74629257864E+03  0.25500000920E-02 0.  1.
       -2   -1    0    0    0  501  0.00000000000E+00  0.00000000000E+00 -0.31397983644E+04  0.31397983644E+04  0.25500000920E-02 0. -1.
    10030    2    1    2    0    0  0.00000000000E+00  0.00000000000E+00 -0.23935057858E+04  0.38860909431E+04  0.30615082674E+04 0.  0.
        4    1    3    3  502    0  0.11682693976E+03  0.76081097591E+03 -0.28762778300E+04  0.29774918376E+04  0.12699999809E+01 0. -1.
       -4    1    3    3    0  502 -0.11682693976E+03 -0.76081097591E+03  0.48277204418E+03  0.90859910547E+03  0.12699999809E+01 0.  1.
</event>
<event>
 5   0  0.7094341E-06  0.3167057E+04  0.7818609E-02  0.8197572E-01
        2   -1    0    0  501    0  0.00000000000E+00  0.00000000000E+00  0.16023383666E+04  0.16023383666E+04  0.25500000920E-02 0. -1.
       -2   -1    0    0    0  501  0.00000000000E+00  0.00000000000E+00 -0.15649396327E+04  0.15649396327E+04  0.25500000920E-02 0.  1.
    10030    2    1    2    0    0  0.00000000000E+00  0.00000000000E+00  0.37398733953E+02  0.31672779993E+04  0.31670571923E+04 0.  0.
        3    1    3    3  502    0 -0.35483417748E+03  0.18772312448E+03 -0.15132088336E+04  0.15655504620E+04  0.10100000352E+00 0.  1.
       -3    1    3    3    0  502  0.35483417748E+03 -0.18772312448E+03  0.15506075675E+04  0.16017275373E+04  0.10100000352E+00 0. -1.
</event>
<event>
 5   0  0.2674441E-06  0.3087743E+04  0.7818609E-02  0.8219110E-01
        1   -1    0    0  501    0  0.00000000000E+00  0.00000000000E+00  0.17177687003E+04  0.17177687003E+04  0.50400001928E-02 0.  1.
       -1   -1    0    0    0  501  0.00000000000E+00  0.00000000000E+00 -0.13875782502E+04  0.13875782502E+04  0.50400001928E-02 0. -1.
    10030    2    1    2    0    0  0.00000000000E+00  0.00000000000E+00  0.33019045007E+03  0.31053469505E+04  0.30877425329E+04 0.  0.
        5    1    3    3  502    0  0.58331872538E+03  0.52900295413E+02  0.16016850841E+04  0.17054255702E+04  0.46999998093E+01 0.  1.
       -5    1    3    3    0  502 -0.58331872538E+03 -0.52900295413E+02 -0.12714946341E+04  0.13999213803E+04  0.46999998093E+01 0. -1.
</event>
<event>
 5   0  0.7414808E-06  0.3105407E+04  0.7818609E-02  0.8214256E-01
        2   -1    0    0  501    0  0.00000000000E+00  0.00000000000E+00  0.77251336479E+03  0.77251336479E+03  0.25500000920E-02 0. -1.
       -2   -1    0    0    0  501  0.00000000000E+00  0.00000000000E+00 -0.31208369525E+04  0.31208369525E+04  0.25500000920E-02 0.  1.
    10030    2    1    2    0    0  0.00000000000E+00  0.00000000000E+00 -0.23483235877E+04  0.38933503173E+04  0.31054070620E+04 0.  0.
        2    1    3    3  502    0  0.93599377555E+03 -0.40150947772E+03 -0.26435418680E+04  0.28329503731E+04  0.25500000920E-02 0.  1.
       -2    1    3    3    0  502 -0.93599377555E+03  0.40150947772E+03  0.29521828031E+03  0.10603999442E+04  0.25500000920E-02 0. -1.
</event>
<event>
 5   0  0.7363513E-06  0.3113191E+04  0.7818609E-02  0.8212127E-01
        2   -1    0    0  501    0  0.00000000000E+00  0.00000000000E+00  0.24950012696E+04  0.24950012696E+04  0.25500000920E-02 0. -1.
       -2   -1    0    0    0  501  0.00000000000E+00  0.00000000000E+00 -0.97113789436E+03  0.97113789436E+03  0.25500000920E-02 0.  1.
    10030    2    1    2    0    0  0.00000000000E+00  0.00000000000E+00  0.15238633752E+04  0.34661391640E+04  0.31131914682E+04 0.  0.
        4    1    3    3  502    0 -0.77143913110E+02 -0.14969162439E+04  0.29447567437E+03  0.15275558780E+04  0.12699999809E+01 0.  1.
       -4    1    3    3    0  502  0.77143913110E+02  0.14969162439E+04  0.12293877009E+04  0.19385832860E+04  0.12699999809E+01 0. -1.
</event>
<event>
 5   0  0.2624011E-06  0.3184009E+04  0.7818609E-02  0.8193053E-01
        1   -1    0    0  501    0  0.00000000000E+00  0.00000000000E+00  0.14443872004E+04  0.14443872004E+04  0.50400001928E-02 0. -1.
       -1   -1    0    0    0  501  0.00000000000E+00  0.00000000000E+00 -0.17547083646E+04  0.17547083646E+04  0.50400001928E-02 0.  1.
    10030    2    1    2    0    0  0.00000000000E+00  0.00000000000E+00 -0.31032116422E+03  0.31990955651E+04  0.31840089839E+04 0.  0.
        1    1    3    3  502    0  0.12111782188E+04 -0.65149714321E+02  0.88088051825E+03  0.14990489153E+04  0.50400001928E-02 0. -1.
       -1    1    3    3    0  502 -0.12111782188E+04  0.65149714321E+02 -0.11912016825E+04  0.17000466498E+04  0.50400001928E-02 0.  1.
</event>
<event>
 5   0  0.7414808E-06  0.3126010E+04  0.7818609E-02  0.8208636E-01
        2   -1    0    0  501    0  0.00000000000E+00  0.00000000000E+00  0.18528064102E+04  0.18528064102E+04  0.25500000920E-02 0. -1.
       -2   -1    0    0    0  501  0.00000000000E+00  0.00000000000E+00 -0.13185323213E+04  0.13185323213E+04  0.25500000920E-02 0.  1.
    10030    2    1    2    0    0  0.00000000000E+00  0.00000000000E+00  0.53427408891E+03  0.31713387314E+04  0.31260103243E+04 0.  0.
        2    1    3    3  502    0  0.25609546590E+03  0.12006500129E+04  0.12485526924E+04  0.17510080430E+04  0.25500000920E-02 0. -1.
       -2    1    3    3    0  502 -0.25609546590E+03 -0.12006500129E+04 -0.71427860346E+03  0.14203306884E+04  0.25500000920E-02 0.  1.
</event>
<event>
 5   0  0.2674441E-06  0.2652179E+04  0.7818609E-02  0.8350690E-01
        1   -1    0    0  501    0  0.00000000000E+00  0.00000000000E+00  0.18061282413E+04  0.18061282413E+04  0.50400001928E-02 0. -1.
       -1   -1    0    0    0  501  0.00000000000E+00  0.00000000000E+00 -0.97363714333E+03  0.97363714335E+03  0.50400001928E-02 0.  1.
    10030    2    1    2    0    0  0.00000000000E+00  0.00000000000E+00  0.83249109798E+03  0.27797653847E+04  0.26521791353E+04 0.  0.
        5    1    3    3  502    0  0.57471437767E+03  0.28212202542E+02 -0.83596675955E+03  0.10148670146E+04  0.46999998093E+01 0.  1.
       -5    1    3    3    0  502 -0.57471437767E+03 -0.28212202542E+02  0.16684578575E+04  0.17648983701E+04  0.46999998093E+01 0. -1.
</event>
<event>
 5   0  0.2517725E-06  0.3188073E+04  0.7818609E-02  0.8191974E-01
        1   -1    0    0  501    0  0.00000000000E+00  0.00000000000E+00  0.15888578980E+04  0.15888578980E+04  0.50400001928E-02 0.  1.
       -1   -1    0    0    0  501  0.00000000000E+00  0.00000000000E+00 -0.15992317909E+04  0.15992317909E+04  0.50400001928E-02 0. -1.
    10030    2    1    2    0    0  0.00000000000E+00  0.00000000000E+00 -0.10373892863E+02  0.31880896890E+04  0.31880728108E+04 0.  0.
        3    1    3    3  502    0 -0.49442853391E+03 -0.46960868361E+03  0.14356399487E+04  0.15893564620E+04  0.10100000352E+00 0.  1.
       -3    1    3    3    0  502  0.49442853391E+03  0.46960868361E+03 -0.14460138415E+04  0.15987332270E+04  0.10100000352E+00 0. -1.
</event>
<event>
 5   0  0.7079223E-06  0.3063729E+04  0.7818609E-02  0.8225763E-01
        2   -1    0    0  501    0  0.00000000000E+00  0.00000000000E+00  0.11445645464E+04  0.11445645464E+04  0.25500000920E-02 0.  1.
       -2   -1    0    0    0  501  0.00000000000E+00  0.00000000000E+00 -0.20502199145E+04  0.20502199145E+04  0.25500000920E-02 0. -1.
    10030    2    1    2    0    0  0.00000000000E+00  0.00000000000E+00 -0.90565536806E+03  0.31947844609E+04  0.30637291176E+04 0.  0.
        5    1    3    3  502    0 -0.14661605536E+02  0.54012341846E+03  0.10418891570E+04  0.11736708973E+04  0.46999998093E+01 0.  1.
       -5    1    3    3    0  502  0.14661605536E+02 -0.54012341846E+03 -0.19475445250E+04  0.20211135636E+04  0.46999998093E+01 0. -1.
</event>
<event>
 5   0  0.2674441E-06  0.3127190E+04  0.7818609E-02  0.8208315E-01
       -1   -1    0    0    0  501  0.00000000000E+00  0.00000000000E+00  0.91634282514E+03  0.91634282515E+03  0.50400001928E-02 0.  1.
        1   -1    0    0  501    0  0.00000000000E+00  0.00000000000E+00 -0.26680294058E+04  0.26680294058E+04  0.50400001928E-02 0. -1.
    10030    2    1    2    0    0  0.00000000000E+00  0.00000000000E+00 -0.17516865807E+04  0.35843722310E+04  0.31271901786E+04 0.  0.
        5    1    3    3  502    0  0.73098641311E+03  0.13646298996E+03  0.70068401805E+03  0.10217355171E+04  0.46999998093E+01 0.  1.
       -5    1    3    3    0  502 -0.73098641311E+03 -0.13646298996E+03 -0.24523705987E+04  0.25626367139E+04  0.46999998093E+01 0. -1.
</event>
<event>
 5   0  0.7094341E-06  0.3025878E+04  0.7818609E-02  0.8236380E-01
       -2   -1    0    0    0  501  0.00000000000E+00  0.00000000000E+00  0.14091206235E+04  0.14091206235E+04  0.25500000920E-02 0.  1.
        2   -1    0    0  501    0  0.00000000000E+00  0.00000000000E+00 -0.16244067031E+04  0.16244067031E+04  0.25500000920E-02 0. -1.
    10030    2    1    2    0    0  0.00000000000E+00  0.00000000000E+00 -0.21528607955E+03  0.30335273266E+04  0.30258783758E+04 0.  0.
        3    1    3    3  502    0  0.86421137709E+03 -0.11035164791E+04  0.46333600049E+03  0.14762419123E+04  0.10100000352E+00 0. -1.
       -3    1    3    3    0  502 -0.86421137709E+03  0.11035164791E+04 -0.67862208004E+03  0.15572854143E+04  0.10100000352E+00 0.  1.
</event>
<event>
 5   0  0.2624011E-06  0.3019182E+04  0.7818609E-02  0.8238274E-01
       -1   -1    0    0    0  501  0.00000000000E+00  0.00000000000E+00  0.12098698060E+04  0.12098698060E+04  0.50400001928E-02 0. -1.
        1   -1    0    0  501    0  0.00000000000E+00  0.00000000000E+00 -0.18835622667E+04  0.18835622668E+04  0.50400001928E-02 0.  1.
    10030    2    1    2    0    0  0.00000000000E+00  0.00000000000E+00 -0.67369246072E+03  0.30934320728E+04  0.30191820842E+04 0.  0.
        1    1    3    3  502    0  0.95883887514E+03 -0.10353419539E+04  0.21258790741E+03  0.14270594131E+04  0.50400001928E-02 0. -1.
       -1    1    3    3    0  502 -0.95883887514E+03  0.10353419539E+04 -0.88628036813E+03  0.16663726597E+04  0.50400001928E-02 0.  1.
</event>
<event>
 5   0  0.2517725E-06  0.3087837E+04  0.7818609E-02  0.8219084E-01
        1   -1    0    0  501    0  0.00000000000E+00  0.00000000000E+00  0.22312849326E+04  0.22312849326E+04  0.50400001928E-02 0. -1.
       -1   -1    0    0    0  501  0.00000000000E+00  0.00000000000E+00 -0.10683010300E+04  0.10683010300E+04  0.50400001928E-02 0.  1.
    10030    2    1    2    0    0  0.00000000000E+00  0.00000000000E+00  0.11629839026E+04  0.32995859626E+04  0.30878367779E+04 0.  0.
        3    1    3    3  502    0 -0.21119409877E+03 -0.13105909788E+04  0.14238602806E+04  0.19466971439E+04  0.10100000352E+00 0. -1.
       -3    1    3    3    0  502  0.21119409877E+03  0.13105909788E+04 -0.26087637794E+03  0.13528888188E+04  0.10100000352E+00 0.  1.
</event>
<event>
 5   0  0.7094341E-06  0.3087194E+04  0.7818609E-02  0.8219261E-01
        2   -1    0    0  501    0  0.00000000000E+00  0.00000000000E+00  0.13924303451E+04  0.13924303451E+04  0.25500000920E-02 0. -1.
       -2   -1    0    0    0  501  0.00000000000E+00  0.00000000000E+00 -0.17111746983E+04  0.17111746983E+04  0.25500000920E-02 0.  1.
    10030    2    1    2    0    0  0.00000000000E+00  0.00000000000E+00 -0.31874435318E+03  0.31036050435E+04  0.30871939206E+04 0.  0.
        3    1    3    3  502    0  0.14447283830E+04  0.51126416197E+03 -0.34490790275E+03  0.15708572868E+04  0.10100000352E+00 0.  1.
       -3    1    3    3    0  502 -0.14447283830E+04 -0.51126416197E+03  0.26163549576E+02  0.15327477566E+04  0.10100000352E+00 0. -1.
</event>
<event>
 5   0  0.7079223E-06  0.2925875E+04  0.7818609E-02  0.8265220E-01
        2   -1    0    0  501    0  0.00000000000E+00  0.00000000000E+00  0.21608246016E+04  0.21608246016E+04  0.25500000920E-02 0. -1.
       -2   -1    0    0    0  501  0.00000000000E+00  0.00000000000E+00 -0.99044877939E+03  0.99044877940E+03  0.25500000920E-02 0.  1.
    10030    2    1    2    0    0  0.00000000000E+00  0.00000000000E+00  0.11703758222E+04  0.31512733810E+04  0.29258749728E+04 0.  0.
        5    1    3    3  502    0 -0.23145646288E+03 -0.11134584634E+04 -0.40592080206E+03  0.12075411511E+04  0.46999998093E+01 0.  1.
       -5    1    3    3    0  502  0.23145646288E+03  0.11134584634E+04  0.15762966242E+04  0.19437322299E+04  0.46999998093E+01 0. -1.
</event>
<event>
 5   0  0.7079223E-06  0.2024924E+04  0.7818609E-02  0.8595056E-01
       -2   -1    0    0    0  501  0.00000000000E+00  0.00000000000E+00  0.21532013708E+04  0.21532013708E+04  0.25500000920E-02 0. -1.
        2   -1    0    0  501    0  0.00000000000E+00  0.00000000000E+00 -0.47607197850E+03  0.47607197851E+03  0.25500000920E-02 0.  1.
    10030    2    1    2    0    0  0.00000000000E+00  0.00000000000E+00  0.16771293923E+04  0.26292733493E+04  0.20249235410E+04 0.  0.
        5    1    3    3  502    0 -0.88497157112E+03 -0.38269427694E+03  0.43745505668E+03  0.10587816621E+04  0.46999998093E+01 0.  1.
       -5    1    3    3    0  502  0.88497157112E+03  0.38269427694E+03  0.12396743356E+04  0.15704916872E+04  0.46999998093E+01 0. -1.
</event>
<event>
 5   0  0.2612331E-06  0.3079099E+04  0.7818609E-02  0.8221497E-01
        1   -1    0    0  501    0  0.00000000000E+00  0.00000000000E+00  0.20151847499E+04  0.20151847499E+04  0.50400001928E-02 0.  1.
       -1   -1    0    0    0  501  0.00000000000E+00  0.00000000000E+00 -0.11761764128E+04  0.11761764128E+04  0.50400001928E-02 0. -1.
    10030    2    1    2    0    0  0.00000000000E+00  0.00000000000E+00  0.83900833712E+03  0.31913611627E+04  0.30790990698E+04 0.  0.
        4    1    3    3  502    0  0.18259055815E+03  0.10799636549E+04 -0.70186172432E+03  0.13008736682E+04  0.12699999809E+01 0. -1.
       -4    1    3    3    0  502 -0.18259055815E+03 -0.10799636549E+04  0.15408700614E+04  0.18904874945E+04  0.12699999809E+01 0.  1.
</event>
<event>
 5   0  0.2674441E-06  0.3094697E+04  0.7818609E-02  0.8217195E-01
        1   -1    0    0  501    0  0.00000000000E+00  0.00000000000E+00  0.16771663521E+04  0.16771663521E+04  0.50400001928E-02 0. -1.
       -1   -1    0    0    0  501  0.00000000000E+00  0.00000000000E+00 -0.14275790507E+04  0.14275790507E+04  0.50400001928E-02 0.  1.
    10030    2    1    2    0    0  0.00000000000E+00  0.00000000000E+00  0.24958730132E+03  0.31047454028E+04  0.30946971088E+04 0.  0.
        5    1    3    3  502    0 -0.81637190041E+03 -0.70390864337E+03 -0.98890760952E+03  0.14628433984E+04  0.46999998093E+01 0.  1.
       -5    1    3    3    0  502  0.81637190041E+03  0.70390864337E+03  0.12384949108E+04  0.16419020044E+04  0.46999998093E+01 0. -1.
</event>
<event>
 5   0  0.2612331E-06  0.3016404E+04  0.7818609E-02  0.8239062E-01
       -1   -1    0    0    0  501  0.00000000000E+00  0.00000000000E+00  0.11312393638E+04  0.11312393638E+04  0.50400001928E-02 0.  1.
        1   -1    0    0  501    0  0.00000000000E+00  0.00000000000E+00 -0.20107793633E+04  0.20107793633E+04  0.50400001928E-02 0. -1.
    10030    2    1    2    0    0  0.00000000000E+00  0.00000000000E+00 -0.87953999944E+03  0.31420187271E+04  0.30164036651E+04 0.  0.
        4    1    3    3  502    0 -0.49559910107E+03 -0.90236521953E+03 -0.15878439402E+04  0.18923877641E+04  0.12699999809E+01 0. -1.
       -4    1    3    3    0  502  0.49559910107E+03  0.90236521953E+03  0.70830394072E+03  0.12496309630E+04  0.12699999809E+01 0.  1.
</event>
<event>
 5   0  0.2517725E-06  0.2949857E+04  0.7818609E-02  0.8258196E-01
        1   -1    0    0  501    0  0.00000000000E+00  0.00000000000E+00  0.85957726109E+03  0.85957726110E+03  0.50400001928E-02 0.  1.
       -1   -1    0    0    0  501  0.00000000000E+00  0.00000000000E+00 -0.25307945342E+04  0.25307945342E+04  0.50400001928E-02 0. -1.
    10030    2    1    2    0    0  0.00000000000E+00  0.00000000000E+00 -0.16712172731E+04  0.33903717953E+04  0.29498565620E+04 0.  0.
        3    1    3    3  502    0 -0.21757317929E+03 -0.45792026161E+03  0.75628571351E+03  0.91049280338E+03  0.10100000352E+00 0.  1.
       -3    1    3    3    0  502  0.21757317929E+03  0.45792026161E+03 -0.24275029866E+04  0.24798789919E+04  0.10100000352E+00 0. -1.
</event>
<event>
 5   0  0.2612331E-06  0.3114783E+04  0.7818609E-02  0.8211693E-01
        1   -1    0    0  501    0  0.00000000000E+00  0.00000000000E+00  0.17364998959E+04  0.17364998959E+04  0.50400001928E-02 0.  1.
       -1   -1    0    0    0  501  0.00000000000E+00  0.00000000000E+00 -0.13967568791E+04  0.13967568791E+04  0.50400001928E-02 0. -1.
    10030    2    1    2    0    0  0.00000000000E+00  0.00000000000E+00  0.33974301679E+03  0.31332567750E+04  0.31147829300E+04 0.  0.
        4    1    3    3  502    0 -0.63958714620E+03 -0.91551543010E+03  0.12617707530E+04  0.16850244112E+04  0.12699999809E+01 0.  1.
       -4    1    3    3    0  502  0.63958714620E+03  0.91551543010E+03 -0.92202773622E+03  0.14482323638E+04  0.12699999809E+01 0. -1.
</event>
<event>
 5   0  0.7094341E-06  0.2189137E+04  0.7818609E-02  0.8522963E-01
        2   -1    0    0  501    0  0.00000000000E+00  0.00000000000E+00  0.14573692340E+04  0.14573692340E+04  0.25500000920E-02 0. -1.
       -2   -1    0    0    0  501  0.00000000000E+00  0.00000000000E+00 -0.82208437515E+03  0.82208437516E+03  0.25500000920E-02 0.  1.
    10030    2    1    2    0    0  0.00000000000E+00  0.00000000000E+00  0.63528485885E+03  0.22794536092E+04  0.21891372512E+04 0.  0.
        3    1    3    3  502    0  0.63749962030E+03  0.25036011050E+03  0.12066795550E+04  0.13875018953E+04  0.10100000352E+00 0. -1.
       -3    1    3    3    0  502 -0.63749962030E+03 -0.25036011050E+03 -0.57139469617E+03  0.89195171384E+03  0.10100000352E+00 0.  1.
</event>
<event>
 5   0  0.7079223E-06  0.3119493E+04  0.7818609E-02  0.8210409E-01
       -2   -1    0    0    0  501  0.00000000000E+00  0.00000000000E+00  0.10652026045E+04  0.10652026045E+04  0.25500000920E-02 0.  1.
        2   -1    0    0  501    0  0.00000000000E+00  0.00000000000E+00 -0.22838926244E+04  0.22838926244E+04  0.25500000920E-02 0. -1.
    10030    2    1    2    0    0  0.00000000000E+00  0.00000000000E+00 -0.12186900198E+04  0.33490952289E+04  0.31194925048E+04 0.  0.
        5    1    3    3  502    0 -0.27123236697E+03 -0.74882819717E+03  0.83043396422E+03  0.11506317068E+04  0.46999998093E+01 0.  1.
       -5    1    3    3    0  502  0.27123236697E+03  0.74882819717E+03 -0.20491239841E+04  0.21984635221E+04  0.46999998093E+01 0. -1.
</event>
<event>
 5   0  0.7079223E-06  0.2488249E+04  0.7818609E-02  0.8407184E-01
        2   -1    0    0  501    0  0.00000000000E+00  0.00000000000E+00  0.13622919472E+04  0.13622919472E+04  0.25500000920E-02 0.  1.
       -2   -1    0    0    0  501  0.00000000000E+00  0.00000000000E+00 -0.11362067913E+04  0.11362067913E+04  0.25500000920E-02 0. -1.
    10030    2    1    2    0    0  0.00000000000E+00  0.00000000000E+00  0.22608515589E+03  0.24984987385E+04  0.24882486710E+04 0.  0.
        5    1    3    3  502    0  0.11666406388E+03 -0.65629057605E+03  0.11678438060E+04  0.13446966458E+04  0.46999998093E+01 0.  1.
       -5    1    3    3    0  502 -0.11666406388E+03  0.65629057605E+03 -0.94175865016E+03  0.11538020927E+04  0.46999998093E+01 0. -1.
</event>
<event>
 5   0  0.2624011E-06  0.3033137E+04  0.7818609E-02  0.8234331E-01
       -1   -1    0    0    0  501  0.00000000000E+00  0.00000000000E+00  0.73281656503E+03  0.73281656505E+03  0.50400001928E-02 0.  1.
        1   -1    0    0  501    0  0.00000000000E+00  0.00000000000E+00 -0.31385484148E+04  0.31385484148E+04  0.50400001928E-02 0. -1.
    10030    2    1    2    0    0  0.00000000000E+00  0.00000000000E+00 -0.24057318497E+04  0.38713649798E+04  0.30331371670E+04 0.  0.
        1    1    3    3  502    0 -0.14425826811E+04 -0.15865806332E+03 -0.17646993827E+04  0.22848153283E+04  0.50400001928E-02 0.  1.
       -1    1    3    3    0  502  0.14425826811E+04  0.15865806332E+03 -0.64103246702E+03  0.15865496515E+04  0.50400001928E-02 0. -1.
</event>
<event>
 5   0  0.7071012E-06  0.2965469E+04  0.7818609E-02  0.8253661E-01
       -2   -1    0    0    0  501  0.00000000000E+00  0.00000000000E+00  0.22723158269E+04  0.22723158269E+04  0.25500000920E-02 0. -1.
        2   -1    0    0  501    0  0.00000000000E+00  0.00000000000E+00 -0.96751571545E+03  0.96751571545E+03  0.25500000920E-02 0.  1.
    10030    2    1    2    0    0  0.00000000000E+00  0.00000000000E+00  0.13048001115E+04  0.32398315424E+04  0.29654687812E+04 0.  0.
        1    1    3    3  502    0  0.52412716488E+03 -0.35360249868E+03 -0.81286216747E+03  0.10298004250E+04  0.50400001928E-02 0.  1.
       -1    1    3    3    0  502 -0.52412716488E+03  0.35360249868E+03  0.21176622790E+04  0.22100311174E+04  0.50400001928E-02 0. -1.
</event>
<event>
 5   0  0.7071012E-06  0.3084812E+04  0.7818609E-02  0.8219919E-01
        2   -1    0    0  501    0  0.00000000000E+00  0.00000000000E+00  0.22809316211E+04  0.22809316211E+04  0.25500000920E-02 0. -1.
       -2   -1    0    0    0  501  0.00000000000E+00  0.00000000000E+00 -0.10430019885E+04  0.10430019885E+04  0.25500000920E-02 0.  1.
    10030    2    1    2    0    0  0.00000000000E+00  0.00000000000E+00  0.12379296327E+04  0.33239336096E+04  0.30848119660E+04 0.  0.
        1    1    3    3  502    0 -0.49663200513E+03  0.47290615107E+03 -0.86969749726E+03  0.11075456257E+04  0.50400001928E-02 0.  1.
       -1    1    3    3    0  502  0.49663200513E+03 -0.47290615107E+03  0.21076271299E+04  0.22163879839E+04  0.50400001928E-02 0. -1.
</event>
<event>
 5   0  0.2517725E-06  0.3029338E+04  0.7818609E-02  0.8235403E-01
       -1   -1    0    0    0  501  0.00000000000E+00  0.00000000000E+00  0.88385252886E+03  0.88385252888E+03  0.50400001928E-02 0. -1.
        1   -1    0    0  501    0  0.00000000000E+00  0.00000000000E+00 -0.25957064990E+04  0.25957064990E+04  0.50400001928E-02 0.  1.
    10030    2    1    2    0    0  0.00000000000E+00  0.00000000000E+00 -0.17118539702E+04  0.34795590279E+04  0.30293377186E+04 0.  0.
        3    1    3    3  502    0 -0.14370135539E+04  0.20578321614E+03 -0.35939996260E+03  0.14955009292E+04  0.10100000352E+00 0. -1.
       -3    1    3    3    0  502  0.14370135539E+04 -0.20578321614E+03 -0.13524540075E+04  0.19840580986E+04  0.10100000352E+00 0.  1.
</event>
<event>
 5   0  0.7363513E-06  0.3095948E+04  0.7818609E-02  0.8216851E-01
        2   -1    0    0  501    0  0.00000000000E+00  0.00000000000E+00  0.18663056662E+04  0.18663056662E+04  0.25500000920E-02 0. -1.
       -2   -1    0    0    0  501  0.00000000000E+00  0.00000000000E+00 -0.12839390702E+04  0.12839390702E+04  0.25500000920E-02 0.  1.
    10030    2    1    2    0    0  0.00000000000E+00  0.00000000000E+00  0.58236659598E+03  0.31502447364E+04  0.30959475200E+04 0.  0.
        4    1    3    3  502    0  0.51842051825E+03 -0.14548479051E+04  0.39731446958E+03  0.15947421928E+04  0.12699999809E+01 0. -1.
       -4    1    3    3    0  502 -0.51842051825E+03  0.14548479051E+04  0.18505212640E+03  0.15555025436E+04  0.12699999809E+01 0.  1.
</event>
<event>
 5   0  0.2598987E-06  0.3094918E+04  0.7818609E-02  0.8217134E-01
       -1   -1    0    0    0  501  0.00000000000E+00  0.00000000000E+00  0.22667459648E+04  0.22667459648E+04  0.50400001928E-02 0. -1.
        1   -1    0    0  501    0  0.00000000000E+00  0.00000000000E+00 -0.10564172219E+04  0.10564172219E+04  0.50400001928E-02 0.  1.
    10030    2    1    2    0    0  0.00000000000E+00  0.00000000000E+00  0.12103287430E+04  0.33231631867E+04  0.30949180764E+04 0.  0.
        2    1    3    3  502    0 -0.50952820633E+03 -0.13463824526E+04 -0.43850566915E+01  0.14395776917E+04  0.25500000920E-02 0.  1.
       -2    1    3    3    0  502  0.50952820633E+03  0.13463824526E+04  0.12147137997E+04  0.18835854950E+04  0.25500000920E-02 0. -1.
</event>
<event>
 5   0  0.7414808E-06  0.3169781E+04  0.7818609E-02  0.8196844E-01
       -2   -1    0    0    0  501  0.00000000000E+00  0.00000000000E+00  0.10687718399E+04  0.10687718399E+04  0.25500000920E-02 0.  1.
        2   -1    0    0  501    0  0.00000000000E+00  0.00000000000E+00 -0.23502469285E+04  0.23502469285E+04  0.25500000920E-02 0. -1.
    10030    2    1    2    0    0  0.00000000000E+00  0.00000000000E+00 -0.12814750886E+04  0.34190187684E+04  0.31697808971E+04 0.  0.
        2    1    3    3  502    0 -0.73259868968E+03 -0.15900920775E+03  0.86544505971E+03  0.11449803141E+04  0.25500000920E-02 0.  1.
       -2    1    3    3    0  502  0.73259868968E+03  0.15900920775E+03 -0.21469201483E+04  0.22740384543E+04  0.25500000920E-02 0. -1.
</event>
<event>
 5   0  0.2624011E-06  0.2819887E+04  0.7818609E-02  0.8297121E-01
       -1   -1    0    0    0  501  0.00000000000E+00  0.00000000000E+00  0.10740554313E+04  0.10740554313E+04  0.50400001928E-02 0. -1.
        1   -1    0    0  501    0  0.00000000000E+00  0.00000000000E+00 -0.18508739404E+04  0.18508739404E+04  0.50400001928E-02 0.  1.
    10030    2    1    2    0    0  0.00000000000E+00  0.00000000000E+00 -0.77681850913E+03  0.29249293717E+04  0.28198873795E+04 0.  0.
        1    1    3    3  502    0  0.45922459410E+03 -0.23237706161E+03 -0.17499579396E+04  0.18240721249E+04  0.50400001928E-02 0.  1.
       -1    1    3    3    0  502 -0.45922459410E+03  0.23237706161E+03  0.97313943044E+03  0.11008572467E+04  0.50400001928E-02 0. -1.
</event>
<event>
 5   0  0.7414808E-06  0.3424884E+04  0.7818609E-02  0.8131826E-01
       -2   -1    0    0    0  501  0.00000000000E+00  0.00000000000E+00  0.21971401905E+04  0.21971401905E+04  0.25500000920E-02 0. -1.
        2   -1    0    0  501    0  0.00000000000E+00  0.00000000000E+00 -0.13346704972E+04  0.13346704972E+04  0.25500000920E-02 0.  1.
    10030    2    1    2    0    0  0.00000000000E+00  0.00000000000E+00  0.86246969321E+03  0.35318106877E+04  0.34248843429E+04 0.  0.
        2    1    3    3  502    0 -0.80206548619E+03 -0.89473381189E+03 -0.82693882872E+03  0.14586587897E+04  0.25500000920E-02 0.  1.
       -2    1    3    3    0  502  0.80206548619E+03  0.89473381189E+03  0.16894085219E+04  0.20731518980E+04  0.25500000920E-02 0. -1.
</event>
<event>
 5   0  0.7079223E-06  0.3056531E+04  0.7818609E-02  0.8227770E-01
       -2   -1    0    0    0  501  0.00000000000E+00  0.00000000000E+00  0.99993757000E+03  0.99993757000E+03  0.25500000920E-02 0.  1.
        2   -1    0    0  501    0  0.00000000000E+00  0.00000000000E+00 -0.23357417409E+04  0.23357417409E+04  0.25500000920E-02 0. -1.
    10030    2    1    2    0    0  0.00000000000E+00  0.00000000000E+00 -0.13358041709E+04  0.33356793109E+04  0.30565313154E+04 0.  0.
        5    1    3    3  502    0  0.41296133613E+03 -0.47240888338E+03 -0.21886776963E+04  0.22768485603E+04  0.46999998093E+01 0. -1.
       -5    1    3    3    0  502 -0.41296133613E+03  0.47240888338E+03  0.85287352536E+03  0.10588307506E+04  0.46999998093E+01 0.  1.
</event>
<event>
 5   0  0.7079223E-06  0.2589563E+04  0.7818609E-02  0.8371755E-01
        2   -1    0    0  501    0  0.00000000000E+00  0.00000000000E+00  0.12633777196E+04  0.12633777196E+04  0.25500000920E-02 0. -1.
       -2   -1    0    0    0  501  0.00000000000E+00  0.00000000000E+00 -0.13269657353E+04  0.13269657353E+04  0.25500000920E-02 0.  1.
    10030    2    1    2    0    0  0.00000000000E+00  0.00000000000E+00 -0.63588015634E+02  0.25903434549E+04  0.25895628548E+04 0.  0.
        5    1    3    3  502    0 -0.12611396855E+04 -0.17819241764E+03  0.20110875798E+03  0.12894544066E+04  0.46999998093E+01 0.  1.
       -5    1    3    3    0  502  0.12611396855E+04  0.17819241764E+03 -0.26469677361E+03  0.13008890483E+04  0.46999998093E+01 0. -1.
</event>
<event>
 5   0  0.7079223E-06  0.3026006E+04  0.7818609E-02  0.8236344E-01
        2   -1    0    0  501    0  0.00000000000E+00  0.00000000000E+00  0.14078458443E+04  0.14078458443E+04  0.25500000920E-02 0. -1.
       -2   -1    0    0    0  501  0.00000000000E+00  0.00000000000E+00 -0.16260142754E+04  0.16260142754E+04  0.25500000920E-02 0.  1.
    10030    2    1    2    0    0  0.00000000000E+00  0.00000000000E+00 -0.21816843116E+03  0.30338601197E+04  0.30260055786E+04 0.  0.
        5    1    3    3  502    0 -0.78488516253E+02 -0.48237941299E+02  0.14050238180E+04  0.14080487795E+04  0.46999998093E+01 0. -1.
       -5    1    3    3    0  502  0.78488516253E+02  0.48237941299E+02 -0.16231922492E+04  0.16258113402E+04  0.46999998093E+01 0.  1.
</event>
<event>
 5   0  0.2624011E-06  0.3123661E+04  0.7818609E-02  0.8209274E-01
       -1   -1    0    0    0  501  0.00000000000E+00  0.00000000000E+00  0.20769343577E+04  0.20769343577E+04  0.50400001928E-02 0.  1.
        1   -1    0    0  501    0  0.00000000000E+00  0.00000000000E+00 -0.11744786074E+04  0.11744786075E+04  0.50400001928E-02 0. -1.
    10030    2    1    2    0    0  0.00000000000E+00  0.00000000000E+00  0.90245575022E+03  0.32514129651E+04  0.31236612955E+04 0.  0.
        1    1    3    3  502    0 -0.46120201273E+03  0.12417410548E+04 -0.41007160176E+03  0.13866459037E+04  0.50400001928E-02 0. -1.
       -1    1    3    3    0  502  0.46120201273E+03 -0.12417410548E+04  0.13125273520E+04  0.18647670614E+04  0.50400001928E-02 0.  1.
</event>
<event>
 5   0  0.2517725E-06  0.3105551E+04  0.7818609E-02  0.8214216E-01
        1   -1    0    0  501    0  0.00000000000E+00  0.00000000000E+00  0.13682070355E+04  0.13682070355E+04  0.50400001928E-02 0.  1.
       -1   -1    0    0    0  501  0.00000000000E+00  0.00000000000E+00 -0.17622415161E+04  0.17622415161E+04  0.50400001928E-02 0. -1.
    10030    2    1    2    0    0  0.00000000000E+00  0.00000000000E+00 -0.39403448066E+03  0.31304485516E+04  0.31055506697E+04 0.  0.
        3    1    3    3  502    0 -0.15780356472E+03  0.13399378916E+04  0.57776430432E+03  0.14677013047E+04  0.10100000352E+00 0.  1.
       -3    1    3    3    0  502  0.15780356472E+03 -0.13399378916E+04 -0.97179878498E+03  0.16627472469E+04  0.10100000352E+00 0. -1.
</event>
<event>
 5   0  0.2517725E-06  0.3024263E+04  0.7818609E-02  0.8236836E-01
        1   -1    0    0  501    0  0.00000000000E+00  0.00000000000E+00  0.16906026310E+04  0.16906026310E+04  0.50400001928E-02 0. -1.
       -1   -1    0    0    0  501  0.00000000000E+00  0.00000000000E+00 -0.13525009386E+04  0.13525009386E+04  0.50400001928E-02 0.  1.
    10030    2    1    2    0    0  0.00000000000E+00  0.00000000000E+00  0.33810169242E+03  0.30431035696E+04  0.30242629815E+04 0.  0.
        3    1    3    3  502    0  0.71363668073E+03  0.10985578636E+04  0.92902748169E+03  0.16059884071E+04  0.10100000352E+00 0. -1.
       -3    1    3    3    0  502 -0.71363668073E+03 -0.10985578636E+04 -0.59092578928E+03  0.14371151625E+04  0.10100000352E+00 0.  1.
</event>
<event>
 5   0  0.7071012E-06  0.3062083E+04  0.7818609E-02  0.8226222E-01
        2   -1    0    0  501    0  0.00000000000E+00  0.00000000000E+00  0.16867065923E+04  0.16867065923E+04  0.25500000920E-02 0. -1.
       -2   -1    0    0    0  501  0.00000000000E+00  0.00000000000E+00 -0.13897423519E+04  0.13897423519E+04  0.25500000920E-02 0.  1.
    10030    2    1    2    0    0  0.00000000000E+00  0.00000000000E+00  0.29696424042E+03  0.30764489441E+04  0.30620826811E+04 0.  0.
        1    1    3    3  502    0 -0.93648939993E+03  0.11999431965E+04 -0.17250945111E+02  0.15222265489E+04  0.50400001928E-02 0. -1.
       -1    1    3    3    0  502  0.93648939993E+03 -0.11999431965E+04  0.31421518553E+03  0.15542223952E+04  0.50400001928E-02 0.  1.
</event>
<event>
 5   0  0.2674441E-06  0.3057472E+04  0.7818609E-02  0.8227507E-01
        1   -1    0    0  501    0  0.00000000000E+00  0.00000000000E+00  0.30122795398E+04  0.30122795398E+04  0.50400001928E-02 0. -1.
       -1   -1    0    0    0  501  0.00000000000E+00  0.00000000000E+00 -0.77583568170E+03  0.77583568172E+03  0.50400001928E-02 0.  1.
    10030    2    1    2    0    0  0.00000000000E+00  0.00000000000E+00  0.22364438581E+04  0.37881152215E+04  0.30574721260E+04 0.  0.
        5    1    3    3  502    0 -0.12176136391E+04 -0.86814018525E+03  0.72493637312E+03  0.16618679823E+04  0.46999998093E+01 0.  1.
       -5    1    3    3    0  502  0.12176136391E+04  0.86814018525E+03  0.15115074850E+04  0.21262472393E+04  0.46999998093E+01 0. -1.
</event>
<event>
 5   0  0.7071012E-06  0.3118141E+04  0.7818609E-02  0.8210777E-01
       -2   -1    0    0    0  501  0.00000000000E+00  0.00000000000E+00  0.13011552444E+04  0.13011552444E+04  0.25500000920E-02 0. -1.
        2   -1    0    0  501    0  0.00000000000E+00  0.00000000000E+00 -0.18681094459E+04  0.18681094459E+04  0.25500000920E-02 0.  1.
    10030    2    1    2    0    0  0.00000000000E+00  0.00000000000E+00 -0.56695420152E+03  0.31692646902E+04  0.31181407297E+04 0.  0.
        1    1    3    3  502    0 -0.66416425301E+03  0.96749944352E+03  0.75976829059E+03  0.13980047152E+04  0.50400001928E-02 0. -1.
       -1    1    3    3    0  502  0.66416425301E+03 -0.96749944352E+03 -0.13267224921E+04  0.17712599751E+04  0.50400001928E-02 0.  1.
</event>
<event>
 5   0  0.7094341E-06  0.3024043E+04  0.7818609E-02  0.8236898E-01
        2   -1    0    0  501    0  0.00000000000E+00  0.00000000000E+00  0.17020046392E+04  0.17020046392E+04  0.25500000920E-02 0.  1.
       -2   -1    0    0    0  501  0.00000000000E+00  0.00000000000E+00 -0.13432448020E+04  0.13432448020E+04  0.25500000920E-02 0. -1.
    10030    2    1    2    0    0  0.00000000000E+00  0.00000000000E+00  0.35875983714E+03  0.30452494412E+04  0.30240429128E+04 0.  0.
        3    1    3    3  502    0 -0.43709583128E+03 -0.14076056176E+04 -0.16033208182E+03  0.14826033613E+04  0.10100000352E+00 0. -1.
       -3    1    3    3    0  502  0.43709583128E+03  0.14076056176E+04  0.51909191895E+03  0.15626460799E+04  0.10100000352E+00 0.  1.
</event>
<event>
 5   0  0.7414808E-06  0.3170061E+04  0.7818609E-02  0.8196769E-01
        2   -1    0    0  501    0  0.00000000000E+00  0.00000000000E+00  0.23414111003E+04  0.23414111003E+04  0.25500000920E-02 0.  1.
       -2   -1    0    0    0  501  0.00000000000E+00  0.00000000000E+00 -0.10729946689E+04  0.10729946689E+04  0.25500000920E-02 0. -1.
    10030    2    1    2    0    0  0.00000000000E+00  0.00000000000E+00  0.12684164313E+04  0.34144057692E+04  0.31700609637E+04 0.  0.
        2    1    3    3  502    0 -0.10187404133E+04 -0.11738348543E+04  0.29944396141E+03  0.15828414263E+04  0.25500000920E-02 0. -1.
       -2    1    3    3    0  502  0.10187404133E+04  0.11738348543E+04  0.96897246991E+03  0.18315643429E+04  0.25500000920E-02 0.  1.
</event>
<event>
 5   0  0.2598987E-06  0.3160740E+04  0.7818609E-02  0.8199263E-01
        1   -1    0    0  501    0  0.00000000000E+00  0.00000000000E+00  0.13191108813E+04  0.13191108813E+04  0.50400001928E-02 0.  1.
       -1   -1    0    0    0  501  0.00000000000E+00  0.00000000000E+00 -0.18933735417E+04  0.18933735417E+04  0.50400001928E-02 0. -1.
    10030    2    1    2    0    0  0.00000000000E+00  0.00000000000E+00 -0.57426266041E+03  0.32124844230E+04  0.31607401926E+04 0.  0.
        2    1    3    3  502    0  0.45442651536E+03 -0.10554623718E+04  0.81555634855E+03  0.14091261242E+04  0.25500000920E-02 0. -1.
       -2    1    3    3    0  502 -0.45442651536E+03  0.10554623718E+04 -0.13898190090E+04  0.18033582988E+04  0.25500000920E-02 0.  1.
</event>
<event>
 5   0  0.7079223E-06  0.3009912E+04  0.7818609E-02  0.8240906E-01
        2   -1    0    0  501    0  0.00000000000E+00  0.00000000000E+00  0.24226891294E+04  0.24226891294E+04  0.25500000920E-02 0. -1.
       -2   -1    0    0    0  501  0.00000000000E+00  0.00000000000E+00 -0.93486734661E+03  0.93486734662E+03  0.25500000920E-02 0.  1.
    10030    2    1    2    0    0  0.00000000000E+00  0.00000000000E+00  0.14878217827E+04  0.33575564760E+04  0.30099122632E+04 0.  0.
        5    1    3    3  502    0 -0.12962045582E+04  0.29884918318E+03  0.15290625093E+04  0.20266996172E+04  0.46999998093E+01 0. -1.
       -5    1    3    3    0  502  0.12962045582E+04 -0.29884918318E+03 -0.41240726515E+02  0.13308568588E+04  0.46999998093E+01 0.  1.
</event>
<event>
 5   0  0.2393250E-06  0.3088984E+04  0.7818609E-02  0.8218768E-01
        3   -1    0    0  501    0  0.00000000000E+00  0.00000000000E+00  0.10132442338E+04  0.10132442388E+04  0.10100000352E+00 0.  1.
       -3   -1    0    0    0  501  0.00000000000E+00  0.00000000000E+00 -0.23542753803E+04  0.23542753824E+04  0.10100000352E+00 0. -1.
    10030    2    1    2    0    0  0.00000000000E+00  0.00000000000E+00 -0.13410311465E+04  0.33675196213E+04  0.30889842770E+04 0.  0.
        4    1    3    3  502    0 -0.48668484608E+03  0.27441892636E+03  0.89921130077E+03  0.10586550254E+04  0.12699999809E+01 0.  1.
       -4    1    3    3    0  502  0.48668484608E+03 -0.27441892636E+03 -0.22402424473E+04  0.23088645958E+04  0.12699999809E+01 0. -1.
</event>
<event>
 5   0  0.7079223E-06  0.2999698E+04  0.7818609E-02  0.8243817E-01
        2   -1    0    0  501    0  0.00000000000E+00  0.00000000000E+00  0.21496764307E+04  0.21496764307E+04  0.25500000920E-02 0.  1.
       -2   -1    0    0    0  501  0.00000000000E+00  0.00000000000E+00 -0.10464585012E+04  0.10464585012E+04  0.25500000920E-02 0. -1.
    10030    2    1    2    0    0  0.00000000000E+00  0.00000000000E+00  0.11032179295E+04  0.31961349319E+04  0.29996981019E+04 0.  0.
        5    1    3    3  502    0 -0.45352816411E+03 -0.59081340596E+03  0.19386963234E+04  0.20768518967E+04  0.46999998093E+01 0.  1.
       -5    1    3    3    0  502  0.45352816411E+03  0.59081340596E+03 -0.83547839388E+03  0.11192830352E+04  0.46999998093E+01 0. -1.
</event>
<event>
 5   0  0.7071012E-06  0.3074141E+04  0.7818609E-02  0.8222871E-01
        2   -1    0    0  501    0  0.00000000000E+00  0.00000000000E+00  0.18431253008E+04  0.18431253008E+04  0.25500000920E-02 0. -1.
       -2   -1    0    0    0  501  0.00000000000E+00  0.00000000000E+00 -0.12818366618E+04  0.12818366618E+04  0.25500000920E-02 0.  1.
    10030    2    1    2    0    0  0.00000000000E+00  0.00000000000E+00  0.56128863903E+03  0.31249619626E+04  0.30741409095E+04 0.  0.
        1    1    3    3  502    0  0.12519380733E+04  0.79471824934E+03  0.69188080423E+03  0.16363450378E+04  0.50400001928E-02 0. -1.
       -1    1    3    3    0  502 -0.12519380733E+04 -0.79471824934E+03 -0.13059216521E+03  0.14886169249E+04  0.50400001928E-02 0.  1.
</event>
<event>
 5   0  0.7363513E-06  0.3068281E+04  0.7818609E-02  0.8224497E-01
        2   -1    0    0  501    0  0.00000000000E+00  0.00000000000E+00  0.18793113758E+04  0.18793113758E+04  0.25500000920E-02 0.  1.
       -2   -1    0    0    0  501  0.00000000000E+00  0.00000000000E+00 -0.12523670516E+04  0.12523670516E+04  0.25500000920E-02 0. -1.
    10030    2    1    2    0    0  0.00000000000E+00  0.00000000000E+00  0.62694432420E+03  0.31316784274E+04  0.30682813735E+04 0.  0.
        4    1    3    3  502    0 -0.62273781719E+03  0.51345678684E+03 -0.10181479698E+04  0.12992563882E+04  0.12699999809E+01 0. -1.
       -4    1    3    3    0  502  0.62273781719E+03 -0.51345678684E+03  0.16450922941E+04  0.18324220392E+04  0.12699999809E+01 0.  1.
</event>
<event>
 5   0  0.2598987E-06  0.2738282E+04  0.7818609E-02  0.8322690E-01
       -1   -1    0    0    0  501  0.00000000000E+00  0.00000000000E+00  0.10985407847E+04  0.10985407848E+04  0.50400001928E-02 0.  1.
        1   -1    0    0  501    0  0.00000000000E+00  0.00000000000E+00 -0.17063970926E+04  0.17063970926E+04  0.50400001928E-02 0. -1.
    10030    2    1    2    0    0  0.00000000000E+00  0.00000000000E+00 -0.60785630782E+03  0.28049378773E+04  0.27382817979E+04 0.  0.
        2    1    3    3  502    0  0.61661862252E+03  0.56334067559E+03  0.80736548828E+03  0.11616411985E+04  0.25500000920E-02 0.  1.
       -2    1    3    3    0  502 -0.61661862252E+03 -0.56334067559E+03 -0.14152217961E+04  0.16432966788E+04  0.25500000920E-02 0. -1.
</event>
<event>
 5   0  0.2598987E-06  0.2334610E+04  0.7818609E-02  0.8464399E-01
        1   -1    0    0  501    0  0.00000000000E+00  0.00000000000E+00  0.13031380757E+04  0.13031380757E+04  0.50400001928E-02 0. -1.
       -1   -1    0    0    0  501  0.00000000000E+00  0.00000000000E+00 -0.10456303238E+04  0.10456303238E+04  0.50400001928E-02 0.  1.
    10030    2    1    2    0    0  0.00000000000E+00  0.00000000000E+00  0.25750775188E+03  0.23487683995E+04  0.23346097645E+04 0.  0.
        2    1    3    3  502    0  0.88916409029E+03 -0.11540824955E+03  0.88072839382E+03  0.12568270952E+04  0.25500000920E-02 0. -1.
       -2    1    3    3    0  502 -0.88916409029E+03  0.11540824955E+03 -0.62322064195E+03  0.10919413043E+04  0.25500000920E-02 0.  1.
</event>
<event>
 5   0  0.7079223E-06  0.2766686E+04  0.7818609E-02  0.8313686E-01
       -2   -1    0    0    0  501  0.00000000000E+00  0.00000000000E+00  0.10860839410E+04  0.10860839410E+04  0.25500000920E-02 0.  1.
        2   -1    0    0  501    0  0.00000000000E+00  0.00000000000E+00 -0.17619616370E+04  0.17619616370E+04  0.25500000920E-02 0. -1.
    10030    2    1    2    0    0  0.00000000000E+00  0.00000000000E+00 -0.67587769602E+03  0.28480455781E+04  0.27666862769E+04 0.  0.
        5    1    3    3  502    0 -0.15989104945E+03  0.49570413280E+03  0.98128053151E+03  0.11109551325E+04  0.46999998093E+01 0.  1.
       -5    1    3    3    0  502  0.15989104945E+03 -0.49570413280E+03 -0.16571582275E+04  0.17370904456E+04  0.46999998093E+01 0. -1.
</event>
<event>
 5   0  0.7094341E-06  0.3098109E+04  0.7818609E-02  0.8216257E-01
        2   -1    0    0  501    0  0.00000000000E+00  0.00000000000E+00  0.13723515315E+04  0.13723515315E+04  0.25500000920E-02 0.  1.
       -2   -1    0    0    0  501  0.00000000000E+00  0.00000000000E+00 -0.17485097414E+04  0.17485097414E+04  0.25500000920E-02 0. -1.
    10030    2    1    2    0    0  0.00000000000E+00  0.00000000000E+00 -0.37615820982E+03  0.31208612729E+04  0.30981091146E+04 0.  0.
        3    1    3    3  502    0  0.14110806653E+03 -0.71826057385E+03  0.11871427951E+04  0.13946747881E+04  0.10100000352E+00 0.  1.
       -3    1    3    3    0  502 -0.14110806653E+03  0.71826057385E+03 -0.15633010049E+04  0.17261864848E+04  0.10100000352E+00 0. -1.
</event>
<event>
 5   0  0.2598987E-06  0.3161698E+04  0.7818609E-02  0.8199007E-01
        1   -1    0    0  501    0  0.00000000000E+00  0.00000000000E+00  0.16588435484E+04  0.16588435484E+04  0.50400001928E-02 0. -1.
       -1   -1    0    0    0  501  0.00000000000E+00  0.00000000000E+00 -0.15065211785E+04  0.15065211785E+04  0.50400001928E-02 0.  1.
    10030    2    1    2    0    0  0.00000000000E+00  0.00000000000E+00  0.15232236990E+03  0.31653647268E+04  0.31616976056E+04 0.  0.
        2    1    3    3  502    0  0.13340802709E+03 -0.14860628423E+04 -0.44684540005E+03  0.15575144572E+04  0.25500000920E-02 0. -1.
       -2    1    3    3    0  502 -0.13340802709E+03  0.14860628423E+04  0.59916776995E+03  0.16078502696E+04  0.25500000920E-02 0.  1.
</event>
<event>
 5   0  0.7363513E-06  0.2445203E+04  0.7818609E-02  0.8422771E-01
       -2   -1    0    0    0  501  0.00000000000E+00  0.00000000000E+00  0.87343932881E+03  0.87343932881E+03  0.25500000920E-02 0.  1.
        2   -1    0    0  501    0  0.00000000000E+00  0.00000000000E+00 -0.17113432342E+04  0.17113432342E+04  0.25500000920E-02 0. -1.
    10030    2    1    2    0    0  0.00000000000E+00  0.00000000000E+00 -0.83790390541E+03  0.25847825630E+04  0.24452030475E+04 0.  0.
        4    1    3    3  502    0  0.70151206860E+03 -0.49704418977E+03  0.49990844330E+03  0.99452610502E+03  0.12699999809E+01 0.  1.
       -4    1    3    3    0  502 -0.70151206860E+03  0.49704418977E+03 -0.13378123487E+04  0.15902564580E+04  0.12699999809E+01 0. -1.
</event>
<event>
 5   0  0.2612331E-06  0.3086637E+04  0.7818609E-02  0.8219415E-01
        1   -1    0    0  501    0  0.00000000000E+00  0.00000000000E+00  0.22104161971E+04  0.22104161972E+04  0.50400001928E-02 0. -1.
       -1   -1    0    0    0  501  0.00000000000E+00  0.00000000000E+00 -0.10775491240E+04  0.10775491240E+04  0.50400001928E-02 0.  1.
    10030    2    1    2    0    0  0.00000000000E+00  0.00000000000E+00  0.11328670731E+04  0.32879653212E+04  0.30866370289E+04 0.  0.
        4    1    3    3  502    0  0.52760625764E+03  0.80320527477E+03 -0.71994439469E+03  0.12007616836E+04  0.12699999809E+01 0.  1.
       -4    1    3    3    0  502 -0.52760625764E+03 -0.80320527477E+03  0.18528114678E+04  0.20872036376E+04  0.12699999809E+01 0. -1.
</event>
<event>
 5   0  0.2517725E-06  0.3107796E+04  0.7818609E-02  0.8213602E-01
       -1   -1    0    0    0  501  0.00000000000E+00  0.00000000000E+00  0.20122566134E+04  0.20122566134E+04  0.50400001928E-02 0. -1.
        1   -1    0    0  501    0  0.00000000000E+00  0.00000000000E+00 -0.11999455334E+04  0.11999455334E+04  0.50400001928E-02 0.  1.
    10030    2    1    2    0    0  0.00000000000E+00  0.00000000000E+00  0.81231108006E+03  0.32122021468E+04  0.31077955759E+04 0.  0.
        3    1    3    3  502    0  0.35698316832E+03  0.10965858740E+04 -0.67030320199E+03  0.13338830363E+04  0.10100000352E+00 0.  1.
       -3    1    3    3    0  502 -0.35698316832E+03 -0.10965858740E+04  0.14826142820E+04  0.18783191106E+04  0.10100000352E+00 0. -1.
</event>
<event>
 5   0  0.7071012E-06  0.3186492E+04  0.7818609E-02  0.8192394E-01
       -2   -1    0    0    0  501  0.00000000000E+00  0.00000000000E+00  0.26212692088E+04  0.26212692088E+04  0.25500000920E-02 0.  1.
        2   -1    0    0  501    0  0.00000000000E+00  0.00000000000E+00 -0.96839833428E+03  0.96839833429E+03  0.25500000920E-02 0. -1.
    10030    2    1    2    0    0  0.00000000000E+00  0.00000000000E+00  0.16528708745E+04  0.35896675431E+04  0.31864919491E+04 0.  0.
        1    1    3    3  502    0 -0.31204517050E+03 -0.15512537662E+04  0.10362002932E+04  0.18914204935E+04  0.50400001928E-02 0.  1.
       -1    1    3    3    0  502  0.31204517050E+03  0.15512537662E+04  0.61667058128E+03  0.16982470496E+04  0.50400001928E-02 0. -1.
</event>
<event>
 5   0  0.2598987E-06  0.3198436E+04  0.7818609E-02  0.8189230E-01
        1   -1    0    0  501    0  0.00000000000E+00  0.00000000000E+00  0.24777800914E+04  0.24777800914E+04  0.50400001928E-02 0. -1.
       -1   -1    0    0    0  501  0.00000000000E+00  0.00000000000E+00 -0.10321731024E+04  0.10321731024E+04  0.50400001928E-02 0.  1.
    10030    2    1    2    0    0  0.00000000000E+00  0.00000000000E+00  0.14456069891E+04  0.35099531938E+04  0.31984358452E+04 0.  0.
        2    1    3    3  502    0  0.80711494972E+03 -0.12239520430E+04  0.21838505252E+02  0.14662776224E+04  0.25500000920E-02 0.  1.
       -2    1    3    3    0  502 -0.80711494972E+03  0.12239520430E+04  0.14237684838E+04  0.20436755714E+04  0.25500000920E-02 0. -1.
</event>
<event>
 5   0  0.7071012E-06  0.3117590E+04  0.7818609E-02  0.8210927E-01
       -2   -1    0    0    0  501  0.00000000000E+00  0.00000000000E+00  0.11167614488E+04  0.11167614488E+04  0.25500000920E-02 0. -1.
        2   -1    0    0  501    0  0.00000000000E+00  0.00000000000E+00 -0.21757932815E+04  0.21757932815E+04  0.25500000920E-02 0.  1.
    10030    2    1    2    0    0  0.00000000000E+00  0.00000000000E+00 -0.10590318328E+04  0.32925547303E+04  0.31175901317E+04 0.  0.
        1    1    3    3  502    0  0.49261319177E+03 -0.14091063207E+04 -0.10037059680E+04  0.17987979459E+04  0.50400001928E-02 0.  1.
       -1    1    3    3    0  502 -0.49261319177E+03  0.14091063207E+04 -0.55325864766E+02  0.14937567845E+04  0.50400001928E-02 0. -1.
</event>
<event>
 5   0  0.7094341E-06  0.3115566E+04  0.7818609E-02  0.8211479E-01
       -2   -1    0    0    0  501  0.00000000000E+00  0.00000000000E+00  0.81049903937E+03  0.81049903937E+03  0.25500000920E-02 0.  1.
        2   -1    0    0  501    0  0.00000000000E+00  0.00000000000E+00 -0.29940668385E+04  0.29940668385E+04  0.25500000920E-02 0. -1.
    10030    2    1    2    0    0  0.00000000000E+00  0.00000000000E+00 -0.21835677991E+04  0.38045658778E+04  0.31155662705E+04 0.  0.
        3    1    3    3  502    0  0.31804871576E+02 -0.13370103467E+04 -0.11633234593E+03  0.13424386175E+04  0.10100000352E+00 0.  1.
       -3    1    3    3    0  502 -0.31804871576E+02  0.13370103467E+04 -0.20672354532E+04  0.24621272603E+04  0.10100000352E+00 0. -1.
</event>
<event>
 5   0  0.2624011E-06  0.3097748E+04  0.7818609E-02  0.8216356E-01
       -1   -1    0    0    0  501  0.00000000000E+00  0.00000000000E+00  0.14706444183E+04  0.14706444183E+04  0.50400001928E-02 0. -1.
        1   -1    0    0  501    0  0.00000000000E+00  0.00000000000E+00 -0.16312651060E+04  0.16312651060E+04  0.50400001928E-02 0.  1.
    10030    2    1    2    0    0  0.00000000000E+00  0.00000000000E+00 -0.16062068770E+03  0.31019095242E+04  0.30977481646E+04 0.  0.
        1    1    3    3  502    0 -0.12759586740E+04  0.66450208356E+03  0.49437469893E+03  0.15211968643E+04  0.50400001928E-02 0. -1.
       -1    1    3    3    0  502  0.12759586740E+04 -0.66450208356E+03 -0.65499538663E+03  0.15807126600E+04  0.50400001928E-02 0.  1.
</event>
<event>
 5   0  0.2624011E-06  0.3098673E+04  0.7818609E-02  0.8216102E-01
        1   -1    0    0  501    0  0.00000000000E+00  0.00000000000E+00  0.21790014207E+04  0.21790014207E+04  0.50400001928E-02 0. -1.
       -1   -1    0    0    0  501  0.00000000000E+00  0.00000000000E+00 -0.11016252719E+04  0.11016252719E+04  0.50400001928E-02 0.  1.
    10030    2    1    2    0    0  0.00000000000E+00  0.00000000000E+00  0.10773761488E+04  0.32806266926E+04  0.30986726400E+04 0.  0.
        1    1    3    3  502    0  0.66587056899E+03  0.59890072302E+03 -0.79981931744E+03  0.12007400348E+04  0.50400001928E-02 0.  1.
       -1    1    3    3    0  502 -0.66587056899E+03 -0.59890072302E+03  0.18771954662E+04  0.20798866577E+04  0.50400001928E-02 0. -1.
</event>
<event>
 5   0  0.7071012E-06  0.2829212E+04  0.7818609E-02  0.8294256E-01
        2   -1    0    0  501    0  0.00000000000E+00  0.00000000000E+00  0.18942886946E+04  0.18942886946E+04  0.25500000920E-02 0. -1.
       -2   -1    0    0    0  501  0.00000000000E+00  0.00000000000E+00 -0.10563910091E+04  0.10563910091E+04  0.25500000920E-02 0.  1.
    10030    2    1    2    0    0  0.00000000000E+00  0.00000000000E+00  0.83789768553E+03  0.29506797037E+04  0.28292115832E+04 0.  0.
        1    1    3    3  502    0  0.20362655214E+03  0.13996128589E+04  0.44711998600E+03  0.14833395462E+04  0.50400001928E-02 0.  1.
       -1    1    3    3    0  502 -0.20362655214E+03 -0.13996128589E+04  0.39077769953E+03  0.14673401575E+04  0.50400001928E-02 0. -1.
</event>
<event>
 5   0  0.2598987E-06  0.3056563E+04  0.7818609E-02  0.8227761E-01
        1   -1    0    0  501    0  0.00000000000E+00  0.00000000000E+00  0.22754606387E+04  0.22754606387E+04  0.50400001928E-02 0.  1.
       -1   -1    0    0    0  501  0.00000000000E+00  0.00000000000E+00 -0.10264489002E+04  0.10264489002E+04  0.50400001928E-02 0. -1.
    10030    2    1    2    0    0  0.00000000000E+00  0.00000000000E+00  0.12490117385E+04  0.33019095390E+04  0.30565628213E+04 0.  0.
        2    1    3    3  502    0 -0.70534663855E+03  0.22557829118E+03 -0.81968250430E+03  0.11046623257E+04  0.25500000920E-02 0. -1.
       -2    1    3    3    0  502  0.70534663855E+03 -0.22557829118E+03  0.20686942428E+04  0.21972472133E+04  0.25500000920E-02 0.  1.
</event>
<event>
 5   0  0.2624011E-06  0.2909170E+04  0.7818609E-02  0.8270154E-01
       -1   -1    0    0    0  501  0.00000000000E+00  0.00000000000E+00  0.11024207354E+04  0.11024207354E+04  0.50400001928E-02 0.  1.
        1   -1    0    0  501    0  0.00000000000E+00  0.00000000000E+00 -0.19192462246E+04  0.19192462246E+04  0.50400001928E-02 0. -1.
    10030    2    1    2    0    0  0.00000000000E+00  0.00000000000E+00 -0.81682548927E+03  0.30216669600E+04  0.29091695271E+04 0.  0.
        1    1    3    3  502    0 -0.21373789022E+03 -0.11754625138E+04 -0.12702089282E+04  0.17437966419E+04  0.50400001928E-02 0.  1.
       -1    1    3    3    0  502  0.21373789022E+03  0.11754625138E+04  0.45338343895E+03  0.12778703181E+04  0.50400001928E-02 0. -1.
</event>
<event>
 5   0  0.7094341E-06  0.3091387E+04  0.7818609E-02  0.8218106E-01
        2   -1    0    0  501    0  0.00000000000E+00  0.00000000000E+00  0.26865800489E+04  0.26865800489E+04  0.25500000920E-02 0.  1.
       -2   -1    0    0    0  501  0.00000000000E+00  0.00000000000E+00 -0.88929717298E+03  0.88929717298E+03  0.25500000920E-02 0. -1.
    10030    2    1    2    0    0  0.00000000000E+00  0.00000000000E+00  0.17972828759E+04  0.35758772219E+04  0.30913867713E+04 0.  0.
        3    1    3    3  502    0 -0.29816482254E+03  0.49876002530E+03  0.25554237935E+04  0.26206591917E+04  0.10100000352E+00 0.  1.
       -3    1    3    3    0  502  0.29816482254E+03 -0.49876002530E+03 -0.75814091756E+03  0.95521803025E+03  0.10100000352E+00 0. -1.
</event>
<event>
 5   0  0.2612331E-06  0.3121278E+04  0.7818609E-02  0.8209923E-01
        1   -1    0    0  501    0  0.00000000000E+00  0.00000000000E+00  0.25727223034E+04  0.25727223034E+04  0.50400001928E-02 0. -1.
       -1   -1    0    0    0  501  0.00000000000E+00  0.00000000000E+00 -0.94669904208E+03  0.94669904210E+03  0.50400001928E-02 0.  1.
    10030    2    1    2    0    0  0.00000000000E+00  0.00000000000E+00  0.16260232613E+04  0.35194213455E+04  0.31212777769E+04 0.  0.
        4    1    3    3  502    0 -0.13221352460E+04  0.36520994895E+03  0.16523966537E+04  0.21475186215E+04  0.12699999809E+01 0. -1.
       -4    1    3    3    0  502  0.13221352460E+04 -0.36520994895E+03 -0.26373392357E+02  0.13719027240E+04  0.12699999809E+01 0.  1.
</event>
<event>
 5   0  0.2612331E-06  0.2938100E+04  0.7818609E-02  0.8261631E-01
       -1   -1    0    0    0  501  0.00000000000E+00  0.00000000000E+00  0.95881892748E+03  0.95881892749E+03  0.50400001928E-02 0.  1.
        1   -1    0    0  501    0  0.00000000000E+00  0.00000000000E+00 -0.22507986192E+04  0.22507986192E+04  0.50400001928E-02 0. -1.
    10030    2    1    2    0    0  0.00000000000E+00  0.00000000000E+00 -0.12919796917E+04  0.32096175467E+04  0.29381002829E+04 0.  0.
        4    1    3    3  502    0  0.50586922559E+03 -0.12200366520E+04  0.56656139487E+02  0.13219699833E+04  0.12699999809E+01 0.  1.
       -4    1    3    3    0  502 -0.50586922559E+03  0.12200366520E+04 -0.13486358312E+04  0.18876475634E+04  0.12699999809E+01 0. -1.
</event>
<event>
 5   0  0.2612331E-06  0.3055189E+04  0.7818609E-02  0.8228145E-01
        1   -1    0    0  501    0  0.00000000000E+00  0.00000000000E+00  0.12674024788E+04  0.12674024788E+04  0.50400001928E-02 0.  1.
       -1   -1    0    0    0  501  0.00000000000E+00  0.00000000000E+00 -0.18412022745E+04  0.18412022745E+04  0.50400001928E-02 0. -1.
    10030    2    1    2    0    0  0.00000000000E+00  0.00000000000E+00 -0.57379979570E+03  0.31086047533E+04  0.30551885877E+04 0.  0.
        4    1    3    3  502    0 -0.10294980862E+04  0.82866098147E+03 -0.10664527517E+04  0.16981956354E+04  0.12699999809E+01 0. -1.
       -4    1    3    3    0  502  0.10294980862E+04 -0.82866098147E+03  0.49265295600E+03  0.14104091178E+04  0.12699999809E+01 0.  1.
</event>
<event>
 5   0  0.7414808E-06  0.2576804E+04  0.7818609E-02  0.8376123E-01
        2   -1    0    0  501    0  0.00000000000E+00  0.00000000000E+00  0.29178246755E+04  0.29178246755E+04  0.25500000920E-02 0.  1.
       -2   -1    0    0    0  501  0.00000000000E+00  0.00000000000E+00 -0.56890986938E+03  0.56890986938E+03  0.25500000920E-02 0. -1.
    10030    2    1    2    0    0  0.00000000000E+00  0.00000000000E+00  0.23489148061E+04  0.34867345449E+04  0.25768036441E+04 0.  0.
        2    1    3    3  502    0 -0.15404977844E+03  0.11472500624E+04  0.19399778536E+04  0.22590768275E+04  0.25500000920E-02 0.  1.
       -2    1    3    3    0  502  0.15404977844E+03 -0.11472500624E+04  0.40893695252E+03  0.12276577174E+04  0.25500000920E-02 0. -1.
</event>
<event>
 5   0  0.7363513E-06  0.2852411E+04  0.7818609E-02  0.8287179E-01
        2   -1    0    0  501    0  0.00000000000E+00  0.00000000000E+00  0.16114867920E+04  0.16114867920E+04  0.25500000920E-02 0.  1.
       -2   -1    0    0    0  501  0.00000000000E+00  0.00000000000E+00 -0.12622269683E+04  0.12622269683E+04  0.25500000920E-02 0. -1.
    10030    2    1    2    0    0  0.00000000000E+00  0.00000000000E+00  0.34925982363E+03  0.28737137603E+04  0.28524109717E+04 0.  0.
        4    1    3    3  502    0  0.31837118277E+03 -0.11569571395E+04 -0.60193832245E+03  0.13424758432E+04  0.12699999809E+01 0. -1.
       -4    1    3    3    0  502 -0.31837118277E+03  0.11569571395E+04  0.95119814608E+03  0.15312379171E+04  0.12699999809E+01 0.  1.
</event>
<event>
 5   0  0.7094341E-06  0.3169377E+04  0.7818609E-02  0.8196952E-01
       -2   -1    0    0    0  501  0.00000000000E+00  0.00000000000E+00  0.19318352721E+04  0.19318352721E+04  0.25500000920E-02 0.  1.
        2   -1    0    0  501    0  0.00000000000E+00  0.00000000000E+00 -0.12999234422E+04  0.12999234422E+04  0.25500000920E-02 0. -1.
    10030    2    1    2    0    0  0.00000000000E+00  0.00000000000E+00  0.63191182990E+03  0.32317587143E+04  0.31693771985E+04 0.  0.
        3    1    3    3  502    0 -0.13991817871E+04  0.73892732761E+03  0.22756244678E+03  0.15985956169E+04  0.10100000352E+00 0. -1.
       -3    1    3    3    0  502  0.13991817871E+04 -0.73892732761E+03  0.40434938312E+03  0.16331630974E+04  0.10100000352E+00 0.  1.
</event>
<event>
 5   0  0.2517725E-06  0.2048053E+04  0.7818609E-02  0.8584478E-01
       -1   -1    0    0    0  501  0.00000000000E+00  0.00000000000E+00  0.68531697899E+03  0.68531697901E+03  0.50400001928E-02 0.  1.
        1   -1    0    0  501    0  0.00000000000E+00  0.00000000000E+00 -0.15301391812E+04  0.15301391812E+04  0.50400001928E-02 0. -1.
    10030    2    1    2    0    0  0.00000000000E+00  0.00000000000E+00 -0.84482220217E+03  0.22154561602E+04  0.20480530863E+04 0.  0.
        3    1    3    3  502    0  0.93255711122E+03  0.25920587354E+03 -0.60748326287E+02  0.96981483796E+03  0.10100000352E+00 0.  1.
       -3    1    3    3    0  502 -0.93255711122E+03 -0.25920587354E+03 -0.78407387588E+03  0.12456413222E+04  0.10100000352E+00 0. -1.
</event>
<event>
 5   0  0.7094341E-06  0.2570136E+04  0.7818609E-02  0.8378417E-01
        2   -1    0    0  501    0  0.00000000000E+00  0.00000000000E+00  0.20418282080E+04  0.20418282080E+04  0.25500000920E-02 0.  1.
       -2   -1    0    0    0  501  0.00000000000E+00  0.00000000000E+00 -0.80878456383E+03  0.80878456383E+03  0.25500000920E-02 0. -1.
    10030    2    1    2    0    0  0.00000000000E+00  0.00000000000E+00  0.12330436442E+04  0.28506127718E+04  0.25701355113E+04 0.  0.
        3    1    3    3  502    0 -0.64270532093E+03 -0.88142163622E+03 -0.13689049491E+03  0.10994149572E+04  0.10100000352E+00 0. -1.
       -3    1    3    3    0  502  0.64270532093E+03  0.88142163622E+03  0.13699341391E+04  0.17511978146E+04  0.10100000352E+00 0.  1.
</event>
<event>
 5   0  0.7414808E-06  0.3170842E+04  0.7818609E-02  0.8196560E-01
       -2   -1    0    0    0  501  0.00000000000E+00  0.00000000000E+00  0.16506118163E+04  0.16506118163E+04  0.25500000920E-02 0. -1.
        2   -1    0    0  501    0  0.00000000000E+00  0.00000000000E+00 -0.15228048084E+04  0.15228048084E+04  0.25500000920E-02 0.  1.
    10030    2    1    2    0    0  0.00000000000E+00  0.00000000000E+00  0.12780700792E+03  0.31734166247E+04  0.31708419138E+04 0.  0.
        2    1    3    3  502    0 -0.41122159867E+03  0.11541351776E+04  0.10709155408E+04  0.16272649775E+04  0.25500000920E-02 0. -1.
       -2    1    3    3    0  502  0.41122159867E+03 -0.11541351776E+04 -0.94310853293E+03  0.15461516472E+04  0.25500000920E-02 0.  1.
</event>
<event>
 5   0  0.2517725E-06  0.2940949E+04  0.7818609E-02  0.8260797E-01
       -1   -1    0    0    0  501  0.00000000000E+00  0.00000000000E+00  0.90181576212E+03  0.90181576213E+03  0.50400001928E-02 0. -1.
        1   -1    0    0  501    0  0.00000000000E+00  0.00000000000E+00 -0.23977134623E+04  0.23977134623E+04  0.50400001928E-02 0.  1.
    10030    2    1    2    0    0  0.00000000000E+00  0.00000000000E+00 -0.14958977002E+04  0.32995292245E+04  0.29409493660E+04 0.  0.
        3    1    3    3  502    0  0.57360977042E+03 -0.13466277233E+04 -0.90606245626E+03  0.17214481052E+04  0.10100000352E+00 0.  1.
       -3    1    3    3    0  502 -0.57360977042E+03  0.13466277233E+04 -0.58983524395E+03  0.15780811193E+04  0.10100000352E+00 0. -1.
</event>
<event>
 5   0  0.7079223E-06  0.1952857E+04  0.7818609E-02  0.8628984E-01
       -2   -1    0    0    0  501  0.00000000000E+00  0.00000000000E+00  0.83415033865E+03  0.83415033866E+03  0.25500000920E-02 0.  1.
        2   -1    0    0  501    0  0.00000000000E+00  0.00000000000E+00 -0.11429744932E+04  0.11429744932E+04  0.25500000920E-02 0. -1.
    10030    2    1    2    0    0  0.00000000000E+00  0.00000000000E+00 -0.30882415451E+03  0.19771248318E+04  0.19528569436E+04 0.  0.
        5    1    3    3  502    0 -0.78017015710E+03 -0.56286181234E+03 -0.32355578472E+03  0.10149824282E+04  0.46999998093E+01 0. -1.
       -5    1    3    3    0  502  0.78017015710E+03  0.56286181234E+03  0.14731630214E+02  0.96214240357E+03  0.46999998093E+01 0.  1.
</event>
<event>
 5   0  0.2674441E-06  0.3016807E+04  0.7818609E-02  0.8238948E-01
       -1   -1    0    0    0  501  0.00000000000E+00  0.00000000000E+00  0.10725639460E+04  0.10725639460E+04  0.50400001928E-02 0. -1.
        1   -1    0    0  501    0  0.00000000000E+00  0.00000000000E+00 -0.21213478462E+04  0.21213478462E+04  0.50400001928E-02 0.  1.
    10030    2    1    2    0    0  0.00000000000E+00  0.00000000000E+00 -0.10487839002E+04  0.31939117922E+04  0.30168070649E+04 0.  0.
        5    1    3    3  502    0 -0.10310710828E+04 -0.94913837675E+03  0.66293801078E+02  0.14029925852E+04  0.46999998093E+01 0. -1.
       -5    1    3    3    0  502  0.10310710828E+04  0.94913837675E+03 -0.11150777013E+04  0.17909192070E+04  0.46999998093E+01 0.  1.
</event>
<event>
 5   0  0.7079223E-06  0.3083320E+04  0.7818609E-02  0.8220331E-01
        2   -1    0    0  501    0  0.00000000000E+00  0.00000000000E+00  0.19179838608E+04  0.19179838608E+04  0.25500000920E-02 0. -1.
       -2   -1    0    0    0  501  0.00000000000E+00  0.00000000000E+00 -0.12391739075E+04  0.12391739075E+04  0.25500000920E-02 0.  1.
    10030    2    1    2    0    0  0.00000000000E+00  0.00000000000E+00  0.67880995332E+03  0.31571577683E+04  0.30833199998E+04 0.  0.
        5    1    3    3  502    0  0.71822416550E+03 -0.42280443494E+02 -0.10567202481E+04  0.12784026598E+04  0.46999998093E+01 0.  1.
       -5    1    3    3    0  502 -0.71822416550E+03  0.42280443494E+02  0.17355302014E+04  0.18787551085E+04  0.46999998093E+01 0. -1.
</event>
<event>
 5   0  0.7071012E-06  0.3149068E+04  0.7818609E-02  0.8202399E-01
       -2   -1    0    0    0  501  0.00000000000E+00  0.00000000000E+00  0.15011972680E+04  0.15011972680E+04  0.25500000920E-02 0.  1.
        2   -1    0    0  501    0  0.00000000000E+00  0.00000000000E+00 -0.16514530230E+04  0.16514530230E+04  0.25500000920E-02 0. -1.
    10030    2    1    2    0    0  0.00000000000E+00  0.00000000000E+00 -0.15025575497E+03  0.31526502910E+04  0.31490676501E+04 0.  0.
        1    1    3    3  502    0  0.78034311641E+03 -0.13661162631E+04 -0.12225330597E+02  0.15733272013E+04  0.50400001928E-02 0.  1.
       -1    1    3    3    0  502 -0.78034311641E+03  0.13661162631E+04 -0.13803042437E+03  0.15793230897E+04  0.50400001928E-02 0. -1.
</event>
<event>
 5   0  0.7363513E-06  0.3299354E+04  0.7818609E-02  0.8163060E-01
        2   -1    0    0  501    0  0.00000000000E+00  0.00000000000E+00  0.15074796339E+04  0.15074796339E+04  0.25500000920E-02 0.  1.
       -2   -1    0    0    0  501  0.00000000000E+00  0.00000000000E+00 -0.18052876583E+04  0.18052876583E+04  0.25500000920E-02 0. -1.
    10030    2    1    2    0    0  0.00000000000E+00  0.00000000000E+00 -0.29780802434E+03  0.33127672922E+04  0.32993541054E+04 0.  0.
        4    1    3    3  502    0  0.87567661454E+03  0.13864338806E+04  0.31895596261E+02  0.16401302937E+04  0.12699999809E+01 0. -1.
       -4    1    3    3    0  502 -0.87567661454E+03 -0.13864338806E+04 -0.32970362060E+03  0.16726369985E+04  0.12699999809E+01 0.  1.
</event>
<event>
 5   0  0.2517725E-06  0.3158193E+04  0.7818609E-02  0.8199946E-01
       -1   -1    0    0    0  501  0.00000000000E+00  0.00000000000E+00  0.19115578636E+04  0.19115578636E+04  0.50400001928E-02 0.  1.
        1   -1    0    0  501    0  0.00000000000E+00  0.00000000000E+00 -0.13044571854E+04  0.13044571854E+04  0.50400001928E-02 0. -1.
    10030    2    1    2    0    0  0.00000000000E+00  0.00000000000E+00  0.60710067820E+03  0.32160150491E+04  0.31581927684E+04 0.  0.
        3    1    3    3  502    0 -0.56851573809E+03 -0.14720754518E+04  0.24479560344E+03  0.15969161461E+04  0.10100000352E+00 0.  1.
       -3    1    3    3    0  502  0.56851573809E+03  0.14720754518E+04  0.36230507476E+03  0.16190989029E+04  0.10100000352E+00 0. -1.
</event>
<event>
 5   0  0.2612331E-06  0.3129394E+04  0.7818609E-02  0.8207717E-01
       -1   -1    0    0    0  501  0.00000000000E+00  0.00000000000E+00  0.19099028634E+04  0.19099028634E+04  0.50400001928E-02 0.  1.
        1   -1    0    0  501    0  0.00000000000E+00  0.00000000000E+00 -0.12818856595E+04  0.12818856595E+04  0.50400001928E-02 0. -1.
    10030    2    1    2    0    0  0.00000000000E+00  0.00000000000E+00  0.62801720392E+03  0.31917885230E+04  0.31293942492E+04 0.  0.
        4    1    3    3  502    0 -0.63697407690E+03  0.84148501586E+03  0.14922214565E+04  0.18277197528E+04  0.12699999809E+01 0.  1.
       -4    1    3    3    0  502  0.63697407690E+03 -0.84148501586E+03 -0.86420425261E+03  0.13640687702E+04  0.12699999809E+01 0. -1.
</event>
<event>
 5   0  0.7071012E-06  0.2860107E+04  0.7818609E-02  0.8284847E-01
        2   -1    0    0  501    0  0.00000000000E+00  0.00000000000E+00  0.20907911093E+04  0.20907911093E+04  0.25500000920E-02 0. -1.
       -2   -1    0    0    0  501  0.00000000000E+00  0.00000000000E+00 -0.97812373168E+03  0.97812373168E+03  0.25500000920E-02 0.  1.
    10030    2    1    2    0    0  0.00000000000E+00  0.00000000000E+00  0.11126673777E+04  0.30689148410E+04  0.28601065729E+04 0.  0.
        1    1    3    3  502    0 -0.56528330356E+03 -0.18543599235E+03 -0.83903804677E+03  0.10285507107E+04  0.50400001928E-02 0.  1.
       -1    1    3    3    0  502  0.56528330356E+03  0.18543599235E+03  0.19517054244E+04  0.20403641303E+04  0.50400001928E-02 0. -1.
</event>
<event>
 5   0  0.2624011E-06  0.2839346E+04  0.7818609E-02  0.8291156E-01
        1   -1    0    0  501    0  0.00000000000E+00  0.00000000000E+00  0.14790513265E+04  0.14790513266E+04  0.50400001928E-02 0.  1.
       -1   -1    0    0    0  501  0.00000000000E+00  0.00000000000E+00 -0.13626783687E+04  0.13626783687E+04  0.50400001928E-02 0. -1.
    10030    2    1    2    0    0  0.00000000000E+00  0.00000000000E+00  0.11637295782E+03  0.28417296953E+04  0.28393458746E+04 0.  0.
        1    1    3    3  502    0  0.10371393869E+04 -0.48871649821E+03 -0.77975554819E+03  0.13865499048E+04  0.50400001928E-02 0. -1.
       -1    1    3    3    0  502 -0.10371393869E+04  0.48871649821E+03  0.89612850601E+03  0.14551797905E+04  0.50400001928E-02 0.  1.
</event>
<event>
 5   0  0.7363513E-06  0.3057466E+04  0.7818609E-02  0.8227509E-01
       -2   -1    0    0    0  501  0.00000000000E+00  0.00000000000E+00  0.14841298315E+04  0.14841298315E+04  0.25500000920E-02 0.  1.
        2   -1    0    0  501    0  0.00000000000E+00  0.00000000000E+00 -0.15746765631E+04  0.15746765631E+04  0.25500000920E-02 0. -1.
    10030    2    1    2    0    0  0.00000000000E+00  0.00000000000E+00 -0.90546731551E+02  0.30588063946E+04  0.30574659195E+04 0.  0.
        4    1    3    3  502    0 -0.70309232316E+02 -0.33454348646E+03 -0.15359468039E+04  0.15735300855E+04  0.12699999809E+01 0. -1.
       -4    1    3    3    0  502  0.70309232316E+02  0.33454348646E+03  0.14454000724E+04  0.14852763092E+04  0.12699999809E+01 0.  1.
</event>
<event>
 5   0  0.7079223E-06  0.3121036E+04  0.7818609E-02  0.8209989E-01
       -2   -1    0    0    0  501  0.00000000000E+00  0.00000000000E+00  0.13158855987E+04  0.13158855987E+04  0.25500000920E-02 0.  1.
        2   -1    0    0  501    0  0.00000000000E+00  0.00000000000E+00 -0.18506287562E+04  0.18506287562E+04  0.25500000920E-02 0. -1.
    10030    2    1    2    0    0  0.00000000000E+00  0.00000000000E+00 -0.53474315752E+03  0.31665143549E+04  0.31210355518E+04 0.  0.
        5    1    3    3  502    0  0.20244395424E+03  0.11669526206E+04 -0.12982641346E+04  0.17573485216E+04  0.46999998093E+01 0. -1.
       -5    1    3    3    0  502 -0.20244395424E+03 -0.11669526206E+04  0.76352097709E+03  0.14091658333E+04  0.46999998093E+01 0.  1.
</event>
<event>
 5   0  0.7079223E-06  0.3071560E+04  0.7818609E-02  0.8223587E-01
        2   -1    0    0  501    0  0.00000000000E+00  0.00000000000E+00  0.20327377125E+04  0.20327377125E+04  0.25500000920E-02 0. -1.
       -2   -1    0    0    0  501  0.00000000000E+00  0.00000000000E+00 -0.11603168812E+04  0.11603168812E+04  0.25500000920E-02 0.  1.
    10030    2    1    2    0    0  0.00000000000E+00  0.00000000000E+00  0.87242083131E+03  0.31930545938E+04  0.30715597881E+04 0.  0.
        5    1    3    3  502    0  0.62551870868E+03  0.93968403742E+02 -0.10186070355E+04  0.11990354868E+04  0.46999998093E+01 0.  1.
       -5    1    3    3    0  502 -0.62551870868E+03 -0.93968403742E+02  0.18910278668E+04  0.19940191070E+04  0.46999998093E+01 0. -1.
</event>
<event>
 5   0  0.2612331E-06  0.3090021E+04  0.7818609E-02  0.8218482E-01
       -1   -1    0    0    0  501  0.00000000000E+00  0.00000000000E+00  0.11624339053E+04  0.11624339053E+04  0.50400001928E-02 0. -1.
        1   -1    0    0  501    0  0.00000000000E+00  0.00000000000E+00 -0.20534990765E+04  0.20534990765E+04  0.50400001928E-02 0.  1.
    10030    2    1    2    0    0  0.00000000000E+00  0.00000000000E+00 -0.89106517119E+03  0.32159329819E+04  0.30900206803E+04 0.  0.
        4    1    3    3  502    0 -0.37423743664E+03 -0.14087693428E+04  0.87560688239E+02  0.14602579249E+04  0.12699999809E+01 0. -1.
       -4    1    3    3    0  502  0.37423743664E+03  0.14087693428E+04 -0.97862585943E+03  0.17556750570E+04  0.12699999809E+01 0.  1.
</event>
<event>
 5   0  0.2612331E-06  0.3085661E+04  0.7818609E-02  0.8219684E-01
       -1   -1    0    0    0  501  0.00000000000E+00  0.00000000000E+00  0.10306965224E+04  0.10306965225E+04  0.50400001928E-02 0. -1.
        1   -1    0    0  501    0  0.00000000000E+00  0.00000000000E+00 -0.23094348435E+04  0.23094348435E+04  0.50400001928E-02 0.  1.
    10030    2    1    2    0    0  0.00000000000E+00  0.00000000000E+00 -0.12787383211E+04  0.33401313660E+04  0.30856613308E+04 0.  0.
        4    1    3    3  502    0 -0.49212418886E+03 -0.14050193184E+04 -0.20092349730E+03  0.15022108264E+04  0.12699999809E+01 0. -1.
       -4    1    3    3    0  502  0.49212418886E+03  0.14050193184E+04 -0.10778148238E+04  0.18379205396E+04  0.12699999809E+01 0.  1.
</event>
<event>
 5   0  0.2624011E-06  0.2862208E+04  0.7818609E-02  0.8284211E-01
        1   -1    0    0  501    0  0.00000000000E+00  0.00000000000E+00  0.18255480268E+04  0.18255480268E+04  0.50400001928E-02 0. -1.
       -1   -1    0    0    0  501  0.00000000000E+00  0.00000000000E+00 -0.11218869186E+04  0.11218869186E+04  0.50400001928E-02 0.  1.
    10030    2    1    2    0    0  0.00000000000E+00  0.00000000000E+00  0.70366110816E+03  0.29474349455E+04  0.28622078545E+04 0.  0.
        1    1    3    3  502    0 -0.23056631317E+03 -0.69199064102E+03 -0.91611128113E+03  0.11710131304E+04  0.50400001928E-02 0.  1.
       -1    1    3    3    0  502  0.23056631317E+03  0.69199064102E+03  0.16197723893E+04  0.17764218151E+04  0.50400001928E-02 0. -1.
</event>
<event>
 5   0  0.7079223E-06  0.3094378E+04  0.7818609E-02  0.8217282E-01
        2   -1    0    0  501    0  0.00000000000E+00  0.00000000000E+00  0.18085727698E+04  0.18085727698E+04  0.25500000920E-02 0. -1.
       -2   -1    0    0    0  501  0.00000000000E+00  0.00000000000E+00 -0.13235817264E+04  0.13235817264E+04  0.25500000920E-02 0.  1.
    10030    2    1    2    0    0  0.00000000000E+00  0.00000000000E+00  0.48499104341E+03  0.31321544962E+04  0.30943780434E+04 0.  0.
        5    1    3    3  502    0  0.14109027566E+04  0.62085128966E+03  0.10794848083E+03  0.15452436303E+04  0.46999998093E+01 0. -1.
       -5    1    3    3    0  502 -0.14109027566E+04 -0.62085128966E+03  0.37704256258E+03  0.15869108659E+04  0.46999998093E+01 0.  1.
</event>
<event>
 5   0  0.7071012E-06  0.3195640E+04  0.7818609E-02  0.8189970E-01
        2   -1    0    0  501    0  0.00000000000E+00  0.00000000000E+00  0.24693293319E+04  0.24693293319E+04  0.25500000920E-02 0.  1.
       -2   -1    0    0    0  501  0.00000000000E+00  0.00000000000E+00 -0.10338953882E+04  0.10338953882E+04  0.25500000920E-02 0. -1.
    10030    2    1    2    0    0  0.00000000000E+00  0.00000000000E+00  0.14354339437E+04  0.35032247201E+04  0.31956396594E+04 0.  0.
        1    1    3    3  502    0  0.15146667952E+04 -0.38002472211E+03  0.34694093155E+03  0.15996881884E+04  0.50400001928E-02 0.  1.
       -1    1    3    3    0  502 -0.15146667952E+04  0.38002472211E+03  0.10884930122E+04  0.19035365317E+04  0.50400001928E-02 0. -1.
</event>
<event>
 5   0  0.7071012E-06  0.3202765E+04  0.7818609E-02  0.8188087E-01
       -2   -1    0    0    0  501  0.00000000000E+00  0.00000000000E+00  0.34419499103E+04  0.34419499103E+04  0.25500000920E-02 0. -1.
        2   -1    0    0  501    0  0.00000000000E+00  0.00000000000E+00 -0.74505053958E+03  0.74505053959E+03  0.25500000920E-02 0.  1.
    10030    2    1    2    0    0  0.00000000000E+00  0.00000000000E+00  0.26968993707E+04  0.41870004499E+04  0.32027654537E+04 0.  0.
        1    1    3    3  502    0  0.29450145946E+03  0.94424753470E+03  0.29948751559E+04  0.31539834680E+04  0.50400001928E-02 0. -1.
       -1    1    3    3    0  502 -0.29450145946E+03 -0.94424753470E+03 -0.29797578521E+03  0.10330169820E+04  0.50400001928E-02 0.  1.
</event>
<event>
 5   0  0.7071012E-06  0.3093459E+04  0.7818609E-02  0.8217535E-01
        2   -1    0    0  501    0  0.00000000000E+00  0.00000000000E+00  0.19094251528E+04  0.19094251528E+04  0.25500000920E-02 0. -1.
       -2   -1    0    0    0  501  0.00000000000E+00  0.00000000000E+00 -0.12529278746E+04  0.12529278746E+04  0.25500000920E-02 0.  1.
    10030    2    1    2    0    0  0.00000000000E+00  0.00000000000E+00  0.65649727826E+03  0.31623530274E+04  0.30934589044E+04 0.  0.
        1    1    3    3  502    0  0.98472181408E+03  0.73147151846E+03 -0.63488266727E+03  0.13812326504E+04  0.50400001928E-02 0.  1.
       -1    1    3    3    0  502 -0.98472181408E+03 -0.73147151846E+03  0.12913799455E+04  0.17811203769E+04  0.50400001928E-02 0. -1.
</event>
<event>
 5   0  0.2598987E-06  0.2335218E+04  0.7818609E-02  0.8464163E-01
        1   -1    0    0  501    0  0.00000000000E+00  0.00000000000E+00  0.14455857479E+04  0.14455857479E+04  0.50400001928E-02 0.  1.
       -1   -1    0    0    0  501  0.00000000000E+00  0.00000000000E+00 -0.94308519065E+03  0.94308519066E+03  0.50400001928E-02 0. -1.
    10030    2    1    2    0    0  0.00000000000E+00  0.00000000000E+00  0.50250055724E+03  0.23886709386E+04  0.23352177720E+04 0.  0.
        2    1    3    3  502    0  0.24374061521E+03 -0.70414563031E+03  0.11707595349E+04  0.13877710347E+04  0.25500000920E-02 0.  1.
       -2    1    3    3    0  502 -0.24374061521E+03  0.70414563031E+03 -0.66825897770E+03  0.10008999038E+04  0.25500000920E-02 0. -1.
</event>
<event>
 5   0  0.2674441E-06  0.1931118E+04  0.7818609E-02  0.8639520E-01
       -1   -1    0    0    0  501  0.00000000000E+00  0.00000000000E+00  0.59136716851E+03  0.59136716853E+03  0.50400001928E-02 0.  1.
        1   -1    0    0  501    0  0.00000000000E+00  0.00000000000E+00 -0.15765239986E+04  0.15765239986E+04  0.50400001928E-02 0. -1.
    10030    2    1    2    0    0  0.00000000000E+00  0.00000000000E+00 -0.98515683009E+03  0.21678911671E+04  0.19311183632E+04 0.  0.
        5    1    3    3  502    0  0.96266259776E+03  0.50230835888E+02 -0.55447510975E+03  0.11120733570E+04  0.46999998093E+01 0. -1.
       -5    1    3    3    0  502 -0.96266259776E+03 -0.50230835888E+02 -0.43068172034E+03  0.10558178102E+04  0.46999998093E+01 0.  1.
</event>
<event>
 5   0  0.7079223E-06  0.2973773E+04  0.7818609E-02  0.8251260E-01
        2   -1    0    0  501    0  0.00000000000E+00  0.00000000000E+00  0.21227754422E+04  0.21227754422E+04  0.25500000920E-02 0.  1.
       -2   -1    0    0    0  501  0.00000000000E+00  0.00000000000E+00 -0.10414816023E+04  0.10414816023E+04  0.25500000920E-02 0. -1.
    10030    2    1    2    0    0  0.00000000000E+00  0.00000000000E+00  0.10812938399E+04  0.31642570445E+04  0.29737730707E+04 0.  0.
        5    1    3    3  502    0  0.68447396488E+03 -0.11243074471E+02  0.19451097560E+04  0.20620633037E+04  0.46999998093E+01 0.  1.
       -5    1    3    3    0  502 -0.68447396488E+03  0.11243074471E+02 -0.86381591619E+03  0.11021937409E+04  0.46999998093E+01 0. -1.
</event>
<event>
 5   0  0.2612331E-06  0.3119784E+04  0.7818609E-02  0.8210329E-01
        1   -1    0    0  501    0  0.00000000000E+00  0.00000000000E+00  0.14879002475E+04  0.14879002475E+04  0.50400001928E-02 0. -1.
       -1   -1    0    0    0  501  0.00000000000E+00  0.00000000000E+00 -0.16353673567E+04  0.16353673567E+04  0.50400001928E-02 0.  1.
    10030    2    1    2    0    0  0.00000000000E+00  0.00000000000E+00 -0.14746710921E+03  0.31232676042E+04  0.31197842841E+04 0.  0.
        4    1    3    3  502    0 -0.15211532817E+04 -0.34465058952E+03 -0.49820765373E+02  0.15605047442E+04  0.12699999809E+01 0. -1.
       -4    1    3    3    0  502  0.15211532817E+04  0.34465058952E+03 -0.97646343834E+02  0.15627628600E+04  0.12699999809E+01 0.  1.
</event>
<event>
 5   0  0.7414808E-06  0.3021832E+04  0.7818609E-02  0.8237524E-01
       -2   -1    0    0    0  501  0.00000000000E+00  0.00000000000E+00  0.14735237657E+04  0.14735237657E+04  0.25500000920E-02 0.  1.
        2   -1    0    0  501    0  0.00000000000E+00  0.00000000000E+00 -0.15492567935E+04  0.15492567935E+04  0.25500000920E-02 0. -1.
    10030    2    1    2    0    0  0.00000000000E+00  0.00000000000E+00 -0.75733027857E+02  0.30227805592E+04  0.30218316990E+04 0.  0.
        2    1    3    3  502    0  0.45288966576E+03 -0.13284431018E+04 -0.59750315852E+03  0.15254114686E+04  0.25500000920E-02 0. -1.
       -2    1    3    3    0  502 -0.45288966576E+03  0.13284431018E+04  0.52177013066E+03  0.14973690906E+04  0.25500000920E-02 0.  1.
</event>
<event>
 5   0  0.2624011E-06  0.3128597E+04  0.7818609E-02  0.8207933E-01
        1   -1    0    0  501    0  0.00000000000E+00  0.00000000000E+00  0.17420627875E+04  0.17420627875E+04  0.50400001928E-02 0. -1.
       -1   -1    0    0    0  501  0.00000000000E+00  0.00000000000E+00 -0.14046737499E+04  0.14046737499E+04  0.50400001928E-02 0.  1.
    10030    2    1    2    0    0  0.00000000000E+00  0.00000000000E+00  0.33738903756E+03  0.31467365374E+04  0.31285970455E+04 0.  0.
        1    1    3    3  502    0  0.53137217296E+03  0.12257561371E+03 -0.13059743032E+04  0.14152561774E+04  0.50400001928E-02 0.  1.
       -1    1    3    3    0  502 -0.53137217296E+03 -0.12257561371E+03  0.16433633407E+04  0.17314803600E+04  0.50400001928E-02 0. -1.
</event>
<event>
 5   0  0.7094341E-06  0.2959664E+04  0.7818609E-02  0.8255344E-01
       -2   -1    0    0    0  501  0.00000000000E+00  0.00000000000E+00  0.11482213330E+04  0.11482213331E+04  0.25500000920E-02 0. -1.
        2   -1    0    0  501    0  0.00000000000E+00  0.00000000000E+00 -0.19072129349E+04  0.19072129349E+04  0.25500000920E-02 0.  1.
    10030    2    1    2    0    0  0.00000000000E+00  0.00000000000E+00 -0.75899160186E+03  0.30554342680E+04  0.29596638853E+04 0.  0.
        3    1    3    3  502    0  0.28669245328E+03  0.10217898603E+04  0.68521349129E+03  0.12632357738E+04  0.10100000352E+00 0. -1.
       -3    1    3    3    0  502 -0.28669245328E+03 -0.10217898603E+04 -0.14442050932E+04  0.17921984942E+04  0.10100000352E+00 0.  1.
</event>
<event>
 5   0  0.7079223E-06  0.3151317E+04  0.7818609E-02  0.8201794E-01
       -2   -1    0    0    0  501  0.00000000000E+00  0.00000000000E+00  0.24970807644E+04  0.24970807644E+04  0.25500000920E-02 0.  1.
        2   -1    0    0  501    0  0.00000000000E+00  0.00000000000E+00 -0.99424110688E+03  0.99424110689E+03  0.25500000920E-02 0. -1.
    10030    2    1    2    0    0  0.00000000000E+00  0.00000000000E+00  0.15028396575E+04  0.34913218713E+04  0.31513174027E+04 0.  0.
        5    1    3    3  502    0  0.11542081650E+04 -0.56354567072E+03 -0.25967912688E+03  0.13104333444E+04  0.46999998093E+01 0. -1.
       -5    1    3    3    0  502 -0.11542081650E+04  0.56354567072E+03  0.17625187844E+04  0.21808885269E+04  0.46999998093E+01 0.  1.
</event>
<event>
 5   0  0.2624011E-06  0.2194981E+04  0.7818609E-02  0.8520520E-01
       -1   -1    0    0    0  501  0.00000000000E+00  0.00000000000E+00  0.13210654704E+04  0.13210654704E+04  0.50400001928E-02 0.  1.
        1   -1    0    0  501    0  0.00000000000E+00  0.00000000000E+00 -0.91175286270E+03  0.91175286272E+03  0.50400001928E-02 0. -1.
    10030    2    1    2    0    0  0.00000000000E+00  0.00000000000E+00  0.40931260766E+03  0.22328183331E+04  0.21949808422E+04 0.  0.
        1    1    3    3  502    0 -0.18093527370E+03  0.39097163945E+03 -0.82214415839E+03  0.92817962341E+03  0.50400001928E-02 0. -1.
       -1    1    3    3    0  502  0.18093527370E+03 -0.39097163945E+03  0.12314567660E+04  0.13046387097E+04  0.50400001928E-02 0.  1.
</event>
<event>
 5   0  0.2612331E-06  0.3083792E+04  0.7818609E-02  0.8220200E-01
        1   -1    0    0  501    0  0.00000000000E+00  0.00000000000E+00  0.15078997909E+04  0.15078997909E+04  0.50400001928E-02 0. -1.
       -1   -1    0    0    0  501  0.00000000000E+00  0.00000000000E+00 -0.15766582258E+04  0.15766582258E+04  0.50400001928E-02 0.  1.
    10030    2    1    2    0    0  0.00000000000E+00  0.00000000000E+00 -0.68758434913E+02  0.30845580168E+04  0.30837915683E+04 0.  0.
        4    1    3    3  502    0 -0.13287088670E+04  0.49608980578E+03 -0.63940032195E+03  0.15557656421E+04  0.12699999809E+01 0.  1.
       -4    1    3    3    0  502  0.13287088670E+04 -0.49608980578E+03  0.57064188704E+03  0.15287923746E+04  0.12699999809E+01 0. -1.
</event>
<event>
 5   0  0.2674441E-06  0.2205786E+04  0.7818609E-02  0.8516024E-01
       -1   -1    0    0    0  501  0.00000000000E+00  0.00000000000E+00  0.15734846601E+04  0.15734846601E+04  0.50400001928E-02 0. -1.
        1   -1    0    0  501    0  0.00000000000E+00  0.00000000000E+00 -0.77304382283E+03  0.77304382285E+03  0.50400001928E-02 0.  1.
    10030    2    1    2    0    0  0.00000000000E+00  0.00000000000E+00  0.80044083731E+03  0.23465284830E+04  0.22057856622E+04 0.  0.
        5    1    3    3  502    0  0.77227533943E+03 -0.78029100332E+03  0.51223500525E+03  0.12114743251E+04  0.46999998093E+01 0.  1.
       -5    1    3    3    0  502 -0.77227533943E+03  0.78029100332E+03  0.28820583206E+03  0.11350541579E+04  0.46999998093E+01 0. -1.
</event>
<event>
 5   0  0.2674441E-06  0.2568962E+04  0.7818609E-02  0.8378821E-01
        1   -1    0    0  501    0  0.00000000000E+00  0.00000000000E+00  0.22250376245E+04  0.22250376245E+04  0.50400001928E-02 0.  1.
       -1   -1    0    0    0  501  0.00000000000E+00  0.00000000000E+00 -0.74151184679E+03  0.74151184681E+03  0.50400001928E-02 0. -1.
    10030    2    1    2    0    0  0.00000000000E+00  0.00000000000E+00  0.14835257777E+04  0.29665494713E+04  0.25689622482E+04 0.  0.
        5    1    3    3  502    0  0.82186986454E+03  0.16383887376E+03  0.18658407945E+04  0.20454088128E+04  0.46999998093E+01 0.  1.
       -5    1    3    3    0  502 -0.82186986454E+03 -0.16383887376E+03 -0.38231501681E+03  0.92114065857E+03  0.46999998093E+01 0. -1.
</event>
<event>
 5   0  0.7079223E-06  0.2736864E+04  0.7818609E-02  0.8323142E-01
       -2   -1    0    0    0  501  0.00000000000E+00  0.00000000000E+00  0.81245171828E+03  0.81245171828E+03  0.25500000920E-02 0. -1.
        2   -1    0    0  501    0  0.00000000000E+00  0.00000000000E+00 -0.23048834716E+04  0.23048834716E+04  0.25500000920E-02 0.  1.
    10030    2    1    2    0    0  0.00000000000E+00  0.00000000000E+00 -0.14924317534E+04  0.31173351899E+04  0.27368642911E+04 0.  0.
        5    1    3    3  502    0  0.26251909335E+03 -0.48234006106E+03  0.68143026464E+03  0.87517855575E+03  0.46999998093E+01 0. -1.
       -5    1    3    3    0  502 -0.26251909335E+03  0.48234006106E+03 -0.21738620180E+04  0.22421566342E+04  0.46999998093E+01 0.  1.
</event>
<event>
 5   0  0.7079223E-06  0.3904610E+04  0.7818609E-02  0.8024071E-01
       -2   -1    0    0    0  501  0.00000000000E+00  0.00000000000E+00  0.32442572682E+04  0.32442572682E+04  0.25500000920E-02 0. -1.
        2   -1    0    0  501    0  0.00000000000E+00  0.00000000000E+00 -0.11748437223E+04  0.11748437223E+04  0.25500000920E-02 0.  1.
    10030    2    1    2    0    0  0.00000000000E+00  0.00000000000E+00  0.20694135460E+04  0.44191009905E+04  0.39046102417E+04 0.  0.
        5    1    3    3  502    0 -0.17657486046E+04 -0.82295001641E+03  0.11794591586E+04  0.22773363522E+04  0.46999998093E+01 0.  1.
       -5    1    3    3    0  502  0.17657486046E+04  0.82295001641E+03  0.88995438742E+03  0.21417646383E+04  0.46999998093E+01 0. -1.
</event>
<event>
 5   0  0.7094341E-06  0.3123715E+04  0.7818609E-02  0.8209260E-01
        2   -1    0    0  501    0  0.00000000000E+00  0.00000000000E+00  0.13349742352E+04  0.13349742352E+04  0.25500000920E-02 0.  1.
       -2   -1    0    0    0  501  0.00000000000E+00  0.00000000000E+00 -0.18272999926E+04  0.18272999926E+04  0.25500000920E-02 0. -1.
    10030    2    1    2    0    0  0.00000000000E+00  0.00000000000E+00 -0.49232575743E+03  0.31622742279E+04  0.31237147182E+04 0.  0.
        3    1    3    3  502    0  0.20527592654E+03 -0.14734381764E+04  0.23535563483E+03  0.15061708239E+04  0.10100000352E+00 0.  1.
       -3    1    3    3    0  502 -0.20527592654E+03  0.14734381764E+04 -0.72768139226E+03  0.16561034040E+04  0.10100000352E+00 0. -1.
</event>
<event>
 5   0  0.7079223E-06  0.2280099E+04  0.7818609E-02  0.8485809E-01
       -2   -1    0    0    0  501  0.00000000000E+00  0.00000000000E+00  0.10094767118E+04  0.10094767118E+04  0.25500000920E-02 0. -1.
        2   -1    0    0  501    0  0.00000000000E+00  0.00000000000E+00 -0.12875111244E+04  0.12875111244E+04  0.25500000920E-02 0.  1.
    10030    2    1    2    0    0  0.00000000000E+00  0.00000000000E+00 -0.27803441268E+03  0.22969878362E+04  0.22800986788E+04 0.  0.
        5    1    3    3  502    0  0.22621911412E+03 -0.62755068217E+03  0.79232814451E+03  0.10357610366E+04  0.46999998093E+01 0. -1.
       -5    1    3    3    0  502 -0.22621911412E+03  0.62755068217E+03 -0.10703625572E+04  0.12612267996E+04  0.46999998093E+01 0.  1.
</event>
<event>
 5   0  0.2598987E-06  0.3099413E+04  0.7818609E-02  0.8215899E-01
       -1   -1    0    0    0  501  0.00000000000E+00  0.00000000000E+00  0.13172200615E+04  0.13172200615E+04  0.50400001928E-02 0.  1.
        1   -1    0    0  501    0  0.00000000000E+00  0.00000000000E+00 -0.18232259976E+04  0.18232259976E+04  0.50400001928E-02 0. -1.
    10030    2    1    2    0    0  0.00000000000E+00  0.00000000000E+00 -0.50600593612E+03  0.31404460591E+04  0.30994127577E+04 0.  0.
        2    1    3    3  502    0 -0.68796700520E+03  0.92859491061E+03 -0.12991460440E+04  0.17387833540E+04  0.25500000920E-02 0. -1.
       -2    1    3    3    0  502  0.68796700520E+03 -0.92859491061E+03  0.79314010792E+03  0.14016627052E+04  0.25500000920E-02 0.  1.
</event>
<event>
 5   0  0.7094341E-06  0.2830504E+04  0.7818609E-02  0.8293860E-01
       -2   -1    0    0    0  501  0.00000000000E+00  0.00000000000E+00  0.96208040748E+03  0.96208040748E+03  0.25500000920E-02 0.  1.
        2   -1    0    0  501    0  0.00000000000E+00  0.00000000000E+00 -0.20818826207E+04  0.20818826207E+04  0.25500000920E-02 0. -1.
    10030    2    1    2    0    0  0.00000000000E+00  0.00000000000E+00 -0.11198022132E+04  0.30439630282E+04  0.28305041813E+04 0.  0.
        3    1    3    3  502    0 -0.17821388949E+03  0.27047598740E+03 -0.20414844312E+04  0.20670210795E+04  0.10100000352E+00 0. -1.
       -3    1    3    3    0  502  0.17821388949E+03 -0.27047598740E+03  0.92168221791E+03  0.97694194873E+03  0.10100000352E+00 0.  1.
</event>
<event>
 5   0  0.7363513E-06  0.3088441E+04  0.7818609E-02  0.8218917E-01
       -2   -1    0    0    0  501  0.00000000000E+00  0.00000000000E+00  0.11066516682E+04  0.11066516682E+04  0.25500000920E-02 0. -1.
        2   -1    0    0  501    0  0.00000000000E+00  0.00000000000E+00 -0.21548029151E+04  0.21548029151E+04  0.25500000920E-02 0.  1.
    10030    2    1    2    0    0  0.00000000000E+00  0.00000000000E+00 -0.10481512469E+04  0.32614545833E+04  0.30884405389E+04 0.  0.
        4    1    3    3  502    0  0.11560392058E+04  0.93986326821E+03 -0.95319825635E+02  0.14929357288E+04  0.12699999809E+01 0. -1.
       -4    1    3    3    0  502 -0.11560392058E+04 -0.93986326821E+03 -0.95283142125E+03  0.17685188545E+04  0.12699999809E+01 0.  1.
</event>
<event>
 5   0  0.7094341E-06  0.2915353E+04  0.7818609E-02  0.8268324E-01
       -2   -1    0    0    0  501  0.00000000000E+00  0.00000000000E+00  0.14064291609E+04  0.14064291609E+04  0.25500000920E-02 0. -1.
        2   -1    0    0  501    0  0.00000000000E+00  0.00000000000E+00 -0.15107912106E+04  0.15107912106E+04  0.25500000920E-02 0.  1.
    10030    2    1    2    0    0  0.00000000000E+00  0.00000000000E+00 -0.10436204962E+03  0.29172203715E+04  0.29153530247E+04 0.  0.
        3    1    3    3  502    0  0.57269635928E+03 -0.13360469443E+04  0.56600369353E+02  0.14547185876E+04  0.10100000352E+00 0.  1.
       -3    1    3    3    0  502 -0.57269635928E+03  0.13360469443E+04 -0.16096241897E+03  0.14625017838E+04  0.10100000352E+00 0. -1.
</event>
<event>
 5   0  0.2598987E-06  0.2963185E+04  0.7818609E-02  0.8254322E-01
        1   -1    0    0  501    0  0.00000000000E+00  0.00000000000E+00  0.94414827693E+03  0.94414827694E+03  0.50400001928E-02 0. -1.
       -1   -1    0    0    0  501  0.00000000000E+00  0.00000000000E+00 -0.23249696678E+04  0.23249696678E+04  0.50400001928E-02 0.  1.
    10030    2    1    2    0    0  0.00000000000E+00  0.00000000000E+00 -0.13808213908E+04  0.32691179447E+04  0.29631848446E+04 0.  0.
        2    1    3    3  502    0  0.33004705442E+03  0.13612027909E+04 -0.12233041586E+04  0.18596443640E+04  0.25500000920E-02 0.  1.
       -2    1    3    3    0  502 -0.33004705442E+03 -0.13612027909E+04 -0.15751723222E+03  0.14094735807E+04  0.25500000920E-02 0. -1.
</event>
<event>
 5   0  0.7414808E-06  0.3063271E+04  0.7818609E-02  0.8225891E-01
       -2   -1    0    0    0  501  0.00000000000E+00  0.00000000000E+00  0.10710847143E+04  0.10710847143E+04  0.25500000920E-02 0.  1.
        2   -1    0    0  501    0  0.00000000000E+00  0.00000000000E+00 -0.21902167222E+04  0.21902167222E+04  0.25500000920E-02 0. -1.
    10030    2    1    2    0    0  0.00000000000E+00  0.00000000000E+00 -0.11191320079E+04  0.32613014364E+04  0.30632712267E+04 0.  0.
        2    1    3    3  502    0  0.10116437060E+04 -0.45769672813E+03  0.56362277006E+03  0.12452228354E+04  0.25500000920E-02 0. -1.
       -2    1    3    3    0  502 -0.10116437060E+04  0.45769672813E+03 -0.16827547780E+04  0.20160786011E+04  0.25500000920E-02 0.  1.
</event>
<event>
 5   0  0.2612331E-06  0.3052136E+04  0.7818609E-02  0.8228998E-01
        1   -1    0    0  501    0  0.00000000000E+00  0.00000000000E+00  0.24209623874E+04  0.24209623874E+04  0.50400001928E-02 0.  1.
       -1   -1    0    0    0  501  0.00000000000E+00  0.00000000000E+00 -0.96196570510E+03  0.96196570511E+03  0.50400001928E-02 0. -1.
    10030    2    1    2    0    0  0.00000000000E+00  0.00000000000E+00  0.14589966823E+04  0.33829280925E+04  0.30521355082E+04 0.  0.
        4    1    3    3  502    0  0.12505801127E+04 -0.84086134782E+03  0.46283486075E+03  0.15764568328E+04  0.12699999809E+01 0.  1.
       -4    1    3    3    0  502 -0.12505801127E+04  0.84086134782E+03  0.99616182154E+03  0.18064712597E+04  0.12699999809E+01 0. -1.
</event>
<event>
 5   0  0.2612331E-06  0.3078723E+04  0.7818609E-02  0.8221602E-01
       -1   -1    0    0    0  501  0.00000000000E+00  0.00000000000E+00  0.14077856994E+04  0.14077856994E+04  0.50400001928E-02 0. -1.
        1   -1    0    0  501    0  0.00000000000E+00  0.00000000000E+00 -0.16832348578E+04  0.16832348578E+04  0.50400001928E-02 0.  1.
    10030    2    1    2    0    0  0.00000000000E+00  0.00000000000E+00 -0.27544915836E+03  0.30910205572E+04  0.30787230869E+04 0.  0.
        4    1    3    3  502    0  0.11156030854E+04 -0.10090766245E+04 -0.46587329160E+03  0.15747524932E+04  0.12699999809E+01 0.  1.
       -4    1    3    3    0  502 -0.11156030854E+04  0.10090766245E+04  0.19042413324E+03  0.15162680639E+04  0.12699999809E+01 0. -1.
</event>
<event>
 5   0  0.7363513E-06  0.3151746E+04  0.7818609E-02  0.8201678E-01
       -2   -1    0    0    0  501  0.00000000000E+00  0.00000000000E+00  0.16933450861E+04  0.16933450861E+04  0.25500000920E-02 0.  1.
        2   -1    0    0  501    0  0.00000000000E+00  0.00000000000E+00 -0.14665503462E+04  0.14665503462E+04  0.25500000920E-02 0. -1.
    10030    2    1    2    0    0  0.00000000000E+00  0.00000000000E+00  0.22679473995E+03  0.31598954323E+04  0.31517460699E+04 0.  0.
        4    1    3    3  502    0  0.11614049126E+04 -0.12667282979E+03  0.11737078308E+04  0.16560492329E+04  0.12699999809E+01 0.  1.
       -4    1    3    3    0  502 -0.11614049126E+04  0.12667282979E+03 -0.94691309089E+03  0.15038461994E+04  0.12699999809E+01 0. -1.
</event>
<event>
 5   0  0.2517725E-06  0.3030526E+04  0.7818609E-02  0.8235067E-01
        1   -1    0    0  501    0  0.00000000000E+00  0.00000000000E+00  0.17408731746E+04  0.17408731746E+04  0.50400001928E-02 0.  1.
       -1   -1    0    0    0  501  0.00000000000E+00  0.00000000000E+00 -0.13188912819E+04  0.13188912819E+04  0.50400001928E-02 0. -1.
    10030    2    1    2    0    0  0.00000000000E+00  0.00000000000E+00  0.42198189265E+03  0.30597644565E+04  0.30305263258E+04 0.  0.
        3    1    3    3  502    0  0.99091366746E+03 -0.62571655799E+03 -0.75879217278E+03  0.13961363397E+04  0.10100000352E+00 0. -1.
       -3    1    3    3    0  502 -0.99091366746E+03  0.62571655799E+03  0.11807740654E+04  0.16636281168E+04  0.10100000352E+00 0.  1.
</event>
<event>
 5   0  0.2598987E-06  0.3060628E+04  0.7818609E-02  0.8226627E-01
        1   -1    0    0  501    0  0.00000000000E+00  0.00000000000E+00  0.20659859891E+04  0.20659859891E+04  0.50400001928E-02 0. -1.
       -1   -1    0    0    0  501  0.00000000000E+00  0.00000000000E+00 -0.11335321221E+04  0.11335321222E+04  0.50400001928E-02 0.  1.
    10030    2    1    2    0    0  0.00000000000E+00  0.00000000000E+00  0.93245386692E+03  0.31995181112E+04  0.30606283554E+04 0.  0.
        2    1    3    3  502    0  0.59960973626E+03  0.12190203164E+04 -0.27024207559E+03  0.13851256791E+04  0.25500000920E-02 0.  1.
       -2    1    3    3    0  502 -0.59960973626E+03 -0.12190203164E+04  0.12026959425E+04  0.18143924321E+04  0.25500000920E-02 0. -1.
</event>
<event>
 5   0  0.7094341E-06  0.3095799E+04  0.7818609E-02  0.8216892E-01
       -2   -1    0    0    0  501  0.00000000000E+00  0.00000000000E+00  0.12250813582E+04  0.12250813582E+04  0.25500000920E-02 0. -1.
        2   -1    0    0  501    0  0.00000000000E+00  0.00000000000E+00 -0.19557823854E+04  0.19557823854E+04  0.25500000920E-02 0.  1.
    10030    2    1    2    0    0  0.00000000000E+00  0.00000000000E+00 -0.73070102722E+03  0.31808637436E+04  0.30957987926E+04 0.  0.
        3    1    3    3  502    0  0.12212424836E+04 -0.24509168435E+03  0.57886132001E+03  0.13735296049E+04  0.10100000352E+00 0.  1.
       -3    1    3    3    0  502 -0.12212424836E+04  0.24509168435E+03 -0.13095623472E+04  0.18073341387E+04  0.10100000352E+00 0. -1.
</event>
<event>
 5   0  0.7094341E-06  0.3142950E+04  0.7818609E-02  0.8204048E-01
        2   -1    0    0  501    0  0.00000000000E+00  0.00000000000E+00  0.22430419548E+04  0.22430419548E+04  0.25500000920E-02 0.  1.
       -2   -1    0    0    0  501  0.00000000000E+00  0.00000000000E+00 -0.11009755056E+04  0.11009755056E+04  0.25500000920E-02 0. -1.
    10030    2    1    2    0    0  0.00000000000E+00  0.00000000000E+00  0.11420664493E+04  0.33440174604E+04  0.31429503657E+04 0.  0.
        3    1    3    3  502    0  0.13720723199E+04 -0.48183667012E+03  0.12047770905E+04  0.18884482719E+04  0.10100000352E+00 0.  1.
       -3    1    3    3    0  502 -0.13720723199E+04  0.48183667012E+03 -0.62710641265E+02  0.14555691885E+04  0.10100000352E+00 0. -1.
</event>
<event>
 5   0  0.7363513E-06  0.3118282E+04  0.7818609E-02  0.8210738E-01
       -2   -1    0    0    0  501  0.00000000000E+00  0.00000000000E+00  0.10529238543E+04  0.10529238543E+04  0.25500000920E-02 0.  1.
        2   -1    0    0  501    0  0.00000000000E+00  0.00000000000E+00 -0.23087332098E+04  0.23087332098E+04  0.25500000920E-02 0. -1.
    10030    2    1    2    0    0  0.00000000000E+00  0.00000000000E+00 -0.12558093555E+04  0.33616570641E+04  0.31182817511E+04 0.  0.
        4    1    3    3  502    0 -0.11206708911E+04  0.75046631026E+03  0.21532983350E+03  0.13658226383E+04  0.12699999809E+01 0.  1.
       -4    1    3    3    0  502  0.11206708911E+04 -0.75046631026E+03 -0.14711391890E+04  0.19958344258E+04  0.12699999809E+01 0. -1.
</event>
<event>
 5   0  0.2624011E-06  0.3058517E+04  0.7818609E-02  0.8227216E-01
        1   -1    0    0  501    0  0.00000000000E+00  0.00000000000E+00  0.20081980421E+04  0.20081980421E+04  0.50400001928E-02 0.  1.
       -1   -1    0    0    0  501  0.00000000000E+00  0.00000000000E+00 -0.11645421968E+04  0.11645421968E+04  0.50400001928E-02 0. -1.
    10030    2    1    2    0    0  0.00000000000E+00  0.00000000000E+00  0.84365584525E+03  0.31727402389E+04  0.30585168691E+04 0.  0.
        1    1    3    3  502    0 -0.14250134764E+04  0.55494192395E+03  0.42465223979E+03  0.15871211269E+04  0.50400001928E-02 0. -1.
       -1    1    3    3    0  502  0.14250134764E+04 -0.55494192395E+03  0.41900360546E+03  0.15856191120E+04  0.50400001928E-02 0.  1.
</event>
<event>
 5   0  0.7363513E-06  0.3104294E+04  0.7818609E-02  0.8214560E-01
       -2   -1    0    0    0  501  0.00000000000E+00  0.00000000000E+00  0.15513714885E+04  0.15513714885E+04  0.25500000920E-02 0. -1.
        2   -1    0    0  501    0  0.00000000000E+00  0.00000000000E+00 -0.15529229837E+04  0.15529229837E+04  0.25500000920E-02 0.  1.
    10030    2    1    2    0    0  0.00000000000E+00  0.00000000000E+00 -0.15514952433E+01  0.31042944722E+04  0.31042940845E+04 0.  0.
        4    1    3    3  502    0 -0.68326504620E+03 -0.98212106561E+03 -0.98958622550E+03  0.15526414336E+04  0.12699999809E+01 0.  1.
       -4    1    3    3    0  502  0.68326504620E+03  0.98212106561E+03  0.98803473026E+03  0.15516530385E+04  0.12699999809E+01 0. -1.
</event>
<event>
 5   0  0.2517725E-06  0.3188089E+04  0.7818609E-02  0.8191970E-01
        1   -1    0    0  501    0  0.00000000000E+00  0.00000000000E+00  0.23565599924E+04  0.23565599924E+04  0.50400001928E-02 0. -1.
       -1   -1    0    0    0  501  0.00000000000E+00  0.00000000000E+00 -0.10782570845E+04  0.10782570845E+04  0.50400001928E-02 0.  1.
    10030    2    1    2    0    0  0.00000000000E+00  0.00000000000E+00  0.12783029079E+04  0.34348170769E+04  0.31880887734E+04 0.  0.
        3    1    3    3  502    0  0.92456071637E+03  0.79913764540E+03 -0.46355354839E+03  0.13070254003E+04  0.10100000352E+00 0.  1.
       -3    1    3    3    0  502 -0.92456071637E+03 -0.79913764540E+03  0.17418564563E+04  0.21277916766E+04  0.10100000352E+00 0. -1.
</event>
<event>
 5   0  0.7094341E-06  0.3089060E+04  0.7818609E-02  0.8218747E-01
        2   -1    0    0  501    0  0.00000000000E+00  0.00000000000E+00  0.15628639143E+04  0.15628639143E+04  0.25500000920E-02 0. -1.
       -2   -1    0    0    0  501  0.00000000000E+00  0.00000000000E+00 -0.15264110881E+04  0.15264110881E+04  0.25500000920E-02 0.  1.
    10030    2    1    2    0    0  0.00000000000E+00  0.00000000000E+00  0.36452826170E+02  0.30892750024E+04  0.30890599268E+04 0.  0.
        3    1    3    3  502    0  0.15151425072E+03  0.11646882327E+04 -0.98489753577E+03  0.15328008395E+04  0.10100000352E+00 0.  1.
       -3    1    3    3    0  502 -0.15151425072E+03 -0.11646882327E+04  0.10213503619E+04  0.15564741628E+04  0.10100000352E+00 0. -1.
</event>
<event>
 5   0  0.7094341E-06  0.3103965E+04  0.7818609E-02  0.8214651E-01
       -2   -1    0    0    0  501  0.00000000000E+00  0.00000000000E+00  0.95360384651E+03  0.95360384651E+03  0.25500000920E-02 0.  1.
        2   -1    0    0  501    0  0.00000000000E+00  0.00000000000E+00 -0.25258392108E+04  0.25258392108E+04  0.25500000920E-02 0. -1.
    10030    2    1    2    0    0  0.00000000000E+00  0.00000000000E+00 -0.15722353643E+04  0.34794430573E+04  0.31039651977E+04 0.  0.
        3    1    3    3  502    0 -0.13431768719E+04  0.37781555633E+03 -0.24370162900E+02  0.13955151805E+04  0.10100000352E+00 0.  1.
       -3    1    3    3    0  502  0.13431768719E+04 -0.37781555633E+03 -0.15478652014E+04  0.20839278768E+04  0.10100000352E+00 0. -1.
</event>
<event>
 5   0  0.2612331E-06  0.3117309E+04  0.7818609E-02  0.8211004E-01
       -1   -1    0    0    0  501  0.00000000000E+00  0.00000000000E+00  0.26174006919E+04  0.26174006919E+04  0.50400001928E-02 0.  1.
        1   -1    0    0  501    0  0.00000000000E+00  0.00000000000E+00 -0.92817409690E+03  0.92817409691E+03  0.50400001928E-02 0. -1.
    10030    2    1    2    0    0  0.00000000000E+00  0.00000000000E+00  0.16892265950E+04  0.35455747888E+04  0.31173087903E+04 0.  0.
        4    1    3    3  502    0  0.18329582791E+03 -0.23036563758E+03 -0.89626544705E+03  0.94337641055E+03  0.12699999809E+01 0. -1.
       -4    1    3    3    0  502 -0.18329582791E+03  0.23036563758E+03  0.25854920420E+04  0.26021983783E+04  0.12699999809E+01 0.  1.
</event>
<event>
 5   0  0.2624011E-06  0.3108232E+04  0.7818609E-02  0.8213482E-01
        1   -1    0    0  501    0  0.00000000000E+00  0.00000000000E+00  0.16160270836E+04  0.16160270836E+04  0.50400001928E-02 0. -1.
       -1   -1    0    0    0  501  0.00000000000E+00  0.00000000000E+00 -0.14945763453E+04  0.14945763453E+04  0.50400001928E-02 0.  1.
    10030    2    1    2    0    0  0.00000000000E+00  0.00000000000E+00  0.12145073830E+03  0.31106034288E+04  0.31082315566E+04 0.  0.
        1    1    3    3  502    0  0.14085970686E+04  0.61715705759E+03  0.28505555675E+03  0.15640604866E+04  0.50400001928E-02 0. -1.
       -1    1    3    3    0  502 -0.14085970686E+04 -0.61715705759E+03 -0.16360481845E+03  0.15465429422E+04  0.50400001928E-02 0.  1.
</event>
<event>
 5   0  0.7071012E-06  0.3091931E+04  0.7818609E-02  0.8217956E-01
       -2   -1    0    0    0  501  0.00000000000E+00  0.00000000000E+00  0.12568342087E+04  0.12568342087E+04  0.25500000920E-02 0. -1.
        2   -1    0    0  501    0  0.00000000000E+00  0.00000000000E+00 -0.19016110666E+04  0.19016110666E+04  0.25500000920E-02 0.  1.
    10030    2    1    2    0    0  0.00000000000E+00  0.00000000000E+00 -0.64477685797E+03  0.31584452753E+04  0.30919313318E+04 0.  0.
        1    1    3    3  502    0  0.10693299011E+04  0.20676705321E+03  0.79838809144E+03  0.13504231175E+04  0.50400001928E-02 0. -1.
       -1    1    3    3    0  502 -0.10693299011E+04 -0.20676705321E+03 -0.14431649494E+04  0.18080221578E+04  0.50400001928E-02 0.  1.
</event>
<event>
 5   0  0.2612331E-06  0.3133544E+04  0.7818609E-02  0.8206592E-01
        1   -1    0    0  501    0  0.00000000000E+00  0.00000000000E+00  0.18005487697E+04  0.18005487697E+04  0.50400001928E-02 0. -1.
       -1   -1    0    0    0  501  0.00000000000E+00  0.00000000000E+00 -0.13633481392E+04  0.13633481392E+04  0.50400001928E-02 0.  1.
    10030    2    1    2    0    0  0.00000000000E+00  0.00000000000E+00  0.43720063050E+03  0.31638969090E+04  0.31335442009E+04 0.  0.
        4    1    3    3  502    0  0.11846034088E+04  0.75551399653E+03 -0.48143103806E+03  0.14852151671E+04  0.12699999809E+01 0.  1.
       -4    1    3    3    0  502 -0.11846034088E+04 -0.75551399653E+03  0.91863166856E+03  0.16786817419E+04  0.12699999809E+01 0. -1.
</event>
<event>
 5   0  0.7079223E-06  0.3013421E+04  0.7818609E-02  0.8239909E-01
        2   -1    0    0  501    0  0.00000000000E+00  0.00000000000E+00  0.11677786927E+04  0.11677786927E+04  0.25500000920E-02 0. -1.
       -2   -1    0    0    0  501  0.00000000000E+00  0.00000000000E+00 -0.19440126971E+04  0.19440126971E+04  0.25500000920E-02 0.  1.
    10030    2    1    2    0    0  0.00000000000E+00  0.00000000000E+00 -0.77623400439E+03  0.31117913898E+04  0.30134210499E+04 0.  0.
        5    1    3    3  502    0  0.10483007933E+04  0.78019488918E+03 -0.11626110022E+04  0.17490926364E+04  0.46999998093E+01 0.  1.
       -5    1    3    3    0  502 -0.10483007933E+04 -0.78019488918E+03  0.38637699777E+03  0.13626987535E+04  0.46999998093E+01 0. -1.
</event>
<event>
 5   0  0.2598987E-06  0.3079302E+04  0.7818609E-02  0.8221441E-01
       -1   -1    0    0    0  501  0.00000000000E+00  0.00000000000E+00  0.10056403194E+04  0.10056403195E+04  0.50400001928E-02 0. -1.
        1   -1    0    0  501    0  0.00000000000E+00  0.00000000000E+00 -0.23572303987E+04  0.23572303987E+04  0.50400001928E-02 0.  1.
    10030    2    1    2    0    0  0.00000000000E+00  0.00000000000E+00 -0.13515900793E+04  0.33628707182E+04  0.30793024737E+04 0.  0.
        2    1    3    3  502    0  0.98849268723E+03  0.94774018439E+03 -0.14443000151E+04  0.19903094693E+04  0.25500000920E-02 0.  1.
       -2    1    3    3    0  502 -0.98849268723E+03 -0.94774018439E+03  0.92709935816E+02  0.13725612489E+04  0.25500000920E-02 0. -1.
</event>
<event>
 5   0  0.2674441E-06  0.3027864E+04  0.7818609E-02  0.8235819E-01
       -1   -1    0    0    0  501  0.00000000000E+00  0.00000000000E+00  0.10200934365E+04  0.10200934365E+04  0.50400001928E-02 0. -1.
        1   -1    0    0  501    0  0.00000000000E+00  0.00000000000E+00 -0.22468438769E+04  0.22468438769E+04  0.50400001928E-02 0.  1.
    10030    2    1    2    0    0  0.00000000000E+00  0.00000000000E+00 -0.12267504404E+04  0.32669373133E+04  0.30278643903E+04 0.  0.
        5    1    3    3  502    0  0.14328550406E+04 -0.28234023832E+03 -0.18290084983E+03  0.14718234909E+04  0.46999998093E+01 0. -1.
       -5    1    3    3    0  502 -0.14328550406E+04  0.28234023832E+03 -0.10438495906E+04  0.17951138224E+04  0.46999998093E+01 0.  1.
</event>
<event>
 5   0  0.2624011E-06  0.3087416E+04  0.7818609E-02  0.8219200E-01
        1   -1    0    0  501    0  0.00000000000E+00  0.00000000000E+00  0.10187161904E+04  0.10187161904E+04  0.50400001928E-02 0.  1.
       -1   -1    0    0    0  501  0.00000000000E+00  0.00000000000E+00 -0.23392529890E+04  0.23392529890E+04  0.50400001928E-02 0. -1.
    10030    2    1    2    0    0  0.00000000000E+00  0.00000000000E+00 -0.13205367986E+04  0.33579691795E+04  0.30874163266E+04 0.  0.
        1    1    3    3  502    0  0.71614634250E+03  0.72391053486E+03  0.60162845283E+03  0.11827378584E+04  0.50400001928E-02 0.  1.
       -1    1    3    3    0  502 -0.71614634250E+03 -0.72391053486E+03 -0.19221652514E+04  0.21752313211E+04  0.50400001928E-02 0. -1.
</event>
<event>
 5   0  0.7079223E-06  0.3723440E+04  0.7818609E-02  0.8062787E-01
        2   -1    0    0  501    0  0.00000000000E+00  0.00000000000E+00  0.19142724916E+04  0.19142724916E+04  0.25500000920E-02 0. -1.
       -2   -1    0    0    0  501  0.00000000000E+00  0.00000000000E+00 -0.18106104714E+04  0.18106104714E+04  0.25500000920E-02 0.  1.
    10030    2    1    2    0    0  0.00000000000E+00  0.00000000000E+00  0.10366202028E+03  0.37248829630E+04  0.37234402471E+04 0.  0.
        5    1    3    3  502    0  0.60691459792E+03 -0.11108187897E+04 -0.13138778015E+04  0.18244343452E+04  0.46999998093E+01 0.  1.
       -5    1    3    3    0  502 -0.60691459792E+03  0.11108187897E+04  0.14175398218E+04  0.19004486178E+04  0.46999998093E+01 0. -1.
</event>
<event>
 5   0  0.2598987E-06  0.3237848E+04  0.7818609E-02  0.8178892E-01
       -1   -1    0    0    0  501  0.00000000000E+00  0.00000000000E+00  0.88718555021E+03  0.88718555023E+03  0.50400001928E-02 0. -1.
        1   -1    0    0  501    0  0.00000000000E+00  0.00000000000E+00 -0.29541906451E+04  0.29541906451E+04  0.50400001928E-02 0.  1.
    10030    2    1    2    0    0  0.00000000000E+00  0.00000000000E+00 -0.20670050949E+04  0.38413761953E+04  0.32378482070E+04 0.  0.
        2    1    3    3  502    0  0.76228078646E+03 -0.28146986284E+03 -0.26947213788E+04  0.28145728966E+04  0.25500000920E-02 0.  1.
       -2    1    3    3    0  502 -0.76228078646E+03  0.28146986284E+03  0.62771628392E+03  0.10268032987E+04  0.25500000920E-02 0. -1.
</event>
<event>
 5   0  0.2517725E-06  0.2525205E+04  0.7818609E-02  0.8394061E-01
       -1   -1    0    0    0  501  0.00000000000E+00  0.00000000000E+00  0.15129368079E+04  0.15129368079E+04  0.50400001928E-02 0.  1.
        1   -1    0    0  501    0  0.00000000000E+00  0.00000000000E+00 -0.10536892885E+04  0.10536892885E+04  0.50400001928E-02 0. -1.
    10030    2    1    2    0    0  0.00000000000E+00  0.00000000000E+00  0.45924751941E+03  0.25666260964E+04  0.25252051867E+04 0.  0.
        3    1    3    3  502    0 -0.39264757264E+03  0.11477693260E+04 -0.12628967907E+03  0.12196293024E+04  0.10100000352E+00 0. -1.
       -3    1    3    3    0  502  0.39264757264E+03 -0.11477693260E+04  0.58553719848E+03  0.13469967940E+04  0.10100000352E+00 0.  1.
</event>
<event>
 5   0  0.7094341E-06  0.3036432E+04  0.7818609E-02  0.8233404E-01
       -2   -1    0    0    0  501  0.00000000000E+00  0.00000000000E+00  0.97763567201E+03  0.97763567201E+03  0.25500000920E-02 0. -1.
        2   -1    0    0  501    0  0.00000000000E+00  0.00000000000E+00 -0.23577076591E+04  0.23577076591E+04  0.25500000920E-02 0.  1.
    10030    2    1    2    0    0  0.00000000000E+00  0.00000000000E+00 -0.13800719871E+04  0.33353433311E+04  0.30364315317E+04 0.  0.
        3    1    3    3  502    0  0.13564465310E+03  0.30331629212E+03  0.93720789188E+03  0.99436355916E+03  0.10100000352E+00 0. -1.
       -3    1    3    3    0  502 -0.13564465310E+03 -0.30331629212E+03 -0.23172798789E+04  0.23409797719E+04  0.10100000352E+00 0.  1.
</event>
<event>
 5   0  0.7079223E-06  0.3063746E+04  0.7818609E-02  0.8225759E-01
        2   -1    0    0  501    0  0.00000000000E+00  0.00000000000E+00  0.10600001281E+04  0.10600001281E+04  0.25500000920E-02 0.  1.
       -2   -1    0    0    0  501  0.00000000000E+00  0.00000000000E+00 -0.22138056822E+04  0.22138056822E+04  0.25500000920E-02 0. -1.
    10030    2    1    2    0    0  0.00000000000E+00  0.00000000000E+00 -0.11538055540E+04  0.32738058103E+04  0.30637456205E+04 0.  0.
        5    1    3    3  502    0  0.13133279150E+04  0.69645765128E+02 -0.14162055821E+04  0.19327030516E+04  0.46999998093E+01 0. -1.
       -5    1    3    3    0  502 -0.13133279150E+04 -0.69645765128E+02  0.26240002806E+03  0.13411027587E+04  0.46999998093E+01 0.  1.
</event>
<event>
 5   0  0.7071012E-06  0.3091718E+04  0.7818609E-02  0.8218015E-01
        2   -1    0    0  501    0  0.00000000000E+00  0.00000000000E+00  0.25604508221E+04  0.25604508221E+04  0.25500000920E-02 0. -1.
       -2   -1    0    0    0  501  0.00000000000E+00  0.00000000000E+00 -0.93330428393E+03  0.93330428393E+03  0.25500000920E-02 0.  1.
    10030    2    1    2    0    0  0.00000000000E+00  0.00000000000E+00  0.16271465381E+04  0.34937551060E+04  0.30917177886E+04 0.  0.
        1    1    3    3  502    0  0.96202295125E+02  0.10800299922E+04  0.20586462640E+04  0.23267453892E+04  0.50400001928E-02 0. -1.
       -1    1    3    3    0  502 -0.96202295125E+02 -0.10800299922E+04 -0.43149972585E+03  0.11670097168E+04  0.50400001928E-02 0.  1.
</event>
<event>
 5   0  0.2612331E-06  0.2252971E+04  0.7818609E-02  0.8496698E-01
        1   -1    0    0  501    0  0.00000000000E+00  0.00000000000E+00  0.15243139257E+04  0.15243139257E+04  0.50400001928E-02 0. -1.
       -1   -1    0    0    0  501  0.00000000000E+00  0.00000000000E+00 -0.83248572654E+03  0.83248572656E+03  0.50400001928E-02 0.  1.
    10030    2    1    2    0    0  0.00000000000E+00  0.00000000000E+00  0.69182819916E+03  0.23567996523E+04  0.22529710038E+04 0.  0.
        4    1    3    3  502    0 -0.17905538266E+03 -0.11121326093E+04  0.35455316801E+03  0.11809357868E+04  0.12699999809E+01 0. -1.
       -4    1    3    3    0  502  0.17905538266E+03  0.11121326093E+04  0.33727503115E+03  0.11758638655E+04  0.12699999809E+01 0.  1.
</event>
<event>
 5   0  0.2517725E-06  0.3101305E+04  0.7818609E-02  0.8215380E-01
       -1   -1    0    0    0  501  0.00000000000E+00  0.00000000000E+00  0.10988526771E+04  0.10988526771E+04  0.50400001928E-02 0. -1.
        1   -1    0    0  501    0  0.00000000000E+00  0.00000000000E+00 -0.21882121123E+04  0.21882121123E+04  0.50400001928E-02 0.  1.
    10030    2    1    2    0    0  0.00000000000E+00  0.00000000000E+00 -0.10893594352E+04  0.32870647894E+04  0.31013047175E+04 0.  0.
        3    1    3    3  502    0 -0.79550658292E+03 -0.70283835553E+03  0.65338426981E+03  0.12464844531E+04  0.10100000352E+00 0. -1.
       -3    1    3    3    0  502  0.79550658292E+03  0.70283835553E+03 -0.17427437050E+04  0.20405803364E+04  0.10100000352E+00 0.  1.
</event>
<event>
 5   0  0.2624011E-06  0.2248995E+04  0.7818609E-02  0.8498308E-01
       -1   -1    0    0    0  501  0.00000000000E+00  0.00000000000E+00  0.45698206601E+03  0.45698206604E+03  0.50400001928E-02 0.  1.
        1   -1    0    0  501    0  0.00000000000E+00  0.00000000000E+00 -0.27670544531E+04  0.27670544531E+04  0.50400001928E-02 0. -1.
    10030    2    1    2    0    0  0.00000000000E+00  0.00000000000E+00 -0.23100723871E+04  0.32240365191E+04  0.22489946739E+04 0.  0.
        1    1    3    3  502    0 -0.30262520495E+03 -0.96587453159E+03 -0.18573252673E+04  0.21152193205E+04  0.50400001928E-02 0. -1.
       -1    1    3    3    0  502  0.30262520495E+03  0.96587453159E+03 -0.45274711983E+03  0.11088171986E+04  0.50400001928E-02 0.  1.
</event>
<event>
 5   0  0.7414808E-06  0.3077382E+04  0.7818609E-02  0.8221973E-01
       -2   -1    0    0    0  501  0.00000000000E+00  0.00000000000E+00  0.91316952596E+03  0.91316952596E+03  0.25500000920E-02 0.  1.
        2   -1    0    0  501    0  0.00000000000E+00  0.00000000000E+00 -0.25926951193E+04  0.25926951193E+04  0.25500000920E-02 0. -1.
    10030    2    1    2    0    0  0.00000000000E+00  0.00000000000E+00 -0.16795255933E+04  0.35058646453E+04  0.30773821167E+04 0.  0.
        2    1    3    3  502    0  0.18819538530E+03  0.31189410114E+03  0.86333784479E+03  0.93704197751E+03  0.25500000920E-02 0.  1.
       -2    1    3    3    0  502 -0.18819538530E+03 -0.31189410114E+03 -0.25428634381E+04  0.25688226678E+04  0.25500000920E-02 0. -1.
</event>
<event>
 5   0  0.2624011E-06  0.3116641E+04  0.7818609E-02  0.8211186E-01
       -1   -1    0    0    0  501  0.00000000000E+00  0.00000000000E+00  0.10048454219E+04  0.10048454219E+04  0.50400001928E-02 0. -1.
        1   -1    0    0  501    0  0.00000000000E+00  0.00000000000E+00 -0.24166536998E+04  0.24166536998E+04  0.50400001928E-02 0.  1.
    10030    2    1    2    0    0  0.00000000000E+00  0.00000000000E+00 -0.14118082779E+04  0.34214991217E+04  0.31166414016E+04 0.  0.
        1    1    3    3  502    0  0.84078073205E+03 -0.11472210428E+04 -0.69693221715E+01  0.14223490893E+04  0.50400001928E-02 0. -1.
       -1    1    3    3    0  502 -0.84078073205E+03  0.11472210428E+04 -0.14048389557E+04  0.19991500324E+04  0.50400001928E-02 0.  1.
</event>
<event>
 5   0  0.2393250E-06  0.1899053E+04  0.7818609E-02  0.8655328E-01
        4   -1    0    0  501    0  0.00000000000E+00  0.00000000000E+00  0.14967294011E+04  0.14967299399E+04  0.12699999809E+01 0.  1.
       -4   -1    0    0    0  501  0.00000000000E+00  0.00000000000E+00 -0.60237938330E+03  0.60238072207E+03  0.12699999809E+01 0. -1.
    10030    2    1    2    0    0  0.00000000000E+00  0.00000000000E+00  0.89435001777E+03  0.20991106619E+04  0.18990533475E+04 0.  0.
        5    1    3    3  502    0  0.20848549550E+03  0.75270915563E+03 -0.14965189331E+03  0.79527042820E+03  0.46999998093E+01 0. -1.
       -5    1    3    3    0  502 -0.20848549550E+03 -0.75270915563E+03  0.10440019111E+04  0.13038402337E+04  0.46999998093E+01 0.  1.
</event>
<event>
 5   0  0.2612331E-06  0.3038105E+04  0.7818609E-02  0.8232933E-01
       -1   -1    0    0    0  501  0.00000000000E+00  0.00000000000E+00  0.14902540158E+04  0.14902540159E+04  0.50400001928E-02 0.  1.
        1   -1    0    0  501    0  0.00000000000E+00  0.00000000000E+00 -0.15484079208E+04  0.15484079208E+04  0.50400001928E-02 0. -1.
    10030    2    1    2    0    0  0.00000000000E+00  0.00000000000E+00 -0.58153904962E+02  0.30386619367E+04  0.30381054111E+04 0.  0.
        4    1    3    3  502    0  0.92016527962E+03 -0.54587002121E+03  0.10494717711E+04  0.14986897054E+04  0.12699999809E+01 0.  1.
       -4    1    3    3    0  502 -0.92016527962E+03  0.54587002121E+03 -0.11076256761E+04  0.15399722313E+04  0.12699999809E+01 0. -1.
</event>
<event>
 5   0  0.7071012E-06  0.3114922E+04  0.7818609E-02  0.8211655E-01
       -2   -1    0    0    0  501  0.00000000000E+00  0.00000000000E+00  0.18238529794E+04  0.18238529794E+04  0.25500000920E-02 0. -1.
        2   -1    0    0  501    0  0.00000000000E+00  0.00000000000E+00 -0.13299779005E+04  0.13299779005E+04  0.25500000920E-02 0.  1.
    10030    2    1    2    0    0  0.00000000000E+00  0.00000000000E+00  0.49387507893E+03  0.31538308799E+04  0.31149216082E+04 0.  0.
        1    1    3    3  502    0  0.17098530552E+03  0.51935444553E+03 -0.12296063126E+04  0.13456956189E+04  0.50400001928E-02 0.  1.
       -1    1    3    3    0  502 -0.17098530552E+03 -0.51935444553E+03  0.17234813915E+04  0.18081352609E+04  0.50400001928E-02 0. -1.
</event>
<event>
 5   0  0.7094341E-06  0.3088681E+04  0.7818609E-02  0.8218851E-01
       -2   -1    0    0    0  501  0.00000000000E+00  0.00000000000E+00  0.98545342905E+03  0.98545342905E+03  0.25500000920E-02 0. -1.
        2   -1    0    0  501    0  0.00000000000E+00  0.00000000000E+00 -0.24201927912E+04  0.24201927912E+04  0.25500000920E-02 0.  1.
    10030    2    1    2    0    0  0.00000000000E+00  0.00000000000E+00 -0.14347393621E+04  0.34056462202E+04  0.30886808090E+04 0.  0.
        3    1    3    3  502    0 -0.36092306183E+03 -0.77761765377E+03 -0.21337267824E+04  0.22995096573E+04  0.10100000352E+00 0.  1.
       -3    1    3    3    0  502  0.36092306183E+03  0.77761765377E+03  0.69898742024E+03  0.11061365629E+04  0.10100000352E+00 0. -1.
</event>
<event>
 5   0  0.2598987E-06  0.1907616E+04  0.7818609E-02  0.8651075E-01
        1   -1    0    0  501    0  0.00000000000E+00  0.00000000000E+00  0.13430480408E+04  0.13430480408E+04  0.50400001928E-02 0. -1.
       -1   -1    0    0    0  501  0.00000000000E+00  0.00000000000E+00 -0.67737684943E+03  0.67737684945E+03  0.50400001928E-02 0.  1.
    10030    2    1    2    0    0  0.00000000000E+00  0.00000000000E+00  0.66567119136E+03  0.20204248903E+04  0.19076159472E+04 0.  0.
        2    1    3    3  502    0  0.15562309160E+03 -0.11473974495E+03  0.13220743114E+04  0.13361378075E+04  0.25500000920E-02 0. -1.
       -2    1    3    3    0  502 -0.15562309160E+03  0.11473974495E+03 -0.65640312002E+03  0.68428708280E+03  0.25500000920E-02 0.  1.
</event>
<event>
 5   0  0.2393250E-06  0.3394725E+04  0.7818609E-02  0.8139202E-01
       -3   -1    0    0    0  501  0.00000000000E+00  0.00000000000E+00  0.18032143513E+04  0.18032143542E+04  0.10100000352E+00 0.  1.
        3   -1    0    0  501    0  0.00000000000E+00  0.00000000000E+00 -0.15977246109E+04  0.15977246141E+04  0.10100000352E+00 0. -1.
    10030    2    1    2    0    0  0.00000000000E+00  0.00000000000E+00  0.20548974045E+03  0.34009389682E+04  0.33947252955E+04 0.  0.
        3    1    3    3  502    0 -0.16479166724E+04  0.90247853478E+02  0.50003840993E+03  0.17244745448E+04  0.10100000352E+00 0. -1.
       -3    1    3    3    0  502  0.16479166724E+04 -0.90247853478E+02 -0.29454866949E+03  0.16764644234E+04  0.10100000352E+00 0.  1.
</event>
<event>
 5   0  0.2674441E-06  0.3050875E+04  0.7818609E-02  0.8229351E-01
       -1   -1    0    0    0  501  0.00000000000E+00  0.00000000000E+00  0.12116468508E+04  0.12116468508E+04  0.50400001928E-02 0.  1.
        1   -1    0    0  501    0  0.00000000000E+00  0.00000000000E+00 -0.19204934117E+04  0.19204934117E+04  0.50400001928E-02 0. -1.
    10030    2    1    2    0    0  0.00000000000E+00  0.00000000000E+00 -0.70884656095E+03  0.31321402625E+04  0.30508751494E+04 0.  0.
        5    1    3    3  502    0 -0.13526786990E+04  0.39399527230E+03  0.24593165194E+03  0.14302015259E+04  0.46999998093E+01 0. -1.
       -5    1    3    3    0  502  0.13526786990E+04 -0.39399527230E+03 -0.95477821289E+03  0.17019387366E+04  0.46999998093E+01 0.  1.
</event>
<event>
 5   0  0.7079223E-06  0.3079746E+04  0.7818609E-02  0.8221318E-01
        2   -1    0    0  501    0  0.00000000000E+00  0.00000000000E+00  0.16895145672E+04  0.16895145672E+04  0.25500000920E-02 0. -1.
       -2   -1    0    0    0  501  0.00000000000E+00  0.00000000000E+00 -0.14034853252E+04  0.14034853252E+04  0.25500000920E-02 0.  1.
    10030    2    1    2    0    0  0.00000000000E+00  0.00000000000E+00  0.28602924205E+03  0.30929998924E+04  0.30797460297E+04 0.  0.
        5    1    3    3  502    0 -0.27723191076E+03 -0.36235507240E+03 -0.13340383811E+04  0.14099075229E+04  0.46999998093E+01 0.  1.
       -5    1    3    3    0  502  0.27723191076E+03  0.36235507240E+03  0.16200676232E+04  0.16830923695E+04  0.46999998093E+01 0. -1.
</event>
<event>
 5   0  0.7071012E-06  0.3125060E+04  0.7818609E-02  0.8208894E-01
       -2   -1    0    0    0  501  0.00000000000E+00  0.00000000000E+00  0.12466364098E+04  0.12466364098E+04  0.25500000920E-02 0. -1.
        2   -1    0    0  501    0  0.00000000000E+00  0.00000000000E+00 -0.19584701899E+04  0.19584701899E+04  0.25500000920E-02 0.  1.
    10030    2    1    2    0    0  0.00000000000E+00  0.00000000000E+00 -0.71183378011E+03  0.32051065997E+04  0.31250601570E+04 0.  0.
        1    1    3    3  502    0  0.20347110673E+03 -0.13896097105E+04 -0.10583576235E+04  0.17585609167E+04  0.50400001928E-02 0.  1.
       -1    1    3    3    0  502 -0.20347110673E+03  0.13896097105E+04  0.34652384335E+03  0.14465456829E+04  0.50400001928E-02 0. -1.
</event>
<event>
 5   0  0.2674441E-06  0.3027253E+04  0.7818609E-02  0.8235991E-01
       -1   -1    0    0    0  501  0.00000000000E+00  0.00000000000E+00  0.21363865050E+04  0.21363865050E+04  0.50400001928E-02 0.  1.
        1   -1    0    0  501    0  0.00000000000E+00  0.00000000000E+00 -0.10724019279E+04  0.10724019279E+04  0.50400001928E-02 0. -1.
    10030    2    1    2    0    0  0.00000000000E+00  0.00000000000E+00  0.10639845771E+04  0.32087884329E+04  0.30272528846E+04 0.  0.
        5    1    3    3  502    0 -0.92931723013E+03 -0.11798303637E+04  0.73145972029E+03  0.16705345294E+04  0.46999998093E+01 0.  1.
       -5    1    3    3    0  502  0.92931723013E+03  0.11798303637E+04  0.33252485677E+03  0.15382539036E+04  0.46999998093E+01 0. -1.
</event>
<event>
 5   0  0.2612331E-06  0.3162846E+04  0.7818609E-02  0.8198699E-01
       -1   -1    0    0    0  501  0.00000000000E+00  0.00000000000E+00  0.17439878437E+04  0.17439878437E+04  0.50400001928E-02 0. -1.
        1   -1    0    0  501    0  0.00000000000E+00  0.00000000000E+00 -0.14340114454E+04  0.14340114454E+04  0.50400001928E-02 0.  1.
    10030    2    1    2    0    0  0.00000000000E+00  0.00000000000E+00  0.30997639836E+03  0.31779992891E+04  0.31628458885E+04 0.  0.
        4    1    3    3  502    0  0.56720620906E+03  0.86684289844E+03  0.13556010228E+04  0.17061052840E+04  0.12699999809E+01 0. -1.
       -4    1    3    3    0  502 -0.56720620906E+03 -0.86684289844E+03 -0.10456246244E+04  0.14718940051E+04  0.12699999809E+01 0.  1.
</event>
<event>
 5   0  0.7363513E-06  0.3134395E+04  0.7818609E-02  0.8206361E-01
        2   -1    0    0  501    0  0.00000000000E+00  0.00000000000E+00  0.19718319970E+04  0.19718319970E+04  0.25500000920E-02 0.  1.
       -2   -1    0    0    0  501  0.00000000000E+00  0.00000000000E+00 -0.12455967821E+04  0.12455967821E+04  0.25500000920E-02 0. -1.
    10030    2    1    2    0    0  0.00000000000E+00  0.00000000000E+00  0.72623521494E+03  0.32174287791E+04  0.31343947360E+04 0.  0.
        4    1    3    3  502    0 -0.13403397961E+04  0.73187551246E+03  0.17206019817E+01  0.15271401730E+04  0.12699999809E+01 0. -1.
       -4    1    3    3    0  502  0.13403397961E+04 -0.73187551246E+03  0.72451461295E+03  0.16902886061E+04  0.12699999809E+01 0.  1.
</event>
<event>
 5   0  0.7094341E-06  0.3104749E+04  0.7818609E-02  0.8214436E-01
       -2   -1    0    0    0  501  0.00000000000E+00  0.00000000000E+00  0.94483271415E+03  0.94483271415E+03  0.25500000920E-02 0. -1.
        2   -1    0    0  501    0  0.00000000000E+00  0.00000000000E+00 -0.25505748170E+04  0.25505748170E+04  0.25500000920E-02 0.  1.
    10030    2    1    2    0    0  0.00000000000E+00  0.00000000000E+00 -0.16057421028E+04  0.34954075312E+04  0.31047489605E+04 0.  0.
        3    1    3    3  502    0  0.67173300530E+03 -0.79972394622E+03  0.49015528838E+03  0.11537052646E+04  0.10100000352E+00 0. -1.
       -3    1    3    3    0  502 -0.67173300530E+03  0.79972394622E+03 -0.20958973912E+04  0.23417022666E+04  0.10100000352E+00 0.  1.
</event>
<event>
 5   0  0.7079223E-06  0.3100748E+04  0.7818609E-02  0.8215533E-01
       -2   -1    0    0    0  501  0.00000000000E+00  0.00000000000E+00  0.11598821617E+04  0.11598821617E+04  0.25500000920E-02 0. -1.
        2   -1    0    0  501    0  0.00000000000E+00  0.00000000000E+00 -0.20723301972E+04  0.20723301972E+04  0.25500000920E-02 0.  1.
    10030    2    1    2    0    0  0.00000000000E+00  0.00000000000E+00 -0.91244803550E+03  0.32322123588E+04  0.31007475414E+04 0.  0.
        5    1    3    3  502    0 -0.13125845769E+04  0.13868607199E+03  0.39160151471E+03  0.13767664778E+04  0.46999998093E+01 0. -1.
       -5    1    3    3    0  502  0.13125845769E+04 -0.13868607199E+03 -0.13040495502E+04  0.18554458810E+04  0.46999998093E+01 0.  1.
</event>
<event>
 5   0  0.7079223E-06  0.2669870E+04  0.7818609E-02  0.8344848E-01
        2   -1    0    0  501    0  0.00000000000E+00  0.00000000000E+00  0.22147479564E+04  0.22147479564E+04  0.25500000920E-02 0.  1.
       -2   -1    0    0    0  501  0.00000000000E+00  0.00000000000E+00 -0.80462969744E+03  0.80462969744E+03  0.25500000920E-02 0. -1.
    10030    2    1    2    0    0  0.00000000000E+00  0.00000000000E+00  0.14101182590E+04  0.30193776539E+04  0.26698703924E+04 0.  0.
        5    1    3    3  502    0  0.12955816169E+04  0.37961778479E+02  0.34377507405E+03  0.13409609294E+04  0.46999998093E+01 0.  1.
       -5    1    3    3    0  502 -0.12955816169E+04 -0.37961778479E+02  0.10663431849E+04  0.16784167244E+04  0.46999998093E+01 0. -1.
</event>
<event>
 5   0  0.7079223E-06  0.3120626E+04  0.7818609E-02  0.8210100E-01
       -2   -1    0    0    0  501  0.00000000000E+00  0.00000000000E+00  0.83213242809E+03  0.83213242810E+03  0.25500000920E-02 0.  1.
        2   -1    0    0  501    0  0.00000000000E+00  0.00000000000E+00 -0.29257085505E+04  0.29257085505E+04  0.25500000920E-02 0. -1.
    10030    2    1    2    0    0  0.00000000000E+00  0.00000000000E+00 -0.20935761224E+04  0.37578409786E+04  0.31206261936E+04 0.  0.
        5    1    3    3  502    0  0.98894889703E+02  0.12607304605E+04 -0.21473806038E+04  0.24920848783E+04  0.46999998093E+01 0. -1.
       -5    1    3    3    0  502 -0.98894889703E+02 -0.12607304605E+04  0.53804481366E+02  0.12657561003E+04  0.46999998093E+01 0.  1.
</event>
<event>
 5   0  0.2674441E-06  0.3085998E+04  0.7818609E-02  0.8219591E-01
       -1   -1    0    0    0  501  0.00000000000E+00  0.00000000000E+00  0.13964055146E+04  0.13964055146E+04  0.50400001928E-02 0. -1.
        1   -1    0    0  501    0  0.00000000000E+00  0.00000000000E+00 -0.17049812877E+04  0.17049812877E+04  0.50400001928E-02 0.  1.
    10030    2    1    2    0    0  0.00000000000E+00  0.00000000000E+00 -0.30857577308E+03  0.31013868022E+04  0.30859975842E+04 0.  0.
        5    1    3    3  502    0  0.13669828016E+04 -0.16571559342E+03  0.54540203520E+03  0.14810770094E+04  0.46999998093E+01 0. -1.
       -5    1    3    3    0  502 -0.13669828016E+04  0.16571559342E+03 -0.85397780828E+03  0.16203097928E+04  0.46999998093E+01 0.  1.
</event>
<event>
 5   0  0.7071012E-06  0.3073120E+04  0.7818609E-02  0.8223154E-01
       -2   -1    0    0    0  501  0.00000000000E+00  0.00000000000E+00  0.17488833305E+04  0.17488833305E+04  0.25500000920E-02 0.  1.
        2   -1    0    0  501    0  0.00000000000E+00  0.00000000000E+00 -0.13500140889E+04  0.13500140889E+04  0.25500000920E-02 0. -1.
    10030    2    1    2    0    0  0.00000000000E+00  0.00000000000E+00  0.39886924155E+03  0.30988974194E+04  0.30731203270E+04 0.  0.
        1    1    3    3  502    0 -0.95178252946E+03 -0.96473646147E+03  0.92967091170E+03  0.16434398156E+04  0.50400001928E-02 0.  1.
       -1    1    3    3    0  502  0.95178252946E+03  0.96473646147E+03 -0.53080167015E+03  0.14554576038E+04  0.50400001928E-02 0. -1.
</event>
<event>
 5   0  0.2598987E-06  0.3120018E+04  0.7818609E-02  0.8210265E-01
       -1   -1    0    0    0  501  0.00000000000E+00  0.00000000000E+00  0.93689709226E+03  0.93689709228E+03  0.50400001928E-02 0. -1.
        1   -1    0    0  501    0  0.00000000000E+00  0.00000000000E+00 -0.25975408929E+04  0.25975408929E+04  0.50400001928E-02 0.  1.
    10030    2    1    2    0    0  0.00000000000E+00  0.00000000000E+00 -0.16606438006E+04  0.35344379852E+04  0.31200182753E+04 0.  0.
        2    1    3    3  502    0 -0.81021333709E+03 -0.58420592659E+03  0.52712625922E+03  0.11294265401E+04  0.25500000920E-02 0. -1.
       -2    1    3    3    0  502  0.81021333709E+03  0.58420592659E+03 -0.21877700598E+04  0.24050114451E+04  0.25500000920E-02 0.  1.
</event>
<event>
 5   0  0.2598987E-06  0.2448040E+04  0.7818609E-02  0.8421734E-01
       -1   -1    0    0    0  501  0.00000000000E+00  0.00000000000E+00  0.12066277796E+04  0.12066277796E+04  0.50400001928E-02 0.  1.
        1   -1    0    0  501    0  0.00000000000E+00  0.00000000000E+00 -0.12416626593E+04  0.12416626593E+04  0.50400001928E-02 0. -1.
    10030    2    1    2    0    0  0.00000000000E+00  0.00000000000E+00 -0.35034879765E+02  0.24482904389E+04  0.24480397526E+04 0.  0.
        2    1    3    3  502    0 -0.94848416670E+03 -0.52704185215E+03  0.54895854394E+03  0.12160389843E+04  0.25500000920E-02 0.  1.
       -2    1    3    3    0  502  0.94848416670E+03  0.52704185215E+03 -0.58399342371E+03  0.12322514546E+04  0.25500000920E-02 0. -1.
</event>
<event>
 5   0  0.2517725E-06  0.3014172E+04  0.7818609E-02  0.8239696E-01
        1   -1    0    0  501    0  0.00000000000E+00  0.00000000000E+00  0.11294367260E+04  0.11294367260E+04  0.50400001928E-02 0. -1.
       -1   -1    0    0    0  501  0.00000000000E+00  0.00000000000E+00 -0.20110094600E+04  0.20110094600E+04  0.50400001928E-02 0.  1.
    10030    2    1    2    0    0  0.00000000000E+00  0.00000000000E+00 -0.88157273406E+03  0.31404461860E+04  0.30141718202E+04 0.  0.
        3    1    3    3  502    0 -0.19861369654E+03 -0.73422175158E+03  0.91478839756E+03  0.11896918943E+04  0.10100000352E+00 0. -1.
       -3    1    3    3    0  502  0.19861369654E+03  0.73422175158E+03 -0.17963611316E+04  0.19507542916E+04  0.10100000352E+00 0.  1.
</event>
<event>
 5   0  0.7071012E-06  0.3106355E+04  0.7818609E-02  0.8213996E-01
        2   -1    0    0  501    0  0.00000000000E+00  0.00000000000E+00  0.17723573030E+04  0.17723573030E+04  0.25500000920E-02 0. -1.
       -2   -1    0    0    0  501  0.00000000000E+00  0.00000000000E+00 -0.13611023779E+04  0.13611023779E+04  0.25500000920E-02 0.  1.
    10030    2    1    2    0    0  0.00000000000E+00  0.00000000000E+00  0.41125492515E+03  0.31334596809E+04  0.31063546092E+04 0.  0.
        1    1    3    3  502    0 -0.33969456444E+03  0.14138091233E+04 -0.34513223987E+03  0.14944446786E+04  0.50400001928E-02 0.  1.
       -1    1    3    3    0  502  0.33969456444E+03 -0.14138091233E+04  0.75638716502E+03  0.16390150023E+04  0.50400001928E-02 0. -1.
</event>
<event>
 5   0  0.2612331E-06  0.2386869E+04  0.7818609E-02  0.8444436E-01
        1   -1    0    0  501    0  0.00000000000E+00  0.00000000000E+00  0.19331967602E+04  0.19331967602E+04  0.50400001928E-02 0. -1.
       -1   -1    0    0    0  501  0.00000000000E+00  0.00000000000E+00 -0.73675158513E+03  0.73675158515E+03  0.50400001928E-02 0.  1.
    10030    2    1    2    0    0  0.00000000000E+00  0.00000000000E+00  0.11964451750E+04  0.26699483453E+04  0.23868688925E+04 0.  0.
        4    1    3    3  502    0  0.64814350259E+03  0.54042604975E+03  0.15421858867E+04  0.17579787363E+04  0.12699999809E+01 0. -1.
       -4    1    3    3    0  502 -0.64814350259E+03 -0.54042604975E+03 -0.34574071167E+03  0.91196960904E+03  0.12699999809E+01 0.  1.
</event>
<event>
 5   0  0.2612331E-06  0.3099255E+04  0.7818609E-02  0.8215942E-01
       -1   -1    0    0    0  501  0.00000000000E+00  0.00000000000E+00  0.17241265234E+04  0.17241265234E+04  0.50400001928E-02 0.  1.
        1   -1    0    0  501    0  0.00000000000E+00  0.00000000000E+00 -0.13927899708E+04  0.13927899708E+04  0.50400001928E-02 0. -1.
    10030    2    1    2    0    0  0.00000000000E+00  0.00000000000E+00  0.33133655261E+03  0.31169164942E+04  0.30992554784E+04 0.  0.
        4    1    3    3  502    0  0.14259936992E+04 -0.60245526959E+02 -0.44130800563E+03  0.14939350463E+04  0.12699999809E+01 0.  1.
       -4    1    3    3    0  502 -0.14259936992E+04  0.60245526959E+02  0.77264455824E+03  0.16229814479E+04  0.12699999809E+01 0. -1.
</event>
<event>
 5   0  0.2674441E-06  0.2987384E+04  0.7818609E-02  0.8247343E-01
        1   -1    0    0  501    0  0.00000000000E+00  0.00000000000E+00  0.24371103752E+04  0.24371103753E+04  0.50400001928E-02 0. -1.
       -1   -1    0    0    0  501  0.00000000000E+00  0.00000000000E+00 -0.91547617752E+03  0.91547617754E+03  0.50400001928E-02 0.  1.
    10030    2    1    2    0    0  0.00000000000E+00  0.00000000000E+00  0.15216341977E+04  0.33525865528E+04  0.29873844684E+04 0.  0.
        5    1    3    3  502    0 -0.14435497537E+04 -0.37783258115E+03  0.68552562581E+03  0.16421208312E+04  0.46999998093E+01 0.  1.
       -5    1    3    3    0  502  0.14435497537E+04  0.37783258115E+03  0.83610857192E+03  0.17104657216E+04  0.46999998093E+01 0. -1.
</event>
<event>
 5   0  0.7414808E-06  0.2999676E+04  0.7818609E-02  0.8243823E-01
        2   -1    0    0  501    0  0.00000000000E+00  0.00000000000E+00  0.11170831710E+04  0.11170831710E+04  0.25500000920E-02 0. -1.
       -2   -1    0    0    0  501  0.00000000000E+00  0.00000000000E+00 -0.20137395514E+04  0.20137395514E+04  0.25500000920E-02 0.  1.
    10030    2    1    2    0    0  0.00000000000E+00  0.00000000000E+00 -0.89665638038E+03  0.31308227225E+04  0.29996763584E+04 0.  0.
        2    1    3    3  502    0  0.44379238594E+03 -0.14213416261E+04 -0.63605531015E+03  0.16191757340E+04  0.25500000920E-02 0. -1.
       -2    1    3    3    0  502 -0.44379238594E+03  0.14213416261E+04 -0.26060107023E+03  0.15116469885E+04  0.25500000920E-02 0.  1.
</event>
<event>
 5   0  0.7363513E-06  0.2959031E+04  0.7818609E-02  0.8255528E-01
        2   -1    0    0  501    0  0.00000000000E+00  0.00000000000E+00  0.14488734261E+04  0.14488734261E+04  0.25500000920E-02 0. -1.
       -2   -1    0    0    0  501  0.00000000000E+00  0.00000000000E+00 -0.15108052959E+04  0.15108052959E+04  0.25500000920E-02 0.  1.
    10030    2    1    2    0    0  0.00000000000E+00  0.00000000000E+00 -0.61931869805E+02  0.29596787220E+04  0.29590306827E+04 0.  0.
        4    1    3    3  502    0  0.14096761988E+04  0.19245741733E+03  0.37500124786E+03  0.14713444164E+04  0.12699999809E+01 0.  1.
       -4    1    3    3    0  502 -0.14096761988E+04 -0.19245741733E+03 -0.43693311766E+03  0.14883343056E+04  0.12699999809E+01 0. -1.
</event>
<event>
 5   0  0.7079223E-06  0.2949689E+04  0.7818609E-02  0.8258245E-01
       -2   -1    0    0    0  501  0.00000000000E+00  0.00000000000E+00  0.17484837970E+04  0.17484837970E+04  0.25500000920E-02 0.  1.
        2   -1    0    0  501    0  0.00000000000E+00  0.00000000000E+00 -0.12440299145E+04  0.12440299146E+04  0.25500000920E-02 0. -1.
    10030    2    1    2    0    0  0.00000000000E+00  0.00000000000E+00  0.50445388250E+03  0.29925137116E+04  0.29496888979E+04 0.  0.
        5    1    3    3  502    0 -0.70156960281E+03 -0.12967315660E+04  0.21384384809E+03  0.14897865428E+04  0.46999998093E+01 0.  1.
       -5    1    3    3    0  502  0.70156960281E+03  0.12967315660E+04  0.29061003441E+03  0.15027271688E+04  0.46999998093E+01 0. -1.
</event>
<event>
 5   0  0.7094341E-06  0.2885396E+04  0.7818609E-02  0.8277236E-01
       -2   -1    0    0    0  501  0.00000000000E+00  0.00000000000E+00  0.12854848893E+04  0.12854848893E+04  0.25500000920E-02 0. -1.
        2   -1    0    0  501    0  0.00000000000E+00  0.00000000000E+00 -0.16191376055E+04  0.16191376055E+04  0.25500000920E-02 0.  1.
    10030    2    1    2    0    0  0.00000000000E+00  0.00000000000E+00 -0.33365271619E+03  0.29046224949E+04  0.28853955886E+04 0.  0.
        3    1    3    3  502    0 -0.10274414718E+04 -0.66686731304E+03  0.60050546407E+03  0.13641681765E+04  0.10100000352E+00 0. -1.
       -3    1    3    3    0  502  0.10274414718E+04  0.66686731304E+03 -0.93415818026E+03  0.15404543184E+04  0.10100000352E+00 0.  1.
</event>
<event>
 5   0  0.7079223E-06  0.3171538E+04  0.7818609E-02  0.8196375E-01
        2   -1    0    0  501    0  0.00000000000E+00  0.00000000000E+00  0.20953290425E+04  0.20953290425E+04  0.25500000920E-02 0.  1.
       -2   -1    0    0    0  501  0.00000000000E+00  0.00000000000E+00 -0.12001281619E+04  0.12001281619E+04  0.25500000920E-02 0. -1.
    10030    2    1    2    0    0  0.00000000000E+00  0.00000000000E+00  0.89520088057E+03  0.32954572044E+04  0.31715380448E+04 0.  0.
        5    1    3    3  502    0 -0.11909632337E+04 -0.10468796992E+04  0.46531878876E+03  0.16525417374E+04  0.46999998093E+01 0. -1.
       -5    1    3    3    0  502  0.11909632337E+04  0.10468796992E+04  0.42988209180E+03  0.16429154670E+04  0.46999998093E+01 0.  1.
</event>
<event>
 5   0  0.7414808E-06  0.3323896E+04  0.7818609E-02  0.8156841E-01
        2   -1    0    0  501    0  0.00000000000E+00  0.00000000000E+00  0.24298370490E+04  0.24298370490E+04  0.25500000920E-02 0.  1.
       -2   -1    0    0    0  501  0.00000000000E+00  0.00000000000E+00 -0.11367311286E+04  0.11367311286E+04  0.25500000920E-02 0. -1.
    10030    2    1    2    0    0  0.00000000000E+00  0.00000000000E+00  0.12931059204E+04  0.35665681776E+04  0.33238961542E+04 0.  0.
        2    1    3    3  502    0  0.31574495117E+03 -0.84411420010E+03 -0.85176309958E+03  0.12400500130E+04  0.25500000920E-02 0. -1.
       -2    1    3    3    0  502 -0.31574495117E+03  0.84411420010E+03  0.21448690200E+04  0.23265181645E+04  0.25500000920E-02 0.  1.
</event>
<event>
 5   0  0.2624011E-06  0.3026294E+04  0.7818609E-02  0.8236262E-01
        1   -1    0    0  501    0  0.00000000000E+00  0.00000000000E+00  0.17816736444E+04  0.17816736444E+04  0.50400001928E-02 0. -1.
       -1   -1    0    0    0  501  0.00000000000E+00  0.00000000000E+00 -0.12850919645E+04  0.12850919645E+04  0.50400001928E-02 0.  1.
    10030    2    1    2    0    0  0.00000000000E+00  0.00000000000E+00  0.49658167989E+03  0.30667656089E+04  0.30262944231E+04 0.  0.
        1    1    3    3  502    0 -0.13294237666E+04 -0.70294533704E+03  0.41820782559E+03  0.15608963718E+04  0.50400001928E-02 0.  1.
       -1    1    3    3    0  502  0.13294237666E+04  0.70294533704E+03  0.78373854296E+02  0.15058692371E+04  0.50400001928E-02 0. -1.
</event>
<event>
 5   0  0.2612331E-06  0.1997307E+04  0.7818609E-02  0.8607881E-01
        1   -1    0    0  501    0  0.00000000000E+00  0.00000000000E+00  0.17564656731E+04  0.17564656731E+04  0.50400001928E-02 0.  1.
       -1   -1    0    0    0  501  0.00000000000E+00  0.00000000000E+00 -0.56779302549E+03  0.56779302551E+03  0.50400001928E-02 0. -1.
    10030    2    1    2    0    0  0.00000000000E+00  0.00000000000E+00  0.11886726476E+04  0.23242586986E+04  0.19973071459E+04 0.  0.
        4    1    3    3  502    0 -0.59024449270E+02  0.65579030224E+03 -0.27941473830E+03  0.71527548190E+03  0.12699999809E+01 0. -1.
       -4    1    3    3    0  502  0.59024449270E+02 -0.65579030224E+03  0.14680873859E+04  0.16089832167E+04  0.12699999809E+01 0.  1.
</event>
<event>
 5   0  0.7363513E-06  0.2854696E+04  0.7818609E-02  0.8286486E-01
        2   -1    0    0  501    0  0.00000000000E+00  0.00000000000E+00  0.15662827610E+04  0.15662827610E+04  0.25500000920E-02 0. -1.
       -2   -1    0    0    0  501  0.00000000000E+00  0.00000000000E+00 -0.13007370064E+04  0.13007370064E+04  0.25500000920E-02 0.  1.
    10030    2    1    2    0    0  0.00000000000E+00  0.00000000000E+00  0.26554575467E+03  0.28670197674E+04  0.28546957454E+04 0.  0.
        4    1    3    3  502    0  0.13036980468E+04  0.54705576009E+03 -0.64087968100E+02  0.14152764685E+04  0.12699999809E+01 0.  1.
       -4    1    3    3    0  502 -0.13036980468E+04 -0.54705576009E+03  0.32963372277E+03  0.14517432989E+04  0.12699999809E+01 0. -1.
</event>
<event>
 5   0  0.7363513E-06  0.3007902E+04  0.7818609E-02  0.8241478E-01
        2   -1    0    0  501    0  0.00000000000E+00  0.00000000000E+00  0.15074873632E+04  0.15074873632E+04  0.25500000920E-02 0. -1.
       -2   -1    0    0    0  501  0.00000000000E+00  0.00000000000E+00 -0.15004230710E+04  0.15004230710E+04  0.25500000920E-02 0.  1.
    10030    2    1    2    0    0  0.00000000000E+00  0.00000000000E+00  0.70642921938E+01  0.30079104341E+04  0.30079021386E+04 0.  0.
        4    1    3    3  502    0  0.13637037166E+04  0.57484859075E+03 -0.26429031888E+03  0.15033262169E+04  0.12699999809E+01 0.  1.
       -4    1    3    3    0  502 -0.13637037166E+04 -0.57484859075E+03  0.27135461107E+03  0.15045842172E+04  0.12699999809E+01 0. -1.
</event>
<event>
 5   0  0.2598987E-06  0.3106746E+04  0.7818609E-02  0.8213889E-01
        1   -1    0    0  501    0  0.00000000000E+00  0.00000000000E+00  0.20807809165E+04  0.20807809165E+04  0.50400001928E-02 0.  1.
       -1   -1    0    0    0  501  0.00000000000E+00  0.00000000000E+00 -0.11596449938E+04  0.11596449938E+04  0.50400001928E-02 0. -1.
    10030    2    1    2    0    0  0.00000000000E+00  0.00000000000E+00  0.92113592275E+03  0.32404259103E+04  0.31067456755E+04 0.  0.
        2    1    3    3  502    0 -0.25925083791E+03  0.47692296028E+03  0.19786323587E+04  0.20517437749E+04  0.25500000920E-02 0.  1.
       -2    1    3    3    0  502  0.25925083791E+03 -0.47692296028E+03 -0.10574964360E+04  0.11886821354E+04  0.25500000920E-02 0. -1.
</event>
<event>
 5   0  0.2598987E-06  0.3143712E+04  0.7818609E-02  0.8203843E-01
       -1   -1    0    0    0  501  0.00000000000E+00  0.00000000000E+00  0.14146404724E+04  0.14146404724E+04  0.50400001928E-02 0.  1.
        1   -1    0    0  501    0  0.00000000000E+00  0.00000000000E+00 -0.17465440756E+04  0.17465440756E+04  0.50400001928E-02 0. -1.
    10030    2    1    2    0    0  0.00000000000E+00  0.00000000000E+00 -0.33190360318E+03  0.31611845479E+04  0.31437124144E+04 0.  0.
        2    1    3    3  502    0  0.43684165210E+03  0.15021943339E+04 -0.12415636846E+02  0.15644719857E+04  0.25500000920E-02 0.  1.
       -2    1    3    3    0  502 -0.43684165210E+03 -0.15021943339E+04 -0.31948796634E+03  0.15967125623E+04  0.25500000920E-02 0. -1.
</event>
<event>
 5   0  0.7414808E-06  0.3128322E+04  0.7818609E-02  0.8208008E-01
       -2   -1    0    0    0  501  0.00000000000E+00  0.00000000000E+00  0.12934222883E+04  0.12934222883E+04  0.25500000920E-02 0.  1.
        2   -1    0    0  501    0  0.00000000000E+00  0.00000000000E+00 -0.18915707594E+04  0.18915707594E+04  0.25500000920E-02 0. -1.
    10030    2    1    2    0    0  0.00000000000E+00  0.00000000000E+00 -0.59814847108E+03  0.31849930477E+04  0.31283220934E+04 0.  0.
        2    1    3    3  502    0 -0.81823998276E+03  0.85252054703E+03  0.74432861756E+03  0.13965432480E+04  0.25500000920E-02 0.  1.
       -2    1    3    3    0  502  0.81823998276E+03 -0.85252054703E+03 -0.13424770886E+04  0.17884497997E+04  0.25500000920E-02 0. -1.
</event>
<event>
 5   0  0.7094341E-06  0.3067077E+04  0.7818609E-02  0.8224832E-01
       -2   -1    0    0    0  501  0.00000000000E+00  0.00000000000E+00  0.14561751891E+04  0.14561751891E+04  0.25500000920E-02 0.  1.
        2   -1    0    0  501    0  0.00000000000E+00  0.00000000000E+00 -0.16150124577E+04  0.16150124577E+04  0.25500000920E-02 0. -1.
    10030    2    1    2    0    0  0.00000000000E+00  0.00000000000E+00 -0.15883726867E+03  0.30711876468E+04  0.30670774826E+04 0.  0.
        3    1    3    3  502    0  0.48428871019E+03  0.37045560711E+02 -0.15359582843E+04  0.16109238932E+04  0.10100000352E+00 0. -1.
       -3    1    3    3    0  502 -0.48428871019E+03 -0.37045560711E+02  0.13771210156E+04  0.14602637536E+04  0.10100000352E+00 0.  1.
</event>
<event>
 5   0  0.7414808E-06  0.2956889E+04  0.7818609E-02  0.8256150E-01
       -2   -1    0    0    0  501  0.00000000000E+00  0.00000000000E+00  0.10701900185E+04  0.10701900185E+04  0.25500000920E-02 0. -1.
        2   -1    0    0  501    0  0.00000000000E+00  0.00000000000E+00 -0.20424387418E+04  0.20424387418E+04  0.25500000920E-02 0.  1.
    10030    2    1    2    0    0  0.00000000000E+00  0.00000000000E+00 -0.97224872332E+03  0.31126287603E+04  0.29568886046E+04 0.  0.
        2    1    3    3  502    0 -0.19163707865E+03  0.83901915569E+03 -0.17515722467E+04  0.19515848044E+04  0.25500000920E-02 0.  1.
       -2    1    3    3    0  502  0.19163707865E+03 -0.83901915569E+03  0.77932352335E+03  0.11610439559E+04  0.25500000920E-02 0. -1.
</event>
<event>
 5   0  0.7071012E-06  0.3007265E+04  0.7818609E-02  0.8241659E-01
       -2   -1    0    0    0  501  0.00000000000E+00  0.00000000000E+00  0.13488271726E+04  0.13488271726E+04  0.25500000920E-02 0.  1.
        2   -1    0    0  501    0  0.00000000000E+00  0.00000000000E+00 -0.16762048294E+04  0.16762048294E+04  0.25500000920E-02 0. -1.
    10030    2    1    2    0    0  0.00000000000E+00  0.00000000000E+00 -0.32737765683E+03  0.30250320020E+04  0.30072649506E+04 0.  0.
        1    1    3    3  502    0 -0.73892548960E+03  0.47990996417E+03 -0.13893233522E+04  0.16451576915E+04  0.50400001928E-02 0. -1.
       -1    1    3    3    0  502  0.73892548960E+03 -0.47990996417E+03  0.10619456954E+04  0.13798743105E+04  0.50400001928E-02 0.  1.
</event>
<event>
 5   0  0.2517725E-06  0.3103177E+04  0.7818609E-02  0.8214867E-01
        1   -1    0    0  501    0  0.00000000000E+00  0.00000000000E+00  0.20811176942E+04  0.20811176942E+04  0.50400001928E-02 0.  1.
       -1   -1    0    0    0  501  0.00000000000E+00  0.00000000000E+00 -0.11567948941E+04  0.11567948941E+04  0.50400001928E-02 0. -1.
    10030    2    1    2    0    0  0.00000000000E+00  0.00000000000E+00  0.92432280011E+03  0.32379125884E+04  0.31031766452E+04 0.  0.
        3    1    3    3  502    0 -0.15045866643E+04 -0.34541938922E+03  0.62491708655E+03  0.16654179536E+04  0.10100000352E+00 0.  1.
       -3    1    3    3    0  502  0.15045866643E+04  0.34541938922E+03  0.29940571356E+03  0.15724946348E+04  0.10100000352E+00 0. -1.
</event>
<event>
 5   0  0.7079223E-06  0.3044305E+04  0.7818609E-02  0.8231191E-01
        2   -1    0    0  501    0  0.00000000000E+00  0.00000000000E+00  0.16246884826E+04  0.16246884826E+04  0.25500000920E-02 0. -1.
       -2   -1    0    0    0  501  0.00000000000E+00  0.00000000000E+00 -0.14260878375E+04  0.14260878375E+04  0.25500000920E-02 0.  1.
    10030    2    1    2    0    0  0.00000000000E+00  0.00000000000E+00  0.19860064506E+03  0.30507763202E+04  0.30443051653E+04 0.  0.
        5    1    3    3  502    0 -0.10486584754E+04  0.43977746704E+03 -0.91469911622E+03  0.14593784230E+04  0.46999998093E+01 0.  1.
       -5    1    3    3    0  502  0.10486584754E+04 -0.43977746704E+03  0.11132997613E+04  0.15913978971E+04  0.46999998093E+01 0. -1.
</event>
<event>
 5   0  0.7363513E-06  0.3146655E+04  0.7818609E-02  0.8203049E-01
        2   -1    0    0  501    0  0.00000000000E+00  0.00000000000E+00  0.20789208646E+04  0.20789208646E+04  0.25500000920E-02 0.  1.
       -2   -1    0    0    0  501  0.00000000000E+00  0.00000000000E+00 -0.11906946952E+04  0.11906946952E+04  0.25500000920E-02 0. -1.
    10030    2    1    2    0    0  0.00000000000E+00  0.00000000000E+00  0.88822616939E+03  0.32696155598E+04  0.31466553960E+04 0.  0.
        4    1    3    3  502    0 -0.70292729387E+03 -0.62763680733E+03  0.17532354919E+04  0.19904449366E+04  0.12699999809E+01 0.  1.
       -4    1    3    3    0  502  0.70292729387E+03  0.62763680733E+03 -0.86500932255E+03  0.12791706233E+04  0.12699999809E+01 0. -1.
</event>
<event>
 5   0  0.7414808E-06  0.3030992E+04  0.7818609E-02  0.8234936E-01
       -2   -1    0    0    0  501  0.00000000000E+00  0.00000000000E+00  0.15556391817E+04  0.15556391817E+04  0.25500000920E-02 0. -1.
        2   -1    0    0  501    0  0.00000000000E+00  0.00000000000E+00 -0.14763886773E+04  0.14763886773E+04  0.25500000920E-02 0.  1.
    10030    2    1    2    0    0  0.00000000000E+00  0.00000000000E+00  0.79250504432E+02  0.30320278589E+04  0.30309919655E+04 0.  0.
        2    1    3    3  502    0 -0.46603345574E+03 -0.35134477020E+03  0.14387088925E+04  0.15525828825E+04  0.25500000920E-02 0. -1.
       -2    1    3    3    0  502  0.46603345574E+03  0.35134477020E+03 -0.13594583881E+04  0.14794449765E+04  0.25500000920E-02 0.  1.
</event>
<event>
 5   0  0.2517725E-06  0.3103922E+04  0.7818609E-02  0.8214663E-01
        1   -1    0    0  501    0  0.00000000000E+00  0.00000000000E+00  0.19319119193E+04  0.19319119193E+04  0.50400001928E-02 0.  1.
       -1   -1    0    0    0  501  0.00000000000E+00  0.00000000000E+00 -0.12467350070E+04  0.12467350070E+04  0.50400001928E-02 0. -1.
    10030    2    1    2    0    0  0.00000000000E+00  0.00000000000E+00  0.68517691231E+03  0.31786469262E+04  0.31039215326E+04 0.  0.
        3    1    3    3  502    0 -0.92031234824E+02  0.13090030121E+04 -0.50598787206E+03  0.14064076118E+04  0.10100000352E+00 0. -1.
       -3    1    3    3    0  502  0.92031234824E+02 -0.13090030121E+04  0.11911647844E+04  0.17722393144E+04  0.10100000352E+00 0.  1.
</event>
<event>
 5   0  0.2674441E-06  0.3041583E+04  0.7818609E-02  0.8231955E-01
       -1   -1    0    0    0  501  0.00000000000E+00  0.00000000000E+00  0.81673111425E+03  0.81673111427E+03  0.50400001928E-02 0.  1.
        1   -1    0    0  501    0  0.00000000000E+00  0.00000000000E+00 -0.28317854801E+04  0.28317854801E+04  0.50400001928E-02 0. -1.
    10030    2    1    2    0    0  0.00000000000E+00  0.00000000000E+00 -0.20150543659E+04  0.36485165944E+04  0.30415833446E+04 0.  0.
        5    1    3    3  502    0  0.41355852184E+03 -0.76920799372E+03 -0.25009843411E+04  0.26490859467E+04  0.46999998093E+01 0. -1.
       -5    1    3    3    0  502 -0.41355852184E+03  0.76920799372E+03  0.48592997527E+03  0.99943064765E+03  0.46999998093E+01 0.  1.
</event>
<event>
 5   0  0.7071012E-06  0.2280750E+04  0.7818609E-02  0.8485550E-01
       -2   -1    0    0    0  501  0.00000000000E+00  0.00000000000E+00  0.10021016518E+04  0.10021016518E+04  0.25500000920E-02 0.  1.
        2   -1    0    0  501    0  0.00000000000E+00  0.00000000000E+00 -0.12977277269E+04  0.12977277269E+04  0.25500000920E-02 0. -1.
    10030    2    1    2    0    0  0.00000000000E+00  0.00000000000E+00 -0.29562607517E+03  0.22998293787E+04  0.22807499632E+04 0.  0.
        1    1    3    3  502    0 -0.32643208000E+02 -0.91434028160E+03 -0.83422135751E+03  0.12381474076E+04  0.50400001928E-02 0. -1.
       -1    1    3    3    0  502  0.32643208000E+02  0.91434028160E+03  0.53859528234E+03  0.10616819711E+04  0.50400001928E-02 0.  1.
</event>
<event>
 5   0  0.7079223E-06  0.3141430E+04  0.7818609E-02  0.8204459E-01
        2   -1    0    0  501    0  0.00000000000E+00  0.00000000000E+00  0.21825585587E+04  0.21825585587E+04  0.25500000920E-02 0. -1.
       -2   -1    0    0    0  501  0.00000000000E+00  0.00000000000E+00 -0.11303912790E+04  0.11303912790E+04  0.25500000920E-02 0.  1.
    10030    2    1    2    0    0  0.00000000000E+00  0.00000000000E+00  0.10521672796E+04  0.33129498377E+04  0.31414297132E+04 0.  0.
        5    1    3    3  502    0  0.26241695694E+03  0.25615396431E+03 -0.10846060906E+04  0.11449323012E+04  0.46999998093E+01 0.  1.
       -5    1    3    3    0  502 -0.26241695694E+03 -0.25615396431E+03  0.21367733702E+04  0.21680175365E+04  0.46999998093E+01 0. -1.
</event>
<event>
 5   0  0.7079223E-06  0.3030704E+04  0.7818609E-02  0.8235017E-01
       -2   -1    0    0    0  501  0.00000000000E+00  0.00000000000E+00  0.10912961857E+04  0.10912961857E+04  0.25500000920E-02 0.  1.
        2   -1    0    0  501    0  0.00000000000E+00  0.00000000000E+00 -0.21041875750E+04  0.21041875750E+04  0.25500000920E-02 0. -1.
    10030    2    1    2    0    0  0.00000000000E+00  0.00000000000E+00 -0.10128913893E+04  0.31954837607E+04  0.30307041259E+04 0.  0.
        5    1    3    3  502    0  0.30623015449E+03  0.94552380905E+03  0.69963459864E+03  0.12154434757E+04  0.46999998093E+01 0.  1.
       -5    1    3    3    0  502 -0.30623015449E+03 -0.94552380905E+03 -0.17125259880E+04  0.19800402851E+04  0.46999998093E+01 0. -1.
</event>
<event>
 5   0  0.2612331E-06  0.3036584E+04  0.7818609E-02  0.8233361E-01
        1   -1    0    0  501    0  0.00000000000E+00  0.00000000000E+00  0.13799675393E+04  0.13799675393E+04  0.50400001928E-02 0.  1.
       -1   -1    0    0    0  501  0.00000000000E+00  0.00000000000E+00 -0.16704819898E+04  0.16704819898E+04  0.50400001928E-02 0. -1.
    10030    2    1    2    0    0  0.00000000000E+00  0.00000000000E+00 -0.29051445048E+03  0.30504495292E+04  0.30365842132E+04 0.  0.
        4    1    3    3  502    0 -0.11450805220E+04 -0.90984159084E+03 -0.55478049826E+03  0.15642263699E+04  0.12699999809E+01 0. -1.
       -4    1    3    3    0  502  0.11450805220E+04  0.90984159084E+03  0.26426604777E+03  0.14862231593E+04  0.12699999809E+01 0.  1.
</event>
<event>
 5   0  0.2612331E-06  0.3152972E+04  0.7818609E-02  0.8201349E-01
       -1   -1    0    0    0  501  0.00000000000E+00  0.00000000000E+00  0.15439186843E+04  0.15439186843E+04  0.50400001928E-02 0.  1.
        1   -1    0    0  501    0  0.00000000000E+00  0.00000000000E+00 -0.16097402429E+04  0.16097402429E+04  0.50400001928E-02 0. -1.
    10030    2    1    2    0    0  0.00000000000E+00  0.00000000000E+00 -0.65821558578E+02  0.31536589272E+04  0.31529719554E+04 0.  0.
        4    1    3    3  502    0  0.44449022784E+03  0.40762112721E+03  0.14239709875E+04  0.15464221714E+04  0.12699999809E+01 0.  1.
       -4    1    3    3    0  502 -0.44449022784E+03 -0.40762112721E+03 -0.14897925461E+04  0.16072367558E+04  0.12699999809E+01 0. -1.
</event>
<event>
 5   0  0.2598987E-06  0.3114061E+04  0.7818609E-02  0.8211890E-01
       -1   -1    0    0    0  501  0.00000000000E+00  0.00000000000E+00  0.14274829110E+04  0.14274829110E+04  0.50400001928E-02 0. -1.
        1   -1    0    0  501    0  0.00000000000E+00  0.00000000000E+00 -0.16983349090E+04  0.16983349090E+04  0.50400001928E-02 0.  1.
    10030    2    1    2    0    0  0.00000000000E+00  0.00000000000E+00 -0.27085199808E+03  0.31258178200E+04  0.31140610526E+04 0.  0.
        2    1    3    3  502    0 -0.78005700762E+03 -0.49981234459E+03  0.11207148700E+04  0.14540643503E+04  0.25500000920E-02 0. -1.
       -2    1    3    3    0  502  0.78005700762E+03  0.49981234459E+03 -0.13915668681E+04  0.16717534697E+04  0.25500000920E-02 0.  1.
</event>
<event>
 5   0  0.7071012E-06  0.3039187E+04  0.7818609E-02  0.8232629E-01
       -2   -1    0    0    0  501  0.00000000000E+00  0.00000000000E+00  0.12489794454E+04  0.12489794454E+04  0.25500000920E-02 0. -1.
        2   -1    0    0  501    0  0.00000000000E+00  0.00000000000E+00 -0.18488406932E+04  0.18488406932E+04  0.25500000920E-02 0.  1.
    10030    2    1    2    0    0  0.00000000000E+00  0.00000000000E+00 -0.59986124781E+03  0.30978201386E+04  0.30391867488E+04 0.  0.
        1    1    3    3  502    0 -0.32454466846E+03  0.72755308280E+03 -0.16189207833E+04  0.18043190496E+04  0.50400001928E-02 0.  1.
       -1    1    3    3    0  502  0.32454466846E+03 -0.72755308280E+03  0.10190595355E+04  0.12935010889E+04  0.50400001928E-02 0. -1.
</event>
<event>
 5   0  0.7079223E-06  0.2389592E+04  0.7818609E-02  0.8443410E-01
       -2   -1    0    0    0  501  0.00000000000E+00  0.00000000000E+00  0.73819126412E+03  0.73819126412E+03  0.25500000920E-02 0. -1.
        2   -1    0    0  501    0  0.00000000000E+00  0.00000000000E+00 -0.19338320897E+04  0.19338320897E+04  0.25500000920E-02 0.  1.
    10030    2    1    2    0    0  0.00000000000E+00  0.00000000000E+00 -0.11956408256E+04  0.26720233538E+04  0.23895923961E+04 0.  0.
        5    1    3    3  502    0  0.41921559143E+03  0.13251056900E+03  0.64443772398E+03  0.78014282864E+03  0.46999998093E+01 0. -1.
       -5    1    3    3    0  502 -0.41921559143E+03 -0.13251056900E+03 -0.18400785496E+04  0.18918805252E+04  0.46999998093E+01 0.  1.
</event>
<event>
 5   0  0.7094341E-06  0.2857091E+04  0.7818609E-02  0.8285760E-01
        2   -1    0    0  501    0  0.00000000000E+00  0.00000000000E+00  0.22957660160E+04  0.22957660160E+04  0.25500000920E-02 0.  1.
       -2   -1    0    0    0  501  0.00000000000E+00  0.00000000000E+00 -0.88891587884E+03  0.88891587884E+03  0.25500000920E-02 0. -1.
    10030    2    1    2    0    0  0.00000000000E+00  0.00000000000E+00  0.14068501372E+04  0.31846818948E+04  0.28570914341E+04 0.  0.
        3    1    3    3  502    0  0.84908351677E+03  0.97080351054E+03  0.18711905905E+02  0.12898652721E+04  0.10100000352E+00 0. -1.
       -3    1    3    3    0  502 -0.84908351677E+03 -0.97080351054E+03  0.13881382313E+04  0.18948166227E+04  0.10100000352E+00 0.  1.
</event>
<event>
 5   0  0.2612331E-06  0.2929455E+04  0.7818609E-02  0.8264167E-01
       -1   -1    0    0    0  501  0.00000000000E+00  0.00000000000E+00  0.99287853212E+03  0.99287853214E+03  0.50400001928E-02 0.  1.
        1   -1    0    0  501    0  0.00000000000E+00  0.00000000000E+00 -0.21608141896E+04  0.21608141896E+04  0.50400001928E-02 0. -1.
    10030    2    1    2    0    0  0.00000000000E+00  0.00000000000E+00 -0.11679356575E+04  0.31536927217E+04  0.29294545709E+04 0.  0.
        4    1    3    3  502    0 -0.13651109870E+04  0.33938590661E+03 -0.10235277967E+04  0.17396325945E+04  0.12699999809E+01 0. -1.
       -4    1    3    3    0  502  0.13651109870E+04 -0.33938590661E+03 -0.14440786079E+03  0.14140601272E+04  0.12699999809E+01 0.  1.
</event>
<event>
 5   0  0.7071012E-06  0.2738347E+04  0.7818609E-02  0.8322669E-01
        2   -1    0    0  501    0  0.00000000000E+00  0.00000000000E+00  0.16585280312E+04  0.16585280312E+04  0.25500000920E-02 0. -1.
       -2   -1    0    0    0  501  0.00000000000E+00  0.00000000000E+00 -0.11303007910E+04  0.11303007910E+04  0.25500000920E-02 0.  1.
    10030    2    1    2    0    0  0.00000000000E+00  0.00000000000E+00  0.52822724020E+03  0.27888288222E+04  0.27383466147E+04 0.  0.
        1    1    3    3  502    0  0.12499703969E+04  0.34760268793E+03  0.70965074350E+03  0.14788028265E+04  0.50400001928E-02 0.  1.
       -1    1    3    3    0  502 -0.12499703969E+04 -0.34760268793E+03 -0.18142350330E+03  0.13100259957E+04  0.50400001928E-02 0. -1.
</event>
<event>
 5   0  0.2612331E-06  0.3095034E+04  0.7818609E-02  0.8217102E-01
        1   -1    0    0  501    0  0.00000000000E+00  0.00000000000E+00  0.14149507520E+04  0.14149507520E+04  0.50400001928E-02 0.  1.
       -1   -1    0    0    0  501  0.00000000000E+00  0.00000000000E+00 -0.16925030370E+04  0.16925030370E+04  0.50400001928E-02 0. -1.
    10030    2    1    2    0    0  0.00000000000E+00  0.00000000000E+00 -0.27755228501E+03  0.31074537891E+04  0.30950337285E+04 0.  0.
        4    1    3    3  502    0  0.15044412897E+04  0.29804098416E+03 -0.34608671815E+03  0.15722435091E+04  0.12699999809E+01 0.  1.
       -4    1    3    3    0  502 -0.15044412897E+04 -0.29804098416E+03  0.68534433143E+02  0.15352102800E+04  0.12699999809E+01 0. -1.
</event>
<event>
 5   0  0.7094341E-06  0.3071069E+04  0.7818609E-02  0.8223723E-01
       -2   -1    0    0    0  501  0.00000000000E+00  0.00000000000E+00  0.14576534765E+04  0.14576534765E+04  0.25500000920E-02 0.  1.
        2   -1    0    0  501    0  0.00000000000E+00  0.00000000000E+00 -0.16175761075E+04  0.16175761075E+04  0.25500000920E-02 0. -1.
    10030    2    1    2    0    0  0.00000000000E+00  0.00000000000E+00 -0.15992263100E+03  0.30752295839E+04  0.30710685023E+04 0.  0.
        3    1    3    3  502    0 -0.11616016205E+04  0.14878343997E+03 -0.10744890598E+04  0.15893336927E+04  0.10100000352E+00 0. -1.
       -3    1    3    3    0  502  0.11616016205E+04 -0.14878343997E+03  0.91456642883E+03  0.14858958913E+04  0.10100000352E+00 0.  1.
</event>
<event>
 5   0  0.7363513E-06  0.3086154E+04  0.7818609E-02  0.8219548E-01
        2   -1    0    0  501    0  0.00000000000E+00  0.00000000000E+00  0.15225815099E+04  0.15225815099E+04  0.25500000920E-02 0. -1.
       -2   -1    0    0    0  501  0.00000000000E+00  0.00000000000E+00 -0.15638480168E+04  0.15638480168E+04  0.25500000920E-02 0.  1.
    10030    2    1    2    0    0  0.00000000000E+00  0.00000000000E+00 -0.41266506937E+02  0.30864295267E+04  0.30861536415E+04 0.  0.
        4    1    3    3  502    0 -0.10645079574E+04 -0.10467052648E+04 -0.41094414581E+03  0.15484333394E+04  0.12699999809E+01 0.  1.
       -4    1    3    3    0  502  0.10645079574E+04  0.10467052648E+04  0.36967763887E+03  0.15379961873E+04  0.12699999809E+01 0. -1.
</event>
<event>
 5   0  0.2624011E-06  0.3079660E+04  0.7818609E-02  0.8221342E-01
        1   -1    0    0  501    0  0.00000000000E+00  0.00000000000E+00  0.25178961355E+04  0.25178961355E+04  0.50400001928E-02 0.  1.
       -1   -1    0    0    0  501  0.00000000000E+00  0.00000000000E+00 -0.94168977584E+03  0.94168977586E+03  0.50400001928E-02 0. -1.
    10030    2    1    2    0    0  0.00000000000E+00  0.00000000000E+00  0.15762063597E+04  0.34595859114E+04  0.30796604017E+04 0.  0.
        1    1    3    3  502    0 -0.57896476577E+02 -0.23245646277E+03  0.24968345218E+04  0.25083003485E+04  0.50400001928E-02 0.  1.
       -1    1    3    3    0  502  0.57896476577E+02  0.23245646277E+03 -0.92062816215E+03  0.95128556283E+03  0.50400001928E-02 0. -1.
</event>
<event>
 5   0  0.7071012E-06  0.3397226E+04  0.7818609E-02  0.8138587E-01
       -2   -1    0    0    0  501  0.00000000000E+00  0.00000000000E+00  0.10935320022E+04  0.10935320022E+04  0.25500000920E-02 0. -1.
        2   -1    0    0  501    0  0.00000000000E+00  0.00000000000E+00 -0.26385023929E+04  0.26385023929E+04  0.25500000920E-02 0.  1.
    10030    2    1    2    0    0  0.00000000000E+00  0.00000000000E+00 -0.15449703908E+04  0.37320343951E+04  0.33972264007E+04 0.  0.
        1    1    3    3  502    0 -0.96058532902E+03  0.13980387474E+04 -0.87105115051E+03  0.19068210772E+04  0.50400001928E-02 0.  1.
       -1    1    3    3    0  502  0.96058532902E+03 -0.13980387474E+04 -0.67391924027E+03  0.18252133179E+04  0.50400001928E-02 0. -1.
</event>
<event>
 5   0  0.2674441E-06  0.3057976E+04  0.7818609E-02  0.8227366E-01
        1   -1    0    0  501    0  0.00000000000E+00  0.00000000000E+00  0.23688181726E+04  0.23688181726E+04  0.50400001928E-02 0.  1.
       -1   -1    0    0    0  501  0.00000000000E+00  0.00000000000E+00 -0.98690759998E+03  0.98690759999E+03  0.50400001928E-02 0. -1.
    10030    2    1    2    0    0  0.00000000000E+00  0.00000000000E+00  0.13819105727E+04  0.33557257726E+04  0.30579762311E+04 0.  0.
        5    1    3    3  502    0  0.86354224006E+03  0.77290253272E+02 -0.69107681627E+03  0.11087327178E+04  0.46999998093E+01 0. -1.
       -5    1    3    3    0  502 -0.86354224006E+03 -0.77290253272E+02  0.20729873889E+04  0.22469930548E+04  0.46999998093E+01 0.  1.
</event>
<event>
 5   0  0.2674441E-06  0.3183182E+04  0.7818609E-02  0.8193273E-01
        1   -1    0    0  501    0  0.00000000000E+00  0.00000000000E+00  0.11016996873E+04  0.11016996874E+04  0.50400001928E-02 0. -1.
       -1   -1    0    0    0  501  0.00000000000E+00  0.00000000000E+00 -0.22993221621E+04  0.22993221621E+04  0.50400001928E-02 0.  1.
    10030    2    1    2    0    0  0.00000000000E+00  0.00000000000E+00 -0.11976224747E+04  0.34010218494E+04  0.31831823743E+04 0.  0.
        5    1    3    3  502    0 -0.80154005169E+03 -0.29569900067E+03  0.83593202124E+03  0.11952860694E+04  0.46999998093E+01 0. -1.
       -5    1    3    3    0  502  0.80154005169E+03  0.29569900067E+03 -0.20335544959E+04  0.22057357801E+04  0.46999998093E+01 0.  1.
</event>
<event>
 5   0  0.2612331E-06  0.2263180E+04  0.7818609E-02  0.8492582E-01
       -1   -1    0    0    0  501  0.00000000000E+00  0.00000000000E+00  0.80634009130E+03  0.80634009132E+03  0.50400001928E-02 0.  1.
        1   -1    0    0  501    0  0.00000000000E+00  0.00000000000E+00 -0.15880346072E+04  0.15880346072E+04  0.50400001928E-02 0. -1.
    10030    2    1    2    0    0  0.00000000000E+00  0.00000000000E+00 -0.78169451588E+03  0.23943746985E+04  0.22631800372E+04 0.  0.
        4    1    3    3  502    0  0.95986459535E+03 -0.27971675374E+03 -0.95158374517E+03  0.13802516947E+04  0.12699999809E+01 0. -1.
       -4    1    3    3    0  502 -0.95986459535E+03  0.27971675374E+03  0.16988922929E+03  0.10141230038E+04  0.12699999809E+01 0.  1.
</event>
<event>
 5   0  0.2517725E-06  0.3112861E+04  0.7818609E-02  0.8212217E-01
       -1   -1    0    0    0  501  0.00000000000E+00  0.00000000000E+00  0.15659732827E+04  0.15659732827E+04  0.50400001928E-02 0. -1.
        1   -1    0    0  501    0  0.00000000000E+00  0.00000000000E+00 -0.15469457185E+04  0.15469457185E+04  0.50400001928E-02 0.  1.
    10030    2    1    2    0    0  0.00000000000E+00  0.00000000000E+00  0.19027564257E+02  0.31129190012E+04  0.31128608481E+04 0.  0.
        3    1    3    3  502    0 -0.95295502642E+03  0.33466300524E+03 -0.11747182230E+04  0.15492209407E+04  0.10100000352E+00 0.  1.
       -3    1    3    3    0  502  0.95295502642E+03 -0.33466300524E+03  0.11937457873E+04  0.15636980605E+04  0.10100000352E+00 0. -1.
</event>
<event>
 5   0  0.2517725E-06  0.3090748E+04  0.7818609E-02  0.8218282E-01
       -1   -1    0    0    0  501  0.00000000000E+00  0.00000000000E+00  0.16931027422E+04  0.16931027422E+04  0.50400001928E-02 0. -1.
        1   -1    0    0  501    0  0.00000000000E+00  0.00000000000E+00 -0.14105350197E+04  0.14105350197E+04  0.50400001928E-02 0.  1.
    10030    2    1    2    0    0  0.00000000000E+00  0.00000000000E+00  0.28256772254E+03  0.31036377619E+04  0.30907479417E+04 0.  0.
        3    1    3    3  502    0 -0.10713371241E+04  0.91168032828E+03 -0.50111565071E+03  0.14933322336E+04  0.10100000352E+00 0.  1.
       -3    1    3    3    0  502  0.10713371241E+04 -0.91168032828E+03  0.78368337326E+03  0.16103055282E+04  0.10100000352E+00 0. -1.
</event>
<event>
 5   0  0.2612331E-06  0.3157383E+04  0.7818609E-02  0.8200164E-01
        1   -1    0    0  501    0  0.00000000000E+00  0.00000000000E+00  0.13052112728E+04  0.13052112728E+04  0.50400001928E-02 0. -1.
       -1   -1    0    0    0  501  0.00000000000E+00  0.00000000000E+00 -0.19094739641E+04  0.19094739641E+04  0.50400001928E-02 0.  1.
    10030    2    1    2    0    0  0.00000000000E+00  0.00000000000E+00 -0.60426269126E+03  0.32146852369E+04  0.31573830576E+04 0.  0.
        4    1    3    3  502    0  0.13438528377E+04 -0.76048712591E+03 -0.63670467165E+03  0.16702321904E+04  0.12699999809E+01 0.  1.
       -4    1    3    3    0  502 -0.13438528377E+04  0.76048712591E+03  0.32441980389E+02  0.15444530465E+04  0.12699999809E+01 0. -1.
</event>
<event>
 5   0  0.2517725E-06  0.3105955E+04  0.7818609E-02  0.8214105E-01
       -1   -1    0    0    0  501  0.00000000000E+00  0.00000000000E+00  0.10634032941E+04  0.10634032941E+04  0.50400001928E-02 0.  1.
        1   -1    0    0  501    0  0.00000000000E+00  0.00000000000E+00 -0.22679443049E+04  0.22679443049E+04  0.50400001928E-02 0. -1.
    10030    2    1    2    0    0  0.00000000000E+00  0.00000000000E+00 -0.12045410108E+04  0.33313475991E+04  0.31059552120E+04 0.  0.
        3    1    3    3  502    0 -0.51932523882E+03 -0.47616991467E+03  0.88210404336E+03  0.11289570607E+04  0.10100000352E+00 0.  1.
       -3    1    3    3    0  502  0.51932523882E+03  0.47616991467E+03 -0.20866450542E+04  0.22023905384E+04  0.10100000352E+00 0. -1.
</event>
<event>
 5   0  0.2624011E-06  0.3137280E+04  0.7818609E-02  0.8205581E-01
        1   -1    0    0  501    0  0.00000000000E+00  0.00000000000E+00  0.16894993718E+04  0.16894993718E+04  0.50400001928E-02 0.  1.
       -1   -1    0    0    0  501  0.00000000000E+00  0.00000000000E+00 -0.14564263630E+04  0.14564263630E+04  0.50400001928E-02 0. -1.
    10030    2    1    2    0    0  0.00000000000E+00  0.00000000000E+00  0.23307300877E+03  0.31459257348E+04  0.31372799845E+04 0.  0.
        1    1    3    3  502    0  0.69184732656E+03  0.16168497908E+03  0.15189028456E+04  0.16768603431E+04  0.50400001928E-02 0.  1.
       -1    1    3    3    0  502 -0.69184732656E+03 -0.16168497908E+03 -0.12858298369E+04  0.14690653917E+04  0.50400001928E-02 0. -1.
</event>
<event>
 5   0  0.2674441E-06  0.2425922E+04  0.7818609E-02  0.8429862E-01
       -1   -1    0    0    0  501  0.00000000000E+00  0.00000000000E+00  0.91314824726E+03  0.91314824728E+03  0.50400001928E-02 0.  1.
        1   -1    0    0  501    0  0.00000000000E+00  0.00000000000E+00 -0.16112112781E+04  0.16112112781E+04  0.50400001928E-02 0. -1.
    10030    2    1    2    0    0  0.00000000000E+00  0.00000000000E+00 -0.69806303082E+03  0.25243595254E+04  0.24259223026E+04 0.  0.
        5    1    3    3  502    0  0.87877425128E+03  0.23184898341E+03  0.48684062748E+03  0.10310354128E+04  0.46999998093E+01 0.  1.
       -5    1    3    3    0  502 -0.87877425128E+03 -0.23184898341E+03 -0.11849036583E+04  0.14933241126E+04  0.46999998093E+01 0. -1.
</event>
<event>
 5   0  0.7094341E-06  0.2005825E+04  0.7818609E-02  0.8603902E-01
       -2   -1    0    0    0  501  0.00000000000E+00  0.00000000000E+00  0.12795888892E+04  0.12795888892E+04  0.25500000920E-02 0. -1.
        2   -1    0    0  501    0  0.00000000000E+00  0.00000000000E+00 -0.78605982424E+03  0.78605982424E+03  0.25500000920E-02 0.  1.
    10030    2    1    2    0    0  0.00000000000E+00  0.00000000000E+00  0.49352906498E+03  0.20656487135E+04  0.20058249349E+04 0.  0.
        3    1    3    3  502    0  0.53655572933E+03  0.75466074735E+03  0.64351925900E+03  0.11276178170E+04  0.10100000352E+00 0.  1.
       -3    1    3    3    0  502 -0.53655572933E+03 -0.75466074735E+03 -0.14999019401E+03  0.93803089649E+03  0.10100000352E+00 0. -1.
</event>
<event>
 5   0  0.7414808E-06  0.3196964E+04  0.7818609E-02  0.8189619E-01
       -2   -1    0    0    0  501  0.00000000000E+00  0.00000000000E+00  0.11122257377E+04  0.11122257377E+04  0.25500000920E-02 0.  1.
        2   -1    0    0  501    0  0.00000000000E+00  0.00000000000E+00 -0.22973255074E+04  0.22973255074E+04  0.25500000920E-02 0. -1.
    10030    2    1    2    0    0  0.00000000000E+00  0.00000000000E+00 -0.11850997697E+04  0.34095512450E+04  0.31969639079E+04 0.  0.
        2    1    3    3  502    0  0.92589206099E+03  0.43603776521E+03  0.71700181159E+03  0.12495985912E+04  0.25500000920E-02 0.  1.
       -2    1    3    3    0  502 -0.92589206099E+03 -0.43603776521E+03 -0.19021015813E+04  0.21599526538E+04  0.25500000920E-02 0. -1.
</event>
<event>
 5   0  0.2674441E-06  0.3113756E+04  0.7818609E-02  0.8211973E-01
        1   -1    0    0  501    0  0.00000000000E+00  0.00000000000E+00  0.19928543655E+04  0.19928543655E+04  0.50400001928E-02 0.  1.
       -1   -1    0    0    0  501  0.00000000000E+00  0.00000000000E+00 -0.12162800307E+04  0.12162800307E+04  0.50400001928E-02 0. -1.
    10030    2    1    2    0    0  0.00000000000E+00  0.00000000000E+00  0.77657433476E+03  0.32091343962E+04  0.31137559114E+04 0.  0.
        5    1    3    3  502    0 -0.57880022398E+03  0.47822975209E+03  0.17939313372E+04  0.19447172359E+04  0.46999998093E+01 0.  1.
       -5    1    3    3    0  502  0.57880022398E+03 -0.47822975209E+03 -0.10173570024E+04  0.12644171604E+04  0.46999998093E+01 0. -1.
</event>
<event>
 5   0  0.7094341E-06  0.3130520E+04  0.7818609E-02  0.8207412E-01
        2   -1    0    0  501    0  0.00000000000E+00  0.00000000000E+00  0.17499478927E+04  0.17499478927E+04  0.25500000920E-02 0.  1.
       -2   -1    0    0    0  501  0.00000000000E+00  0.00000000000E+00 -0.14000636468E+04  0.14000636468E+04  0.25500000920E-02 0. -1.
    10030    2    1    2    0    0  0.00000000000E+00  0.00000000000E+00  0.34988424588E+03  0.31500115395E+04  0.31305197193E+04 0.  0.
        3    1    3    3  502    0  0.21791131130E+03  0.13992420120E+04 -0.49604933975E+03  0.15004760929E+04  0.10100000352E+00 0. -1.
       -3    1    3    3    0  502 -0.21791131130E+03 -0.13992420120E+04  0.84593358563E+03  0.16495354465E+04  0.10100000352E+00 0.  1.
</event>
<event>
 5   0  0.7071012E-06  0.3094929E+04  0.7818609E-02  0.8217131E-01
        2   -1    0    0  501    0  0.00000000000E+00  0.00000000000E+00  0.29581786702E+04  0.29581786702E+04  0.25500000920E-02 0. -1.
       -2   -1    0    0    0  501  0.00000000000E+00  0.00000000000E+00 -0.80950028991E+03  0.80950028992E+03  0.25500000920E-02 0.  1.
    10030    2    1    2    0    0  0.00000000000E+00  0.00000000000E+00  0.21486783803E+04  0.37676789601E+04  0.30949290726E+04 0.  0.
        1    1    3    3  502    0  0.15435801459E+04  0.10096389038E+03  0.11261757425E+04  0.19134014678E+04  0.50400001928E-02 0. -1.
       -1    1    3    3    0  502 -0.15435801459E+04 -0.10096389038E+03  0.10225026378E+04  0.18542774923E+04  0.50400001928E-02 0.  1.
</event>
<event>
 5   0  0.7363513E-06  0.2930780E+04  0.7818609E-02  0.8263778E-01
       -2   -1    0    0    0  501  0.00000000000E+00  0.00000000000E+00  0.27285400188E+04  0.27285400188E+04  0.25500000920E-02 0.  1.
        2   -1    0    0  501    0  0.00000000000E+00  0.00000000000E+00 -0.78700239491E+03  0.78700239492E+03  0.25500000920E-02 0. -1.
    10030    2    1    2    0    0  0.00000000000E+00  0.00000000000E+00  0.19415376239E+04  0.35155424137E+04  0.29307797798E+04 0.  0.
        4    1    3    3  502    0 -0.42679060824E+03  0.10544182516E+03  0.26475727828E+04  0.26838240357E+04  0.12699999809E+01 0.  1.
       -4    1    3    3    0  502  0.42679060824E+03 -0.10544182516E+03 -0.70603515890E+03  0.83171837798E+03  0.12699999809E+01 0. -1.
</event>
<event>
 5   0  0.7414808E-06  0.3113876E+04  0.7818609E-02  0.8211940E-01
        2   -1    0    0  501    0  0.00000000000E+00  0.00000000000E+00  0.18673579794E+04  0.18673579794E+04  0.25500000920E-02 0. -1.
       -2   -1    0    0    0  501  0.00000000000E+00  0.00000000000E+00 -0.12981209706E+04  0.12981209706E+04  0.25500000920E-02 0.  1.
    10030    2    1    2    0    0  0.00000000000E+00  0.00000000000E+00  0.56923700873E+03  0.31654789500E+04  0.31138763962E+04 0.  0.
        2    1    3    3  502    0 -0.97392316501E+03  0.82360253168E+03 -0.62304355414E+03  0.14195177815E+04  0.25500000920E-02 0.  1.
       -2    1    3    3    0  502  0.97392316501E+03 -0.82360253168E+03  0.11922805629E+04  0.17459611686E+04  0.25500000920E-02 0. -1.
</event>
<event>
 5   0  0.2674441E-06  0.3164512E+04  0.7818609E-02  0.8198253E-01
       -1   -1    0    0    0  501  0.00000000000E+00  0.00000000000E+00  0.11435614231E+04  0.11435614232E+04  0.50400001928E-02 0. -1.
        1   -1    0    0  501    0  0.00000000000E+00  0.00000000000E+00 -0.21892436990E+04  0.21892436990E+04  0.50400001928E-02 0.  1.
    10030    2    1    2    0    0  0.00000000000E+00  0.00000000000E+00 -0.10456822759E+04  0.33328051222E+04  0.31645123732E+04 0.  0.
        5    1    3    3  502    0 -0.12305829587E+04 -0.30933763011E+03 -0.15183555967E+04  0.19787496041E+04  0.46999998093E+01 0.  1.
       -5    1    3    3    0  502  0.12305829587E+04  0.30933763011E+03  0.47267332084E+03  0.13540555181E+04  0.46999998093E+01 0. -1.
</event>
<event>
 5   0  0.7414808E-06  0.3093937E+04  0.7818609E-02  0.8217404E-01
        2   -1    0    0  501    0  0.00000000000E+00  0.00000000000E+00  0.16270510314E+04  0.16270510314E+04  0.25500000920E-02 0.  1.
       -2   -1    0    0    0  501  0.00000000000E+00  0.00000000000E+00 -0.14708275343E+04  0.14708275343E+04  0.25500000920E-02 0. -1.
    10030    2    1    2    0    0  0.00000000000E+00  0.00000000000E+00  0.15622349708E+03  0.30978785657E+04  0.30939369462E+04 0.  0.
        2    1    3    3  502    0  0.91959639084E+03 -0.80036716476E+03 -0.87539675726E+03  0.15008546242E+04  0.25500000920E-02 0. -1.
       -2    1    3    3    0  502 -0.91959639084E+03  0.80036716476E+03  0.10316202543E+04  0.15970239415E+04  0.25500000920E-02 0.  1.
</event>
<event>
 5   0  0.2674441E-06  0.3087066E+04  0.7818609E-02  0.8219297E-01
        1   -1    0    0  501    0  0.00000000000E+00  0.00000000000E+00  0.12235714384E+04  0.12235714384E+04  0.50400001928E-02 0. -1.
       -1   -1    0    0    0  501  0.00000000000E+00  0.00000000000E+00 -0.19471633015E+04  0.19471633016E+04  0.50400001928E-02 0.  1.
    10030    2    1    2    0    0  0.00000000000E+00  0.00000000000E+00 -0.72359186316E+03  0.31707347400E+04  0.30870655333E+04 0.  0.
        5    1    3    3  502    0  0.71122689764E+03 -0.45419768071E+03 -0.16892376822E+04  0.18883022189E+04  0.46999998093E+01 0.  1.
       -5    1    3    3    0  502 -0.71122689764E+03  0.45419768071E+03  0.96564581905E+03  0.12824325210E+04  0.46999998093E+01 0. -1.
</event>
<event>
 5   0  0.2598987E-06  0.2909370E+04  0.7818609E-02  0.8270095E-01
        1   -1    0    0  501    0  0.00000000000E+00  0.00000000000E+00  0.14906123381E+04  0.14906123381E+04  0.50400001928E-02 0. -1.
       -1   -1    0    0    0  501  0.00000000000E+00  0.00000000000E+00 -0.14196233258E+04  0.14196233258E+04  0.50400001928E-02 0.  1.
    10030    2    1    2    0    0  0.00000000000E+00  0.00000000000E+00  0.70989012341E+02  0.29102356639E+04  0.29093697221E+04 0.  0.
        2    1    3    3  502    0 -0.16661154964E+03  0.39672054845E+03  0.14254984892E+04  0.14890240242E+04  0.25500000920E-02 0. -1.
       -2    1    3    3    0  502  0.16661154964E+03 -0.39672054845E+03 -0.13545094768E+04  0.14212116397E+04  0.25500000920E-02 0.  1.
</event>
<event>
 5   0  0.2598987E-06  0.3027905E+04  0.7818609E-02  0.8235807E-01
        1   -1    0    0  501    0  0.00000000000E+00  0.00000000000E+00  0.25304034890E+04  0.25304034890E+04  0.50400001928E-02 0. -1.
       -1   -1    0    0    0  501  0.00000000000E+00  0.00000000000E+00 -0.90580505284E+03  0.90580505286E+03  0.50400001928E-02 0.  1.
    10030    2    1    2    0    0  0.00000000000E+00  0.00000000000E+00  0.16245984362E+04  0.34362085419E+04  0.30279050620E+04 0.  0.
        2    1    3    3  502    0 -0.70853242411E+02 -0.14523390265E+03  0.25205883785E+04  0.25257630218E+04  0.25500000920E-02 0. -1.
       -2    1    3    3    0  502  0.70853242411E+02  0.14523390265E+03 -0.89598994228E+03  0.91044552013E+03  0.25500000920E-02 0.  1.
</event>
<event>
 5   0  0.2612331E-06  0.3137660E+04  0.7818609E-02  0.8205478E-01
       -1   -1    0    0    0  501  0.00000000000E+00  0.00000000000E+00  0.90507881723E+03  0.90507881725E+03  0.50400001928E-02 0.  1.
        1   -1    0    0  501    0  0.00000000000E+00  0.00000000000E+00 -0.27193510895E+04  0.27193510895E+04  0.50400001928E-02 0. -1.
    10030    2    1    2    0    0  0.00000000000E+00  0.00000000000E+00 -0.18142722723E+04  0.36244299068E+04  0.31376596806E+04 0.  0.
        4    1    3    3  502    0  0.17265585121E+03  0.11643286142E+04 -0.21052288076E+04  0.24119413571E+04  0.12699999809E+01 0. -1.
       -4    1    3    3    0  502 -0.17265585121E+03 -0.11643286142E+04  0.29095653535E+03  0.12124885497E+04  0.12699999809E+01 0.  1.
</event>
<event>
 5   0  0.7071012E-06  0.2980280E+04  0.7818609E-02  0.8249384E-01
       -2   -1    0    0    0  501  0.00000000000E+00  0.00000000000E+00  0.12641103699E+04  0.12641103699E+04  0.25500000920E-02 0. -1.
        2   -1    0    0  501    0  0.00000000000E+00  0.00000000000E+00 -0.17565851608E+04  0.17565851608E+04  0.25500000920E-02 0.  1.
    10030    2    1    2    0    0  0.00000000000E+00  0.00000000000E+00 -0.49247479087E+03  0.30206955306E+04  0.29802801998E+04 0.  0.
        1    1    3    3  502    0 -0.17637855910E+03 -0.69534671899E+03  0.10775760120E+04  0.12945217331E+04  0.50400001928E-02 0. -1.
       -1    1    3    3    0  502  0.17637855910E+03  0.69534671899E+03 -0.15700508029E+04  0.17261737976E+04  0.50400001928E-02 0.  1.
</event>
<event>
 5   0  0.7363513E-06  0.3051693E+04  0.7818609E-02  0.8229122E-01
       -2   -1    0    0    0  501  0.00000000000E+00  0.00000000000E+00  0.94209853898E+03  0.94209853898E+03  0.25500000920E-02 0.  1.
        2   -1    0    0  501    0  0.00000000000E+00  0.00000000000E+00 -0.24712989294E+04  0.24712989294E+04  0.25500000920E-02 0. -1.
    10030    2    1    2    0    0  0.00000000000E+00  0.00000000000E+00 -0.15292003904E+04  0.34133974683E+04  0.30516927176E+04 0.  0.
        4    1    3    3  502    0  0.22630849948E+03 -0.14956059866E+04 -0.98873195617E+03  0.18071096531E+04  0.12699999809E+01 0.  1.
       -4    1    3    3    0  502 -0.22630849948E+03  0.14956059866E+04 -0.54046843421E+03  0.16062878153E+04  0.12699999809E+01 0. -1.
</event>
<event>
 5   0  0.2517725E-06  0.3057481E+04  0.7818609E-02  0.8227505E-01
       -1   -1    0    0    0  501  0.00000000000E+00  0.00000000000E+00  0.27944012890E+04  0.27944012890E+04  0.50400001928E-02 0.  1.
        1   -1    0    0  501    0  0.00000000000E+00  0.00000000000E+00 -0.83633209308E+03  0.83633209310E+03  0.50400001928E-02 0. -1.
    10030    2    1    2    0    0  0.00000000000E+00  0.00000000000E+00  0.19580691959E+04  0.36307333821E+04  0.30574809755E+04 0.  0.
        3    1    3    3  502    0 -0.13300252443E+04  0.74015344205E+03  0.81003820882E+03  0.17242262549E+04  0.10100000352E+00 0.  1.
       -3    1    3    3    0  502  0.13300252443E+04 -0.74015344205E+03  0.11480309870E+04  0.19065071271E+04  0.10100000352E+00 0. -1.
</event>
<event>
 5   0  0.7094341E-06  0.3175130E+04  0.7818609E-02  0.8195416E-01
       -2   -1    0    0    0  501  0.00000000000E+00  0.00000000000E+00  0.87811914979E+03  0.87811914979E+03  0.25500000920E-02 0. -1.
        2   -1    0    0  501    0  0.00000000000E+00  0.00000000000E+00 -0.28701822831E+04  0.28701822831E+04  0.25500000920E-02 0.  1.
    10030    2    1    2    0    0  0.00000000000E+00  0.00000000000E+00 -0.19920631333E+04  0.37483014328E+04  0.31751296201E+04 0.  0.
        3    1    3    3  502    0 -0.37083426487E+03 -0.10368267737E+04 -0.23460801435E+04  0.25916442388E+04  0.10100000352E+00 0.  1.
       -3    1    3    3    0  502  0.37083426487E+03  0.10368267737E+04  0.35401701023E+03  0.11566571940E+04  0.10100000352E+00 0. -1.
</event>
<event>
 5   0  0.2517725E-06  0.3083873E+04  0.7818609E-02  0.8220178E-01
        1   -1    0    0  501    0  0.00000000000E+00  0.00000000000E+00  0.17090377763E+04  0.17090377763E+04  0.50400001928E-02 0. -1.
       -1   -1    0    0    0  501  0.00000000000E+00  0.00000000000E+00 -0.13911735709E+04  0.13911735709E+04  0.50400001928E-02 0.  1.
    10030    2    1    2    0    0  0.00000000000E+00  0.00000000000E+00  0.31786420540E+03  0.31002113471E+04  0.30838730103E+04 0.  0.
        3    1    3    3  502    0 -0.25950902854E+03 -0.67917971000E+03  0.15258927388E+04  0.16902599430E+04  0.10100000352E+00 0. -1.
       -3    1    3    3    0  502  0.25950902854E+03  0.67917971000E+03 -0.12080285334E+04  0.14099514041E+04  0.10100000352E+00 0.  1.
</event>
<event>
 5   0  0.2598987E-06  0.3002377E+04  0.7818609E-02  0.8243053E-01
       -1   -1    0    0    0  501  0.00000000000E+00  0.00000000000E+00  0.21114494220E+04  0.21114494220E+04  0.50400001928E-02 0. -1.
        1   -1    0    0  501    0  0.00000000000E+00  0.00000000000E+00 -0.10673077286E+04  0.10673077286E+04  0.50400001928E-02 0.  1.
    10030    2    1    2    0    0  0.00000000000E+00  0.00000000000E+00  0.10441416934E+04  0.31787571506E+04  0.30023765831E+04 0.  0.
        2    1    3    3  502    0  0.81857260319E+03 -0.53819636788E+03  0.17263692923E+04  0.19849602944E+04  0.25500000920E-02 0. -1.
       -2    1    3    3    0  502 -0.81857260319E+03  0.53819636788E+03 -0.68222759890E+03  0.11937968562E+04  0.25500000920E-02 0.  1.
</event>
<event>
 5   0  0.7414808E-06  0.2994404E+04  0.7818609E-02  0.8245331E-01
       -2   -1    0    0    0  501  0.00000000000E+00  0.00000000000E+00  0.10289490564E+04  0.10289490564E+04  0.25500000920E-02 0.  1.
        2   -1    0    0  501    0  0.00000000000E+00  0.00000000000E+00 -0.21785467108E+04  0.21785467108E+04  0.25500000920E-02 0. -1.
    10030    2    1    2    0    0  0.00000000000E+00  0.00000000000E+00 -0.11495976544E+04  0.32074957671E+04  0.29944038354E+04 0.  0.
        2    1    3    3  502    0  0.95201712488E+03  0.33981741875E+03  0.60824335930E+03  0.11797340668E+04  0.25500000920E-02 0.  1.
       -2    1    3    3    0  502 -0.95201712488E+03 -0.33981741875E+03 -0.17578410137E+04  0.20277617004E+04  0.25500000920E-02 0. -1.
</event>
<event>
 5   0  0.2674441E-06  0.3132304E+04  0.7818609E-02  0.8206928E-01
       -1   -1    0    0    0  501  0.00000000000E+00  0.00000000000E+00  0.14223577681E+04  0.14223577681E+04  0.50400001928E-02 0.  1.
        1   -1    0    0  501    0  0.00000000000E+00  0.00000000000E+00 -0.17244829295E+04  0.17244829295E+04  0.50400001928E-02 0. -1.
    10030    2    1    2    0    0  0.00000000000E+00  0.00000000000E+00 -0.30212516148E+03  0.31468406976E+04  0.31323037469E+04 0.  0.
        5    1    3    3  502    0  0.92386640700E+03  0.73923508792E+03 -0.11818907800E+04  0.16723891769E+04  0.46999998093E+01 0. -1.
       -5    1    3    3    0  502 -0.92386640700E+03 -0.73923508792E+03  0.87976561856E+03  0.14744515207E+04  0.46999998093E+01 0.  1.
</event>
<event>
 5   0  0.2624011E-06  0.2850326E+04  0.7818609E-02  0.8287812E-01
        1   -1    0    0  501    0  0.00000000000E+00  0.00000000000E+00  0.14831698814E+04  0.14831698814E+04  0.50400001928E-02 0.  1.
       -1   -1    0    0    0  501  0.00000000000E+00  0.00000000000E+00 -0.13694247921E+04  0.13694247921E+04  0.50400001928E-02 0. -1.
    10030    2    1    2    0    0  0.00000000000E+00  0.00000000000E+00  0.11374508932E+03  0.28525946734E+04  0.28503260209E+04 0.  0.
        1    1    3    3  502    0 -0.55344315280E+03  0.58979547003E+03 -0.11174887004E+04  0.13794705562E+04  0.50400001928E-02 0. -1.
       -1    1    3    3    0  502  0.55344315280E+03 -0.58979547003E+03  0.12312337897E+04  0.14731241173E+04  0.50400001928E-02 0.  1.
</event>
<event>
 5   0  0.7363513E-06  0.3321462E+04  0.7818609E-02  0.8157456E-01
        2   -1    0    0  501    0  0.00000000000E+00  0.00000000000E+00  0.23210351575E+04  0.23210351575E+04  0.25500000920E-02 0.  1.
       -2   -1    0    0    0  501  0.00000000000E+00  0.00000000000E+00 -0.11882749971E+04  0.11882749971E+04  0.25500000920E-02 0. -1.
    10030    2    1    2    0    0  0.00000000000E+00  0.00000000000E+00  0.11327601605E+04  0.35093101546E+04  0.33214623556E+04 0.  0.
        4    1    3    3  502    0  0.48166346855E+03 -0.15476665785E+04  0.94843113193E+03  0.18779762406E+04  0.12699999809E+01 0.  1.
       -4    1    3    3    0  502 -0.48166346855E+03  0.15476665785E+04  0.18432902853E+03  0.16313339140E+04  0.12699999809E+01 0. -1.
</event>
<event>
 5   0  0.2624011E-06  0.3064148E+04  0.7818609E-02  0.8225647E-01
        1   -1    0    0  501    0  0.00000000000E+00  0.00000000000E+00  0.10050997208E+04  0.10050997209E+04  0.50400001928E-02 0.  1.
       -1   -1    0    0    0  501  0.00000000000E+00  0.00000000000E+00 -0.23353405432E+04  0.23353405432E+04  0.50400001928E-02 0. -1.
    10030    2    1    2    0    0  0.00000000000E+00  0.00000000000E+00 -0.13302408224E+04  0.33404402641E+04  0.30641475996E+04 0.  0.
        1    1    3    3  502    0  0.69542330798E+03  0.96684846065E+03  0.38554545873E+03  0.12518206037E+04  0.50400001928E-02 0.  1.
       -1    1    3    3    0  502 -0.69542330798E+03 -0.96684846065E+03 -0.17157862811E+04  0.20886196604E+04  0.50400001928E-02 0. -1.
</event>
<event>
 5   0  0.7363513E-06  0.3098838E+04  0.7818609E-02  0.8216057E-01
        2   -1    0    0  501    0  0.00000000000E+00  0.00000000000E+00  0.11688202253E+04  0.11688202253E+04  0.25500000920E-02 0. -1.
       -2   -1    0    0    0  501  0.00000000000E+00  0.00000000000E+00 -0.20539510387E+04  0.20539510387E+04  0.25500000920E-02 0.  1.
    10030    2    1    2    0    0  0.00000000000E+00  0.00000000000E+00 -0.88513081340E+03  0.32227712640E+04  0.30988381796E+04 0.  0.
        4    1    3    3  502    0  0.10271308190E+04  0.11213621508E+04 -0.13362064845E+03  0.15265342719E+04  0.12699999809E+01 0. -1.
       -4    1    3    3    0  502 -0.10271308190E+04 -0.11213621508E+04 -0.75151016495E+03  0.16962369921E+04  0.12699999809E+01 0.  1.
</event>
<event>
 5   0  0.7079223E-06  0.3159574E+04  0.7818609E-02  0.8199576E-01
        2   -1    0    0  501    0  0.00000000000E+00  0.00000000000E+00  0.22299005588E+04  0.22299005588E+04  0.25500000920E-02 0. -1.
       -2   -1    0    0    0  501  0.00000000000E+00  0.00000000000E+00 -0.11192098206E+04  0.11192098206E+04  0.25500000920E-02 0.  1.
    10030    2    1    2    0    0  0.00000000000E+00  0.00000000000E+00  0.11106907382E+04  0.33491103794E+04  0.31595737715E+04 0.  0.
        5    1    3    3  502    0  0.87342226291E+03  0.53704311948E+03  0.18292828686E+04  0.20970406923E+04  0.46999998093E+01 0. -1.
       -5    1    3    3    0  502 -0.87342226291E+03 -0.53704311948E+03 -0.71859213040E+03  0.12520696871E+04  0.46999998093E+01 0.  1.
</event>
<event>
 5   0  0.2612331E-06  0.3030121E+04  0.7818609E-02  0.8235182E-01
       -1   -1    0    0    0  501  0.00000000000E+00  0.00000000000E+00  0.83224438544E+03  0.83224438546E+03  0.50400001928E-02 0. -1.
        1   -1    0    0  501    0  0.00000000000E+00  0.00000000000E+00 -0.27580942168E+04  0.27580942168E+04  0.50400001928E-02 0.  1.
    10030    2    1    2    0    0  0.00000000000E+00  0.00000000000E+00 -0.19258498314E+04  0.35903386023E+04  0.30301210712E+04 0.  0.
        4    1    3    3  502    0  0.91488127384E+03 -0.69292348396E+03 -0.21348550253E+04  0.24237900676E+04  0.12699999809E+01 0.  1.
       -4    1    3    3    0  502 -0.91488127384E+03  0.69292348396E+03  0.20900519391E+03  0.11665485347E+04  0.12699999809E+01 0. -1.
</event>
<event>
 5   0  0.7079223E-06  0.3104331E+04  0.7818609E-02  0.8214550E-01
        2   -1    0    0  501    0  0.00000000000E+00  0.00000000000E+00  0.16603640794E+04  0.16603640794E+04  0.25500000920E-02 0.  1.
       -2   -1    0    0    0  501  0.00000000000E+00  0.00000000000E+00 -0.14510174004E+04  0.14510174004E+04  0.25500000920E-02 0. -1.
    10030    2    1    2    0    0  0.00000000000E+00  0.00000000000E+00  0.20934667895E+03  0.31113814798E+04  0.31043306333E+04 0.  0.
        5    1    3    3  502    0  0.71562392482E+03  0.73947203553E+03 -0.10599721947E+04  0.14773285473E+04  0.46999998093E+01 0. -1.
       -5    1    3    3    0  502 -0.71562392482E+03 -0.73947203553E+03  0.12693188737E+04  0.16340529325E+04  0.46999998093E+01 0.  1.
</event>
<event>
 5   0  0.2598987E-06  0.3104033E+04  0.7818609E-02  0.8214632E-01
       -1   -1    0    0    0  501  0.00000000000E+00  0.00000000000E+00  0.11671111298E+04  0.11671111298E+04  0.50400001928E-02 0.  1.
        1   -1    0    0  501    0  0.00000000000E+00  0.00000000000E+00 -0.20638612542E+04  0.20638612542E+04  0.50400001928E-02 0. -1.
    10030    2    1    2    0    0  0.00000000000E+00  0.00000000000E+00 -0.89675012443E+03  0.32309723840E+04  0.31040331442E+04 0.  0.
        2    1    3    3  502    0  0.90575817016E+03 -0.90095157486E+03  0.46893856707E+03  0.13608875717E+04  0.25500000920E-02 0.  1.
       -2    1    3    3    0  502 -0.90575817016E+03  0.90095157486E+03 -0.13656886915E+04  0.18700848123E+04  0.25500000920E-02 0. -1.
</event>
<event>
 5   0  0.7414808E-06  0.3117680E+04  0.7818609E-02  0.8210902E-01
        2   -1    0    0  501    0  0.00000000000E+00  0.00000000000E+00  0.18961666706E+04  0.18961666706E+04  0.25500000920E-02 0.  1.
       -2   -1    0    0    0  501  0.00000000000E+00  0.00000000000E+00 -0.12815237228E+04  0.12815237228E+04  0.25500000920E-02 0. -1.
    10030    2    1    2    0    0  0.00000000000E+00  0.00000000000E+00  0.61464294784E+03  0.31776903934E+04  0.31176802727E+04 0.  0.
        2    1    3    3  502    0  0.14120091321E+04  0.31480882540E+03 -0.28446448253E+03  0.14743793363E+04  0.25500000920E-02 0. -1.
       -2    1    3    3    0  502 -0.14120091321E+04 -0.31480882540E+03  0.89910743037E+03  0.17033110570E+04  0.25500000920E-02 0.  1.
</event>
<event>
 5   0  0.2517725E-06  0.1935894E+04  0.7818609E-02  0.8637193E-01
        1   -1    0    0  501    0  0.00000000000E+00  0.00000000000E+00  0.11038733516E+04  0.11038733516E+04  0.50400001928E-02 0. -1.
       -1   -1    0    0    0  501  0.00000000000E+00  0.00000000000E+00 -0.84875830738E+03  0.84875830739E+03  0.50400001928E-02 0.  1.
    10030    2    1    2    0    0  0.00000000000E+00  0.00000000000E+00  0.25511504422E+03  0.19526316590E+04  0.19358942920E+04 0.  0.
        3    1    3    3  502    0 -0.46958684284E+03 -0.48158429230E+02  0.97990239758E+03  0.10876763104E+04  0.10100000352E+00 0. -1.
       -3    1    3    3    0  502  0.46958684284E+03  0.48158429230E+02 -0.72478735335E+03  0.86495534859E+03  0.10100000352E+00 0.  1.
</event>
</LesHouchesEvents>
